<event>
 8    1  0.1126407E+005  0.1043930E+01  0.7957747E-01            NaN
         13   -1    0    0    0    0  0.00000000000E+00  0.00000000000E+00  0.74505805969E-08  0.10566000000E+00  0.10566000000E+00 0.  1.
     999900   -1    0    0    0    0 -0.00000000000E+00 -0.00000000000E+00 -0.74505805969E-08  0.93827000000E+00  0.93827000000E+00 0.  1.
     999902    2    1    2    0    0 -0.19502305372E-02  0.10086168072E-01  0.22316124037E-01  0.10193628761E+01  0.10190667935E+01 0.  0.
     999903    2    3    3    0    0 -0.84623639396E-01 -0.92111906227E-01  0.28967125216E-01  0.12957437608E+00  0.17454540370E-01 0.  0.
         14    1    1    2    0    0  0.19502305372E-02 -0.10086168072E-01 -0.22316124037E-01  0.24567123917E-01  0.00000000000E+00 0. -1.
     999901    1    3    3    0    0  0.82673408859E-01  0.10219807430E+00 -0.66510011788E-02  0.88978850000E+00  0.88000000000E+00 0.  1.
        -11    1    4    4    0    0 -0.32744022282E-01 -0.24958901246E-01  0.13379888213E-01  0.43294344621E-01  0.51100000000E-03 0. -1.
         11    1    4    4    0    0 -0.51879617114E-01 -0.67153004981E-01  0.15587237003E-01  0.86280031458E-01  0.51100000000E-03 0.  1.
</event>
<event>
 8    1  0.1126407E+005  0.1043930E+01  0.7957747E-01            NaN
         13   -1    0    0    0    0  0.00000000000E+00  0.00000000000E+00  0.74505805969E-08  0.10566000000E+00  0.10566000000E+00 0.  1.
     999900   -1    0    0    0    0 -0.00000000000E+00 -0.00000000000E+00 -0.74505805969E-08  0.93827000000E+00  0.93827000000E+00 0. -1.
     999902    2    1    2    0    0  0.11601127682E-01  0.51530829355E-02  0.21568756801E-01  0.10189029807E+01  0.10185955686E+01 0.  0.
     999903    2    3    3    0    0 -0.65662879679E-01  0.10394924095E+00  0.36694237502E-01  0.12988150294E+00  0.20141481529E-01 0.  0.
         14    1    1    2    0    0 -0.11601127682E-01 -0.51530829355E-02 -0.21568756801E-01  0.25027019342E-01  0.00000000000E+00 0. -1.
     999901    1    3    3    0    0  0.77264007361E-01 -0.98796158018E-01 -0.15125480701E-01  0.88902147772E+00  0.88000000000E+00 0. -1.
        -11    1    4    4    0    0 -0.46983154457E-01  0.57398261906E-01  0.17828846109E-01  0.76289620180E-01  0.51100000000E-03 0. -1.
         11    1    4    4    0    0 -0.18679725222E-01  0.46550979047E-01  0.18865391393E-01  0.53591882763E-01  0.51100000000E-03 0.  1.
</event>
<event>
 8    1  0.1126407E+005  0.1043930E+01  0.7957747E-01            NaN
         13   -1    0    0    0    0  0.00000000000E+00  0.00000000000E+00  0.74505805969E-08  0.10566000000E+00  0.10566000000E+00 0. -1.
     999900   -1    0    0    0    0 -0.00000000000E+00 -0.00000000000E+00 -0.74505805969E-08  0.93827000000E+00  0.93827000000E+00 0.  1.
     999902    2    1    2    0    0  0.99854908102E-02 -0.14840685991E-01  0.17151715851E-01  0.10191482054E+01  0.10188468615E+01 0.  0.
     999903    2    3    3    0    0  0.82102770973E-02  0.52268684494E-01  0.11793909054E+00  0.13085494645E+00  0.20346102892E-01 0.  0.
         14    1    1    2    0    0 -0.99854908102E-02  0.14840685991E-01 -0.17151715851E-01  0.24781794609E-01  0.00000000000E+00 0. -1.
     999901    1    3    3    0    0  0.17752137130E-02 -0.67109370485E-01 -0.10078737469E+00  0.88829325895E+00  0.88000000000E+00 0.  1.
        -11    1    4    4    0    0  0.54137162224E-04  0.19836949057E-01  0.24008907210E-01  0.31147973050E-01  0.51100000000E-03 0. -1.
         11    1    4    4    0    0  0.81561399351E-02  0.32431735437E-01  0.93930183331E-01  0.99706973395E-01  0.51100000000E-03 0.  1.
</event>
<event>
 8    1  0.1126407E+005  0.1043930E+01  0.7957747E-01            NaN
         13   -1    0    0    0    0  0.00000000000E+00  0.00000000000E+00  0.74505805969E-08  0.10566000000E+00  0.10566000000E+00 0.  1.
     999900   -1    0    0    0    0 -0.00000000000E+00 -0.00000000000E+00 -0.74505805969E-08  0.93827000000E+00  0.93827000000E+00 0.  1.
     999902    2    1    2    0    0 -0.85124787630E-02  0.19966965541E-01  0.10246014849E-01  0.10199274412E+01  0.10196449689E+01 0.  0.
     999903    2    3    3    0    0 -0.73731988840E-01 -0.10334029425E+00 -0.59878849138E-02  0.12879231998E+00  0.20880237663E-01 0.  0.
         14    1    1    2    0    0  0.85124787630E-02 -0.19966965541E-01 -0.10246014849E-01  0.24002558778E-01  0.00000000000E+00 0. -1.
     999901    1    3    3    0    0  0.65219510077E-01  0.12330725979E+00  0.16233899763E-01  0.89113512124E+00  0.88000000000E+00 0.  1.
        -11    1    4    4    0    0 -0.52865130026E-01 -0.67973474403E-01 -0.13133292835E-01  0.87108321628E-01  0.51100000000E-03 0.  1.
         11    1    4    4    0    0 -0.20866858813E-01 -0.35366819851E-01  0.71454079215E-02  0.41683998350E-01  0.51100000000E-03 0. -1.
</event>
<event>
 8    1  0.1126407E+005  0.1043930E+01  0.7957747E-01            NaN
         13   -1    0    0    0    0  0.00000000000E+00  0.00000000000E+00  0.74505805969E-08  0.10566000000E+00  0.10566000000E+00 0.  1.
     999900   -1    0    0    0    0 -0.00000000000E+00 -0.00000000000E+00 -0.74505805969E-08  0.93827000000E+00  0.93827000000E+00 0. -1.
     999902    2    1    2    0    0 -0.10665353219E-02 -0.15296380330E-01  0.18346276945E-01  0.10200196962E+01  0.10197394167E+01 0.  0.
     999903    2    3    3    0    0 -0.36456513120E-01  0.47356042774E-01 -0.11107159350E+00  0.12764827028E+00  0.19634405678E-01 0.  0.
         14    1    1    2    0    0  0.10665353219E-02  0.15296380330E-01 -0.18346276945E-01  0.23910303774E-01  0.00000000000E+00 0. -1.
     999901    1    3    3    0    0  0.35389977798E-01 -0.62652423105E-01  0.12941787045E+00  0.89237142594E+00  0.88000000000E+00 0.  1.
        -11    1    4    4    0    0 -0.14281507443E-01  0.29575994073E-01 -0.73740845549E-01  0.80725920889E-01  0.51100000000E-03 0.  1.
         11    1    4    4    0    0 -0.22175005677E-01  0.17780048702E-01 -0.37330747956E-01  0.46922349393E-01  0.51100000000E-03 0. -1.
</event>
<event>
 8    1  0.1126407E+005  0.1043930E+01  0.7957747E-01            NaN
         13   -1    0    0    0    0  0.00000000000E+00  0.00000000000E+00  0.74505805969E-08  0.10566000000E+00  0.10566000000E+00 0.  1.
     999900   -1    0    0    0    0 -0.00000000000E+00 -0.00000000000E+00 -0.74505805969E-08  0.93827000000E+00  0.93827000000E+00 0. -1.
     999902    2    1    2    0    0  0.41008793403E-02  0.31247508421E-02  0.21529268889E-01  0.10217920078E+01  0.10215521605E+01 0.  0.
     999903    2    3    3    0    0  0.67461952409E-01 -0.93987254991E-01 -0.57293409391E-01  0.13069247248E+00  0.20329005875E-01 0.  0.
         14    1    1    2    0    0 -0.41008793403E-02 -0.31247508421E-02 -0.21529268889E-01  0.22137992187E-01  0.00000000000E+00 0. -1.
     999901    1    3    3    0    0 -0.63361073069E-01  0.97112005833E-01  0.78822678280E-01  0.89109953533E+00  0.88000000000E+00 0.  1.
        -11    1    4    4    0    0  0.27614584484E-01 -0.23146369968E-01 -0.14594290324E-01  0.38878967964E-01  0.51100000000E-03 0. -1.
         11    1    4    4    0    0  0.39847367925E-01 -0.70840885023E-01 -0.42699119068E-01  0.91813504516E-01  0.51100000000E-03 0.  1.
</event>
<event>
 8    1  0.1126407E+005  0.1043930E+01  0.7957747E-01            NaN
         13   -1    0    0    0    0  0.00000000000E+00  0.00000000000E+00  0.74505805969E-08  0.10566000000E+00  0.10566000000E+00 0. -1.
     999900   -1    0    0    0    0 -0.00000000000E+00 -0.00000000000E+00 -0.74505805969E-08  0.93827000000E+00  0.93827000000E+00 0. -1.
     999902    2    1    2    0    0  0.79677536418E-02 -0.20168394367E-01  0.12260961430E-01  0.10190185487E+01  0.10187140041E+01 0.  0.
     999903    2    3    3    0    0 -0.35268793766E-01 -0.63064383252E-01  0.10820864176E+00  0.13171058513E+00  0.20434378773E-01 0.  0.
         14    1    1    2    0    0 -0.79677536418E-02  0.20168394367E-01 -0.12260961430E-01  0.24911451274E-01  0.00000000000E+00 0. -1.
     999901    1    3    3    0    0  0.43236547407E-01  0.42895988885E-01 -0.95947680331E-01  0.88730796359E+00  0.88000000000E+00 0. -1.
        -11    1    4    4    0    0 -0.27789969144E-01 -0.29792170697E-01  0.64108731277E-01  0.75960821262E-01  0.51100000000E-03 0. -1.
         11    1    4    4    0    0 -0.74788246215E-02 -0.33272212555E-01  0.44099910484E-01  0.55749763871E-01  0.51100000000E-03 0.  1.
</event>
<event>
 8    1  0.1126407E+005  0.1043930E+01  0.7957747E-01            NaN
         13   -1    0    0    0    0  0.00000000000E+00  0.00000000000E+00  0.74505805969E-08  0.10566000000E+00  0.10566000000E+00 0.  1.
     999900   -1    0    0    0    0 -0.00000000000E+00 -0.00000000000E+00 -0.74505805969E-08  0.93827000000E+00  0.93827000000E+00 0.  1.
     999902    2    1    2    0    0 -0.15641993621E-01 -0.17188281359E-01  0.40778652551E-02  0.10203347046E+01  0.10200618469E+01 0.  0.
     999903    2    3    3    0    0 -0.32834880506E-02  0.46985745496E-01 -0.11911905858E+00  0.12935293125E+00  0.18010805972E-01 0.  0.
         14    1    1    2    0    0  0.15641993621E-01  0.17188281359E-01 -0.40778652551E-02  0.23595295412E-01  0.00000000000E+00 0.  1.
     999901    1    3    3    0    0 -0.12358505570E-01 -0.64174026856E-01  0.12319692384E+00  0.89098177334E+00  0.88000000000E+00 0. -1.
        -11    1    4    4    0    0  0.66584983598E-02  0.11150474237E-01 -0.25623302703E-01  0.28731227584E-01  0.51100000000E-03 0. -1.
         11    1    4    4    0    0 -0.99419864104E-02  0.35835271260E-01 -0.93495755877E-01  0.10062170366E+00  0.51100000000E-03 0.  1.
</event>
<event>
 8    1  0.1126407E+005  0.1043930E+01  0.7957747E-01            NaN
         13   -1    0    0    0    0  0.00000000000E+00  0.00000000000E+00  0.74505805969E-08  0.10566000000E+00  0.10566000000E+00 0.  1.
     999900   -1    0    0    0    0 -0.00000000000E+00 -0.00000000000E+00 -0.74505805969E-08  0.93827000000E+00  0.93827000000E+00 0.  1.
     999902    2    1    2    0    0  0.21212726050E-01 -0.14077770040E-03 -0.11366435721E-02  0.10226863769E+01  0.10224657128E+01 0.  0.
     999903    2    3    3    0    0 -0.85761935515E-01  0.83170679140E-01 -0.49882799312E-01  0.13096861617E+00  0.19799325809E-01 0.  0.
         14    1    1    2    0    0 -0.21212726050E-01  0.14077770040E-03  0.11366435721E-02  0.21243623124E-01  0.00000000000E+00 0.  1.
     999901    1    3    3    0    0  0.10697466156E+00 -0.83311456841E-01  0.48746155740E-01  0.89171776071E+00  0.88000000000E+00 0. -1.
        -11    1    4    4    0    0 -0.34982603328E-01  0.46234476713E-01 -0.19175875867E-01  0.61068688448E-01  0.51100000000E-03 0.  1.
         11    1    4    4    0    0 -0.50779332187E-01  0.36936202427E-01 -0.30706923445E-01  0.69899927722E-01  0.51100000000E-03 0. -1.
</event>
<event>
 8    1  0.1126407E+005  0.1043930E+01  0.7957747E-01            NaN
         13   -1    0    0    0    0  0.00000000000E+00  0.00000000000E+00  0.74505805969E-08  0.10566000000E+00  0.10566000000E+00 0.  1.
     999900   -1    0    0    0    0 -0.00000000000E+00 -0.00000000000E+00 -0.74505805969E-08  0.93827000000E+00  0.93827000000E+00 0. -1.
     999902    2    1    2    0    0 -0.21077289877E-01  0.97231139220E-02 -0.32269238502E-02  0.10204948953E+01  0.10202257727E+01 0.  0.
     999903    2    3    3    0    0 -0.92363287182E-01  0.49209144753E-01  0.79547335414E-01  0.13286185290E+00  0.19286695852E-01 0.  0.
         14    1    1    2    0    0  0.21077289877E-01 -0.97231139220E-02  0.32269238502E-02  0.23435104660E-01  0.00000000000E+00 0. -1.
     999901    1    3    3    0    0  0.71285997305E-01 -0.39486030831E-01 -0.82774259264E-01  0.88763304244E+00  0.88000000000E+00 0. -1.
        -11    1    4    4    0    0 -0.50828654847E-01  0.32944479460E-01  0.55646527763E-01  0.82253802669E-01  0.51100000000E-03 0. -1.
         11    1    4    4    0    0 -0.41534632336E-01  0.16264665294E-01  0.23900807650E-01  0.50608050226E-01  0.51100000000E-03 0.  1.
</event>
<event>
 8    1  0.1126407E+005  0.1043930E+01  0.7957747E-01            NaN
         13   -1    0    0    0    0  0.00000000000E+00  0.00000000000E+00  0.74505805969E-08  0.10566000000E+00  0.10566000000E+00 0. -1.
     999900   -1    0    0    0    0 -0.00000000000E+00 -0.00000000000E+00 -0.74505805969E-08  0.93827000000E+00  0.93827000000E+00 0.  1.
     999902    2    1    2    0    0 -0.42066216685E-02  0.16595002420E-01  0.15971154918E-01  0.10205170215E+01  0.10202484127E+01 0.  0.
     999903    2    3    3    0    0 -0.11313063244E+00  0.62754674585E-01 -0.16847148123E-01  0.13199454210E+00  0.20051024033E-01 0.  0.
         14    1    1    2    0    0  0.42066216685E-02 -0.16595002420E-01 -0.15971154918E-01  0.23412978464E-01  0.00000000000E+00 0.  1.
     999901    1    3    3    0    0  0.10892401077E+00 -0.46159672165E-01  0.32818303040E-01  0.88852247944E+00  0.88000000000E+00 0. -1.
        -11    1    4    4    0    0 -0.11666334671E-01  0.13974829809E-01 -0.43256533203E-02  0.18718216542E-01  0.51100000000E-03 0. -1.
         11    1    4    4    0    0 -0.10146429777E+00  0.48779844776E-01 -0.12521494802E-01  0.11327632555E+00  0.51100000000E-03 0.  1.
</event>
<event>
 8    1  0.1126407E+005  0.1043930E+01  0.7957747E-01            NaN
         13   -1    0    0    0    0  0.00000000000E+00  0.00000000000E+00  0.74505805969E-08  0.10566000000E+00  0.10566000000E+00 0. -1.
     999900   -1    0    0    0    0 -0.00000000000E+00 -0.00000000000E+00 -0.74505805969E-08  0.93827000000E+00  0.93827000000E+00 0.  1.
     999902    2    1    2    0    0 -0.28013498543E-02 -0.19004130920E-01 -0.12922548114E-01  0.10207783952E+01  0.10205158183E+01 0.  0.
     999903    2    3    3    0    0  0.81601433718E-01 -0.75729663036E-01  0.67054287296E-01  0.13131905943E+00  0.18831942963E-01 0.  0.
         14    1    1    2    0    0  0.28013498543E-02  0.19004130920E-01  0.12922548114E-01  0.23151604756E-01  0.00000000000E+00 0. -1.
     999901    1    3    3    0    0 -0.84402783572E-01  0.56725532116E-01 -0.79976835410E-01  0.88945933582E+00  0.88000000000E+00 0.  1.
        -11    1    4    4    0    0  0.14709370326E-01 -0.19162080201E-01  0.71756524546E-02  0.25205197920E-01  0.51100000000E-03 0.  1.
         11    1    4    4    0    0  0.66892063392E-01 -0.56567582835E-01  0.59878634841E-01  0.10611386151E+00  0.51100000000E-03 0. -1.
</event>
<event>
 8    1  0.1126407E+005  0.1043930E+01  0.7957747E-01            NaN
         13   -1    0    0    0    0  0.00000000000E+00  0.00000000000E+00  0.74505805969E-08  0.10566000000E+00  0.10566000000E+00 0. -1.
     999900   -1    0    0    0    0 -0.00000000000E+00 -0.00000000000E+00 -0.74505805969E-08  0.93827000000E+00  0.93827000000E+00 0.  1.
     999902    2    1    2    0    0  0.15976178989E-01  0.24089248002E-01 -0.12778956656E-02  0.10149962277E+01  0.10145837467E+01 0.  0.
     999903    2    3    3    0    0  0.18932584687E-01 -0.11542396006E+00  0.33892880439E-01  0.12330701103E+00  0.19358675208E-01 0.  0.
         14    1    1    2    0    0 -0.15976178989E-01 -0.24089248002E-01  0.12778956656E-02  0.28933772338E-01  0.00000000000E+00 0.  1.
     999901    1    3    3    0    0 -0.29564056984E-02  0.13951320807E+00 -0.35170776104E-01  0.89168921663E+00  0.88000000000E+00 0. -1.
        -11    1    4    4    0    0  0.44517650233E-02 -0.82065230854E-01  0.23623356597E-01  0.85515170729E-01  0.51100000000E-03 0.  1.
         11    1    4    4    0    0  0.14480819664E-01 -0.33358729210E-01  0.10269523841E-01  0.37791840304E-01  0.51100000000E-03 0. -1.
</event>
<event>
 8    1  0.1126407E+005  0.1043930E+01  0.7957747E-01            NaN
         13   -1    0    0    0    0  0.00000000000E+00  0.00000000000E+00  0.74505805969E-08  0.10566000000E+00  0.10566000000E+00 0.  1.
     999900   -1    0    0    0    0 -0.00000000000E+00 -0.00000000000E+00 -0.74505805969E-08  0.93827000000E+00  0.93827000000E+00 0. -1.
     999902    2    1    2    0    0  0.25788390855E-01 -0.15147548826E-01 -0.66208584700E-02  0.10132979073E+01  0.10128347959E+01 0.  0.
     999903    2    3    3    0    0 -0.45739377580E-01 -0.37521079871E-02 -0.11311074971E+00  0.12392387197E+00  0.21375578748E-01 0.  0.
         14    1    1    2    0    0 -0.25788390855E-01  0.15147548826E-01  0.66208584700E-02  0.30632092733E-01  0.00000000000E+00 0. -1.
     999901    1    3    3    0    0  0.71527768435E-01 -0.11395440839E-01  0.10648989124E+00  0.88937403530E+00  0.88000000000E+00 0.  1.
        -11    1    4    4    0    0 -0.10119423533E-01 -0.89576292982E-02 -0.43506183601E-01  0.45559751841E-01  0.51100000000E-03 0. -1.
         11    1    4    4    0    0 -0.35619954048E-01  0.52055213111E-02 -0.69604566112E-01  0.78364120126E-01  0.51100000000E-03 0.  1.
</event>
<event>
 8    1  0.1126407E+005  0.1043930E+01  0.7957747E-01            NaN
         13   -1    0    0    0    0  0.00000000000E+00  0.00000000000E+00  0.74505805969E-08  0.10566000000E+00  0.10566000000E+00 0.  1.
     999900   -1    0    0    0    0 -0.00000000000E+00 -0.00000000000E+00 -0.74505805969E-08  0.93827000000E+00  0.93827000000E+00 0.  1.
     999902    2    1    2    0    0 -0.22394683714E-01 -0.52589866818E-02  0.84223849817E-02  0.10194327477E+01  0.10191383673E+01 0.  0.
     999903    2    3    3    0    0  0.33834028011E-01 -0.56295994309E-01  0.11059853374E+00  0.13027223943E+00  0.20611653805E-01 0.  0.
         14    1    1    2    0    0  0.22394683714E-01  0.52589866818E-02 -0.84223849817E-02  0.24497252261E-01  0.00000000000E+00 0. -1.
     999901    1    3    3    0    0 -0.56228711725E-01  0.51037007627E-01 -0.10217614876E+00  0.88916050831E+00  0.88000000000E+00 0.  1.
        -11    1    4    4    0    0  0.10969645394E-01 -0.27463031823E-01  0.66864776099E-01  0.73114366856E-01  0.51100000000E-03 0. -1.
         11    1    4    4    0    0  0.22864382617E-01 -0.28832962486E-01  0.43733757642E-01  0.57157872569E-01  0.51100000000E-03 0.  1.
</event>
<event>
 8    1  0.1126407E+005  0.1043930E+01  0.7957747E-01            NaN
         13   -1    0    0    0    0  0.00000000000E+00  0.00000000000E+00  0.74505805969E-08  0.10566000000E+00  0.10566000000E+00 0. -1.
     999900   -1    0    0    0    0 -0.00000000000E+00 -0.00000000000E+00 -0.74505805969E-08  0.93827000000E+00  0.93827000000E+00 0. -1.
     999902    2    1    2    0    0 -0.51111645719E-02  0.17823008790E-01  0.44746736188E-02  0.10248562917E+01  0.10246787849E+01 0.  0.
     999903    2    3    3    0    0 -0.56812117344E-01  0.70643852019E-01  0.10016637082E+00  0.13658835297E+00  0.20122271718E-01 0.  0.
         14    1    1    2    0    0  0.51111645719E-02 -0.17823008790E-01 -0.44746736188E-02  0.19073708333E-01  0.00000000000E+00 0. -1.
     999901    1    3    3    0    0  0.51700952772E-01 -0.52820843229E-01 -0.95691697203E-01  0.88826793869E+00  0.88000000000E+00 0. -1.
        -11    1    4    4    0    0 -0.37266581528E-01  0.37454097157E-01  0.69766053690E-01  0.87516689044E-01  0.51100000000E-03 0. -1.
         11    1    4    4    0    0 -0.19545535816E-01  0.33189754861E-01  0.30400317132E-01  0.49071663930E-01  0.51100000000E-03 0.  1.
</event>
<event>
 8    1  0.1126407E+005  0.1043930E+01  0.7957747E-01            NaN
         13   -1    0    0    0    0  0.00000000000E+00  0.00000000000E+00  0.74505805969E-08  0.10566000000E+00  0.10566000000E+00 0.  1.
     999900   -1    0    0    0    0 -0.00000000000E+00 -0.00000000000E+00 -0.74505805969E-08  0.93827000000E+00  0.93827000000E+00 0. -1.
     999902    2    1    2    0    0 -0.72091037171E-02 -0.14150354473E-01 -0.17496523079E-01  0.10203009495E+01  0.10200273014E+01 0.  0.
     999903    2    3    3    0    0  0.62019670309E-01 -0.88416392805E-01 -0.74936284475E-01  0.13260314405E+00  0.17442736540E-01 0.  0.
         14    1    1    2    0    0  0.72091037171E-02  0.14150354473E-01  0.17496523079E-01  0.23629050509E-01  0.00000000000E+00 0.  1.
     999901    1    3    3    0    0 -0.69228774026E-01  0.74266038332E-01  0.57439761397E-01  0.88769780545E+00  0.88000000000E+00 0. -1.
        -11    1    4    4    0    0  0.36854950308E-01 -0.38140366297E-01 -0.33093447172E-01  0.62517295768E-01  0.51100000000E-03 0. -1.
         11    1    4    4    0    0  0.25164720001E-01 -0.50276026508E-01 -0.41842837303E-01  0.70085848277E-01  0.51100000000E-03 0.  1.
</event>
<event>
 8    1  0.1126407E+005  0.1043930E+01  0.7957747E-01            NaN
         13   -1    0    0    0    0  0.00000000000E+00  0.00000000000E+00  0.74505805969E-08  0.10566000000E+00  0.10566000000E+00 0.  1.
     999900   -1    0    0    0    0 -0.00000000000E+00 -0.00000000000E+00 -0.74505805969E-08  0.93827000000E+00  0.93827000000E+00 0. -1.
     999902    2    1    2    0    0 -0.34037269567E-02  0.73091226372E-02 -0.21827729492E-01  0.10206607412E+01  0.10203954577E+01 0.  0.
     999903    2    3    3    0    0  0.63236963056E-01 -0.75287736001E-01 -0.85763600979E-01  0.13198137365E+00  0.19913087383E-01 0.  0.
         14    1    1    2    0    0  0.34037269567E-02 -0.73091226372E-02  0.21827729492E-01  0.23269258813E-01  0.00000000000E+00 0.  1.
     999901    1    3    3    0    0 -0.66640690013E-01  0.82596858638E-01  0.63935871487E-01  0.88867936754E+00  0.88000000000E+00 0. -1.
        -11    1    4    4    0    0  0.95379265775E-02 -0.25611735431E-02 -0.93386832237E-02  0.13601609415E-01  0.51100000000E-03 0.  1.
         11    1    4    4    0    0  0.53699036478E-01 -0.72726562458E-01 -0.76424917756E-01  0.11837976424E+00  0.51100000000E-03 0. -1.
</event>
<event>
 8    1  0.1126407E+005  0.1043930E+01  0.7957747E-01            NaN
         13   -1    0    0    0    0  0.00000000000E+00  0.00000000000E+00  0.74505805969E-08  0.10566000000E+00  0.10566000000E+00 0.  1.
     999900   -1    0    0    0    0 -0.00000000000E+00 -0.00000000000E+00 -0.74505805969E-08  0.93827000000E+00  0.93827000000E+00 0. -1.
     999902    2    1    2    0    0 -0.16309916232E-01 -0.11622687200E-01  0.15331622663E-01  0.10187078098E+01  0.10183955238E+01 0.  0.
     999903    2    3    3    0    0 -0.32439915188E-01 -0.12488282254E+00 -0.10137901859E-01  0.13093715709E+00  0.19841738597E-01 0.  0.
         14    1    1    2    0    0  0.16309916232E-01  0.11622687200E-01 -0.15331622663E-01  0.25222190205E-01  0.00000000000E+00 0. -1.
     999901    1    3    3    0    0  0.16129998956E-01  0.11326013534E+00  0.25469524521E-01  0.88777065270E+00  0.88000000000E+00 0.  1.
        -11    1    4    4    0    0 -0.84149992528E-02 -0.67251813640E-01 -0.98931352995E-02  0.68496378717E-01  0.51100000000E-03 0. -1.
         11    1    4    4    0    0 -0.24024915935E-01 -0.57631008898E-01 -0.24476655900E-03  0.62440778374E-01  0.51100000000E-03 0.  1.
</event>
<event>
 8    1  0.1126407E+005  0.1043930E+01  0.7957747E-01            NaN
         13   -1    0    0    0    0  0.00000000000E+00  0.00000000000E+00  0.74505805969E-08  0.10566000000E+00  0.10566000000E+00 0. -1.
     999900   -1    0    0    0    0 -0.00000000000E+00 -0.00000000000E+00 -0.74505805969E-08  0.93827000000E+00  0.93827000000E+00 0. -1.
     999902    2    1    2    0    0  0.10757940620E-01  0.20149224884E-01  0.11592658938E-04  0.10210887066E+01  0.10208331999E+01 0.  0.
     999903    2    3    3    0    0 -0.14765260964E-01  0.78138321780E-01 -0.10422893862E+00  0.13267424390E+00  0.20375796585E-01 0.  0.
         14    1    1    2    0    0 -0.10757940620E-01 -0.20149224884E-01 -0.11592658938E-04  0.22841293400E-01  0.00000000000E+00 0. -1.
     999901    1    3    3    0    0  0.25523201584E-01 -0.57989096896E-01  0.10424053128E+00  0.88841446270E+00  0.88000000000E+00 0.  1.
        -11    1    4    4    0    0 -0.38139283778E-02  0.36714346060E-01 -0.32820142598E-01  0.49395466770E-01  0.51100000000E-03 0.  1.
         11    1    4    4    0    0 -0.10951332587E-01  0.41423975720E-01 -0.71408796020E-01  0.83278777128E-01  0.51100000000E-03 0. -1.
</event>
<event>
 8    1  0.1126407E+005  0.1043930E+01  0.7957747E-01            NaN
         13   -1    0    0    0    0  0.00000000000E+00  0.00000000000E+00  0.74505805969E-08  0.10566000000E+00  0.10566000000E+00 0.  1.
     999900   -1    0    0    0    0 -0.00000000000E+00 -0.00000000000E+00 -0.74505805969E-08  0.93827000000E+00  0.93827000000E+00 0. -1.
     999902    2    1    2    0    0 -0.18593958171E-01  0.10113190271E-01 -0.11096459425E-01  0.10200313952E+01  0.10197513932E+01 0.  0.
     999903    2    3    3    0    0  0.11756062826E+00 -0.72965336740E-03 -0.48574813625E-01  0.12870638959E+00  0.19616026354E-01 0.  0.
         14    1    1    2    0    0  0.18593958171E-01 -0.10113190271E-01  0.11096459425E-01  0.23898604764E-01  0.00000000000E+00 0.  1.
     999901    1    3    3    0    0 -0.13615458643E+00  0.10842843638E-01  0.37478354199E-01  0.89132500565E+00  0.88000000000E+00 0.  1.
        -11    1    4    4    0    0  0.35702047680E-01  0.26807352442E-03 -0.24743412721E-01  0.43441980458E-01  0.51100000000E-03 0.  1.
         11    1    4    4    0    0  0.81858580582E-01 -0.99772689181E-03 -0.23831400903E-01  0.85264409127E-01  0.51100000000E-03 0. -1.
</event>
<event>
 8    1  0.1126407E+005  0.1043930E+01  0.7957747E-01            NaN
         13   -1    0    0    0    0  0.00000000000E+00  0.00000000000E+00  0.74505805969E-08  0.10566000000E+00  0.10566000000E+00 0. -1.
     999900   -1    0    0    0    0 -0.00000000000E+00 -0.00000000000E+00 -0.74505805969E-08  0.93827000000E+00  0.93827000000E+00 0. -1.
     999902    2    1    2    0    0  0.18264837171E-01  0.23955331642E-03 -0.13970699050E-01  0.10209334330E+01  0.10206744008E+01 0.  0.
     999903    2    3    3    0    0 -0.16127967318E-01  0.98137306158E-01  0.80665779279E-01  0.12979769807E+00  0.21199818089E-01 0.  0.
         14    1    1    2    0    0 -0.18264837171E-01 -0.23955331642E-03  0.13970699050E-01  0.22996567018E-01  0.00000000000E+00 0. -1.
     999901    1    3    3    0    0  0.34392804489E-01 -0.97897752841E-01 -0.94636478329E-01  0.89113573492E+00  0.88000000000E+00 0. -1.
        -11    1    4    4    0    0 -0.15934993979E-01  0.75168948480E-01  0.50790766668E-01  0.92110031747E-01  0.51100000000E-03 0. -1.
         11    1    4    4    0    0 -0.19297333918E-03  0.22968357678E-01  0.29875012611E-01  0.37687666320E-01  0.51100000000E-03 0.  1.
</event>
<event>
 8    1  0.1126407E+005  0.1043930E+01  0.7957747E-01            NaN
         13   -1    0    0    0    0  0.00000000000E+00  0.00000000000E+00  0.74505805969E-08  0.10566000000E+00  0.10566000000E+00 0.  1.
     999900   -1    0    0    0    0 -0.00000000000E+00 -0.00000000000E+00 -0.74505805969E-08  0.93827000000E+00  0.93827000000E+00 0.  1.
     999902    2    1    2    0    0  0.80572750450E-02  0.11758448685E-02 -0.22645336330E-01  0.10198652218E+01  0.10195812656E+01 0.  0.
     999903    2    3    3    0    0 -0.11151890528E+00 -0.57869219183E-01  0.19400657091E-01  0.12882501617E+00  0.20837143087E-01 0.  0.
         14    1    1    2    0    0 -0.80572750450E-02 -0.11758448685E-02  0.22645336330E-01  0.24064778200E-01  0.00000000000E+00 0.  1.
     999901    1    3    3    0    0  0.11957618032E+00  0.59045064052E-01 -0.42045993421E-01  0.89104020563E+00  0.88000000000E+00 0.  1.
        -11    1    4    4    0    0 -0.79197890421E-01 -0.47109948477E-01  0.64468900133E-02  0.92376818545E-01  0.51100000000E-03 0.  1.
         11    1    4    4    0    0 -0.32321014857E-01 -0.10759270706E-01  0.12953767077E-01  0.36448197623E-01  0.51100000000E-03 0. -1.
</event>
<event>
 8    1  0.1126407E+005  0.1043930E+01  0.7957747E-01            NaN
         13   -1    0    0    0    0  0.00000000000E+00  0.00000000000E+00  0.74505805969E-08  0.10566000000E+00  0.10566000000E+00 0. -1.
     999900   -1    0    0    0    0 -0.00000000000E+00 -0.00000000000E+00 -0.74505805969E-08  0.93827000000E+00  0.93827000000E+00 0.  1.
     999902    2    1    2    0    0  0.46945743831E-03 -0.18815065578E-01 -0.14428436223E-01  0.10202148813E+01  0.10199392125E+01 0.  0.
     999903    2    3    3    0    0  0.38939774544E-01  0.94168201311E-01 -0.78011933693E-01  0.12988458021E+00  0.20004654406E-01 0.  0.
         14    1    1    2    0    0 -0.46945743831E-03  0.18815065578E-01  0.14428436223E-01  0.23715118698E-01  0.00000000000E+00 0. -1.
     999901    1    3    3    0    0 -0.38470317106E-01 -0.11298326689E+00  0.63583497470E-01  0.89033030109E+00  0.88000000000E+00 0. -1.
        -11    1    4    4    0    0  0.20067214223E-01  0.62894785851E-01 -0.40137948814E-01  0.77264242893E-01  0.51100000000E-03 0.  1.
         11    1    4    4    0    0  0.18872560321E-01  0.31273415460E-01 -0.37873984878E-01  0.52620337315E-01  0.51100000000E-03 0. -1.
</event>
<event>
 8    1  0.1126407E+005  0.1043930E+01  0.7957747E-01            NaN
         13   -1    0    0    0    0  0.00000000000E+00  0.00000000000E+00  0.74505805969E-08  0.10566000000E+00  0.10566000000E+00 0. -1.
     999900   -1    0    0    0    0 -0.00000000000E+00 -0.00000000000E+00 -0.74505805969E-08  0.93827000000E+00  0.93827000000E+00 0.  1.
     999902    2    1    2    0    0 -0.15214499014E-01  0.12367735648E-01 -0.13423949978E-01  0.10201677548E+01  0.10198909763E+01 0.  0.
     999903    2    3    3    0    0  0.11593397554E+00 -0.38800658347E-02  0.50264028623E-01  0.12802422817E+00  0.20198733379E-01 0.  0.
         14    1    1    2    0    0  0.15214499014E-01 -0.12367735648E-01  0.13423949978E-01  0.23762245229E-01  0.00000000000E+00 0. -1.
     999901    1    3    3    0    0 -0.13114847456E+00  0.16247801483E-01 -0.63687978602E-01  0.89214352660E+00  0.88000000000E+00 0.  1.
        -11    1    4    4    0    0  0.69042705904E-01 -0.95135685320E-02  0.37279678634E-01  0.79040741298E-01  0.51100000000E-03 0.  1.
         11    1    4    4    0    0  0.46891269638E-01  0.56335026973E-02  0.12984349989E-01  0.48983486876E-01  0.51100000000E-03 0. -1.
</event>
<event>
 8    1  0.1126407E+005  0.1043930E+01  0.7957747E-01            NaN
         13   -1    0    0    0    0  0.00000000000E+00  0.00000000000E+00  0.74505805969E-08  0.10566000000E+00  0.10566000000E+00 0. -1.
     999900   -1    0    0    0    0 -0.00000000000E+00 -0.00000000000E+00 -0.74505805969E-08  0.93827000000E+00  0.93827000000E+00 0.  1.
     999902    2    1    2    0    0  0.14550474791E-01  0.18263639960E-01  0.48489929513E-02  0.10200806899E+01  0.10198018554E+01 0.  0.
     999903    2    3    3    0    0 -0.44629438613E-02 -0.78410356847E-01  0.10080017050E+00  0.12939892839E+00  0.20379066924E-01 0.  0.
         14    1    1    2    0    0 -0.14550474791E-01 -0.18263639960E-01 -0.48489929513E-02  0.23849310134E-01  0.00000000000E+00 0.  1.
     999901    1    3    3    0    0  0.19013418652E-01  0.96673996807E-01 -0.95951177544E-01  0.89068176147E+00  0.88000000000E+00 0.  1.
        -11    1    4    4    0    0 -0.68387716386E-02 -0.66821416970E-01  0.73111161930E-01  0.99284307336E-01  0.51100000000E-03 0.  1.
         11    1    4    4    0    0  0.23758277772E-02 -0.11588939877E-01  0.27689008566E-01  0.30114621058E-01  0.51100000000E-03 0. -1.
</event>
<event>
 8    1  0.1126407E+005  0.1043930E+01  0.7957747E-01            NaN
         13   -1    0    0    0    0  0.00000000000E+00  0.00000000000E+00  0.74505805969E-08  0.10566000000E+00  0.10566000000E+00 0. -1.
     999900   -1    0    0    0    0 -0.00000000000E+00 -0.00000000000E+00 -0.74505805969E-08  0.93827000000E+00  0.93827000000E+00 0. -1.
     999902    2    1    2    0    0  0.15900491043E-01 -0.15804937323E-01  0.93429209711E-02  0.10196418994E+01  0.10193525843E+01 0.  0.
     999903    2    3    3    0    0 -0.12331797613E+00 -0.12522106895E-02  0.29741936012E-01  0.12834526904E+00  0.19468797008E-01 0.  0.
         14    1    1    2    0    0 -0.15900491043E-01  0.15804937323E-01 -0.93429209711E-02  0.24288100614E-01  0.00000000000E+00 0. -1.
     999901    1    3    3    0    0  0.13921846718E+00 -0.14552726633E-01 -0.20399015041E-01  0.89129663035E+00  0.88000000000E+00 0. -1.
        -11    1    4    4    0    0 -0.80887672721E-01  0.81801895445E-02  0.21572244086E-01  0.84115123106E-01  0.51100000000E-03 0. -1.
         11    1    4    4    0    0 -0.42430303414E-01 -0.94324002340E-02  0.81696919262E-02  0.44230145932E-01  0.51100000000E-03 0.  1.
</event>
<event>
 8    1  0.1126407E+005  0.1043930E+01  0.7957747E-01            NaN
         13   -1    0    0    0    0  0.00000000000E+00  0.00000000000E+00  0.74505805969E-08  0.10566000000E+00  0.10566000000E+00 0.  1.
     999900   -1    0    0    0    0 -0.00000000000E+00 -0.00000000000E+00 -0.74505805969E-08  0.93827000000E+00  0.93827000000E+00 0. -1.
     999902    2    1    2    0    0 -0.19188943755E-01 -0.11239755280E-01  0.10275788677E-01  0.10194322553E+01  0.10191378630E+01 0.  0.
     999903    2    3    3    0    0 -0.48845635526E-01 -0.88527756517E-01 -0.80698350073E-01  0.13087767151E+00  0.19841406474E-01 0.  0.
         14    1    1    2    0    0  0.19188943755E-01  0.11239755280E-01 -0.10275788677E-01  0.24497744675E-01  0.00000000000E+00 0. -1.
     999901    1    3    3    0    0  0.29656691771E-01  0.77288001237E-01  0.90974138750E-01  0.88855458382E+00  0.88000000000E+00 0.  1.
        -11    1    4    4    0    0 -0.12030616073E-01 -0.41869634116E-01 -0.35827899636E-01  0.56406573176E-01  0.51100000000E-03 0. -1.
         11    1    4    4    0    0 -0.36815019453E-01 -0.46658122401E-01 -0.44870450436E-01  0.74471098332E-01  0.51100000000E-03 0.  1.
</event>
<event>
 8    1  0.1126407E+005  0.1043930E+01  0.7957747E-01            NaN
         13   -1    0    0    0    0  0.00000000000E+00  0.00000000000E+00  0.74505805969E-08  0.10566000000E+00  0.10566000000E+00 0.  1.
     999900   -1    0    0    0    0 -0.00000000000E+00 -0.00000000000E+00 -0.74505805969E-08  0.93827000000E+00  0.93827000000E+00 0. -1.
     999902    2    1    2    0    0 -0.17914652532E-01  0.18856843284E-01 -0.78662610916E-03  0.10179081996E+01  0.10175755347E+01 0.  0.
     999903    2    3    3    0    0  0.33197041738E-01  0.77824404276E-01 -0.95699814012E-01  0.12937114819E+00  0.20487998947E-01 0.  0.
         14    1    1    2    0    0  0.17914652532E-01 -0.18856843284E-01  0.78662610916E-03  0.26021800372E-01  0.00000000000E+00 0.  1.
     999901    1    3    3    0    0 -0.51111694270E-01 -0.58967560992E-01  0.94913187903E-01  0.88853705144E+00  0.88000000000E+00 0.  1.
        -11    1    4    4    0    0  0.31321439643E-01  0.60919372598E-01 -0.85405493651E-01  0.10948315855E+00  0.51100000000E-03 0. -1.
         11    1    4    4    0    0  0.18756020946E-02  0.16905031678E-01 -0.10294320361E-01  0.19887989641E-01  0.51100000000E-03 0.  1.
</event>
<event>
 8    1  0.1126407E+005  0.1043930E+01  0.7957747E-01            NaN
         13   -1    0    0    0    0  0.00000000000E+00  0.00000000000E+00  0.74505805969E-08  0.10566000000E+00  0.10566000000E+00 0.  1.
     999900   -1    0    0    0    0 -0.00000000000E+00 -0.00000000000E+00 -0.74505805969E-08  0.93827000000E+00  0.93827000000E+00 0.  1.
     999902    2    1    2    0    0  0.16393969877E-01  0.15299353014E-01 -0.78802358989E-02  0.10201617319E+01  0.10198848115E+01 0.  0.
     999903    2    3    3    0    0 -0.10962464508E+00  0.66107564872E-01 -0.34641026445E-02  0.12972270089E+00  0.20693143195E-01 0.  0.
         14    1    1    2    0    0 -0.16393969877E-01 -0.15299353014E-01  0.78802358989E-02  0.23768268107E-01  0.00000000000E+00 0.  1.
     999901    1    3    3    0    0  0.12601861496E+00 -0.50808211858E-01 -0.44161332544E-02  0.89043903101E+00  0.88000000000E+00 0.  1.
        -11    1    4    4    0    0 -0.82304989218E-01  0.58414197278E-01 -0.67069028019E-02  0.10115124003E+00  0.51100000000E-03 0. -1.
         11    1    4    4    0    0 -0.27319655864E-01  0.76933675945E-02  0.32428001573E-02  0.28571460854E-01  0.51100000000E-03 0.  1.
</event>
<event>
 8    1  0.1126407E+005  0.1043930E+01  0.7957747E-01            NaN
         13   -1    0    0    0    0  0.00000000000E+00  0.00000000000E+00  0.74505805969E-08  0.10566000000E+00  0.10566000000E+00 0.  1.
     999900   -1    0    0    0    0 -0.00000000000E+00 -0.00000000000E+00 -0.74505805969E-08  0.93827000000E+00  0.93827000000E+00 0.  1.
     999902    2    1    2    0    0 -0.10761427240E-01 -0.21386243785E-01 -0.14243560695E-02  0.10199464946E+01  0.10196644759E+01 0.  0.
     999903    2    3    3    0    0 -0.11574051550E+00  0.32334101044E-01  0.47482283610E-01  0.13073429059E+00  0.19887847049E-01 0.  0.
         14    1    1    2    0    0  0.10761427240E-01  0.21386243785E-01  0.14243560695E-02  0.23983505367E-01  0.00000000000E+00 0. -1.
     999901    1    3    3    0    0  0.10497908826E+00 -0.53720344829E-01 -0.48906639679E-01  0.88921220405E+00  0.88000000000E+00 0.  1.
        -11    1    4    4    0    0 -0.76558670171E-01  0.21072861143E-01  0.21069601230E-01  0.82155247380E-01  0.51100000000E-03 0. -1.
         11    1    4    4    0    0 -0.39181845327E-01  0.11261239902E-01  0.26412682380E-01  0.48579043207E-01  0.51100000000E-03 0.  1.
</event>
<event>
 8    1  0.1126407E+005  0.1043930E+01  0.7957747E-01            NaN
         13   -1    0    0    0    0  0.00000000000E+00  0.00000000000E+00  0.74505805969E-08  0.10566000000E+00  0.10566000000E+00 0.  1.
     999900   -1    0    0    0    0 -0.00000000000E+00 -0.00000000000E+00 -0.74505805969E-08  0.93827000000E+00  0.93827000000E+00 0. -1.
     999902    2    1    2    0    0  0.61067276647E-02  0.20949126460E-01 -0.11346494831E-01  0.10193352655E+01  0.10190385088E+01 0.  0.
     999903    2    3    3    0    0  0.89861209980E-02  0.11744372039E+00  0.55155508906E-01  0.13156163774E+00  0.19813039468E-01 0.  0.
         14    1    1    2    0    0 -0.61067276647E-02 -0.20949126460E-01  0.11346494831E-01  0.24594734541E-01  0.00000000000E+00 0.  1.
     999901    1    3    3    0    0 -0.28793933332E-02 -0.96494593933E-01 -0.66502003737E-01  0.88777362771E+00  0.88000000000E+00 0.  1.
        -11    1    4    4    0    0  0.73719507907E-02  0.13256062981E-01  0.84662242885E-02  0.17378346841E-01  0.51100000000E-03 0. -1.
         11    1    4    4    0    0  0.16141702072E-02  0.10418765741E+00  0.46689284617E-01  0.11418329090E+00  0.51100000000E-03 0.  1.
</event>
<event>
 8    1  0.1126407E+005  0.1043930E+01  0.7957747E-01            NaN
         13   -1    0    0    0    0  0.00000000000E+00  0.00000000000E+00  0.74505805969E-08  0.10566000000E+00  0.10566000000E+00 0. -1.
     999900   -1    0    0    0    0 -0.00000000000E+00 -0.00000000000E+00 -0.74505805969E-08  0.93827000000E+00  0.93827000000E+00 0.  1.
     999902    2    1    2    0    0 -0.19807205633E-01 -0.53499198217E-02 -0.10309516215E-01  0.10209684417E+01  0.10207102065E+01 0.  0.
     999903    2    3    3    0    0 -0.75344035130E-02 -0.19803387810E-02  0.12814952028E+00  0.13005156532E+00  0.20746592920E-01 0.  0.
         14    1    1    2    0    0  0.19807205633E-01  0.53499198217E-02  0.10309516215E-01  0.22961558346E-01  0.00000000000E+00 0. -1.
     999901    1    3    3    0    0 -0.12272802120E-01 -0.33695810407E-02 -0.13845903649E+00  0.89091687633E+00  0.88000000000E+00 0.  1.
        -11    1    4    4    0    0 -0.38886988373E-02 -0.98243753206E-02  0.10100902029E+00  0.10156142787E+00  0.51100000000E-03 0. -1.
         11    1    4    4    0    0 -0.36457046756E-02  0.78440365396E-02  0.27140499984E-01  0.28490137455E-01  0.51100000000E-03 0.  1.
</event>
<event>
 8    1  0.1165709E+005  0.1043930E+01  0.7957747E-01            NaN
         13   -1    0    0    0    0  0.00000000000E+00  0.00000000000E+00  0.74505805969E-08  0.10566000000E+00  0.10566000000E+00 0. -1.
     999900   -1    0    0    0    0 -0.00000000000E+00 -0.00000000000E+00 -0.74505805969E-08  0.93827000000E+00  0.93827000000E+00 0. -1.
     999902    2    1    2    0    0 -0.36585091707E-02  0.27989852797E-02 -0.23050883945E-01  0.10204233571E+01  0.10201525697E+01 0.  0.
     999903    2    3    3    0    0 -0.62122898050E-02  0.90604326504E-01 -0.95326498526E-01  0.13310150786E+00  0.19522641924E-01 0.  0.
         14    1    1    2    0    0  0.36585091707E-02 -0.27989852797E-02  0.23050883945E-01  0.23506642861E-01  0.00000000000E+00 0. -1.
     999901    1    3    3    0    0  0.25537806343E-02 -0.87805341225E-01  0.72275614582E-01  0.88732184928E+00  0.88000000000E+00 0.  1.
        -11    1    4    4    0    0 -0.19198377407E-02  0.66025344431E-01 -0.56377067365E-01  0.86842770165E-01  0.51100000000E-03 0. -1.
         11    1    4    4    0    0 -0.42924520643E-02  0.24578982074E-01 -0.38949431161E-01  0.46258737697E-01  0.51100000000E-03 0.  1.
</event>
<event>
 8    1  0.1126407E+005  0.1043930E+01  0.7957747E-01            NaN
         13   -1    0    0    0    0  0.00000000000E+00  0.00000000000E+00  0.74505805969E-08  0.10566000000E+00  0.10566000000E+00 0.  1.
     999900   -1    0    0    0    0 -0.00000000000E+00 -0.00000000000E+00 -0.74505805969E-08  0.93827000000E+00  0.93827000000E+00 0. -1.
     999902    2    1    2    0    0 -0.99234560574E-02 -0.70050735056E-02 -0.20390147612E-01  0.10201959705E+01  0.10199198567E+01 0.  0.
     999903    2    3    3    0    0  0.83254903976E-01 -0.81721460165E-01  0.51822312504E-01  0.12919687704E+00  0.19912430196E-01 0.  0.
         14    1    1    2    0    0  0.99234560574E-02  0.70050735056E-02  0.20390147612E-01  0.23734029463E-01  0.00000000000E+00 0.  1.
     999901    1    3    3    0    0 -0.93178360034E-01  0.74716386659E-01 -0.72212460116E-01  0.89099909350E+00  0.88000000000E+00 0. -1.
        -11    1    4    4    0    0  0.49305136762E-01 -0.53467386527E-01  0.22325346074E-01  0.76081798950E-01  0.51100000000E-03 0. -1.
         11    1    4    4    0    0  0.33949767214E-01 -0.28254073638E-01  0.29496966430E-01  0.53115078091E-01  0.51100000000E-03 0.  1.
</event>
<event>
 8    1  0.1126407E+005  0.1043930E+01  0.7957747E-01            NaN
         13   -1    0    0    0    0  0.00000000000E+00  0.00000000000E+00  0.74505805969E-08  0.10566000000E+00  0.10566000000E+00 0. -1.
     999900   -1    0    0    0    0 -0.00000000000E+00 -0.00000000000E+00 -0.74505805969E-08  0.93827000000E+00  0.93827000000E+00 0. -1.
     999902    2    1    2    0    0  0.17334708144E-01 -0.32051020540E-01 -0.62923017200E-02  0.10069522623E+01  0.10062730770E+01 0.  0.
     999903    2    3    3    0    0  0.76693721189E-01 -0.93604484303E-01  0.60960102754E-03  0.12278035730E+00  0.20758568711E-01 0.  0.
         14    1    1    2    0    0 -0.17334708144E-01  0.32051020540E-01  0.62923017200E-02  0.36977737695E-01  0.00000000000E+00 0.  1.
     999901    1    3    3    0    0 -0.59359013045E-01  0.61553463763E-01 -0.69019027475E-02  0.88417190500E+00  0.88000000000E+00 0. -1.
        -11    1    4    4    0    0  0.36987306115E-01 -0.38111051554E-01 -0.90040382052E-02  0.53868793278E-01  0.51100000000E-03 0.  1.
         11    1    4    4    0    0  0.39706415074E-01 -0.55493432749E-01  0.96136392328E-02  0.68911564027E-01  0.51100000000E-03 0. -1.
</event>
<event>
 8    1  0.1126407E+005  0.1043930E+01  0.7957747E-01            NaN
         13   -1    0    0    0    0  0.00000000000E+00  0.00000000000E+00  0.74505805969E-08  0.10566000000E+00  0.10566000000E+00 0.  1.
     999900   -1    0    0    0    0 -0.00000000000E+00 -0.00000000000E+00 -0.74505805969E-08  0.93827000000E+00  0.93827000000E+00 0.  1.
     999902    2    1    2    0    0  0.80162540541E-02 -0.19401246281E-01 -0.21700305049E-01  0.10137377506E+01  0.10132880415E+01 0.  0.
     999903    2    3    3    0    0 -0.77018575661E-01 -0.95138981779E-01  0.18051324183E-01  0.12551068564E+00  0.21066443817E-01 0.  0.
         14    1    1    2    0    0 -0.80162540541E-02  0.19401246281E-01  0.21700305049E-01  0.30192249429E-01  0.00000000000E+00 0.  1.
     999901    1    3    3    0    0  0.85034829715E-01  0.75737735498E-01 -0.39751629232E-01  0.88822706493E+00  0.88000000000E+00 0.  1.
        -11    1    4    4    0    0 -0.33203525723E-01 -0.26341694268E-01  0.99818758643E-02  0.43546043955E-01  0.51100000000E-03 0.  1.
         11    1    4    4    0    0 -0.43815049938E-01 -0.68797287512E-01  0.80694483186E-02  0.81964641689E-01  0.51100000000E-03 0. -1.
</event>
<event>
 8    1  0.1126407E+005  0.1043930E+01  0.7957747E-01            NaN
         13   -1    0    0    0    0  0.00000000000E+00  0.00000000000E+00  0.74505805969E-08  0.10566000000E+00  0.10566000000E+00 0. -1.
     999900   -1    0    0    0    0 -0.00000000000E+00 -0.00000000000E+00 -0.74505805969E-08  0.93827000000E+00  0.93827000000E+00 0.  1.
     999902    2    1    2    0    0  0.23934189007E-01  0.86745579694E-02 -0.68846881301E-03  0.10184630145E+01  0.10181445598E+01 0.  0.
     999903    2    3    3    0    0  0.48796523502E-01 -0.72641678658E-01 -0.93368317949E-01  0.12951981025E+00  0.19995606151E-01 0.  0.
         14    1    1    2    0    0 -0.23934189007E-01 -0.86745579694E-02  0.68846881301E-03  0.25466985466E-01  0.00000000000E+00 0. -1.
     999901    1    3    3    0    0 -0.24862334495E-01  0.81316236627E-01  0.92679849136E-01  0.88894320429E+00  0.88000000000E+00 0. -1.
        -11    1    4    4    0    0  0.24558932837E-01 -0.52144823186E-01 -0.54414821278E-01  0.79268263908E-01  0.51100000000E-03 0. -1.
         11    1    4    4    0    0  0.24237590665E-01 -0.20496855472E-01 -0.38953496671E-01  0.50251546338E-01  0.51100000000E-03 0.  1.
</event>
<event>
 8    1  0.1126407E+005  0.1043930E+01  0.7957747E-01            NaN
         13   -1    0    0    0    0  0.00000000000E+00  0.00000000000E+00  0.74505805969E-08  0.10566000000E+00  0.10566000000E+00 0. -1.
     999900   -1    0    0    0    0 -0.00000000000E+00 -0.00000000000E+00 -0.74505805969E-08  0.93827000000E+00  0.93827000000E+00 0. -1.
     999902    2    1    2    0    0  0.16196856668E-01 -0.94835539711E-02 -0.14681273636E-01  0.10201011151E+01  0.10198227636E+01 0.  0.
     999903    2    3    3    0    0  0.11668999509E-01  0.12072408391E+00 -0.42344802570E-01  0.13007875507E+00  0.20418869470E-01 0.  0.
         14    1    1    2    0    0 -0.16196856668E-01  0.94835539711E-02  0.14681273636E-01  0.23828884938E-01  0.00000000000E+00 0. -1.
     999901    1    3    3    0    0  0.45278571588E-02 -0.13020763788E+00  0.27663528934E-01  0.89002235999E+00  0.88000000000E+00 0.  1.
        -11    1    4    4    0    0 -0.37711392625E-02  0.37921630877E-01 -0.19466463075E-01  0.42795746113E-01  0.51100000000E-03 0. -1.
         11    1    4    4    0    0  0.15440138771E-01  0.82802453032E-01 -0.22878339495E-01  0.87283008956E-01  0.51100000000E-03 0.  1.
</event>
<event>
 8    1  0.1126407E+005  0.1043930E+01  0.7957747E-01            NaN
         13   -1    0    0    0    0  0.00000000000E+00  0.00000000000E+00  0.74505805969E-08  0.10566000000E+00  0.10566000000E+00 0.  1.
     999900   -1    0    0    0    0 -0.00000000000E+00 -0.00000000000E+00 -0.74505805969E-08  0.93827000000E+00  0.93827000000E+00 0. -1.
     999902    2    1    2    0    0  0.15566951988E-01  0.14955552493E-01 -0.45453117201E-02  0.10218696645E+01  0.10216315152E+01 0.  0.
     999903    2    3    3    0    0  0.36312854224E-01 -0.97660213833E-01 -0.77658631038E-01  0.13144377720E+00  0.19760132627E-01 0.  0.
         14    1    1    2    0    0 -0.15566951988E-01 -0.14955552493E-01  0.45453117201E-02  0.22060335518E-01  0.00000000000E+00 0. -1.
     999901    1    3    3    0    0 -0.20745902237E-01  0.11261576633E+00  0.73113319318E-01  0.89042588728E+00  0.88000000000E+00 0.  1.
        -11    1    4    4    0    0  0.31026961510E-01 -0.56471808714E-01 -0.49773219320E-01  0.81420955549E-01  0.51100000000E-03 0.  1.
         11    1    4    4    0    0  0.52858927138E-02 -0.41188405118E-01 -0.27885411718E-01  0.50022821648E-01  0.51100000000E-03 0. -1.
</event>
<event>
 8    1  0.1126407E+005  0.1043930E+01  0.7957747E-01            NaN
         13   -1    0    0    0    0  0.00000000000E+00  0.00000000000E+00  0.74505805969E-08  0.10566000000E+00  0.10566000000E+00 0. -1.
     999900   -1    0    0    0    0 -0.00000000000E+00 -0.00000000000E+00 -0.74505805969E-08  0.93827000000E+00  0.93827000000E+00 0. -1.
     999902    2    1    2    0    0  0.97520476886E-02 -0.17002631342E-02  0.21383703587E-01  0.10203661271E+01  0.10200940041E+01 0.  0.
     999903    2    3    3    0    0  0.13527617954E-01 -0.83067384663E-01  0.10117253707E+00  0.13300987315E+00  0.19301742317E-01 0.  0.
         14    1    1    2    0    0 -0.97520476886E-02  0.17002631342E-02 -0.21383703587E-01  0.23563872940E-01  0.00000000000E+00 0.  1.
     999901    1    3    3    0    0 -0.37755702655E-02  0.81367121529E-01 -0.79788833485E-01  0.88735625391E+00  0.88000000000E+00 0. -1.
        -11    1    4    4    0    0 -0.38013716656E-02 -0.34697689587E-01  0.38613600275E-01  0.52054311411E-01  0.51100000000E-03 0.  1.
         11    1    4    4    0    0  0.17328989620E-01 -0.48369695076E-01  0.62558936797E-01  0.80955561743E-01  0.51100000000E-03 0. -1.
</event>
<event>
 8    1  0.1126407E+005  0.1043930E+01  0.7957747E-01            NaN
         13   -1    0    0    0    0  0.00000000000E+00  0.00000000000E+00  0.74505805969E-08  0.10566000000E+00  0.10566000000E+00 0.  1.
     999900   -1    0    0    0    0 -0.00000000000E+00 -0.00000000000E+00 -0.74505805969E-08  0.93827000000E+00  0.93827000000E+00 0. -1.
     999902    2    1    2    0    0  0.52136060145E-02 -0.15060873599E-01 -0.17578343930E-01  0.10202021729E+01  0.10199262051E+01 0.  0.
     999903    2    3    3    0    0  0.81124811341E-01  0.61864086268E-01 -0.80539820642E-01  0.13135791882E+00  0.18969447629E-01 0.  0.
         14    1    1    2    0    0 -0.52136060145E-02  0.15060873599E-01  0.17578343930E-01  0.23727827051E-01  0.00000000000E+00 0.  1.
     999901    1    3    3    0    0 -0.75911205327E-01 -0.76924959867E-01  0.62961476711E-01  0.88884425413E+00  0.88000000000E+00 0.  1.
        -11    1    4    4    0    0  0.50939604265E-01  0.27329200825E-01 -0.47617343248E-01  0.74895934465E-01  0.51100000000E-03 0.  1.
         11    1    4    4    0    0  0.30185207076E-01  0.34534885443E-01 -0.32922477394E-01  0.56461984357E-01  0.51100000000E-03 0. -1.
</event>
<event>
 8    1  0.1126407E+005  0.1043930E+01  0.7957747E-01            NaN
         13   -1    0    0    0    0  0.00000000000E+00  0.00000000000E+00  0.74505805969E-08  0.10566000000E+00  0.10566000000E+00 0.  1.
     999900   -1    0    0    0    0 -0.00000000000E+00 -0.00000000000E+00 -0.74505805969E-08  0.93827000000E+00  0.93827000000E+00 0.  1.
     999902    2    1    2    0    0 -0.97472015214E-02  0.18486554280E-01 -0.11351144168E-01  0.10201474623E+01  0.10198702053E+01 0.  0.
     999903    2    3    3    0    0  0.50555253855E-01 -0.86574022567E-01  0.76228820265E-01  0.12754208413E+00  0.20130949021E-01 0.  0.
         14    1    1    2    0    0  0.97472015214E-02 -0.18486554280E-01  0.11351144168E-01  0.23782537724E-01  0.00000000000E+00 0.  1.
     999901    1    3    3    0    0 -0.60302455377E-01  0.10506057685E+00 -0.87579964433E-01  0.89260537815E+00  0.88000000000E+00 0. -1.
        -11    1    4    4    0    0  0.50454838012E-01 -0.78503147681E-01  0.74146657494E-01  0.11919069936E+00  0.51100000000E-03 0.  1.
         11    1    4    4    0    0  0.10041584358E-03 -0.80708748859E-02  0.20821627713E-02  0.83513847697E-02  0.51100000000E-03 0. -1.
</event>
<event>
 8    1  0.1126407E+005  0.1043930E+01  0.7957747E-01            NaN
         13   -1    0    0    0    0  0.00000000000E+00  0.00000000000E+00  0.74505805969E-08  0.10566000000E+00  0.10566000000E+00 0.  1.
     999900   -1    0    0    0    0 -0.00000000000E+00 -0.00000000000E+00 -0.74505805969E-08  0.93827000000E+00  0.93827000000E+00 0. -1.
     999902    2    1    2    0    0  0.13239992270E-01  0.64364384700E-02  0.18427084342E-01  0.10203443566E+01  0.10200717247E+01 0.  0.
     999903    2    3    3    0    0 -0.79532304522E-01 -0.70079448492E-01  0.73208848827E-01  0.13047783759E+00  0.20698163944E-01 0.  0.
         14    1    1    2    0    0 -0.13239992270E-01 -0.64364384700E-02 -0.18427084342E-01  0.23585643363E-01  0.00000000000E+00 0. -1.
     999901    1    3    3    0    0  0.92772296792E-01  0.76515886962E-01 -0.54781764485E-01  0.88986651905E+00  0.88000000000E+00 0. -1.
        -11    1    4    4    0    0 -0.40466874562E-01 -0.45539904010E-01  0.33045863289E-01  0.69309025355E-01  0.51100000000E-03 0.  1.
         11    1    4    4    0    0 -0.39065429960E-01 -0.24539544482E-01  0.40162985538E-01  0.61168812231E-01  0.51100000000E-03 0. -1.
</event>
<event>
 8    1  0.1126407E+005  0.1043930E+01  0.7957747E-01            NaN
         13   -1    0    0    0    0  0.00000000000E+00  0.00000000000E+00  0.74505805969E-08  0.10566000000E+00  0.10566000000E+00 0.  1.
     999900   -1    0    0    0    0 -0.00000000000E+00 -0.00000000000E+00 -0.74505805969E-08  0.93827000000E+00  0.93827000000E+00 0.  1.
     999902    2    1    2    0    0  0.18810489081E-01 -0.13393314559E-01 -0.25547474588E-03  0.10208371301E+01  0.10205758989E+01 0.  0.
     999903    2    3    3    0    0 -0.51668685065E-01 -0.68501644148E-01  0.96500495006E-01  0.13102481297E+00  0.22204229550E-01 0.  0.
         14    1    1    2    0    0 -0.18810489081E-01  0.13393314559E-01  0.25547474588E-03  0.23092869932E-01  0.00000000000E+00 0. -1.
     999901    1    3    3    0    0  0.70479174146E-01  0.55108329589E-01 -0.96755969752E-01  0.88981231710E+00  0.88000000000E+00 0.  1.
        -11    1    4    4    0    0 -0.29583217032E-01 -0.37597570209E-01  0.69675453773E-01  0.84520257897E-01  0.51100000000E-03 0. -1.
         11    1    4    4    0    0 -0.22085468033E-01 -0.30904073940E-01  0.26825041233E-01  0.46504555072E-01  0.51100000000E-03 0.  1.
</event>
<event>
 8    1  0.1126407E+005  0.1043930E+01  0.7957747E-01            NaN
         13   -1    0    0    0    0  0.00000000000E+00  0.00000000000E+00  0.74505805969E-08  0.10566000000E+00  0.10566000000E+00 0. -1.
     999900   -1    0    0    0    0 -0.00000000000E+00 -0.00000000000E+00 -0.74505805969E-08  0.93827000000E+00  0.93827000000E+00 0.  1.
     999902    2    1    2    0    0 -0.30252949838E-02  0.21564797846E-01 -0.10641492861E-01  0.10196929563E+01  0.10194048709E+01 0.  0.
     999903    2    3    3    0    0 -0.89147134474E-01 -0.39313511348E-01 -0.84681428629E-01  0.13030830846E+00  0.17791771682E-01 0.  0.
         14    1    1    2    0    0  0.30252949838E-02 -0.21564797846E-01  0.10641492861E-01  0.24237043677E-01  0.00000000000E+00 0.  1.
     999901    1    3    3    0    0  0.86121839490E-01  0.60878309194E-01  0.74039935768E-01  0.88938464786E+00  0.88000000000E+00 0. -1.
        -11    1    4    4    0    0 -0.13820044036E-01 -0.83736079081E-03 -0.17302171744E-01  0.22165763201E-01  0.51100000000E-03 0. -1.
         11    1    4    4    0    0 -0.75327090438E-01 -0.38476150557E-01 -0.67379256885E-01  0.10814254526E+00  0.51100000000E-03 0.  1.
</event>
<event>
 7    1  0.1433638E+005  0.1043930E+01  0.7957747E-01            NaN
         13   -1    0    0    0    0  0.00000000000E+00  0.00000000000E+00  0.74505805969E-08  0.10566000000E+00  0.10566000000E+00 0. -1.
     999900   -1    0    0    0    0 -0.00000000000E+00 -0.00000000000E+00 -0.74505805969E-08  0.93827000000E+00  0.93827000000E+00 0.  1.
     999903    2    1    2    0    0  0.69921744190E-01 -0.44510359881E-01  0.39885902813E-01  0.94135678946E-01  0.20010456272E-01 0.  0.
         14    1    1    2    0    0  0.39122724347E-01  0.11972658031E-02 -0.48043452078E-01  0.61969301217E-01  0.00000000000E+00 0.  1.
     999901    1    1    2    0    0 -0.10904446854E+00  0.43313094078E-01  0.81575492653E-02  0.88782501984E+00  0.88000000000E+00 0.  1.
        -11    1    3    3    0    0  0.28008884447E-01 -0.21988808595E-01  0.27422238749E-01  0.44947142405E-01  0.51100000000E-03 0.  1.
         11    1    3    3    0    0  0.41912859743E-01 -0.22521551286E-01  0.12463664064E-01  0.49188536542E-01  0.51100000000E-03 0. -1.
</event>
<event>
 8    1  0.1126407E+005  0.1043930E+01  0.7957747E-01            NaN
         13   -1    0    0    0    0  0.00000000000E+00  0.00000000000E+00  0.74505805969E-08  0.10566000000E+00  0.10566000000E+00 0. -1.
     999900   -1    0    0    0    0 -0.00000000000E+00 -0.00000000000E+00 -0.74505805969E-08  0.93827000000E+00  0.93827000000E+00 0. -1.
     999902    2    1    2    0    0 -0.15421794910E-01  0.15945252466E-01  0.76050346978E-03  0.10217340274E+01  0.10214929082E+01 0.  0.
     999903    2    3    3    0    0  0.47800769547E-03 -0.11144722352E+00 -0.64023880104E-01  0.13006219145E+00  0.19909904566E-01 0.  0.
         14    1    1    2    0    0  0.15421794910E-01 -0.15945252466E-01 -0.76050346978E-03  0.22195972608E-01  0.00000000000E+00 0.  1.
     999901    1    3    3    0    0 -0.15899802606E-01  0.12739247598E+00  0.64784383574E-01  0.89167183594E+00  0.88000000000E+00 0. -1.
        -11    1    4    4    0    0  0.41628126163E-02 -0.10101668423E+00 -0.51916766056E-01  0.11365434977E+00  0.51100000000E-03 0. -1.
         11    1    4    4    0    0 -0.36848049208E-02 -0.10430539283E-01 -0.12107114048E-01  0.16407841680E-01  0.51100000000E-03 0.  1.
</event>
<event>
 8    1  0.1126407E+005  0.1043930E+01  0.7957747E-01            NaN
         13   -1    0    0    0    0  0.00000000000E+00  0.00000000000E+00  0.74505805969E-08  0.10566000000E+00  0.10566000000E+00 0. -1.
     999900   -1    0    0    0    0 -0.00000000000E+00 -0.00000000000E+00 -0.74505805969E-08  0.93827000000E+00  0.93827000000E+00 0. -1.
     999902    2    1    2    0    0 -0.26032803503E-01 -0.53967410086E-02 -0.24087788671E-01  0.10080544758E+01  0.10074158888E+01 0.  0.
     999903    2    3    3    0    0  0.11106018442E+00 -0.32597569994E-01 -0.21374884154E-02  0.11675419639E+00  0.15165994405E-01 0.  0.
         14    1    1    2    0    0  0.26032803503E-01  0.53967410086E-02  0.24087788671E-01  0.35875524175E-01  0.00000000000E+00 0.  1.
     999901    1    3    3    0    0 -0.13709298792E+00  0.27200828985E-01 -0.21950300256E-01  0.89130027943E+00  0.88000000000E+00 0. -1.
        -11    1    4    4    0    0  0.53921748759E-01 -0.94172018609E-02 -0.53895109107E-02  0.55004969130E-01  0.51100000000E-03 0. -1.
         11    1    4    4    0    0  0.57138435658E-01 -0.23180368133E-01  0.32520224953E-02  0.61749227263E-01  0.51100000000E-03 0.  1.
</event>
<event>
 8    1  0.1126407E+005  0.1043930E+01  0.7957747E-01            NaN
         13   -1    0    0    0    0  0.00000000000E+00  0.00000000000E+00  0.74505805969E-08  0.10566000000E+00  0.10566000000E+00 0.  1.
     999900   -1    0    0    0    0 -0.00000000000E+00 -0.00000000000E+00 -0.74505805969E-08  0.93827000000E+00  0.93827000000E+00 0.  1.
     999902    2    1    2    0    0  0.18527146757E-01  0.13136545298E-01  0.86383999465E-02  0.10196309065E+01  0.10193413264E+01 0.  0.
     999903    2    3    3    0    0 -0.51133213325E-01  0.74723411082E-01 -0.89963360900E-01  0.12925580859E+00  0.20382936040E-01 0.  0.
         14    1    1    2    0    0 -0.18527146757E-01 -0.13136545298E-01 -0.86383999465E-02  0.24299093460E-01  0.00000000000E+00 0.  1.
     999901    1    3    3    0    0  0.69660360082E-01 -0.61586865784E-01  0.98601760847E-01  0.89037509795E+00  0.88000000000E+00 0. -1.
        -11    1    4    4    0    0 -0.32031747232E-01  0.35359848648E-01 -0.35941163989E-01  0.59735919822E-01  0.51100000000E-03 0.  1.
         11    1    4    4    0    0 -0.19101466093E-01  0.39363562434E-01 -0.54022196912E-01  0.69519888770E-01  0.51100000000E-03 0. -1.
</event>
<event>
 8    1  0.1126407E+005  0.1043930E+01  0.7957747E-01            NaN
         13   -1    0    0    0    0  0.00000000000E+00  0.00000000000E+00  0.74505805969E-08  0.10566000000E+00  0.10566000000E+00 0.  1.
     999900   -1    0    0    0    0 -0.00000000000E+00 -0.00000000000E+00 -0.74505805969E-08  0.93827000000E+00  0.93827000000E+00 0.  1.
     999902    2    1    2    0    0 -0.16090638085E-01 -0.10313699123E-01  0.14052063302E-01  0.10202078267E+01  0.10199319919E+01 0.  0.
     999903    2    3    3    0    0 -0.63501292138E-01  0.99878885318E-01  0.53077024662E-01  0.13121225674E+00  0.19780797145E-01 0.  0.
         14    1    1    2    0    0  0.16090638085E-01  0.10313699123E-01 -0.14052063302E-01  0.23722173312E-01  0.00000000000E+00 0. -1.
     999901    1    3    3    0    0  0.47410654053E-01 -0.11019258444E+00 -0.39024961359E-01  0.88899556995E+00  0.88000000000E+00 0.  1.
        -11    1    4    4    0    0 -0.55294253602E-01  0.71129249852E-01  0.40015828727E-01  0.98581703859E-01  0.51100000000E-03 0. -1.
         11    1    4    4    0    0 -0.82070385355E-02  0.28749635465E-01  0.13061195935E-01  0.32630552879E-01  0.51100000000E-03 0.  1.
</event>
<event>
 8    1  0.1126407E+005  0.1043930E+01  0.7957747E-01            NaN
         13   -1    0    0    0    0  0.00000000000E+00  0.00000000000E+00  0.74505805969E-08  0.10566000000E+00  0.10566000000E+00 0. -1.
     999900   -1    0    0    0    0 -0.00000000000E+00 -0.00000000000E+00 -0.74505805969E-08  0.93827000000E+00  0.93827000000E+00 0.  1.
     999902    2    1    2    0    0  0.95751191765E-02  0.72025832316E-02 -0.86405366962E-02  0.10291577630E+01  0.10290517393E+01 0.  0.
     999903    2    3    3    0    0  0.51564954811E-01 -0.23260158429E-01  0.12392337525E+00  0.13771830026E+00  0.20232344375E-01 0.  0.
         14    1    1    2    0    0 -0.95751191765E-02 -0.72025832316E-02  0.86405366962E-02  0.14772237029E-01  0.00000000000E+00 0. -1.
     999901    1    3    3    0    0 -0.41989835634E-01  0.30462741660E-01 -0.13256391195E+00  0.89143946271E+00  0.88000000000E+00 0.  1.
        -11    1    4    4    0    0  0.41864256444E-01 -0.25430602386E-01  0.91312939923E-01  0.10362261155E+00  0.51100000000E-03 0. -1.
         11    1    4    4    0    0  0.97006983662E-02  0.21704439566E-02  0.32610435326E-01  0.34095688715E-01  0.51100000000E-03 0.  1.
</event>
<event>
 8    1  0.1126407E+005  0.1043930E+01  0.7957747E-01            NaN
         13   -1    0    0    0    0  0.00000000000E+00  0.00000000000E+00  0.74505805969E-08  0.10566000000E+00  0.10566000000E+00 0. -1.
     999900   -1    0    0    0    0 -0.00000000000E+00 -0.00000000000E+00 -0.74505805969E-08  0.93827000000E+00  0.93827000000E+00 0. -1.
     999902    2    1    2    0    0  0.88624674235E-02 -0.21029120515E-01  0.44241931947E-02  0.10206847699E+01  0.10204200403E+01 0.  0.
     999903    2    3    3    0    0  0.66333232253E-01  0.10594354260E+00 -0.26456662122E-01  0.12918122348E+00  0.19070962494E-01 0.  0.
         14    1    1    2    0    0 -0.88624674235E-02  0.21029120515E-01 -0.44241931947E-02  0.23245230132E-01  0.00000000000E+00 0.  1.
     999901    1    3    3    0    0 -0.57470764829E-01 -0.12697266312E+00  0.30880855316E-01  0.89150354638E+00  0.88000000000E+00 0. -1.
        -11    1    4    4    0    0  0.48927685448E-01  0.72588285543E-01 -0.99873567854E-02  0.88107809064E-01  0.51100000000E-03 0.  1.
         11    1    4    4    0    0  0.17405546805E-01  0.33355257058E-01 -0.16469305336E-01  0.41073414421E-01  0.51100000000E-03 0. -1.
</event>
<event>
 8    1  0.1126407E+005  0.1043930E+01  0.7957747E-01            NaN
         13   -1    0    0    0    0  0.00000000000E+00  0.00000000000E+00  0.74505805969E-08  0.10566000000E+00  0.10566000000E+00 0.  1.
     999900   -1    0    0    0    0 -0.00000000000E+00 -0.00000000000E+00 -0.74505805969E-08  0.93827000000E+00  0.93827000000E+00 0. -1.
     999902    2    1    2    0    0 -0.11188812484E-01  0.43579638242E-02  0.20199465405E-01  0.10204310686E+01  0.10201604609E+01 0.  0.
     999903    2    3    3    0    0  0.58052200152E-01  0.90988774679E-01 -0.67706940440E-01  0.12912486343E+00  0.20975831600E-01 0.  0.
         14    1    1    2    0    0  0.11188812484E-01 -0.43579638242E-02 -0.20199465405E-01  0.23498931383E-01  0.00000000000E+00 0. -1.
     999901    1    3    3    0    0 -0.69241012635E-01 -0.86630810855E-01  0.87906405846E-01  0.89130620519E+00  0.88000000000E+00 0.  1.
        -11    1    4    4    0    0  0.47419220477E-01  0.56381035619E-01 -0.47536840983E-01  0.87677910672E-01  0.51100000000E-03 0. -1.
         11    1    4    4    0    0  0.10632979675E-01  0.34607739060E-01 -0.20170099457E-01  0.41446952756E-01  0.51100000000E-03 0.  1.
</event>
<event>
 8    1  0.1126407E+005  0.1043930E+01  0.7957747E-01            NaN
         13   -1    0    0    0    0  0.00000000000E+00  0.00000000000E+00  0.74505805969E-08  0.10566000000E+00  0.10566000000E+00 0.  1.
     999900   -1    0    0    0    0 -0.00000000000E+00 -0.00000000000E+00 -0.74505805969E-08  0.93827000000E+00  0.93827000000E+00 0.  1.
     999902    2    1    2    0    0  0.15341537604E-01  0.17058918225E-01 -0.91286726117E-03  0.10209691029E+01  0.10207108829E+01 0.  0.
     999903    2    3    3    0    0 -0.60564009915E-01 -0.88696618755E-02  0.11306406523E+00  0.13000070589E+00  0.19236176512E-01 0.  0.
         14    1    1    2    0    0 -0.15341537604E-01 -0.17058918225E-01  0.91286726117E-03  0.22960897057E-01  0.00000000000E+00 0. -1.
     999901    1    3    3    0    0  0.75905547519E-01  0.25928580100E-01 -0.11397693249E+00  0.89096839705E+00  0.88000000000E+00 0.  1.
        -11    1    4    4    0    0 -0.18575248108E-01  0.41745128067E-02  0.23697737608E-01  0.30402471744E-01  0.51100000000E-03 0.  1.
         11    1    4    4    0    0 -0.41988761807E-01 -0.13044174682E-01  0.89366327620E-01  0.99598234144E-01  0.51100000000E-03 0. -1.
</event>
<event>
 8    1  0.1126407E+005  0.1043930E+01  0.7957747E-01            NaN
         13   -1    0    0    0    0  0.00000000000E+00  0.00000000000E+00  0.74505805969E-08  0.10566000000E+00  0.10566000000E+00 0.  1.
     999900   -1    0    0    0    0 -0.00000000000E+00 -0.00000000000E+00 -0.74505805969E-08  0.93827000000E+00  0.93827000000E+00 0.  1.
     999902    2    1    2    0    0  0.12259756492E-01 -0.13348445868E-01 -0.15415690381E-01  0.10201365945E+01  0.10198590811E+01 0.  0.
     999903    2    3    3    0    0  0.83244769037E-01 -0.36123648093E-02  0.97788798631E-01  0.12999676299E+00  0.19843600915E-01 0.  0.
         14    1    1    2    0    0 -0.12259756492E-01  0.13348445868E-01  0.15415690381E-01  0.23793405520E-01  0.00000000000E+00 0.  1.
     999901    1    3    3    0    0 -0.70985012546E-01 -0.97360810591E-02 -0.11320448901E+00  0.89013983149E+00  0.88000000000E+00 0.  1.
        -11    1    4    4    0    0  0.46263438354E-01  0.44864132802E-02  0.42478623433E-01  0.62969263949E-01  0.51100000000E-03 0. -1.
         11    1    4    4    0    0  0.36981330683E-01 -0.80987780896E-02  0.55310175198E-01  0.67027499036E-01  0.51100000000E-03 0.  1.
</event>
<event>
 8    1  0.1126407E+005  0.1043930E+01  0.7957747E-01            NaN
         13   -1    0    0    0    0  0.00000000000E+00  0.00000000000E+00  0.74505805969E-08  0.10566000000E+00  0.10566000000E+00 0. -1.
     999900   -1    0    0    0    0 -0.00000000000E+00 -0.00000000000E+00 -0.74505805969E-08  0.93827000000E+00  0.93827000000E+00 0.  1.
     999902    2    1    2    0    0 -0.29237613469E-03  0.22852267135E-01 -0.66305499112E-02  0.10201334501E+01  0.10198558624E+01 0.  0.
     999903    2    3    3    0    0  0.22876439076E-01  0.12964525161E+00  0.24258592794E-02  0.13332819856E+00  0.20959508793E-01 0.  0.
         14    1    1    2    0    0  0.29237613469E-03 -0.22852267135E-01  0.66305499112E-02  0.23796549942E-01  0.00000000000E+00 0.  1.
     999901    1    3    3    0    0 -0.23168815211E-01 -0.10679298448E+00 -0.90564091905E-02  0.88680525149E+00  0.88000000000E+00 0. -1.
        -11    1    4    4    0    0 -0.15717553492E-02  0.41094251705E-01  0.49759366525E-02  0.41427394374E-01  0.51100000000E-03 0. -1.
         11    1    4    4    0    0  0.24448194425E-01  0.88550999906E-01 -0.25500773731E-02  0.91900804189E-01  0.51100000000E-03 0.  1.
</event>
<event>
 8    1  0.1126407E+005  0.1043930E+01  0.7957747E-01            NaN
         13   -1    0    0    0    0  0.00000000000E+00  0.00000000000E+00  0.74505805969E-08  0.10566000000E+00  0.10566000000E+00 0. -1.
     999900   -1    0    0    0    0 -0.00000000000E+00 -0.00000000000E+00 -0.74505805969E-08  0.93827000000E+00  0.93827000000E+00 0.  1.
     999902    2    1    2    0    0 -0.10862704523E-01  0.18522857702E-02  0.20507540717E-01  0.10206493527E+01  0.10203838065E+01 0.  0.
     999903    2    3    3    0    0  0.83006335598E-01  0.91267290020E-01 -0.32013435797E-01  0.12960227614E+00  0.23497232456E-01 0.  0.
         14    1    1    2    0    0  0.10862704523E-01 -0.18522857702E-02 -0.20507540717E-01  0.23280647293E-01  0.00000000000E+00 0.  1.
     999901    1    3    3    0    0 -0.93869040121E-01 -0.89415004249E-01  0.52520976514E-01  0.89104707656E+00  0.88000000000E+00 0.  1.
        -11    1    4    4    0    0  0.64415524344E-01  0.59018580110E-01 -0.14889807889E-01  0.88625730320E-01  0.51100000000E-03 0. -1.
         11    1    4    4    0    0  0.18590811253E-01  0.32248709910E-01 -0.17123627907E-01  0.40976545824E-01  0.51100000000E-03 0.  1.
</event>
<event>
 8    1  0.1126407E+005  0.1043930E+01  0.7957747E-01            NaN
         13   -1    0    0    0    0  0.00000000000E+00  0.00000000000E+00  0.74505805969E-08  0.10566000000E+00  0.10566000000E+00 0. -1.
     999900   -1    0    0    0    0 -0.00000000000E+00 -0.00000000000E+00 -0.74505805969E-08  0.93827000000E+00  0.93827000000E+00 0.  1.
     999902    2    1    2    0    0  0.18765001309E-01 -0.10713421147E-01 -0.11716884389E-01  0.10193497631E+01  0.10190533605E+01 0.  0.
     999903    2    3    3    0    0  0.72342463269E-01  0.10447907697E+00  0.16193786387E-01  0.12978871313E+00  0.20822147414E-01 0.  0.
         14    1    1    2    0    0 -0.18765001309E-01  0.10713421147E-01  0.11716884389E-01  0.24580236911E-01  0.00000000000E+00 0.  1.
     999901    1    3    3    0    0 -0.53577461961E-01 -0.11519249812E+00 -0.27910670776E-01  0.88956104995E+00  0.88000000000E+00 0. -1.
        -11    1    4    4    0    0  0.38499902785E-01  0.38603044193E-01  0.33898679756E-02  0.54627738937E-01  0.51100000000E-03 0. -1.
         11    1    4    4    0    0  0.33842560484E-01  0.65876032778E-01  0.12803918411E-01  0.75160974198E-01  0.51100000000E-03 0.  1.
</event>
<event>
 8    1  0.1126407E+005  0.1043930E+01  0.7957747E-01            NaN
         13   -1    0    0    0    0  0.00000000000E+00  0.00000000000E+00  0.74505805969E-08  0.10566000000E+00  0.10566000000E+00 0. -1.
     999900   -1    0    0    0    0 -0.00000000000E+00 -0.00000000000E+00 -0.74505805969E-08  0.93827000000E+00  0.93827000000E+00 0. -1.
     999902    2    1    2    0    0 -0.80083980178E-02  0.90593166066E-02  0.20153695283E-01  0.10204272961E+01  0.10201566005E+01 0.  0.
     999903    2    3    3    0    0 -0.98091899972E-02  0.98330290342E-01 -0.82003457846E-01  0.13002927639E+00  0.20444544804E-01 0.  0.
         14    1    1    2    0    0  0.80083980178E-02 -0.90593166066E-02 -0.20153695283E-01  0.23502703882E-01  0.00000000000E+00 0.  1.
     999901    1    3    3    0    0  0.18007919794E-02 -0.89270973736E-01  0.10215715313E+00  0.89039801973E+00  0.88000000000E+00 0.  1.
        -11    1    4    4    0    0 -0.77386033974E-02  0.85991649501E-01 -0.79273633993E-01  0.11721356549E+00  0.51100000000E-03 0. -1.
         11    1    4    4    0    0 -0.20705865998E-02  0.12338640841E-01 -0.27298238529E-02  0.12815710903E-01  0.51100000000E-03 0.  1.
</event>
<event>
 8    1  0.1126407E+005  0.1043930E+01  0.7957747E-01            NaN
         13   -1    0    0    0    0  0.00000000000E+00  0.00000000000E+00  0.74505805969E-08  0.10566000000E+00  0.10566000000E+00 0.  1.
     999900   -1    0    0    0    0 -0.00000000000E+00 -0.00000000000E+00 -0.74505805969E-08  0.93827000000E+00  0.93827000000E+00 0. -1.
     999902    2    1    2    0    0 -0.21354043986E-02 -0.59593851298E-02  0.22978851486E-01  0.10200951130E+01  0.10198166196E+01 0.  0.
     999903    2    3    3    0    0  0.10225319619E+00  0.74696981425E-01  0.26969446121E-01  0.13025335501E+00  0.14255886564E-01 0.  0.
         14    1    1    2    0    0  0.21354043986E-02  0.59593851298E-02 -0.22978851486E-01  0.23834887008E-01  0.00000000000E+00 0. -1.
     999901    1    3    3    0    0 -0.10438860059E+00 -0.80656366555E-01 -0.39905946344E-02  0.88984175798E+00  0.88000000000E+00 0. -1.
        -11    1    4    4    0    0  0.29495795633E-01  0.25288035685E-01  0.14262797119E-01  0.41390520793E-01  0.51100000000E-03 0. -1.
         11    1    4    4    0    0  0.72757400561E-01  0.49408945740E-01  0.12706649002E-01  0.88862834219E-01  0.51100000000E-03 0.  1.
</event>
<event>
 8    1  0.1126407E+005  0.1043930E+01  0.7957747E-01            NaN
         13   -1    0    0    0    0  0.00000000000E+00  0.00000000000E+00  0.74505805969E-08  0.10566000000E+00  0.10566000000E+00 0. -1.
     999900   -1    0    0    0    0 -0.00000000000E+00 -0.00000000000E+00 -0.74505805969E-08  0.93827000000E+00  0.93827000000E+00 0.  1.
     999902    2    1    2    0    0 -0.95009789729E-02 -0.20408317365E-01 -0.64753813430E-02  0.10205056839E+01  0.10202368119E+01 0.  0.
     999903    2    3    3    0    0  0.15893457426E-01 -0.29031935549E-01  0.12451657190E+00  0.13040561316E+00  0.20144279521E-01 0.  0.
         14    1    1    2    0    0  0.95009789729E-02  0.20408317365E-01  0.64753813430E-02  0.23424316055E-01  0.00000000000E+00 0.  1.
     999901    1    3    3    0    0 -0.25394436399E-01  0.86236181839E-02 -0.13099195324E+00  0.89010007078E+00  0.88000000000E+00 0.  1.
        -11    1    4    4    0    0  0.63929545712E-02 -0.50956848799E-02  0.65535667107E-01  0.66045595286E-01  0.51100000000E-03 0. -1.
         11    1    4    4    0    0  0.95005028549E-02 -0.23936250669E-01  0.58980904789E-01  0.64360017878E-01  0.51100000000E-03 0.  1.
</event>
<event>
 8    1  0.1126407E+005  0.1043930E+01  0.7957747E-01            NaN
         13   -1    0    0    0    0  0.00000000000E+00  0.00000000000E+00  0.74505805969E-08  0.10566000000E+00  0.10566000000E+00 0. -1.
     999900   -1    0    0    0    0 -0.00000000000E+00 -0.00000000000E+00 -0.74505805969E-08  0.93827000000E+00  0.93827000000E+00 0.  1.
     999902    2    1    2    0    0  0.40774577774E-02  0.16782915539E-01  0.12152846341E-01  0.10228116764E+01  0.10225936348E+01 0.  0.
     999903    2    3    3    0    0  0.68067335673E-01 -0.10765289713E+00  0.25011141223E-01  0.13166392679E+00  0.22079945378E-01 0.  0.
         14    1    1    2    0    0 -0.40774577774E-02 -0.16782915539E-01 -0.12152846341E-01  0.21118323563E-01  0.00000000000E+00 0. -1.
     999901    1    3    3    0    0 -0.63989877895E-01  0.12443581267E+00 -0.12858294882E-01  0.89114774964E+00  0.88000000000E+00 0.  1.
        -11    1    4    4    0    0  0.25737487528E-01 -0.55212294622E-01  0.39151985630E-02  0.61044292464E-01  0.51100000000E-03 0.  1.
         11    1    4    4    0    0  0.42329848145E-01 -0.52440602506E-01  0.21095942660E-01  0.70619634330E-01  0.51100000000E-03 0. -1.
</event>
<event>
 8    1  0.1126407E+005  0.1043930E+01  0.7957747E-01            NaN
         13   -1    0    0    0    0  0.00000000000E+00  0.00000000000E+00  0.74505805969E-08  0.10566000000E+00  0.10566000000E+00 0.  1.
     999900   -1    0    0    0    0 -0.00000000000E+00 -0.00000000000E+00 -0.74505805969E-08  0.93827000000E+00  0.93827000000E+00 0.  1.
     999902    2    1    2    0    0  0.18828800471E-01  0.14374052072E-01 -0.38696883059E-02  0.10199276754E+01  0.10196452086E+01 0.  0.
     999903    2    3    3    0    0 -0.42281965903E-01 -0.11388586542E+00  0.34215153684E-01  0.12771941078E+00  0.19591226747E-01 0.  0.
         14    1    1    2    0    0 -0.18828800471E-01 -0.14374052072E-01  0.38696883059E-02  0.24002324632E-01  0.00000000000E+00 0.  1.
     999901    1    3    3    0    0  0.61110766375E-01  0.12825991750E+00 -0.38084841990E-01  0.89220826458E+00  0.88000000000E+00 0. -1.
        -11    1    4    4    0    0 -0.24707726755E-01 -0.44018994810E-01  0.19919972404E-01  0.54269789820E-01  0.51100000000E-03 0. -1.
         11    1    4    4    0    0 -0.17574239148E-01 -0.69866870613E-01  0.14295181280E-01  0.73449620964E-01  0.51100000000E-03 0.  1.
</event>
<event>
 8    1  0.1126407E+005  0.1043930E+01  0.7957747E-01            NaN
         13   -1    0    0    0    0  0.00000000000E+00  0.00000000000E+00  0.74505805969E-08  0.10566000000E+00  0.10566000000E+00 0. -1.
     999900   -1    0    0    0    0 -0.00000000000E+00 -0.00000000000E+00 -0.74505805969E-08  0.93827000000E+00  0.93827000000E+00 0. -1.
     999902    2    1    2    0    0 -0.29617214805E-01 -0.24763318446E-02 -0.15926616820E-01  0.10102110327E+01  0.10096481376E+01 0.  0.
     999903    2    3    3    0    0 -0.41888084057E-01 -0.52262826917E-01 -0.10283829364E+00  0.12444418477E+00  0.20606450966E-01 0.  0.
         14    1    1    2    0    0  0.29617214805E-01  0.24763318446E-02  0.15926616820E-01  0.33718967297E-01  0.00000000000E+00 0. -1.
     999901    1    3    3    0    0  0.12270869252E-01  0.49786495073E-01  0.86911676822E-01  0.88576684793E+00  0.88000000000E+00 0.  1.
        -11    1    4    4    0    0 -0.71935486018E-02 -0.24768571661E-01 -0.38774325692E-01  0.46571866373E-01  0.51100000000E-03 0. -1.
         11    1    4    4    0    0 -0.34694535455E-01 -0.27494255256E-01 -0.64063967950E-01  0.77872318400E-01  0.51100000000E-03 0.  1.
</event>
<event>
 8    1  0.1126407E+005  0.1043930E+01  0.7957747E-01            NaN
         13   -1    0    0    0    0  0.00000000000E+00  0.00000000000E+00  0.74505805969E-08  0.10566000000E+00  0.10566000000E+00 0. -1.
     999900   -1    0    0    0    0 -0.00000000000E+00 -0.00000000000E+00 -0.74505805969E-08  0.93827000000E+00  0.93827000000E+00 0. -1.
     999902    2    1    2    0    0  0.19711810664E-01 -0.74135740084E-02 -0.10498159430E-01  0.10203985761E+01  0.10201272108E+01 0.  0.
     999903    2    3    3    0    0  0.60899132137E-01 -0.92611215439E-01  0.68429286274E-01  0.13181285979E+00  0.20162372505E-01 0.  0.
         14    1    1    2    0    0 -0.19711810664E-01  0.74135740084E-02  0.10498159430E-01  0.23531423898E-01  0.00000000000E+00 0.  1.
     999901    1    3    3    0    0 -0.41187321472E-01  0.85197641430E-01 -0.78927445704E-01  0.88858571632E+00  0.88000000000E+00 0. -1.
        -11    1    4    4    0    0  0.34462889944E-01 -0.34930452383E-01  0.26660802632E-01  0.55846994592E-01  0.51100000000E-03 0.  1.
         11    1    4    4    0    0  0.26436242193E-01 -0.57680763056E-01  0.41768483642E-01  0.75965865194E-01  0.51100000000E-03 0. -1.
</event>
<event>
 8    1  0.1126407E+005  0.1043930E+01  0.7957747E-01            NaN
         13   -1    0    0    0    0  0.00000000000E+00  0.00000000000E+00  0.74505805969E-08  0.10566000000E+00  0.10566000000E+00 0. -1.
     999900   -1    0    0    0    0 -0.00000000000E+00 -0.00000000000E+00 -0.74505805969E-08  0.93827000000E+00  0.93827000000E+00 0.  1.
     999902    2    1    2    0    0  0.34072313644E-02 -0.74411909503E-02  0.19620604090E-01  0.10226709160E+01  0.10224499273E+01 0.  0.
     999903    2    3    3    0    0  0.19445260794E-01 -0.94990282045E-01 -0.87073317165E-01  0.13176931953E+00  0.19496644733E-01 0.  0.
         14    1    1    2    0    0 -0.34072313644E-02  0.74411909503E-02 -0.19620604090E-01  0.21259084016E-01  0.00000000000E+00 0.  1.
     999901    1    3    3    0    0 -0.16038029429E-01  0.87549091095E-01  0.10669392126E+00  0.89090159646E+00  0.88000000000E+00 0. -1.
        -11    1    4    4    0    0  0.27221302564E-02 -0.25084062890E-01 -0.12389364268E-01  0.28113656329E-01  0.51100000000E-03 0. -1.
         11    1    4    4    0    0  0.16723130537E-01 -0.69906219155E-01 -0.74683952897E-01  0.10365566320E+00  0.51100000000E-03 0.  1.
</event>
<event>
 8    1  0.1126407E+005  0.1043930E+01  0.7957747E-01            NaN
         13   -1    0    0    0    0  0.00000000000E+00  0.00000000000E+00  0.74505805969E-08  0.10566000000E+00  0.10566000000E+00 0. -1.
     999900   -1    0    0    0    0 -0.00000000000E+00 -0.00000000000E+00 -0.74505805969E-08  0.93827000000E+00  0.93827000000E+00 0.  1.
     999902    2    1    2    0    0  0.37423994337E-02  0.21678862182E-02  0.22838540418E-01  0.10206855552E+01  0.10204208438E+01 0.  0.
     999903    2    3    3    0    0  0.59906339871E-01  0.69990241376E-01 -0.88574770521E-01  0.12930057335E+00  0.19640388285E-01 0.  0.
         14    1    1    2    0    0 -0.37423994337E-02 -0.21678862182E-02 -0.22838540418E-01  0.23244444768E-01  0.00000000000E+00 0.  1.
     999901    1    3    3    0    0 -0.56163940437E-01 -0.67822355158E-01  0.11141331094E+00  0.89138498188E+00  0.88000000000E+00 0.  1.
        -11    1    4    4    0    0  0.28957804835E-01  0.25246068995E-01 -0.26056563363E-01  0.46423313925E-01  0.51100000000E-03 0.  1.
         11    1    4    4    0    0  0.30948535036E-01  0.44744172382E-01 -0.62518207158E-01  0.82877259428E-01  0.51100000000E-03 0. -1.
</event>
<event>
 8    1  0.1126407E+005  0.1043930E+01  0.7957747E-01            NaN
         13   -1    0    0    0    0  0.00000000000E+00  0.00000000000E+00  0.74505805969E-08  0.10566000000E+00  0.10566000000E+00 0. -1.
     999900   -1    0    0    0    0 -0.00000000000E+00 -0.00000000000E+00 -0.74505805969E-08  0.93827000000E+00  0.93827000000E+00 0.  1.
     999902    2    1    2    0    0  0.15691326755E-01  0.11740559844E-01 -0.13329810379E-01  0.10202288961E+01  0.10199535569E+01 0.  0.
     999903    2    3    3    0    0 -0.10194506677E+00 -0.39909577207E-01 -0.65817731559E-01  0.12935233923E+00  0.20358852695E-01 0.  0.
         14    1    1    2    0    0 -0.15691326755E-01 -0.11740559844E-01  0.13329810379E-01  0.23701103889E-01  0.00000000000E+00 0. -1.
     999901    1    3    3    0    0  0.11763639353E+00  0.51650137051E-01  0.52487921180E-01  0.89087655689E+00  0.88000000000E+00 0.  1.
        -11    1    4    4    0    0 -0.36159633469E-01 -0.16847681091E-01 -0.13237925566E-01  0.42034120010E-01  0.51100000000E-03 0.  1.
         11    1    4    4    0    0 -0.65785433304E-01 -0.23061896117E-01 -0.52579805993E-01  0.87318219215E-01  0.51100000000E-03 0. -1.
</event>
<event>
 8    1  0.1126407E+005  0.1043930E+01  0.7957747E-01            NaN
         13   -1    0    0    0    0  0.00000000000E+00  0.00000000000E+00  0.74505805969E-08  0.10566000000E+00  0.10566000000E+00 0. -1.
     999900   -1    0    0    0    0 -0.00000000000E+00 -0.00000000000E+00 -0.74505805969E-08  0.93827000000E+00  0.93827000000E+00 0. -1.
     999902    2    1    2    0    0  0.27188266717E-02 -0.22732015890E-01 -0.53025764776E-02  0.10204299174E+01  0.10201592829E+01 0.  0.
     999903    2    3    3    0    0 -0.56243750157E-01  0.64889304003E-01 -0.94965221223E-01  0.12959128385E+00  0.20038123709E-01 0.  0.
         14    1    1    2    0    0 -0.27188266717E-02  0.22732015890E-01  0.53025764776E-02  0.23500082600E-01  0.00000000000E+00 0.  1.
     999901    1    3    3    0    0  0.58962576828E-01 -0.87621319893E-01  0.89662644746E-01  0.89083863355E+00  0.88000000000E+00 0.  1.
        -11    1    4    4    0    0 -0.19268098159E-01  0.37033103522E-01 -0.48586668551E-01  0.64059627262E-01  0.51100000000E-03 0.  1.
         11    1    4    4    0    0 -0.36975651998E-01  0.27856200481E-01 -0.46378552673E-01  0.65531656586E-01  0.51100000000E-03 0. -1.
</event>
<event>
 8    1  0.1126407E+005  0.1043930E+01  0.7957747E-01            NaN
         13   -1    0    0    0    0  0.00000000000E+00  0.00000000000E+00  0.74505805969E-08  0.10566000000E+00  0.10566000000E+00 0. -1.
     999900   -1    0    0    0    0 -0.00000000000E+00 -0.00000000000E+00 -0.74505805969E-08  0.93827000000E+00  0.93827000000E+00 0.  1.
     999902    2    1    2    0    0 -0.21536257384E-01  0.81208350140E-02  0.10035056395E-02  0.10208916544E+01  0.10206316695E+01 0.  0.
     999903    2    3    3    0    0 -0.73622239244E-01  0.70133588406E-01 -0.83486099348E-01  0.13314336552E+00  0.20451715441E-01 0.  0.
         14    1    1    2    0    0  0.21536257384E-01 -0.81208350140E-02 -0.10035056395E-02  0.23038345579E-01  0.00000000000E+00 0.  1.
     999901    1    3    3    0    0  0.52085981859E-01 -0.62012753392E-01  0.84489604988E-01  0.88774828890E+00  0.88000000000E+00 0. -1.
        -11    1    4    4    0    0 -0.68840769317E-01  0.63166626967E-01 -0.68216414112E-01  0.11568411541E+00  0.51100000000E-03 0.  1.
         11    1    4    4    0    0 -0.47814699267E-02  0.69669614391E-02 -0.15269685236E-01  0.17459250115E-01  0.51100000000E-03 0. -1.
</event>
<event>
 7    1  0.1126407E+005  0.1043930E+01  0.7957747E-01            NaN
         13   -1    0    0    0    0  0.00000000000E+00  0.00000000000E+00  0.74505805969E-08  0.10566000000E+00  0.10566000000E+00 0. -1.
     999900   -1    0    0    0    0 -0.00000000000E+00 -0.00000000000E+00 -0.74505805969E-08  0.93827000000E+00  0.93827000000E+00 0. -1.
     999903    2    1    2    0    0  0.77879111854E-01 -0.42788870919E-01  0.21901683834E-01  0.93769938575E-01  0.20422391825E-01 0.  0.
         14    1    1    2    0    0  0.58034354566E-01  0.40277006280E-05 -0.80604896715E-02  0.58591448351E-01  0.00000000000E+00 0.  1.
     999901    1    1    2    0    0 -0.13591346642E+00  0.42784843218E-01 -0.13841194162E-01  0.89156861307E+00  0.88000000000E+00 0. -1.
        -11    1    3    3    0    0  0.42321676513E-01 -0.32086155986E-01  0.62834531274E-02  0.53482601031E-01  0.51100000000E-03 0. -1.
         11    1    3    3    0    0  0.35557435341E-01 -0.10702714933E-01  0.15618230707E-01  0.40287337544E-01  0.51100000000E-03 0.  1.
</event>
<event>
 8    1  0.1126407E+005  0.1043930E+01  0.7957747E-01            NaN
         13   -1    0    0    0    0  0.00000000000E+00  0.00000000000E+00  0.74505805969E-08  0.10566000000E+00  0.10566000000E+00 0.  1.
     999900   -1    0    0    0    0 -0.00000000000E+00 -0.00000000000E+00 -0.74505805969E-08  0.93827000000E+00  0.93827000000E+00 0. -1.
     999902    2    1    2    0    0  0.90082623223E-02  0.99342210983E-02  0.19270356887E-01  0.10204526877E+01  0.10201825835E+01 0.  0.
     999903    2    3    3    0    0  0.11853159985E+00  0.55045519782E-01  0.86448940615E-02  0.13245308679E+00  0.19731614148E-01 0.  0.
         14    1    1    2    0    0 -0.90082623223E-02 -0.99342210983E-02 -0.19270356887E-01  0.23477312313E-01  0.00000000000E+00 0. -1.
     999901    1    3    3    0    0 -0.10952333752E+00 -0.45111298684E-01  0.10625462825E-01  0.88799960090E+00  0.88000000000E+00 0.  1.
        -11    1    4    4    0    0  0.45150410600E-01  0.18949118686E-01 -0.61248364167E-02  0.49349806671E-01  0.51100000000E-03 0.  1.
         11    1    4    4    0    0  0.73381189247E-01  0.36096401095E-01  0.14769730478E-01  0.83103280120E-01  0.51100000000E-03 0. -1.
</event>
<event>
 8    1  0.1126407E+005  0.1043930E+01  0.7957747E-01            NaN
         13   -1    0    0    0    0  0.00000000000E+00  0.00000000000E+00  0.74505805969E-08  0.10566000000E+00  0.10566000000E+00 0.  1.
     999900   -1    0    0    0    0 -0.00000000000E+00 -0.00000000000E+00 -0.74505805969E-08  0.93827000000E+00  0.93827000000E+00 0. -1.
     999902    2    1    2    0    0 -0.12077569247E-01  0.20106289382E-01  0.14142301300E-02  0.10204325406E+01  0.10201619672E+01 0.  0.
     999903    2    3    3    0    0  0.81546198149E-01  0.98251603921E-01 -0.25712814934E-01  0.13160861170E+00  0.18881676712E-01 0.  0.
         14    1    1    2    0    0  0.12077569247E-01 -0.20106289382E-01 -0.14142301300E-02  0.23497459405E-01  0.00000000000E+00 0.  1.
     999901    1    3    3    0    0 -0.93623767397E-01 -0.78145314539E-01  0.27127045064E-01  0.88882392890E+00  0.88000000000E+00 0.  1.
        -11    1    4    4    0    0  0.16584885470E-01  0.10362661453E-01 -0.11875329817E-02  0.19598840119E-01  0.51100000000E-03 0. -1.
         11    1    4    4    0    0  0.64961312680E-01  0.87888942468E-01 -0.24525281953E-01  0.11200977158E+00  0.51100000000E-03 0.  1.
</event>
<event>
 8    1  0.1126407E+005  0.1043930E+01  0.7957747E-01            NaN
         13   -1    0    0    0    0  0.00000000000E+00  0.00000000000E+00  0.74505805969E-08  0.10566000000E+00  0.10566000000E+00 0. -1.
     999900   -1    0    0    0    0 -0.00000000000E+00 -0.00000000000E+00 -0.74505805969E-08  0.93827000000E+00  0.93827000000E+00 0.  1.
     999902    2    1    2    0    0  0.21128106523E-01 -0.56289178955E-02 -0.61799783150E-02  0.10212083422E+01  0.10209555350E+01 0.  0.
     999903    2    3    3    0    0 -0.63048515246E-01  0.64892673411E-01 -0.91561283066E-01  0.13028243859E+00  0.20096539783E-01 0.  0.
         14    1    1    2    0    0 -0.21128106523E-01  0.56289178955E-02  0.61799783150E-02  0.22721657816E-01  0.00000000000E+00 0. -1.
     999901    1    3    3    0    0  0.84176621769E-01 -0.70521591307E-01  0.85381304751E-01  0.89092590359E+00  0.88000000000E+00 0. -1.
        -11    1    4    4    0    0 -0.21359921356E-01  0.28315793906E-01 -0.23798206381E-01  0.42715877292E-01  0.51100000000E-03 0. -1.
         11    1    4    4    0    0 -0.41688593890E-01  0.36576879505E-01 -0.67763076685E-01  0.87566561298E-01  0.51100000000E-03 0.  1.
</event>
<event>
 8    1  0.1126407E+005  0.1043930E+01  0.7957747E-01            NaN
         13   -1    0    0    0    0  0.00000000000E+00  0.00000000000E+00  0.74505805969E-08  0.10566000000E+00  0.10566000000E+00 0.  1.
     999900   -1    0    0    0    0 -0.00000000000E+00 -0.00000000000E+00 -0.74505805969E-08  0.93827000000E+00  0.93827000000E+00 0. -1.
     999902    2    1    2    0    0 -0.22048156050E-01 -0.60666816163E-02  0.45199406012E-02  0.10206200091E+01  0.10203537854E+01 0.  0.
     999903    2    3    3    0    0 -0.11568659017E+00 -0.45780416094E-01  0.44438211497E-01  0.13386254207E+00  0.21568307442E-01 0.  0.
         14    1    1    2    0    0  0.22048156050E-01  0.60666816163E-02 -0.45199406012E-02  0.23309990864E-01  0.00000000000E+00 0. -1.
     999901    1    3    3    0    0  0.93638434116E-01  0.39713734477E-01 -0.39918270895E-01  0.88675746707E+00  0.88000000000E+00 0. -1.
        -11    1    4    4    0    0 -0.51567702252E-01 -0.31974025113E-01  0.21792746791E-01  0.64472871281E-01  0.51100000000E-03 0. -1.
         11    1    4    4    0    0 -0.64118887914E-01 -0.13806390981E-01  0.22645464706E-01  0.69389670787E-01  0.51100000000E-03 0.  1.
</event>
<event>
 8    1  0.1126407E+005  0.1043930E+01  0.7957747E-01            NaN
         13   -1    0    0    0    0  0.00000000000E+00  0.00000000000E+00  0.74505805969E-08  0.10566000000E+00  0.10566000000E+00 0.  1.
     999900   -1    0    0    0    0 -0.00000000000E+00 -0.00000000000E+00 -0.74505805969E-08  0.93827000000E+00  0.93827000000E+00 0. -1.
     999902    2    1    2    0    0  0.14401754490E-01  0.17471344358E-01 -0.29660806534E-02  0.10210945880E+01  0.10208392144E+01 0.  0.
     999903    2    3    3    0    0  0.83572578319E-02 -0.46690469153E-01 -0.12041442904E+00  0.13095561640E+00  0.19997376755E-01 0.  0.
         14    1    1    2    0    0 -0.14401754490E-01 -0.17471344358E-01  0.29660806534E-02  0.22835411985E-01  0.00000000000E+00 0.  1.
     999901    1    3    3    0    0  0.60444966581E-02  0.64161813511E-01  0.11744834839E+00  0.89013897162E+00  0.88000000000E+00 0. -1.
        -11    1    4    4    0    0  0.14791579145E-01 -0.28623263857E-01 -0.72212613045E-01  0.79075942303E-01  0.51100000000E-03 0.  1.
         11    1    4    4    0    0 -0.64343213129E-02 -0.18067205296E-01 -0.48201815995E-01  0.51879674095E-01  0.51100000000E-03 0. -1.
</event>
<event>
 8    1  0.1126407E+005  0.1043930E+01  0.7957747E-01            NaN
         13   -1    0    0    0    0  0.00000000000E+00  0.00000000000E+00  0.74505805969E-08  0.10566000000E+00  0.10566000000E+00 0. -1.
     999900   -1    0    0    0    0 -0.00000000000E+00 -0.00000000000E+00 -0.74505805969E-08  0.93827000000E+00  0.93827000000E+00 0.  1.
     999902    2    1    2    0    0  0.17772878595E-01  0.51361894276E-02 -0.16418742077E-01  0.10191947873E+01  0.10188945891E+01 0.  0.
     999903    2    3    3    0    0  0.10694183616E-01  0.89600678336E-01  0.89112430816E-01  0.12884587466E+00  0.22750537772E-01 0.  0.
         14    1    1    2    0    0 -0.17772878595E-01 -0.51361894276E-02  0.16418742077E-01  0.24735212690E-01  0.00000000000E+00 0. -1.
     999901    1    3    3    0    0  0.70786949799E-02 -0.84464488909E-01 -0.10553117289E+00  0.89034891265E+00  0.88000000000E+00 0.  1.
        -11    1    4    4    0    0  0.16251383121E-01  0.82148099460E-01  0.80702853947E-01  0.11629973970E+00  0.51100000000E-03 0.  1.
         11    1    4    4    0    0 -0.55571995056E-02  0.74525788760E-02  0.84095768689E-02  0.12546134957E-01  0.51100000000E-03 0. -1.
</event>
<event>
 8    1  0.1126407E+005  0.1043930E+01  0.7957747E-01            NaN
         13   -1    0    0    0    0  0.00000000000E+00  0.00000000000E+00  0.74505805969E-08  0.10566000000E+00  0.10566000000E+00 0. -1.
     999900   -1    0    0    0    0 -0.00000000000E+00 -0.00000000000E+00 -0.74505805969E-08  0.93827000000E+00  0.93827000000E+00 0. -1.
     999902    2    1    2    0    0  0.23186589191E-01  0.12051420295E-02 -0.50412962102E-02  0.10201711079E+01  0.10198944085E+01 0.  0.
     999903    2    3    3    0    0  0.56505639858E-01 -0.84431623180E-01  0.80796491610E-01  0.13123244833E+00  0.19294976261E-01 0.  0.
         14    1    1    2    0    0 -0.23186589191E-01 -0.12051420295E-02  0.50412962102E-02  0.23758892085E-01  0.00000000000E+00 0.  1.
     999901    1    3    3    0    0 -0.33319050667E-01  0.85636765210E-01 -0.85837787820E-01  0.88893865959E+00  0.88000000000E+00 0. -1.
        -11    1    4    4    0    0  0.41630448223E-01 -0.70031436627E-01  0.72014593159E-01  0.10873756979E+00  0.51100000000E-03 0. -1.
         11    1    4    4    0    0  0.14875191634E-01 -0.14400186553E-01  0.87818984508E-02  0.22494878536E-01  0.51100000000E-03 0.  1.
</event>
<event>
 7    1  0.1126407E+005  0.1043930E+01  0.7957747E-01            NaN
         13   -1    0    0    0    0  0.00000000000E+00  0.00000000000E+00  0.74505805969E-08  0.10566000000E+00  0.10566000000E+00 0. -1.
     999900   -1    0    0    0    0 -0.00000000000E+00 -0.00000000000E+00 -0.74505805969E-08  0.93827000000E+00  0.93827000000E+00 0. -1.
     999902    2    1    2    0    0 -0.90176416953E-03  0.23026076885E-01  0.66969640080E-02  0.10199328601E+01  0.10196505168E+01 0.  0.
         14    1    1    2    0    0  0.90176416953E-03 -0.23026076885E-01 -0.66969640080E-02  0.23997139876E-01  0.00000000000E+00 0.  1.
     999901    1    3    3    0    0  0.70261196063E-01 -0.43804180224E-01 -0.60785713521E-01  0.88597423487E+00  0.88000000000E+00 0.  1.
        -11    1    3    3    0    0  0.27462278149E-02  0.13572833398E-01  0.34317403035E-01  0.37009577757E-01  0.51100000000E-03 0. -1.
         11    1    3    3    0    0 -0.73909188047E-01  0.53257423711E-01  0.33165274494E-01  0.96949047501E-01  0.51100000000E-03 0.  1.
</event>
<event>
 8    1  0.1126407E+005  0.1043930E+01  0.7957747E-01            NaN
         13   -1    0    0    0    0  0.00000000000E+00  0.00000000000E+00  0.74505805969E-08  0.10566000000E+00  0.10566000000E+00 0. -1.
     999900   -1    0    0    0    0 -0.00000000000E+00 -0.00000000000E+00 -0.74505805969E-08  0.93827000000E+00  0.93827000000E+00 0. -1.
     999902    2    1    2    0    0 -0.22349022032E-01 -0.82915693617E-02 -0.36692185712E-02  0.10198117067E+01  0.10195264710E+01 0.  0.
     999903    2    3    3    0    0 -0.53338651463E-01  0.99796458737E-01  0.61471689054E-01  0.13026872469E+00  0.19667922100E-01 0.  0.
         14    1    1    2    0    0  0.22349022032E-01  0.82915693617E-02  0.36692185712E-02  0.24118293331E-01  0.00000000000E+00 0. -1.
     999901    1    3    3    0    0  0.30989629431E-01 -0.10808802810E+00 -0.65140907625E-01  0.88954298198E+00  0.88000000000E+00 0.  1.
        -11    1    4    4    0    0 -0.12173043342E-01  0.18959463299E-01  0.40268360064E-02  0.22893683889E-01  0.51100000000E-03 0. -1.
         11    1    4    4    0    0 -0.41165608121E-01  0.80836995438E-01  0.57444853047E-01  0.10737504080E+00  0.51100000000E-03 0.  1.
</event>
<event>
 8    1  0.1126407E+005  0.1043930E+01  0.7957747E-01            NaN
         13   -1    0    0    0    0  0.00000000000E+00  0.00000000000E+00  0.74505805969E-08  0.10566000000E+00  0.10566000000E+00 0. -1.
     999900   -1    0    0    0    0 -0.00000000000E+00 -0.00000000000E+00 -0.74505805969E-08  0.93827000000E+00  0.93827000000E+00 0.  1.
     999902    2    1    2    0    0  0.44433948991E-02 -0.91430951967E-02 -0.22210239344E-01  0.10195038935E+01  0.10192112412E+01 0.  0.
     999903    2    3    3    0    0  0.12100221656E+00  0.15377692745E-01  0.38432217586E-01  0.12941135024E+00  0.19805362327E-01 0.  0.
         14    1    1    2    0    0 -0.44433948991E-02  0.91430951967E-02  0.22210239344E-01  0.24426106520E-01  0.00000000000E+00 0. -1.
     999901    1    3    3    0    0 -0.11655882166E+00 -0.24520787942E-01 -0.60642456930E-01  0.89009254324E+00  0.88000000000E+00 0.  1.
        -11    1    4    4    0    0  0.39989700892E-01 -0.28047435440E-02  0.17749670106E-01  0.43844665282E-01  0.51100000000E-03 0. -1.
         11    1    4    4    0    0  0.81012515664E-01  0.18182436289E-01  0.20682547480E-01  0.85566684959E-01  0.51100000000E-03 0.  1.
</event>
<event>
 8    1  0.1126407E+005  0.1043930E+01  0.7957747E-01            NaN
         13   -1    0    0    0    0  0.00000000000E+00  0.00000000000E+00  0.74505805969E-08  0.10566000000E+00  0.10566000000E+00 0. -1.
     999900   -1    0    0    0    0 -0.00000000000E+00 -0.00000000000E+00 -0.74505805969E-08  0.93827000000E+00  0.93827000000E+00 0. -1.
     999902    2    1    2    0    0  0.14192764450E-01 -0.22492191525E-02 -0.18249923820E-01  0.10207017140E+01  0.10204373747E+01 0.  0.
     999903    2    3    3    0    0  0.10742339593E+00 -0.29397383402E-01  0.66165474759E-01  0.13134524277E+00  0.21672807927E-01 0.  0.
         14    1    1    2    0    0 -0.14192764450E-01  0.22492191525E-02  0.18249923820E-01  0.23228285967E-01  0.00000000000E+00 0. -1.
     999901    1    3    3    0    0 -0.93230631479E-01  0.27148164249E-01 -0.84415398578E-01  0.88935647127E+00  0.88000000000E+00 0. -1.
        -11    1    4    4    0    0  0.55434462185E-01 -0.39702384767E-02  0.31664325948E-01  0.63965874105E-01  0.51100000000E-03 0.  1.
         11    1    4    4    0    0  0.51988933744E-01 -0.25427144925E-01  0.34501148811E-01  0.67379368661E-01  0.51100000000E-03 0. -1.
</event>
<event>
 8    1  0.1126407E+005  0.1043930E+01  0.7957747E-01            NaN
         13   -1    0    0    0    0  0.00000000000E+00  0.00000000000E+00  0.74505805969E-08  0.10566000000E+00  0.10566000000E+00 0.  1.
     999900   -1    0    0    0    0 -0.00000000000E+00 -0.00000000000E+00 -0.74505805969E-08  0.93827000000E+00  0.93827000000E+00 0. -1.
     999902    2    1    2    0    0  0.16664673056E-01 -0.73146430540E-02  0.14202577105E-01  0.10208447552E+01  0.10205836985E+01 0.  0.
     999903    2    3    3    0    0 -0.43822305851E-01  0.40004911888E-03  0.12292196742E+00  0.13206013735E+00  0.20236483694E-01 0.  0.
         14    1    1    2    0    0 -0.16664673056E-01  0.73146430540E-02 -0.14202577105E-01  0.23085244800E-01  0.00000000000E+00 0.  1.
     999901    1    3    3    0    0  0.60486978907E-01 -0.77146921728E-02 -0.10871939032E+00  0.88878461785E+00  0.88000000000E+00 0.  1.
        -11    1    4    4    0    0 -0.29357521288E-01 -0.71179647605E-02  0.61656684989E-01  0.68661032641E-01  0.51100000000E-03 0. -1.
         11    1    4    4    0    0 -0.14464784563E-01  0.75180138793E-02  0.61265282435E-01  0.63399104710E-01  0.51100000000E-03 0.  1.
</event>
<event>
 8    1  0.1126407E+005  0.1043930E+01  0.7957747E-01            NaN
         13   -1    0    0    0    0  0.00000000000E+00  0.00000000000E+00  0.74505805969E-08  0.10566000000E+00  0.10566000000E+00 0.  1.
     999900   -1    0    0    0    0 -0.00000000000E+00 -0.00000000000E+00 -0.74505805969E-08  0.93827000000E+00  0.93827000000E+00 0. -1.
     999902    2    1    2    0    0 -0.18110434647E-01  0.98562779224E-02 -0.97594014821E-02  0.10211181615E+01  0.10208633208E+01 0.  0.
     999903    2    3    3    0    0  0.39946694992E-01  0.66741893399E-01 -0.10516334995E+00  0.13223767634E+00  0.19423030061E-01 0.  0.
         14    1    1    2    0    0  0.18110434647E-01 -0.98562779224E-02  0.97594014821E-02  0.22811838481E-01  0.00000000000E+00 0.  1.
     999901    1    3    3    0    0 -0.58057129639E-01 -0.56885615477E-01  0.95403948463E-01  0.88888048518E+00  0.88000000000E+00 0.  1.
        -11    1    4    4    0    0  0.22514088466E-01  0.19490030429E-01 -0.40555950674E-01  0.50316912879E-01  0.51100000000E-03 0.  1.
         11    1    4    4    0    0  0.17432606526E-01  0.47251862970E-01 -0.64607399271E-01  0.81920763460E-01  0.51100000000E-03 0. -1.
</event>
<event>
 8    1  0.1126407E+005  0.1043930E+01  0.7957747E-01            NaN
         13   -1    0    0    0    0  0.00000000000E+00  0.00000000000E+00  0.74505805969E-08  0.10566000000E+00  0.10566000000E+00 0.  1.
     999900   -1    0    0    0    0 -0.00000000000E+00 -0.00000000000E+00 -0.74505805969E-08  0.93827000000E+00  0.93827000000E+00 0.  1.
     999902    2    1    2    0    0 -0.84623497484E-02  0.73512893014E-02 -0.19485565895E-01  0.10214502292E+01  0.10212028352E+01 0.  0.
     999903    2    3    3    0    0  0.97295297220E-01  0.31629785173E-01  0.77070545862E-01  0.12954372737E+00  0.19362078687E-01 0.  0.
         14    1    1    2    0    0  0.84623497484E-02 -0.73512893014E-02  0.19485565895E-01  0.22479770816E-01  0.00000000000E+00 0.  1.
     999901    1    3    3    0    0 -0.10575764697E+00 -0.24278495871E-01 -0.96556111758E-01  0.89190650181E+00  0.88000000000E+00 0.  1.
        -11    1    4    4    0    0  0.61507819900E-01  0.28453788765E-01  0.55801319062E-01  0.87788828071E-01  0.51100000000E-03 0. -1.
         11    1    4    4    0    0  0.35787477320E-01  0.31759964076E-02  0.21269226800E-01  0.41754899303E-01  0.51100000000E-03 0.  1.
</event>
<event>
 8    1  0.1126407E+005  0.1043930E+01  0.7957747E-01            NaN
         13   -1    0    0    0    0  0.00000000000E+00  0.00000000000E+00  0.74505805969E-08  0.10566000000E+00  0.10566000000E+00 0. -1.
     999900   -1    0    0    0    0 -0.00000000000E+00 -0.00000000000E+00 -0.74505805969E-08  0.93827000000E+00  0.93827000000E+00 0.  1.
     999902    2    1    2    0    0  0.10534515526E-01  0.28898053988E-02  0.21096072557E-01  0.10201735005E+01  0.10198968574E+01 0.  0.
     999903    2    3    3    0    0  0.74121470846E-01  0.56503492450E-01 -0.87762932119E-01  0.12957369628E+00  0.20009333167E-01 0.  0.
         14    1    1    2    0    0 -0.10534515526E-01 -0.28898053988E-02 -0.21096072557E-01  0.23756499530E-01  0.00000000000E+00 0.  1.
     999901    1    3    3    0    0 -0.63586955320E-01 -0.53613687051E-01  0.10885900468E+00  0.89059980419E+00  0.88000000000E+00 0. -1.
        -11    1    4    4    0    0  0.74360584214E-02 -0.34920776673E-03 -0.95081740554E-02  0.12086496837E-01  0.51100000000E-03 0. -1.
         11    1    4    4    0    0  0.66685412425E-01  0.56852700217E-01 -0.78254758063E-01  0.11748719944E+00  0.51100000000E-03 0.  1.
</event>
<event>
 8    1  0.1126407E+005  0.1043930E+01  0.7957747E-01            NaN
         13   -1    0    0    0    0  0.00000000000E+00  0.00000000000E+00  0.74505805969E-08  0.10566000000E+00  0.10566000000E+00 0.  1.
     999900   -1    0    0    0    0 -0.00000000000E+00 -0.00000000000E+00 -0.74505805969E-08  0.93827000000E+00  0.93827000000E+00 0.  1.
     999902    2    1    2    0    0 -0.14790869986E-01 -0.12796061776E-01  0.13750726549E-01  0.10200220199E+01  0.10197417955E+01 0.  0.
     999903    2    3    3    0    0  0.10742327413E+00 -0.69740761870E-01 -0.16299445085E-02  0.12962011012E+00  0.19879198597E-01 0.  0.
         14    1    1    2    0    0  0.14790869986E-01  0.12796061776E-01 -0.13750726549E-01  0.23907980101E-01  0.00000000000E+00 0. -1.
     999901    1    3    3    0    0 -0.12221414412E+00  0.56944700095E-01  0.15380671058E-01  0.89040190978E+00  0.88000000000E+00 0. -1.
        -11    1    4    4    0    0  0.71988751532E-01 -0.54094753815E-01 -0.78282248865E-02  0.90388964831E-01  0.51100000000E-03 0.  1.
         11    1    4    4    0    0  0.35434522603E-01 -0.15646008055E-01  0.61982803780E-02  0.39231145291E-01  0.51100000000E-03 0. -1.
</event>
<event>
 8    1  0.1126407E+005  0.1043930E+01  0.7957747E-01            NaN
         13   -1    0    0    0    0  0.00000000000E+00  0.00000000000E+00  0.74505805969E-08  0.10566000000E+00  0.10566000000E+00 0.  1.
     999900   -1    0    0    0    0 -0.00000000000E+00 -0.00000000000E+00 -0.74505805969E-08  0.93827000000E+00  0.93827000000E+00 0.  1.
     999902    2    1    2    0    0  0.30178626342E-01  0.11499474566E-01 -0.25400561245E-02  0.10115349496E+01  0.10110160805E+01 0.  0.
     999903    2    3    3    0    0 -0.26344129917E-01 -0.83221394427E-01  0.80975014468E-01  0.12072541218E+00  0.19946390823E-01 0.  0.
         14    1    1    2    0    0 -0.30178626342E-01 -0.11499474566E-01  0.25400561245E-02  0.32395050367E-01  0.00000000000E+00 0. -1.
     999901    1    3    3    0    0  0.56522756259E-01  0.94720868993E-01 -0.83515070593E-01  0.89080953745E+00  0.88000000000E+00 0.  1.
        -11    1    4    4    0    0  0.25892309619E-02 -0.15889135155E-01  0.12011731327E-01  0.20092574335E-01  0.51100000000E-03 0. -1.
         11    1    4    4    0    0 -0.28933360879E-01 -0.67332259272E-01  0.68963283141E-01  0.10063283785E+00  0.51100000000E-03 0.  1.
</event>
<event>
 8    1  0.1126407E+005  0.1043930E+01  0.7957747E-01            NaN
         13   -1    0    0    0    0  0.00000000000E+00  0.00000000000E+00  0.74505805969E-08  0.10566000000E+00  0.10566000000E+00 0.  1.
     999900   -1    0    0    0    0 -0.00000000000E+00 -0.00000000000E+00 -0.74505805969E-08  0.93827000000E+00  0.93827000000E+00 0. -1.
     999902    2    1    2    0    0 -0.19015398914E-01  0.11572577373E-01 -0.75788509131E-02  0.10204151340E+01  0.10201441549E+01 0.  0.
     999903    2    3    3    0    0  0.11751777530E+00 -0.21559072107E-01  0.40821603869E-01  0.12795694567E+00  0.20769099644E-01 0.  0.
         14    1    1    2    0    0  0.19015398914E-01 -0.11572577373E-01  0.75788509131E-02  0.23514866023E-01  0.00000000000E+00 0.  1.
     999901    1    3    3    0    0 -0.13653317422E+00  0.33131649480E-01 -0.48400454782E-01  0.89245818831E+00  0.88000000000E+00 0. -1.
        -11    1    4    4    0    0  0.63554759450E-01 -0.11942869299E-02  0.22633953826E-01  0.67477335134E-01  0.51100000000E-03 0. -1.
         11    1    4    4    0    0  0.53963015852E-01 -0.20364785177E-01  0.18187650043E-01  0.60479610533E-01  0.51100000000E-03 0.  1.
</event>
<event>
 8    1  0.1126407E+005  0.1043930E+01  0.7957747E-01            NaN
         13   -1    0    0    0    0  0.00000000000E+00  0.00000000000E+00  0.74505805969E-08  0.10566000000E+00  0.10566000000E+00 0.  1.
     999900   -1    0    0    0    0 -0.00000000000E+00 -0.00000000000E+00 -0.74505805969E-08  0.93827000000E+00  0.93827000000E+00 0.  1.
     999902    2    1    2    0    0  0.84617650058E-02  0.26664979836E-02 -0.22565712302E-01  0.10196828754E+01  0.10193945475E+01 0.  0.
     999903    2    3    3    0    0 -0.10436015931E+00  0.59654067694E-01  0.40643602570E-01  0.12840750429E+00  0.19670640130E-01 0.  0.
         14    1    1    2    0    0 -0.84617650058E-02 -0.26664979836E-02  0.22565712302E-01  0.24247124576E-01  0.00000000000E+00 0.  1.
     999901    1    3    3    0    0  0.11282192432E+00 -0.56987569710E-01 -0.63209314872E-01  0.89127537114E+00  0.88000000000E+00 0.  1.
        -11    1    4    4    0    0 -0.72285921470E-01  0.35348741012E-01  0.35066979173E-01  0.87776660242E-01  0.51100000000E-03 0.  1.
         11    1    4    4    0    0 -0.32074237843E-01  0.24305326681E-01  0.55766233967E-02  0.40630844045E-01  0.51100000000E-03 0. -1.
</event>
<event>
 8    1  0.1126407E+005  0.1043930E+01  0.7957747E-01            NaN
         13   -1    0    0    0    0  0.00000000000E+00  0.00000000000E+00  0.74505805969E-08  0.10566000000E+00  0.10566000000E+00 0.  1.
     999900   -1    0    0    0    0 -0.00000000000E+00 -0.00000000000E+00 -0.74505805969E-08  0.93827000000E+00  0.93827000000E+00 0. -1.
     999902    2    1    2    0    0  0.13585750527E-01  0.85578328758E-02 -0.17572199440E-01  0.10201268213E+01  0.10198490772E+01 0.  0.
     999903    2    3    3    0    0  0.12299719980E+00 -0.40872898301E-02 -0.45834529777E-01  0.13281091161E+00  0.19822134749E-01 0.  0.
         14    1    1    2    0    0 -0.13585750527E-01 -0.85578328758E-02  0.17572199440E-01  0.23803178655E-01  0.00000000000E+00 0.  1.
     999901    1    3    3    0    0 -0.10941144927E+00  0.12645122706E-01  0.28262330336E-01  0.88731590974E+00  0.88000000000E+00 0. -1.
        -11    1    4    4    0    0  0.38001903178E-01 -0.10119391392E-01 -0.17096497433E-01  0.42884706747E-01  0.51100000000E-03 0.  1.
         11    1    4    4    0    0  0.84995296618E-01  0.60321015615E-02 -0.28738032344E-01  0.89926204859E-01  0.51100000000E-03 0. -1.
</event>
<event>
 8    1  0.1126407E+005  0.1043930E+01  0.7957747E-01            NaN
         13   -1    0    0    0    0  0.00000000000E+00  0.00000000000E+00  0.74505805969E-08  0.10566000000E+00  0.10566000000E+00 0.  1.
     999900   -1    0    0    0    0 -0.00000000000E+00 -0.00000000000E+00 -0.74505805969E-08  0.93827000000E+00  0.93827000000E+00 0. -1.
     999902    2    1    2    0    0  0.10519755081E-01 -0.21365348445E-01 -0.27293038482E-02  0.10199593417E+01  0.10196776286E+01 0.  0.
     999903    2    3    3    0    0 -0.91322744804E-01  0.86606028910E-01 -0.45253732880E-02  0.12752842615E+00  0.20064209712E-01 0.  0.
         14    1    1    2    0    0 -0.10519755081E-01  0.21365348445E-01  0.27293038482E-02  0.23970658327E-01  0.00000000000E+00 0.  1.
     999901    1    3    3    0    0  0.10184249989E+00 -0.10797137736E+00  0.17960694399E-02  0.89243091552E+00  0.88000000000E+00 0. -1.
        -11    1    4    4    0    0 -0.46388477240E-01  0.34174083676E-01 -0.90514722481E-02  0.58326229834E-01  0.51100000000E-03 0.  1.
         11    1    4    4    0    0 -0.44934267564E-01  0.52431945234E-01  0.45260989600E-02  0.69202196318E-01  0.51100000000E-03 0. -1.
</event>
<event>
 8    1  0.1126407E+005  0.1043930E+01  0.7957747E-01            NaN
         13   -1    0    0    0    0  0.00000000000E+00  0.00000000000E+00  0.74505805969E-08  0.10566000000E+00  0.10566000000E+00 0. -1.
     999900   -1    0    0    0    0 -0.00000000000E+00 -0.00000000000E+00 -0.74505805969E-08  0.93827000000E+00  0.93827000000E+00 0. -1.
     999902    2    1    2    0    0  0.23553579170E-01 -0.24514223635E-03  0.28528879758E-02  0.10202030079E+01  0.10199270597E+01 0.  0.
     999903    2    3    3    0    0  0.81779298327E-01  0.40672067872E-02  0.10279788125E+00  0.13262324670E+00  0.17808014222E-01 0.  0.
         14    1    1    2    0    0 -0.23553579170E-01  0.24514223635E-03 -0.28528879758E-02  0.23726992144E-01  0.00000000000E+00 0.  1.
     999901    1    3    3    0    0 -0.58225719157E-01 -0.43123490236E-02 -0.99944993276E-01  0.88757976115E+00  0.88000000000E+00 0. -1.
        -11    1    4    4    0    0  0.70388875986E-01  0.41734136872E-02  0.76951047767E-01  0.10437306222E+00  0.51100000000E-03 0.  1.
         11    1    4    4    0    0  0.11390422341E-01 -0.10620689998E-03  0.25846833484E-01  0.28250184480E-01  0.51100000000E-03 0. -1.
</event>
<event>
 8    1  0.1126407E+005  0.1043930E+01  0.7957747E-01            NaN
         13   -1    0    0    0    0  0.00000000000E+00  0.00000000000E+00  0.74505805969E-08  0.10566000000E+00  0.10566000000E+00 0. -1.
     999900   -1    0    0    0    0 -0.00000000000E+00 -0.00000000000E+00 -0.74505805969E-08  0.93827000000E+00  0.93827000000E+00 0.  1.
     999902    2    1    2    0    0 -0.52476542103E-02  0.22461818018E-01  0.15569868794E-01  0.10161003044E+01  0.10157191229E+01 0.  0.
     999903    2    3    3    0    0 -0.10409285703E+00 -0.46072960858E-02 -0.67962288525E-01  0.12622349698E+00  0.21376352965E-01 0.  0.
         14    1    1    2    0    0  0.52476542103E-02 -0.22461818018E-01 -0.15569868794E-01  0.27829695609E-01  0.00000000000E+00 0.  1.
     999901    1    3    3    0    0  0.98845202823E-01  0.27069114104E-01  0.83532157319E-01  0.88987680741E+00  0.88000000000E+00 0.  1.
        -11    1    4    4    0    0 -0.76716615650E-01  0.47942617402E-02 -0.43504965689E-01  0.88325348701E-01  0.51100000000E-03 0. -1.
         11    1    4    4    0    0 -0.27376241383E-01 -0.94015578260E-02 -0.24457322836E-01  0.37898148281E-01  0.51100000000E-03 0.  1.
</event>
<event>
 8    1  0.1126407E+005  0.1043930E+01  0.7957747E-01            NaN
         13   -1    0    0    0    0  0.00000000000E+00  0.00000000000E+00  0.74505805969E-08  0.10566000000E+00  0.10566000000E+00 0.  1.
     999900   -1    0    0    0    0 -0.00000000000E+00 -0.00000000000E+00 -0.74505805969E-08  0.93827000000E+00  0.93827000000E+00 0. -1.
     999902    2    1    2    0    0 -0.20206125762E-01 -0.58221354721E-02 -0.11984853246E-01  0.10197262506E+01  0.10194389656E+01 0.  0.
     999903    2    3    3    0    0 -0.10601179648E+00 -0.55722300274E-01 -0.54186035441E-01  0.13314090252E+00  0.21139956174E-01 0.  0.
         14    1    1    2    0    0  0.20206125762E-01  0.58221354721E-02  0.11984853246E-01  0.24203749443E-01  0.00000000000E+00 0.  1.
     999901    1    3    3    0    0  0.85805670714E-01  0.49900164802E-01  0.42201182195E-01  0.88658534804E+00  0.88000000000E+00 0. -1.
        -11    1    4    4    0    0 -0.14734980515E-01 -0.16942788883E-03 -0.72936991662E-02  0.16450152739E-01  0.51100000000E-03 0. -1.
         11    1    4    4    0    0 -0.91276815961E-01 -0.55552872385E-01 -0.46892336275E-01  0.11669074978E+00  0.51100000000E-03 0.  1.
</event>
<event>
 8    1  0.1126407E+005  0.1043930E+01  0.7957747E-01            NaN
         13   -1    0    0    0    0  0.00000000000E+00  0.00000000000E+00  0.74505805969E-08  0.10566000000E+00  0.10566000000E+00 0. -1.
     999900   -1    0    0    0    0 -0.00000000000E+00 -0.00000000000E+00 -0.74505805969E-08  0.93827000000E+00  0.93827000000E+00 0.  1.
     999902    2    1    2    0    0 -0.62420566644E-02  0.18027639616E-01 -0.13842816907E-01  0.10203591994E+01  0.10200869145E+01 0.  0.
     999903    2    3    3    0    0 -0.50129592877E-01 -0.67741123970E-01  0.94923796901E-01  0.12844408408E+00  0.19634651966E-01 0.  0.
         14    1    1    2    0    0  0.62420566644E-02 -0.18027639616E-01  0.13842816907E-01  0.23570800611E-01  0.00000000000E+00 0. -1.
     999901    1    3    3    0    0  0.43887536213E-01  0.85768763586E-01 -0.10876661381E+00  0.89191511531E+00  0.88000000000E+00 0.  1.
        -11    1    4    4    0    0 -0.36141816405E-01 -0.35067816375E-01  0.63109864021E-01  0.80740935690E-01  0.51100000000E-03 0.  1.
         11    1    4    4    0    0 -0.13987776472E-01 -0.32673307595E-01  0.31813932880E-01  0.47703148387E-01  0.51100000000E-03 0. -1.
</event>
<event>
 8    1  0.1126407E+005  0.1043930E+01  0.7957747E-01            NaN
         13   -1    0    0    0    0  0.00000000000E+00  0.00000000000E+00  0.74505805969E-08  0.10566000000E+00  0.10566000000E+00 0.  1.
     999900   -1    0    0    0    0 -0.00000000000E+00 -0.00000000000E+00 -0.74505805969E-08  0.93827000000E+00  0.93827000000E+00 0. -1.
     999902    2    1    2    0    0 -0.15982201461E-01  0.16511174441E-01 -0.92729486795E-02  0.10191502255E+01  0.10188489314E+01 0.  0.
     999903    2    3    3    0    0 -0.12391141569E+00 -0.33673668276E-01 -0.17195142390E-01  0.13110180632E+00  0.20101139932E-01 0.  0.
         14    1    1    2    0    0  0.15982201461E-01 -0.16511174441E-01  0.92729486795E-02  0.24779774458E-01  0.00000000000E+00 0.  1.
     999901    1    3    3    0    0  0.10792921423E+00  0.50184842717E-01  0.79221937109E-02  0.88804841922E+00  0.88000000000E+00 0.  1.
        -11    1    4    4    0    0 -0.84223078856E-01 -0.31985241742E-01 -0.90403922417E-02  0.90545969067E-01  0.51100000000E-03 0. -1.
         11    1    4    4    0    0 -0.39688336832E-01 -0.16884265336E-02 -0.81547501487E-02  0.40555837257E-01  0.51100000000E-03 0.  1.
</event>
<event>
 8    1  0.1126407E+005  0.1043930E+01  0.7957747E-01            NaN
         13   -1    0    0    0    0  0.00000000000E+00  0.00000000000E+00  0.74505805969E-08  0.10566000000E+00  0.10566000000E+00 0. -1.
     999900   -1    0    0    0    0 -0.00000000000E+00 -0.00000000000E+00 -0.74505805969E-08  0.93827000000E+00  0.93827000000E+00 0.  1.
     999902    2    1    2    0    0 -0.21167730587E-01 -0.69041603958E-02 -0.71669068969E-02  0.10205397284E+01  0.10202716464E+01 0.  0.
     999903    2    3    3    0    0 -0.10472666183E+00  0.68734541112E-01  0.38100084838E-01  0.13219722203E+00  0.18231242661E-01 0.  0.
         14    1    1    2    0    0  0.21167730587E-01  0.69041603958E-02  0.71669068969E-02  0.23390271556E-01  0.00000000000E+00 0.  1.
     999901    1    3    3    0    0  0.83558931242E-01 -0.75638701508E-01 -0.45266991734E-01  0.88834250641E+00  0.88000000000E+00 0.  1.
        -11    1    4    4    0    0 -0.67464109328E-01  0.34187322985E-01  0.25809088657E-01  0.79915888775E-01  0.51100000000E-03 0. -1.
         11    1    4    4    0    0 -0.37262552501E-01  0.34547218127E-01  0.12290996181E-01  0.52281333259E-01  0.51100000000E-03 0.  1.
</event>
<event>
 8    1  0.1126407E+005  0.1043930E+01  0.7957747E-01            NaN
         13   -1    0    0    0    0  0.00000000000E+00  0.00000000000E+00  0.74505805969E-08  0.10566000000E+00  0.10566000000E+00 0.  1.
     999900   -1    0    0    0    0 -0.00000000000E+00 -0.00000000000E+00 -0.74505805969E-08  0.93827000000E+00  0.93827000000E+00 0. -1.
     999902    2    1    2    0    0  0.16312868758E-02 -0.16407718450E-01 -0.17849627466E-01  0.10196301333E+01  0.10193405345E+01 0.  0.
     999903    2    3    3    0    0 -0.11296634722E+00  0.58147031587E-01  0.63747893361E-02  0.12874414122E+00  0.19797552213E-01 0.  0.
         14    1    1    2    0    0 -0.16312868758E-02  0.16407718450E-01  0.17849627466E-01  0.24299866713E-01  0.00000000000E+00 0.  1.
     999901    1    3    3    0    0  0.11459763409E+00 -0.74554750036E-01 -0.24224416802E-01  0.89088599207E+00  0.88000000000E+00 0.  1.
        -11    1    4    4    0    0 -0.18720602250E-01  0.34691945029E-02 -0.33989400667E-02  0.19347097293E-01  0.51100000000E-03 0.  1.
         11    1    4    4    0    0 -0.94245744966E-01  0.54677837084E-01  0.97737294029E-02  0.10939704393E+00  0.51100000000E-03 0. -1.
</event>
<event>
 8    1  0.1126407E+005  0.1043930E+01  0.7957747E-01            NaN
         13   -1    0    0    0    0  0.00000000000E+00  0.00000000000E+00  0.74505805969E-08  0.10566000000E+00  0.10566000000E+00 0. -1.
     999900   -1    0    0    0    0 -0.00000000000E+00 -0.00000000000E+00 -0.74505805969E-08  0.93827000000E+00  0.93827000000E+00 0.  1.
     999902    2    1    2    0    0 -0.35403719403E-02  0.22410354838E-01 -0.58978842254E-02  0.10204876606E+01  0.10202183699E+01 0.  0.
     999903    2    3    3    0    0  0.49279870873E-01 -0.10875422274E+00 -0.43002551577E-01  0.12842775186E+00  0.19709930740E-01 0.  0.
         14    1    1    2    0    0  0.35403719403E-02 -0.22410354838E-01  0.58978842254E-02  0.23442339384E-01  0.00000000000E+00 0. -1.
     999901    1    3    3    0    0 -0.52820242813E-01  0.13116457758E+00  0.37104667352E-01  0.89205990875E+00  0.88000000000E+00 0.  1.
        -11    1    4    4    0    0  0.66156065437E-02 -0.76022957856E-02 -0.89425240341E-02  0.13482989589E-01  0.51100000000E-03 0. -1.
         11    1    4    4    0    0  0.42664264329E-01 -0.10115192696E+00 -0.34060027543E-01  0.11494476228E+00  0.51100000000E-03 0.  1.
</event>
<event>
 8    1  0.1126407E+005  0.1043930E+01  0.7957747E-01            NaN
         13   -1    0    0    0    0  0.00000000000E+00  0.00000000000E+00  0.74505805969E-08  0.10566000000E+00  0.10566000000E+00 0.  1.
     999900   -1    0    0    0    0 -0.00000000000E+00 -0.00000000000E+00 -0.74505805969E-08  0.93827000000E+00  0.93827000000E+00 0.  1.
     999902    2    1    2    0    0  0.41377259960E-02 -0.21309252352E-01 -0.90606686707E-02  0.10204076547E+01  0.10201365012E+01 0.  0.
     999903    2    3    3    0    0 -0.44258253485E-01 -0.12288893627E+00 -0.17459425575E-01  0.13320353943E+00  0.19438819832E-01 0.  0.
         14    1    1    2    0    0 -0.41377259960E-02  0.21309252352E-01  0.90606686707E-02  0.23522345312E-01  0.00000000000E+00 0.  1.
     999901    1    3    3    0    0  0.48395979481E-01  0.10157968392E+00  0.83987569046E-02  0.88720411526E+00  0.88000000000E+00 0. -1.
        -11    1    4    4    0    0 -0.68824363221E-02 -0.24784012286E-01 -0.11120843317E-01  0.28027655482E-01  0.51100000000E-03 0. -1.
         11    1    4    4    0    0 -0.37375817163E-01 -0.98104923982E-01 -0.63385822582E-02  0.10517588395E+00  0.51100000000E-03 0.  1.
</event>
<event>
 8    1  0.1126407E+005  0.1043930E+01  0.7957747E-01            NaN
         13   -1    0    0    0    0  0.00000000000E+00  0.00000000000E+00  0.74505805969E-08  0.10566000000E+00  0.10566000000E+00 0.  1.
     999900   -1    0    0    0    0 -0.00000000000E+00 -0.00000000000E+00 -0.74505805969E-08  0.93827000000E+00  0.93827000000E+00 0.  1.
     999902    2    1    2    0    0  0.22762300057E-01  0.26189120749E-02 -0.37056469929E-02  0.10207198121E+01  0.10204558893E+01 0.  0.
     999903    2    3    3    0    0 -0.82253500150E-04  0.42268456470E-02  0.12891211861E+00  0.13048842033E+00  0.19774238967E-01 0.  0.
         14    1    1    2    0    0 -0.22762300057E-01 -0.26189120749E-02  0.37056469929E-02  0.23210187934E-01  0.00000000000E+00 0.  1.
     999901    1    3    3    0    0  0.22844553557E-01 -0.16079335720E-02 -0.13261776560E+00  0.89023139173E+00  0.88000000000E+00 0.  1.
        -11    1    4    4    0    0  0.93846686600E-02  0.34629089832E-02  0.49075464477E-01  0.50087184779E-01  0.51100000000E-03 0. -1.
         11    1    4    4    0    0 -0.94669221602E-02  0.76393666372E-03  0.79836654131E-01  0.80401235551E-01  0.51100000000E-03 0.  1.
</event>
<event>
 8    1  0.1126407E+005  0.1043930E+01  0.7957747E-01            NaN
         13   -1    0    0    0    0  0.00000000000E+00  0.00000000000E+00  0.74505805969E-08  0.10566000000E+00  0.10566000000E+00 0. -1.
     999900   -1    0    0    0    0 -0.00000000000E+00 -0.00000000000E+00 -0.74505805969E-08  0.93827000000E+00  0.93827000000E+00 0. -1.
     999902    2    1    2    0    0  0.83728779907E-02  0.11596569970E-01  0.18612982773E-01  0.10204560006E+01  0.10201859735E+01 0.  0.
     999903    2    3    3    0    0  0.34659220768E-01 -0.10253221406E+00  0.71491239995E-01  0.13112340743E+00  0.19189426113E-01 0.  0.
         14    1    1    2    0    0 -0.83728779907E-02 -0.11596569970E-01 -0.18612982773E-01  0.23473999417E-01  0.00000000000E+00 0.  1.
     999901    1    3    3    0    0 -0.26286342778E-01  0.11412878403E+00 -0.52878257221E-01  0.88933259316E+00  0.88000000000E+00 0.  1.
        -11    1    4    4    0    0  0.11012241870E-01 -0.62146763931E-01  0.41299234240E-01  0.75427963037E-01  0.51100000000E-03 0.  1.
         11    1    4    4    0    0  0.23646978899E-01 -0.40385450132E-01  0.30192005754E-01  0.55695444391E-01  0.51100000000E-03 0. -1.
</event>
<event>
 8    1  0.1126407E+005  0.1043930E+01  0.7957747E-01            NaN
         13   -1    0    0    0    0  0.00000000000E+00  0.00000000000E+00  0.74505805969E-08  0.10566000000E+00  0.10566000000E+00 0. -1.
     999900   -1    0    0    0    0 -0.00000000000E+00 -0.00000000000E+00 -0.74505805969E-08  0.93827000000E+00  0.93827000000E+00 0. -1.
     999902    2    1    2    0    0 -0.46365569755E-02 -0.12501853276E-01 -0.18680746376E-01  0.10209786540E+01  0.10207206512E+01 0.  0.
     999903    2    3    3    0    0 -0.12498756096E+00  0.28923602628E-01  0.17616548527E-01  0.13108094859E+00  0.20332415426E-01 0.  0.
         14    1    1    2    0    0  0.46365569755E-02  0.12501853276E-01  0.18680746376E-01  0.22951345954E-01  0.00000000000E+00 0. -1.
     999901    1    3    3    0    0  0.12035100399E+00 -0.41425455904E-01 -0.36297294903E-01  0.88989770546E+00  0.88000000000E+00 0.  1.
        -11    1    4    4    0    0 -0.49473158906E-01  0.20099301833E-01  0.18571388471E-02  0.53434871311E-01  0.51100000000E-03 0. -1.
         11    1    4    4    0    0 -0.75514402057E-01  0.88243007957E-02  0.15759409680E-01  0.77646077280E-01  0.51100000000E-03 0.  1.
</event>
<event>
 8    1  0.1126407E+005  0.1043930E+01  0.7957747E-01            NaN
         13   -1    0    0    0    0  0.00000000000E+00  0.00000000000E+00  0.74505805969E-08  0.10566000000E+00  0.10566000000E+00 0.  1.
     999900   -1    0    0    0    0 -0.00000000000E+00 -0.00000000000E+00 -0.74505805969E-08  0.93827000000E+00  0.93827000000E+00 0. -1.
     999902    2    1    2    0    0 -0.15765915868E-01 -0.15390151929E-01  0.83024608364E-02  0.10203853247E+01  0.10201136501E+01 0.  0.
     999903    2    3    3    0    0 -0.55755561982E-02  0.61754668050E-01  0.11341425974E+00  0.13072041196E+00  0.19501434202E-01 0.  0.
         14    1    1    2    0    0  0.15765915868E-01  0.15390151929E-01 -0.83024608364E-02  0.23544675311E-01  0.00000000000E+00 0. -1.
     999901    1    3    3    0    0 -0.10190359670E-01 -0.77144819979E-01 -0.10511179891E+00  0.88966491273E+00  0.88000000000E+00 0. -1.
        -11    1    4    4    0    0  0.16920597367E-02  0.39740571833E-01  0.86407082543E-01  0.95124240604E-01  0.51100000000E-03 0.  1.
         11    1    4    4    0    0 -0.72676159349E-02  0.22014096217E-01  0.27007177199E-01  0.35596171352E-01  0.51100000000E-03 0. -1.
</event>
<event>
 8    1  0.1126407E+005  0.1043930E+01  0.7957747E-01            NaN
         13   -1    0    0    0    0  0.00000000000E+00  0.00000000000E+00  0.74505805969E-08  0.10566000000E+00  0.10566000000E+00 0.  1.
     999900   -1    0    0    0    0 -0.00000000000E+00 -0.00000000000E+00 -0.74505805969E-08  0.93827000000E+00  0.93827000000E+00 0. -1.
     999902    2    1    2    0    0 -0.47193967404E-02  0.22247904099E-01 -0.63219710113E-02  0.10203247197E+01  0.10200516282E+01 0.  0.
     999903    2    3    3    0    0  0.11870417437E+00 -0.33026444634E-01 -0.34369665784E-01  0.12955241165E+00  0.20521363991E-01 0.  0.
         14    1    1    2    0    0  0.47193967404E-02 -0.22247904099E-01  0.63219710113E-02  0.23605280338E-01  0.00000000000E+00 0.  1.
     999901    1    3    3    0    0 -0.12342357111E+00  0.55274348732E-01  0.28047694773E-01  0.89077230801E+00  0.88000000000E+00 0.  1.
        -11    1    4    4    0    0  0.42237649189E-01 -0.12215095197E-01 -0.22125707259E-02  0.44027084276E-01  0.51100000000E-03 0. -1.
         11    1    4    4    0    0  0.76466525185E-01 -0.20811349437E-01 -0.32157095058E-01  0.85525327376E-01  0.51100000000E-03 0.  1.
</event>
<event>
 8    1  0.1126407E+005  0.1043930E+01  0.7957747E-01            NaN
         13   -1    0    0    0    0  0.00000000000E+00  0.00000000000E+00  0.74505805969E-08  0.10566000000E+00  0.10566000000E+00 0. -1.
     999900   -1    0    0    0    0 -0.00000000000E+00 -0.00000000000E+00 -0.74505805969E-08  0.93827000000E+00  0.93827000000E+00 0. -1.
     999902    2    1    2    0    0  0.13146750213E-01 -0.10884631417E-01  0.16451390169E-01  0.10202242943E+01  0.10199488469E+01 0.  0.
     999903    2    3    3    0    0 -0.31358222134E-01 -0.76121423087E-01 -0.97640455779E-01  0.12935197978E+00  0.20505290019E-01 0.  0.
         14    1    1    2    0    0 -0.13146750213E-01  0.10884631417E-01 -0.16451390169E-01  0.23705705657E-01  0.00000000000E+00 0.  1.
     999901    1    3    3    0    0  0.44504972347E-01  0.65236791670E-01  0.11409184595E+00  0.89087231457E+00  0.88000000000E+00 0. -1.
        -11    1    4    4    0    0 -0.18755691391E-01 -0.66088809735E-01 -0.80318078814E-01  0.10569182389E+00  0.51100000000E-03 0. -1.
         11    1    4    4    0    0 -0.12602530743E-01 -0.10032613353E-01 -0.17322376965E-01  0.23660155886E-01  0.51100000000E-03 0.  1.
</event>
<event>
 8    1  0.1126407E+005  0.1043930E+01  0.7957747E-01            NaN
         13   -1    0    0    0    0  0.00000000000E+00  0.00000000000E+00  0.74505805969E-08  0.10566000000E+00  0.10566000000E+00 0.  1.
     999900   -1    0    0    0    0 -0.00000000000E+00 -0.00000000000E+00 -0.74505805969E-08  0.93827000000E+00  0.93827000000E+00 0.  1.
     999902    2    1    2    0    0 -0.18153344531E-01 -0.67567819545E-02  0.13869871457E-01  0.10201062439E+01  0.10198280137E+01 0.  0.
     999903    2    3    3    0    0  0.12821884515E-01  0.91553495601E-01 -0.86709011295E-01  0.12839974111E+00  0.20532841910E-01 0.  0.
         14    1    1    2    0    0  0.18153344531E-01  0.67567819545E-02 -0.13869871457E-01  0.23823756091E-01  0.00000000000E+00 0. -1.
     999901    1    3    3    0    0 -0.30975229045E-01 -0.98310277555E-01  0.10057888275E+00  0.89170650280E+00  0.88000000000E+00 0. -1.
        -11    1    4    4    0    0  0.19700127468E-02  0.45261466337E-01 -0.29747824271E-01  0.54200327075E-01  0.51100000000E-03 0. -1.
         11    1    4    4    0    0  0.10851871768E-01  0.46292029264E-01 -0.56961187024E-01  0.74199414030E-01  0.51100000000E-03 0.  1.
</event>
<event>
 8    1  0.1126407E+005  0.1043930E+01  0.7957747E-01            NaN
         13   -1    0    0    0    0  0.00000000000E+00  0.00000000000E+00  0.74505805969E-08  0.10566000000E+00  0.10566000000E+00 0. -1.
     999900   -1    0    0    0    0 -0.00000000000E+00 -0.00000000000E+00 -0.74505805969E-08  0.93827000000E+00  0.93827000000E+00 0. -1.
     999902    2    1    2    0    0  0.42486052595E-03  0.23082170504E-01  0.77850870144E-02  0.10195666119E+01  0.10192754786E+01 0.  0.
     999903    2    3    3    0    0 -0.44672054608E-01  0.72448377832E-01 -0.97333371351E-01  0.13079181223E+00  0.19706675362E-01 0.  0.
         14    1    1    2    0    0 -0.42486052595E-03 -0.23082170504E-01 -0.77850870144E-02  0.24363388136E-01  0.00000000000E+00 0. -1.
     999901    1    3    3    0    0  0.45096915134E-01 -0.49366207329E-01  0.10511845837E+00  0.88877479964E+00  0.88000000000E+00 0.  1.
        -11    1    4    4    0    0 -0.28821317276E-01  0.28067468936E-01 -0.44297539086E-01  0.59841325454E-01  0.51100000000E-03 0.  1.
         11    1    4    4    0    0 -0.15850737333E-01  0.44380908896E-01 -0.53035832265E-01  0.70950486774E-01  0.51100000000E-03 0. -1.
</event>
<event>
 8    1  0.1126407E+005  0.1043930E+01  0.7957747E-01            NaN
         13   -1    0    0    0    0  0.00000000000E+00  0.00000000000E+00  0.74505805969E-08  0.10566000000E+00  0.10566000000E+00 0. -1.
     999900   -1    0    0    0    0 -0.00000000000E+00 -0.00000000000E+00 -0.74505805969E-08  0.93827000000E+00  0.93827000000E+00 0.  1.
     999902    2    1    2    0    0 -0.10121798779E-01  0.21797903530E-01 -0.12262443556E-02  0.10198654393E+01  0.10195814882E+01 0.  0.
     999903    2    3    3    0    0 -0.10579001069E+00 -0.42860168303E-01 -0.59782552290E-01  0.13039260986E+00  0.19993968079E-01 0.  0.
         14    1    1    2    0    0  0.10121798779E-01 -0.21797903530E-01  0.12262443556E-02  0.24064560749E-01  0.00000000000E+00 0. -1.
     999901    1    3    3    0    0  0.95668211911E-01  0.64658071833E-01  0.58556307934E-01  0.88947282939E+00  0.88000000000E+00 0. -1.
        -11    1    4    4    0    0 -0.66490128544E-01 -0.28785187824E-01 -0.27039281201E-01  0.77336330924E-01  0.51100000000E-03 0.  1.
         11    1    4    4    0    0 -0.39299882145E-01 -0.14074980478E-01 -0.32743271088E-01  0.53056278937E-01  0.51100000000E-03 0. -1.
</event>
<event>
 8    1  0.1126407E+005  0.1043930E+01  0.7957747E-01            NaN
         13   -1    0    0    0    0  0.00000000000E+00  0.00000000000E+00  0.74505805969E-08  0.10566000000E+00  0.10566000000E+00 0.  1.
     999900   -1    0    0    0    0 -0.00000000000E+00 -0.00000000000E+00 -0.74505805969E-08  0.93827000000E+00  0.93827000000E+00 0. -1.
     999902    2    1    2    0    0  0.66156246783E-03  0.20066753238E-01  0.11747651620E-01  0.10206680231E+01  0.10204029076E+01 0.  0.
     999903    2    3    3    0    0 -0.42477927717E-01 -0.26966320372E-01  0.12006819359E+00  0.13173244308E+00  0.20137245850E-01 0.  0.
         14    1    1    2    0    0 -0.66156246783E-03 -0.20066753238E-01 -0.11747651620E-01  0.23261976893E-01  0.00000000000E+00 0. -1.
     999901    1    3    3    0    0  0.43139490185E-01  0.47033073610E-01 -0.10832054197E+00  0.88893558003E+00  0.88000000000E+00 0. -1.
        -11    1    4    4    0    0 -0.18412765622E-03  0.10543608790E-02  0.15089937354E-01  0.15136476149E-01  0.51100000000E-03 0. -1.
         11    1    4    4    0    0 -0.42293800061E-01 -0.28020681251E-01  0.10497825623E+00  0.11659596693E+00  0.51100000000E-03 0.  1.
</event>
<event>
 8    1  0.1126407E+005  0.1043930E+01  0.7957747E-01            NaN
         13   -1    0    0    0    0  0.00000000000E+00  0.00000000000E+00  0.74505805969E-08  0.10566000000E+00  0.10566000000E+00 0. -1.
     999900   -1    0    0    0    0 -0.00000000000E+00 -0.00000000000E+00 -0.74505805969E-08  0.93827000000E+00  0.93827000000E+00 0.  1.
     999902    2    1    2    0    0  0.23360834537E-01 -0.81660574010E-02  0.10460430902E-01  0.10170630370E+01  0.10167081133E+01 0.  0.
     999903    2    3    3    0    0 -0.58450816883E-01  0.98848216216E-02  0.11095570402E+00  0.12738990580E+00  0.20070180668E-01 0.  0.
         14    1    1    2    0    0 -0.23360834537E-01  0.81660574010E-02 -0.10460430902E-01  0.26866962955E-01  0.00000000000E+00 0.  1.
     999901    1    3    3    0    0  0.81811651420E-01 -0.18050879023E-01 -0.10049527312E+00  0.88967313125E+00  0.88000000000E+00 0.  1.
        -11    1    4    4    0    0 -0.15747188859E-01 -0.61260957259E-02  0.27344359815E-01  0.32147754828E-01  0.51100000000E-03 0.  1.
         11    1    4    4    0    0 -0.42703628024E-01  0.16010917347E-01  0.83611344206E-01  0.95242150971E-01  0.51100000000E-03 0. -1.
</event>
<event>
 8    1  0.1126407E+005  0.1043930E+01  0.7957747E-01            NaN
         13   -1    0    0    0    0  0.00000000000E+00  0.00000000000E+00  0.74505805969E-08  0.10566000000E+00  0.10566000000E+00 0. -1.
     999900   -1    0    0    0    0 -0.00000000000E+00 -0.00000000000E+00 -0.74505805969E-08  0.93827000000E+00  0.93827000000E+00 0. -1.
     999902    2    1    2    0    0  0.15146337002E-01 -0.50582726799E-02 -0.17453032053E-01  0.10202740076E+01  0.10199997278E+01 0.  0.
     999903    2    3    3    0    0 -0.10061784399E+00  0.74411910515E-02  0.75615724031E-01  0.12773864388E+00  0.20496379328E-01 0.  0.
         14    1    1    2    0    0 -0.15146337002E-01  0.50582726799E-02  0.17453032053E-01  0.23655992368E-01  0.00000000000E+00 0.  1.
     999901    1    3    3    0    0  0.11576418099E+00 -0.12499463731E-01 -0.93068756084E-01  0.89253536375E+00  0.88000000000E+00 0. -1.
        -11    1    4    4    0    0 -0.59721327521E-01  0.45287174258E-02  0.32124445853E-01  0.67966075249E-01  0.51100000000E-03 0. -1.
         11    1    4    4    0    0 -0.40896516468E-01  0.29124736257E-02  0.43491278178E-01  0.59772568628E-01  0.51100000000E-03 0.  1.
</event>
<event>
 8    1  0.1126407E+005  0.1043930E+01  0.7957747E-01            NaN
         13   -1    0    0    0    0  0.00000000000E+00  0.00000000000E+00  0.74505805969E-08  0.10566000000E+00  0.10566000000E+00 0. -1.
     999900   -1    0    0    0    0 -0.00000000000E+00 -0.00000000000E+00 -0.74505805969E-08  0.93827000000E+00  0.93827000000E+00 0.  1.
     999902    2    1    2    0    0 -0.96244126331E-02  0.24807524279E-02  0.21903498331E-01  0.10198770025E+01  0.10195933275E+01 0.  0.
     999903    2    3    3    0    0  0.74708060422E-02 -0.92941285227E-01 -0.85648678530E-01  0.12804457285E+00  0.19126449215E-01 0.  0.
         14    1    1    2    0    0  0.96244126331E-02 -0.24807524279E-02 -0.21903498331E-01  0.24052997532E-01  0.00000000000E+00 0.  1.
     999901    1    3    3    0    0 -0.17095218675E-01  0.95422037655E-01  0.10755217686E+00  0.89183242962E+00  0.88000000000E+00 0. -1.
        -11    1    4    4    0    0  0.40149248095E-02 -0.19541562651E-01 -0.90967923176E-02  0.21931827182E-01  0.51100000000E-03 0. -1.
         11    1    4    4    0    0  0.34558812326E-02 -0.73399722576E-01 -0.76551886213E-01  0.10611274567E+00  0.51100000000E-03 0.  1.
</event>
<event>
 7    1  0.1126407E+005  0.1043930E+01  0.7957747E-01            NaN
         13   -1    0    0    0    0  0.00000000000E+00  0.00000000000E+00  0.74505805969E-08  0.10566000000E+00  0.10566000000E+00 0. -1.
     999900   -1    0    0    0    0 -0.00000000000E+00 -0.00000000000E+00 -0.74505805969E-08  0.93827000000E+00  0.93827000000E+00 0. -1.
     999903    2    1    2    0    0 -0.12916952433E-03  0.91953763539E-01 -0.23817015270E-01  0.96985924224E-01  0.19583359456E-01 0.  0.
         14    1    1    2    0    0  0.20333416384E-01 -0.62622382571E-01 -0.15371083745E-02  0.65858737635E-01  0.00000000000E+00 0. -1.
     999901    1    1    2    0    0 -0.20204246860E-01 -0.29331380968E-01  0.25354123644E-01  0.88108533814E+00  0.88000000000E+00 0. -1.
        -11    1    3    3    0    0 -0.57607456829E-02  0.38774638315E-01 -0.18170296488E-01  0.43209716068E-01  0.51100000000E-03 0.  1.
         11    1    3    3    0    0  0.56315761585E-02  0.53179125224E-01 -0.56467187821E-02  0.53776208156E-01  0.51100000000E-03 0. -1.
</event>
<event>
 8    1  0.1126407E+005  0.1043930E+01  0.7957747E-01            NaN
         13   -1    0    0    0    0  0.00000000000E+00  0.00000000000E+00  0.74505805969E-08  0.10566000000E+00  0.10566000000E+00 0.  1.
     999900   -1    0    0    0    0 -0.00000000000E+00 -0.00000000000E+00 -0.74505805969E-08  0.93827000000E+00  0.93827000000E+00 0. -1.
     999902    2    1    2    0    0 -0.17358588359E-01  0.20749071744E-01 -0.70880276356E-02  0.10159642226E+01  0.10155792519E+01 0.  0.
     999903    2    3    3    0    0  0.10504835479E+00 -0.13646370579E-01  0.61427127097E-01  0.12419024195E+00  0.20701303784E-01 0.  0.
         14    1    1    2    0    0  0.17358588359E-01 -0.20749071744E-01  0.70880276356E-02  0.27965777369E-01  0.00000000000E+00 0.  1.
     999901    1    3    3    0    0 -0.12240694315E+00  0.34395442323E-01 -0.68515154733E-01  0.89177398068E+00  0.88000000000E+00 0. -1.
        -11    1    4    4    0    0  0.36101829375E-01 -0.13894011105E-02  0.10584035627E-01  0.37650437591E-01  0.51100000000E-03 0. -1.
         11    1    4    4    0    0  0.68946525419E-01 -0.12256969469E-01  0.50843091470E-01  0.86539804363E-01  0.51100000000E-03 0.  1.
</event>
<event>
 8    1  0.1126407E+005  0.1043930E+01  0.7957747E-01            NaN
         13   -1    0    0    0    0  0.00000000000E+00  0.00000000000E+00  0.74505805969E-08  0.10566000000E+00  0.10566000000E+00 0.  1.
     999900   -1    0    0    0    0 -0.00000000000E+00 -0.00000000000E+00 -0.74505805969E-08  0.93827000000E+00  0.93827000000E+00 0.  1.
     999902    2    1    2    0    0  0.14227938410E-01 -0.31276139449E-01  0.11077297577E-01  0.10078282320E+01  0.10071814174E+01 0.  0.
     999903    2    3    3    0    0  0.36899930471E-01 -0.11535851473E+00  0.14555569763E-01  0.12352287557E+00  0.19412480209E-01 0.  0.
         14    1    1    2    0    0 -0.14227938410E-01  0.31276139449E-01 -0.11077297577E-01  0.36101767987E-01  0.00000000000E+00 0. -1.
     999901    1    3    3    0    0 -0.22671992061E-01  0.84082375283E-01 -0.34782721862E-02  0.88430535644E+00  0.88000000000E+00 0. -1.
        -11    1    4    4    0    0  0.28366383378E-01 -0.10643556917E+00  0.11210625222E-01  0.11072091640E+00  0.51100000000E-03 0. -1.
         11    1    4    4    0    0  0.85335470930E-02 -0.89229455624E-02  0.33449445415E-02  0.12801959166E-01  0.51100000000E-03 0.  1.
</event>
<event>
 8    1  0.1126407E+005  0.1043930E+01  0.7957747E-01            NaN
         13   -1    0    0    0    0  0.00000000000E+00  0.00000000000E+00  0.74505805969E-08  0.10566000000E+00  0.10566000000E+00 0.  1.
     999900   -1    0    0    0    0 -0.00000000000E+00 -0.00000000000E+00 -0.74505805969E-08  0.93827000000E+00  0.93827000000E+00 0. -1.
     999902    2    1    2    0    0  0.11141998613E-01 -0.20771502773E-01 -0.23516584381E-02  0.10202418224E+01  0.10199667869E+01 0.  0.
     999903    2    3    3    0    0  0.51366770963E-01 -0.97928794088E-01  0.71062802459E-01  0.13290819688E+00  0.19648741275E-01 0.  0.
         14    1    1    2    0    0 -0.11141998613E-01  0.20771502773E-01  0.23516584381E-02  0.23688177598E-01  0.00000000000E+00 0.  1.
     999901    1    3    3    0    0 -0.40224772349E-01  0.77157291316E-01 -0.73414460897E-01  0.88733362552E+00  0.88000000000E+00 0. -1.
        -11    1    4    4    0    0  0.55244424956E-02 -0.28702114724E-01  0.20274897547E-01  0.35576164015E-01  0.51100000000E-03 0. -1.
         11    1    4    4    0    0  0.45842328467E-01 -0.69226679364E-01  0.50787904912E-01  0.97332032864E-01  0.51100000000E-03 0.  1.
</event>
<event>
 8    1  0.1126407E+005  0.1043930E+01  0.7957747E-01            NaN
         13   -1    0    0    0    0  0.00000000000E+00  0.00000000000E+00  0.74505805969E-08  0.10566000000E+00  0.10566000000E+00 0.  1.
     999900   -1    0    0    0    0 -0.00000000000E+00 -0.00000000000E+00 -0.74505805969E-08  0.93827000000E+00  0.93827000000E+00 0. -1.
     999902    2    1    2    0    0  0.24988700180E-01 -0.46460122462E-02  0.11943020782E-01  0.10158469747E+01  0.10154587237E+01 0.  0.
     999903    2    3    3    0    0  0.54534975928E-01  0.67936420636E-01 -0.89592948290E-01  0.12654908026E+00  0.19958769605E-01 0.  0.
         14    1    1    2    0    0 -0.24988700180E-01  0.46460122462E-02 -0.11943020782E-01  0.28083025333E-01  0.00000000000E+00 0. -1.
     999901    1    3    3    0    0 -0.29546275747E-01 -0.72582432882E-01  0.10153596907E+00  0.88929789440E+00  0.88000000000E+00 0.  1.
        -11    1    4    4    0    0  0.22037267914E-01  0.25290326001E-01 -0.21369143217E-01  0.39776163329E-01  0.51100000000E-03 0. -1.
         11    1    4    4    0    0  0.32497708013E-01  0.42646094634E-01 -0.68223805073E-01  0.86772916935E-01  0.51100000000E-03 0.  1.
</event>
<event>
 8    1  0.1126407E+005  0.1043930E+01  0.7957747E-01            NaN
         13   -1    0    0    0    0  0.00000000000E+00  0.00000000000E+00  0.74505805969E-08  0.10566000000E+00  0.10566000000E+00 0. -1.
     999900   -1    0    0    0    0 -0.00000000000E+00 -0.00000000000E+00 -0.74505805969E-08  0.93827000000E+00  0.93827000000E+00 0. -1.
     999902    2    1    2    0    0  0.11710044954E-01 -0.16455551078E-01  0.12643130774E-01  0.10201023046E+01  0.10198239812E+01 0.  0.
     999903    2    3    3    0    0 -0.10183537969E+00  0.74337692096E-01  0.10760728360E-01  0.12817208313E+00  0.20390012174E-01 0.  0.
         14    1    1    2    0    0 -0.11710044954E-01  0.16455551078E-01 -0.12643130774E-01  0.23827695437E-01  0.00000000000E+00 0.  1.
     999901    1    3    3    0    0  0.11354542464E+00 -0.90793243174E-01  0.18824024138E-02  0.89193022143E+00  0.88000000000E+00 0.  1.
        -11    1    4    4    0    0 -0.92101452728E-01  0.71958087983E-01  0.13791497260E-01  0.11769074109E+00  0.51100000000E-03 0.  1.
         11    1    4    4    0    0 -0.97339269625E-02  0.23796041134E-02 -0.30307689003E-02  0.10481342041E-01  0.51100000000E-03 0. -1.
</event>
<event>
 8    1  0.1126407E+005  0.1043930E+01  0.7957747E-01            NaN
         13   -1    0    0    0    0  0.00000000000E+00  0.00000000000E+00  0.74505805969E-08  0.10566000000E+00  0.10566000000E+00 0. -1.
     999900   -1    0    0    0    0 -0.00000000000E+00 -0.00000000000E+00 -0.74505805969E-08  0.93827000000E+00  0.93827000000E+00 0. -1.
     999902    2    1    2    0    0  0.14042492122E-01 -0.11884885631E-01  0.14564872927E-01  0.10204656096E+01  0.10201958061E+01 0.  0.
     999903    2    3    3    0    0  0.10305626025E+00  0.43321460873E-01  0.68067035239E-01  0.13264036052E+00  0.21517485967E-01 0.  0.
         14    1    1    2    0    0 -0.14042492122E-01  0.11884885631E-01 -0.14564872927E-01  0.23464390358E-01  0.00000000000E+00 0.  1.
     999901    1    3    3    0    0 -0.89013768131E-01 -0.55206346505E-01 -0.53502162311E-01  0.88782524912E+00  0.88000000000E+00 0.  1.
        -11    1    4    4    0    0  0.99863296725E-03  0.36901255727E-02  0.27292573201E-03  0.38665105717E-02  0.51100000000E-03 0. -1.
         11    1    4    4    0    0  0.10205762729E+00  0.39631335301E-01  0.67794109507E-01  0.12877384995E+00  0.51100000000E-03 0.  1.
</event>
<event>
 8    1  0.1126407E+005  0.1043930E+01  0.7957747E-01            NaN
         13   -1    0    0    0    0  0.00000000000E+00  0.00000000000E+00  0.74505805969E-08  0.10566000000E+00  0.10566000000E+00 0.  1.
     999900   -1    0    0    0    0 -0.00000000000E+00 -0.00000000000E+00 -0.74505805969E-08  0.93827000000E+00  0.93827000000E+00 0.  1.
     999902    2    1    2    0    0 -0.32189967575E-02  0.13560037463E-01  0.19087147849E-01  0.10202962155E+01  0.10200224564E+01 0.  0.
     999903    2    3    3    0    0  0.55995013732E-01 -0.90662301814E-01 -0.68126094174E-01  0.12789790499E+00  0.19016173644E-01 0.  0.
         14    1    1    2    0    0  0.32189967575E-02 -0.13560037463E-01 -0.19087147849E-01  0.23633784486E-01  0.00000000000E+00 0.  1.
     999901    1    3    3    0    0 -0.59214010489E-01  0.10422233928E+00  0.87213242023E-01  0.89239831052E+00  0.88000000000E+00 0.  1.
        -11    1    4    4    0    0  0.21414010716E-01 -0.32458121263E-01 -0.35857879461E-01  0.52897430290E-01  0.51100000000E-03 0.  1.
         11    1    4    4    0    0  0.34581003016E-01 -0.58204180552E-01 -0.32268214713E-01  0.75000474699E-01  0.51100000000E-03 0. -1.
</event>
<event>
 8    1  0.1126407E+005  0.1043930E+01  0.7957747E-01            NaN
         13   -1    0    0    0    0  0.00000000000E+00  0.00000000000E+00  0.74505805969E-08  0.10566000000E+00  0.10566000000E+00 0.  1.
     999900   -1    0    0    0    0 -0.00000000000E+00 -0.00000000000E+00 -0.74505805969E-08  0.93827000000E+00  0.93827000000E+00 0.  1.
     999902    2    1    2    0    0 -0.30843579678E-02 -0.41496881264E-02  0.33956076829E-01  0.10095825353E+01  0.10089980908E+01 0.  0.
     999903    2    3    3    0    0 -0.56542395730E-01 -0.10007702278E+00 -0.29788115365E-01  0.12046885454E+00  0.20321419572E-01 0.  0.
         14    1    1    2    0    0  0.30843579678E-02  0.41496881264E-02 -0.33956076829E-01  0.34347464670E-01  0.00000000000E+00 0. -1.
     999901    1    3    3    0    0  0.53458037762E-01  0.95927334652E-01  0.63744192195E-01  0.88911368079E+00  0.88000000000E+00 0.  1.
        -11    1    4    4    0    0 -0.14649864937E-01 -0.41616162076E-01 -0.17684798498E-01  0.47534584330E-01  0.51100000000E-03 0.  1.
         11    1    4    4    0    0 -0.41892530794E-01 -0.58460860703E-01 -0.12103316868E-01  0.72934270207E-01  0.51100000000E-03 0. -1.
</event>
<event>
 8    1  0.1126407E+005  0.1043930E+01  0.7957747E-01            NaN
         13   -1    0    0    0    0  0.00000000000E+00  0.00000000000E+00  0.74505805969E-08  0.10566000000E+00  0.10566000000E+00 0.  1.
     999900   -1    0    0    0    0 -0.00000000000E+00 -0.00000000000E+00 -0.74505805969E-08  0.93827000000E+00  0.93827000000E+00 0.  1.
     999902    2    1    2    0    0 -0.11824883468E-01  0.19209340474E-01  0.70163659993E-02  0.10203067906E+01  0.10200332793E+01 0.  0.
     999903    2    3    3    0    0  0.73043844931E-01  0.44105273750E-01 -0.95960419789E-01  0.12989861063E+00  0.19610416151E-01 0.  0.
         14    1    1    2    0    0  0.11824883468E-01 -0.19209340474E-01 -0.70163659993E-02  0.23623209399E-01  0.00000000000E+00 0. -1.
     999901    1    3    3    0    0 -0.84868728400E-01 -0.24895933277E-01  0.10297678579E+00  0.89040817997E+00  0.88000000000E+00 0. -1.
        -11    1    4    4    0    0  0.32571084207E-01  0.30850871191E-01 -0.52249188009E-01  0.68868647062E-01  0.51100000000E-03 0. -1.
         11    1    4    4    0    0  0.40472760724E-01  0.13254402560E-01 -0.43711231780E-01  0.61029963564E-01  0.51100000000E-03 0.  1.
</event>
<event>
 8    1  0.1126407E+005  0.1043930E+01  0.7957747E-01            NaN
         13   -1    0    0    0    0  0.00000000000E+00  0.00000000000E+00  0.74505805969E-08  0.10566000000E+00  0.10566000000E+00 0. -1.
     999900   -1    0    0    0    0 -0.00000000000E+00 -0.00000000000E+00 -0.74505805969E-08  0.93827000000E+00  0.93827000000E+00 0.  1.
     999902    2    1    2    0    0 -0.18851349462E-01  0.95815938986E-02  0.75090790869E-02  0.10214897106E+01  0.10212431945E+01 0.  0.
     999903    2    3    3    0    0 -0.97253675290E-02 -0.92983123252E-01  0.90168239937E-01  0.13163840754E+00  0.21398945343E-01 0.  0.
         14    1    1    2    0    0  0.18851349462E-01 -0.95815938986E-02 -0.75090790869E-02  0.22440289368E-01  0.00000000000E+00 0.  1.
     999901    1    3    3    0    0 -0.91259819330E-02  0.10256471715E+00 -0.82659160851E-01  0.88985130310E+00  0.88000000000E+00 0.  1.
        -11    1    4    4    0    0 -0.51729782755E-02 -0.41613320116E-01  0.26115988801E-01  0.49403786367E-01  0.51100000000E-03 0.  1.
         11    1    4    4    0    0 -0.45523892534E-02 -0.51369803136E-01  0.64052251136E-01  0.82234621169E-01  0.51100000000E-03 0. -1.
</event>
<event>
 8    1  0.1126407E+005  0.1043930E+01  0.7957747E-01            NaN
         13   -1    0    0    0    0  0.00000000000E+00  0.00000000000E+00  0.74505805969E-08  0.10566000000E+00  0.10566000000E+00 0.  1.
     999900   -1    0    0    0    0 -0.00000000000E+00 -0.00000000000E+00 -0.74505805969E-08  0.93827000000E+00  0.93827000000E+00 0. -1.
     999902    2    1    2    0    0  0.20020384488E-01  0.52187227189E-02  0.95509678639E-02  0.10211424629E+01  0.10208881710E+01 0.  0.
     999903    2    3    3    0    0  0.28509629570E-01  0.11716279549E+00 -0.50156535565E-01  0.13200325628E+00  0.19216190679E-01 0.  0.
         14    1    1    2    0    0 -0.20020384488E-01 -0.52187227189E-02 -0.95509678639E-02  0.22787537142E-01  0.00000000000E+00 0. -1.
     999901    1    3    3    0    0 -0.84892450820E-02 -0.11194407277E+00  0.59707503429E-01  0.88913920658E+00  0.88000000000E+00 0.  1.
        -11    1    4    4    0    0  0.14917143928E-02  0.34390513646E-01 -0.83992519425E-02  0.35436438800E-01  0.51100000000E-03 0. -1.
         11    1    4    4    0    0  0.27017915177E-01  0.82772281840E-01 -0.41757283623E-01  0.96566817479E-01  0.51100000000E-03 0.  1.
</event>
<event>
 8    1  0.1126407E+005  0.1043930E+01  0.7957747E-01            NaN
         13   -1    0    0    0    0  0.00000000000E+00  0.00000000000E+00  0.74505805969E-08  0.10566000000E+00  0.10566000000E+00 0.  1.
     999900   -1    0    0    0    0 -0.00000000000E+00 -0.00000000000E+00 -0.74505805969E-08  0.93827000000E+00  0.93827000000E+00 0.  1.
     999902    2    1    2    0    0 -0.20672707302E-01  0.46082157922E-02  0.10668492280E-01  0.10202147474E+01  0.10199390754E+01 0.  0.
     999903    2    3    3    0    0 -0.84224822881E-01 -0.17706715381E-01 -0.96806110345E-01  0.13112104153E+00  0.20345908013E-01 0.  0.
         14    1    1    2    0    0  0.20672707302E-01 -0.46082157922E-02 -0.10668492280E-01  0.23715252634E-01  0.00000000000E+00 0.  1.
     999901    1    3    3    0    0  0.63552115579E-01  0.22314931173E-01  0.10747460262E+00  0.88909370584E+00  0.88000000000E+00 0. -1.
        -11    1    4    4    0    0 -0.63225149880E-01 -0.16014837191E-01 -0.59559968598E-01  0.88326358285E-01  0.51100000000E-03 0.  1.
         11    1    4    4    0    0 -0.20999673001E-01 -0.16918781898E-02 -0.37246141747E-01  0.42794683244E-01  0.51100000000E-03 0. -1.
</event>
<event>
 8    1  0.1126407E+005  0.1043930E+01  0.7957747E-01            NaN
         13   -1    0    0    0    0  0.00000000000E+00  0.00000000000E+00  0.74505805969E-08  0.10566000000E+00  0.10566000000E+00 0. -1.
     999900   -1    0    0    0    0 -0.00000000000E+00 -0.00000000000E+00 -0.74505805969E-08  0.93827000000E+00  0.93827000000E+00 0. -1.
     999902    2    1    2    0    0  0.53389221393E-02  0.18956380723E-02 -0.21854161843E-01  0.10213534209E+01  0.10211038676E+01 0.  0.
     999903    2    3    3    0    0  0.82697733276E-01  0.16377567995E-01 -0.10242394498E+00  0.13417497105E+00  0.20127556445E-01 0.  0.
         14    1    1    2    0    0 -0.53389221393E-02 -0.18956380723E-02  0.21854161843E-01  0.22576579085E-01  0.00000000000E+00 0. -1.
     999901    1    3    3    0    0 -0.77358811137E-01 -0.14481929922E-01  0.80569783134E-01  0.88717844987E+00  0.88000000000E+00 0.  1.
        -11    1    4    4    0    0  0.60853673005E-01  0.18284341811E-01 -0.85204980808E-01  0.10629034081E+00  0.51100000000E-03 0. -1.
         11    1    4    4    0    0  0.21844060271E-01 -0.19067738161E-02 -0.17218964170E-01  0.27884630239E-01  0.51100000000E-03 0.  1.
</event>
<event>
 8    1  0.1126407E+005  0.1043930E+01  0.7957747E-01            NaN
         13   -1    0    0    0    0  0.00000000000E+00  0.00000000000E+00  0.74505805969E-08  0.10566000000E+00  0.10566000000E+00 0.  1.
     999900   -1    0    0    0    0 -0.00000000000E+00 -0.00000000000E+00 -0.74505805969E-08  0.93827000000E+00  0.93827000000E+00 0.  1.
     999902    2    1    2    0    0 -0.21978276668E-01 -0.29780577896E-02 -0.10349534726E-01  0.10194549853E+01  0.10191611456E+01 0.  0.
     999903    2    3    3    0    0  0.34504512222E-01  0.20232092459E-01  0.11987276920E+00  0.12777855022E+00  0.18920311095E-01 0.  0.
         14    1    1    2    0    0  0.21978276668E-01  0.29780577896E-02  0.10349534726E-01  0.24475014659E-01  0.00000000000E+00 0.  1.
     999901    1    3    3    0    0 -0.56482788890E-01 -0.23210150248E-01 -0.13022230392E+00  0.89167643512E+00  0.88000000000E+00 0.  1.
        -11    1    4    4    0    0  0.31790171576E-01  0.23751688656E-01  0.10997059732E+00  0.11691257896E+00  0.51100000000E-03 0.  1.
         11    1    4    4    0    0  0.27143406455E-02 -0.35195961969E-02  0.99021718797E-02  0.10865971262E-01  0.51100000000E-03 0. -1.
</event>
<event>
 8    1  0.1126407E+005  0.1043930E+01  0.7957747E-01            NaN
         13   -1    0    0    0    0  0.00000000000E+00  0.00000000000E+00  0.74505805969E-08  0.10566000000E+00  0.10566000000E+00 0. -1.
     999900   -1    0    0    0    0 -0.00000000000E+00 -0.00000000000E+00 -0.74505805969E-08  0.93827000000E+00  0.93827000000E+00 0. -1.
     999902    2    1    2    0    0  0.19505194744E-01  0.13183092782E-01 -0.26739017331E-02  0.10202361968E+01  0.10199610292E+01 0.  0.
     999903    2    3    3    0    0  0.26690197721E-01  0.11616987060E-01 -0.12717287869E+00  0.13144259189E+00  0.16027877081E-01 0.  0.
         14    1    1    2    0    0 -0.19505194744E-01 -0.13183092782E-01  0.26739017331E-02  0.23693803152E-01  0.00000000000E+00 0. -1.
     999901    1    3    3    0    0 -0.71850029764E-02  0.15661057224E-02  0.12449897696E+00  0.88879360496E+00  0.88000000000E+00 0.  1.
        -11    1    4    4    0    0  0.21951887168E-01  0.15460426295E-01 -0.96635775116E-01  0.10029777806E+00  0.51100000000E-03 0. -1.
         11    1    4    4    0    0  0.47383105531E-02 -0.38434392344E-02 -0.30537103579E-01  0.31144813822E-01  0.51100000000E-03 0.  1.
</event>
<event>
 8    1  0.1126407E+005  0.1043930E+01  0.7957747E-01            NaN
         13   -1    0    0    0    0  0.00000000000E+00  0.00000000000E+00  0.74505805969E-08  0.10566000000E+00  0.10566000000E+00 0.  1.
     999900   -1    0    0    0    0 -0.00000000000E+00 -0.00000000000E+00 -0.74505805969E-08  0.93827000000E+00  0.93827000000E+00 0.  1.
     999902    2    1    2    0    0  0.67622002654E-02  0.23972258159E-01  0.90742056031E-02  0.10174207993E+01  0.10170753881E+01 0.  0.
     999903    2    3    3    0    0  0.36227692535E-01 -0.21635486171E-02 -0.12017373701E+00  0.12710831131E+00  0.19941642033E-01 0.  0.
         14    1    1    2    0    0 -0.67622002654E-02 -0.23972258159E-01 -0.90742056031E-02  0.26509200686E-01  0.00000000000E+00 0. -1.
     999901    1    3    3    0    0 -0.29465492269E-01  0.26135806776E-01  0.12924794262E+00  0.89031248801E+00  0.88000000000E+00 0. -1.
        -11    1    4    4    0    0  0.14567689414E-01 -0.94925421454E-02 -0.67057689294E-01  0.69277130034E-01  0.51100000000E-03 0. -1.
         11    1    4    4    0    0  0.21660003121E-01  0.73289935283E-02 -0.53116047718E-01  0.57831181273E-01  0.51100000000E-03 0.  1.
</event>
<event>
 8    1  0.1126407E+005  0.1043930E+01  0.7957747E-01            NaN
         13   -1    0    0    0    0  0.00000000000E+00  0.00000000000E+00  0.74505805969E-08  0.10566000000E+00  0.10566000000E+00 0.  1.
     999900   -1    0    0    0    0 -0.00000000000E+00 -0.00000000000E+00 -0.74505805969E-08  0.93827000000E+00  0.93827000000E+00 0.  1.
     999902    2    1    2    0    0 -0.10082560605E-01 -0.17734599816E-01 -0.17751807276E-01  0.10168874276E+01  0.10165277860E+01 0.  0.
     999903    2    3    3    0    0  0.13173135679E-01 -0.12733470317E+00 -0.61807671291E-02  0.12970824672E+00  0.19959189624E-01 0.  0.
         14    1    1    2    0    0  0.10082560605E-01  0.17734599816E-01  0.17751807276E-01  0.27042572373E-01  0.00000000000E+00 0. -1.
     999901    1    3    3    0    0 -0.23255696284E-01  0.10960010335E+00 -0.11571040146E-01  0.88717918091E+00  0.88000000000E+00 0. -1.
        -11    1    4    4    0    0  0.70549493126E-02 -0.58143848549E-01 -0.12722038703E-01  0.59938225063E-01  0.51100000000E-03 0.  1.
         11    1    4    4    0    0  0.61181863668E-02 -0.69190854619E-01  0.65412715738E-02  0.69770021658E-01  0.51100000000E-03 0. -1.
</event>
<event>
 8    1  0.1126407E+005  0.1043930E+01  0.7957747E-01            NaN
         13   -1    0    0    0    0  0.00000000000E+00  0.00000000000E+00  0.74505805969E-08  0.10566000000E+00  0.10566000000E+00 0.  1.
     999900   -1    0    0    0    0 -0.00000000000E+00 -0.00000000000E+00 -0.74505805969E-08  0.93827000000E+00  0.93827000000E+00 0.  1.
     999902    2    1    2    0    0 -0.35072857202E-02 -0.22286969474E-01 -0.72161767372E-02  0.10202428037E+01  0.10199677913E+01 0.  0.
     999903    2    3    3    0    0 -0.16650802176E-01 -0.11376511832E+00  0.61532984834E-01  0.13273649333E+00  0.24757162213E-01 0.  0.
         14    1    1    2    0    0  0.35072857202E-02  0.22286969474E-01  0.72161767372E-02  0.23687196292E-01  0.00000000000E+00 0. -1.
     999901    1    3    3    0    0  0.13143516456E-01  0.91478148842E-01 -0.68749161572E-01  0.88750631038E+00  0.88000000000E+00 0.  1.
        -11    1    4    4    0    0 -0.15189648184E-01 -0.77576074813E-01  0.29480287660E-01  0.84368959202E-01  0.51100000000E-03 0.  1.
         11    1    4    4    0    0 -0.14611539921E-02 -0.36189043503E-01  0.32052697174E-01  0.48367534130E-01  0.51100000000E-03 0. -1.
</event>
<event>
 8    1  0.1126407E+005  0.1043930E+01  0.7957747E-01            NaN
         13   -1    0    0    0    0  0.00000000000E+00  0.00000000000E+00  0.74505805969E-08  0.10566000000E+00  0.10566000000E+00 0.  1.
     999900   -1    0    0    0    0 -0.00000000000E+00 -0.00000000000E+00 -0.74505805969E-08  0.93827000000E+00  0.93827000000E+00 0.  1.
     999902    2    1    2    0    0  0.18496379326E-02  0.11314059420E-02 -0.26486959846E-01  0.10173544420E+01  0.10170072765E+01 0.  0.
     999903    2    3    3    0    0  0.43475244427E-01 -0.97786208097E-01  0.64039121841E-01  0.12622462154E+00  0.19478361978E-01 0.  0.
         14    1    1    2    0    0 -0.18496379326E-02 -0.11314059420E-02  0.26486959846E-01  0.26575557977E-01  0.00000000000E+00 0.  1.
     999901    1    3    3    0    0 -0.41625606495E-01  0.98917614039E-01 -0.90526081688E-01  0.89112982048E+00  0.88000000000E+00 0.  1.
        -11    1    4    4    0    0  0.53956368918E-02 -0.34248400389E-01  0.21606025538E-01  0.40855199024E-01  0.51100000000E-03 0.  1.
         11    1    4    4    0    0  0.38079607535E-01 -0.63537807708E-01  0.42433096303E-01  0.85369422519E-01  0.51100000000E-03 0. -1.
</event>
<event>
 8    1  0.1126407E+005  0.1043930E+01  0.7957747E-01            NaN
         13   -1    0    0    0    0  0.00000000000E+00  0.00000000000E+00  0.74505805969E-08  0.10566000000E+00  0.10566000000E+00 0.  1.
     999900   -1    0    0    0    0 -0.00000000000E+00 -0.00000000000E+00 -0.74505805969E-08  0.93827000000E+00  0.93827000000E+00 0. -1.
     999902    2    1    2    0    0  0.19748623197E-01  0.11835148408E-01  0.49613113702E-02  0.10203780687E+01  0.10201062247E+01 0.  0.
     999903    2    3    3    0    0 -0.44683643616E-01  0.13881947559E-01 -0.11901672771E+00  0.12935267035E+00  0.19436959055E-01 0.  0.
         14    1    1    2    0    0 -0.19748623197E-01 -0.11835148408E-01 -0.49613113702E-02  0.23551931269E-01  0.00000000000E+00 0.  1.
     999901    1    3    3    0    0  0.64432266812E-01 -0.20467991512E-02  0.12397803908E+00  0.89102539838E+00  0.88000000000E+00 0.  1.
        -11    1    4    4    0    0 -0.35426353069E-01  0.67727612732E-02 -0.67563934043E-01  0.76590097868E-01  0.51100000000E-03 0. -1.
         11    1    4    4    0    0 -0.92572905464E-02  0.71091862860E-02 -0.51452793662E-01  0.52762572478E-01  0.51100000000E-03 0.  1.
</event>
<event>
 8    1  0.1126407E+005  0.1043930E+01  0.7957747E-01            NaN
         13   -1    0    0    0    0  0.00000000000E+00  0.00000000000E+00  0.74505805969E-08  0.10566000000E+00  0.10566000000E+00 0.  1.
     999900   -1    0    0    0    0 -0.00000000000E+00 -0.00000000000E+00 -0.74505805969E-08  0.93827000000E+00  0.93827000000E+00 0.  1.
     999902    2    1    2    0    0  0.21018852766E-01 -0.12281156568E-02  0.12409246946E-01  0.10194904859E+01  0.10191975083E+01 0.  0.
     999903    2    3    3    0    0 -0.20081676911E-01  0.96190409153E-01 -0.80042656157E-01  0.12835246241E+00  0.20289387436E-01 0.  0.
         14    1    1    2    0    0 -0.21018852766E-01  0.12281156568E-02 -0.12409246946E-01  0.24439514100E-01  0.00000000000E+00 0. -1.
     999901    1    3    3    0    0  0.41100529677E-01 -0.97418524810E-01  0.92451903103E-01  0.89113802349E+00  0.88000000000E+00 0. -1.
        -11    1    4    4    0    0 -0.11939111474E-01  0.83189375411E-01 -0.60759002269E-01  0.10370598846E+00  0.51100000000E-03 0. -1.
         11    1    4    4    0    0 -0.81425654372E-02  0.13001033742E-01 -0.19283653888E-01  0.24646473957E-01  0.51100000000E-03 0.  1.
</event>
<event>
 8    1  0.1126407E+005  0.1043930E+01  0.7957747E-01            NaN
         13   -1    0    0    0    0  0.00000000000E+00  0.00000000000E+00  0.74505805969E-08  0.10566000000E+00  0.10566000000E+00 0. -1.
     999900   -1    0    0    0    0 -0.00000000000E+00 -0.00000000000E+00 -0.74505805969E-08  0.93827000000E+00  0.93827000000E+00 0. -1.
     999902    2    1    2    0    0  0.16110281436E-01 -0.11848716557E-01 -0.13518541732E-01  0.10197911470E+01  0.10195054190E+01 0.  0.
     999903    2    3    3    0    0  0.11198245211E+00 -0.67821847711E-01  0.52170338235E-02  0.13261839818E+00  0.20507303245E-01 0.  0.
         14    1    1    2    0    0 -0.16110281436E-01  0.11848716557E-01  0.13518541732E-01  0.24138852967E-01  0.00000000000E+00 0.  1.
     999901    1    3    3    0    0 -0.95872170671E-01  0.55973131153E-01 -0.18735575555E-01  0.88717274886E+00  0.88000000000E+00 0. -1.
        -11    1    4    4    0    0  0.47625470175E-01 -0.39584958102E-01  0.69253927789E-02  0.62316743364E-01  0.51100000000E-03 0. -1.
         11    1    4    4    0    0  0.64356981932E-01 -0.28236889608E-01 -0.17083589554E-02  0.70301654813E-01  0.51100000000E-03 0.  1.
</event>
<event>
 8    1  0.1126407E+005  0.1043930E+01  0.7957747E-01            NaN
         13   -1    0    0    0    0  0.00000000000E+00  0.00000000000E+00  0.74505805969E-08  0.10566000000E+00  0.10566000000E+00 0. -1.
     999900   -1    0    0    0    0 -0.00000000000E+00 -0.00000000000E+00 -0.74505805969E-08  0.93827000000E+00  0.93827000000E+00 0. -1.
     999902    2    1    2    0    0  0.26445126451E-03 -0.76219662617E-02  0.22207579704E-01  0.10204493505E+01  0.10201791686E+01 0.  0.
     999903    2    3    3    0    0 -0.94572582937E-01 -0.86802752960E-01  0.22323629902E-01  0.13181912735E+00  0.19981154112E-01 0.  0.
         14    1    1    2    0    0 -0.26445126451E-03  0.76219662617E-02 -0.22207579704E-01  0.23480649490E-01  0.00000000000E+00 0.  1.
     999901    1    3    3    0    0  0.94837034201E-01  0.79180786698E-01 -0.11605019837E-03  0.88863022316E+00  0.88000000000E+00 0.  1.
        -11    1    4    4    0    0 -0.68059956648E-01 -0.72558368639E-01  0.13141325831E-01  0.10034854321E+00  0.51100000000E-03 0.  1.
         11    1    4    4    0    0 -0.26512626289E-01 -0.14244384321E-01  0.91823040712E-02  0.31470584146E-01  0.51100000000E-03 0. -1.
</event>
<event>
 8    1  0.1126407E+005  0.1043930E+01  0.7957747E-01            NaN
         13   -1    0    0    0    0  0.00000000000E+00  0.00000000000E+00  0.74505805969E-08  0.10566000000E+00  0.10566000000E+00 0. -1.
     999900   -1    0    0    0    0 -0.00000000000E+00 -0.00000000000E+00 -0.74505805969E-08  0.93827000000E+00  0.93827000000E+00 0.  1.
     999902    2    1    2    0    0 -0.20257193171E-01 -0.62869150739E-02 -0.10069102993E-01  0.10204509453E+01  0.10201808005E+01 0.  0.
     999903    2    3    3    0    0  0.69158260774E-01  0.85492595424E-01  0.62197152314E-01  0.12823963979E+00  0.22024317298E-01 0.  0.
         14    1    1    2    0    0  0.20257193171E-01  0.62869150739E-02  0.10069102993E-01  0.23479054738E-01  0.00000000000E+00 0. -1.
     999901    1    3    3    0    0 -0.89415453946E-01 -0.91779510497E-01 -0.72266255307E-01  0.89221130547E+00  0.88000000000E+00 0. -1.
        -11    1    4    4    0    0  0.31104505885E-01  0.37253368298E-01  0.40053120176E-01  0.62927079169E-01  0.51100000000E-03 0. -1.
         11    1    4    4    0    0  0.38053754889E-01  0.48239227125E-01  0.22144032139E-01  0.65312560624E-01  0.51100000000E-03 0.  1.
</event>
<event>
 8    1  0.1126407E+005  0.1043930E+01  0.7957747E-01            NaN
         13   -1    0    0    0    0  0.00000000000E+00  0.00000000000E+00  0.74505805969E-08  0.10566000000E+00  0.10566000000E+00 0. -1.
     999900   -1    0    0    0    0 -0.00000000000E+00 -0.00000000000E+00 -0.74505805969E-08  0.93827000000E+00  0.93827000000E+00 0.  1.
     999902    2    1    2    0    0  0.11872446742E-01  0.16985510609E-01 -0.64813119986E-02  0.10222166408E+01  0.10219860032E+01 0.  0.
     999903    2    3    3    0    0 -0.17734954040E-01 -0.15378876416E-01 -0.12924263721E+00  0.13261313660E+00  0.18208412681E-01 0.  0.
         14    1    1    2    0    0 -0.11872446742E-01 -0.16985510609E-01  0.64813119986E-02  0.21713359194E-01  0.00000000000E+00 0.  1.
     999901    1    3    3    0    0  0.29607400782E-01  0.32364387025E-01  0.12276132521E+00  0.88960350421E+00  0.88000000000E+00 0. -1.
        -11    1    4    4    0    0 -0.40502252895E-02 -0.15054882241E-01 -0.57720252498E-01  0.59790822654E-01  0.51100000000E-03 0. -1.
         11    1    4    4    0    0 -0.13684728750E-01 -0.32399417509E-03 -0.71522384707E-01  0.72822313946E-01  0.51100000000E-03 0.  1.
</event>
<event>
 8    1  0.1126407E+005  0.1043930E+01  0.7957747E-01            NaN
         13   -1    0    0    0    0  0.00000000000E+00  0.00000000000E+00  0.74505805969E-08  0.10566000000E+00  0.10566000000E+00 0. -1.
     999900   -1    0    0    0    0 -0.00000000000E+00 -0.00000000000E+00 -0.74505805969E-08  0.93827000000E+00  0.93827000000E+00 0. -1.
     999902    2    1    2    0    0  0.13401326905E-01  0.20451457637E-01 -0.10083091923E-01  0.10174814381E+01  0.10171376261E+01 0.  0.
     999903    2    3    3    0    0  0.70828824392E-01  0.51357774832E-01  0.93049694764E-01  0.12906177963E+00  0.18556774137E-01 0.  0.
         14    1    1    2    0    0 -0.13401326905E-01 -0.20451457637E-01  0.10083091923E-01  0.26448561871E-01  0.00000000000E+00 0. -1.
     999901    1    3    3    0    0 -0.57427497486E-01 -0.30906317195E-01 -0.10313278669E+00  0.88841965849E+00  0.88000000000E+00 0. -1.
        -11    1    4    4    0    0  0.29745459599E-01  0.28517122173E-01  0.54135531422E-01  0.68036280815E-01  0.51100000000E-03 0. -1.
         11    1    4    4    0    0  0.41083364792E-01  0.22840652660E-01  0.38914163342E-01  0.61025498819E-01  0.51100000000E-03 0.  1.
</event>
<event>
 8    1  0.1126407E+005  0.1043930E+01  0.7957747E-01            NaN
         13   -1    0    0    0    0  0.00000000000E+00  0.00000000000E+00  0.74505805969E-08  0.10566000000E+00  0.10566000000E+00 0. -1.
     999900   -1    0    0    0    0 -0.00000000000E+00 -0.00000000000E+00 -0.74505805969E-08  0.93827000000E+00  0.93827000000E+00 0.  1.
     999902    2    1    2    0    0  0.14907371012E-02 -0.19376244029E-01  0.14163173568E-01  0.10198830331E+01  0.10195995021E+01 0.  0.
     999903    2    3    3    0    0  0.82099325704E-01 -0.72735454283E-01  0.72182286855E-01  0.13269017508E+00  0.19122092902E-01 0.  0.
         14    1    1    2    0    0 -0.14907371012E-02  0.19376244029E-01 -0.14163173568E-01  0.24046966863E-01  0.00000000000E+00 0.  1.
     999901    1    3    3    0    0 -0.80608588603E-01  0.53359210254E-01 -0.58019113287E-01  0.88719285805E+00  0.88000000000E+00 0. -1.
        -11    1    4    4    0    0  0.55168587027E-01 -0.43054539522E-01  0.55319803489E-01  0.89206547669E-01  0.51100000000E-03 0. -1.
         11    1    4    4    0    0  0.26930738677E-01 -0.29680914761E-01  0.16862483367E-01  0.43483627414E-01  0.51100000000E-03 0.  1.
</event>
<event>
 8    1  0.1126407E+005  0.1043930E+01  0.7957747E-01            NaN
         13   -1    0    0    0    0  0.00000000000E+00  0.00000000000E+00  0.74505805969E-08  0.10566000000E+00  0.10566000000E+00 0.  1.
     999900   -1    0    0    0    0 -0.00000000000E+00 -0.00000000000E+00 -0.74505805969E-08  0.93827000000E+00  0.93827000000E+00 0.  1.
     999902    2    1    2    0    0 -0.15997922425E-01  0.87658828539E-02 -0.14642309223E-01  0.10205383040E+01  0.10202701889E+01 0.  0.
     999903    2    3    3    0    0  0.62627838371E-01 -0.27429569729E-01 -0.11015019865E+00  0.13114869418E+00  0.19806218408E-01 0.  0.
         14    1    1    2    0    0  0.15997922425E-01 -0.87658828539E-02  0.14642309223E-01  0.23391696038E-01  0.00000000000E+00 0.  1.
     999901    1    3    3    0    0 -0.78625760796E-01  0.36195452583E-01  0.95507889426E-01  0.88938960978E+00  0.88000000000E+00 0. -1.
        -11    1    4    4    0    0  0.55959087894E-02 -0.76883057082E-02 -0.77165983967E-02  0.12256885887E-01  0.51100000000E-03 0.  1.
         11    1    4    4    0    0  0.57031929582E-01 -0.19741264020E-01 -0.10243360025E+00  0.11889180829E+00  0.51100000000E-03 0. -1.
</event>
<event>
 8    1  0.1126407E+005  0.1043930E+01  0.7957747E-01            NaN
         13   -1    0    0    0    0  0.00000000000E+00  0.00000000000E+00  0.74505805969E-08  0.10566000000E+00  0.10566000000E+00 0. -1.
     999900   -1    0    0    0    0 -0.00000000000E+00 -0.00000000000E+00 -0.74505805969E-08  0.93827000000E+00  0.93827000000E+00 0.  1.
     999902    2    1    2    0    0  0.16076120963E-01 -0.11156146292E-01 -0.12052528845E-01  0.10209481655E+01  0.10206894689E+01 0.  0.
     999903    2    3    3    0    0  0.72382318281E-01 -0.86694186052E-01  0.65987301048E-01  0.13248511148E+00  0.21045165007E-01 0.  0.
         14    1    1    2    0    0 -0.16076120963E-01  0.11156146292E-01  0.12052528845E-01  0.22981834498E-01  0.00000000000E+00 0. -1.
     999901    1    3    3    0    0 -0.56306197318E-01  0.75538039759E-01 -0.78039829894E-01  0.88846305402E+00  0.88000000000E+00 0.  1.
        -11    1    4    4    0    0  0.41275913415E-01 -0.37320697121E-01  0.24059146667E-01  0.60627049418E-01  0.51100000000E-03 0.  1.
         11    1    4    4    0    0  0.31106404866E-01 -0.49373488931E-01  0.41928154381E-01  0.71858062065E-01  0.51100000000E-03 0. -1.
</event>
<event>
 8    1  0.1126407E+005  0.1043930E+01  0.7957747E-01            NaN
         13   -1    0    0    0    0  0.00000000000E+00  0.00000000000E+00  0.74505805969E-08  0.10566000000E+00  0.10566000000E+00 0.  1.
     999900   -1    0    0    0    0 -0.00000000000E+00 -0.00000000000E+00 -0.74505805969E-08  0.93827000000E+00  0.93827000000E+00 0.  1.
     999902    2    1    2    0    0 -0.16804876406E-01  0.14458940470E-01  0.77762146971E-02  0.10204367170E+01  0.10201662409E+01 0.  0.
     999903    2    3    3    0    0 -0.95657271245E-01 -0.76475126404E-01 -0.41321160279E-01  0.13088781059E+00  0.20625764787E-01 0.  0.
         14    1    1    2    0    0  0.16804876406E-01 -0.14458940470E-01 -0.77762146971E-02  0.23493282988E-01  0.00000000000E+00 0.  1.
     999901    1    3    3    0    0  0.78852394839E-01  0.90934066874E-01  0.49097374976E-01  0.88954890642E+00  0.88000000000E+00 0.  1.
        -11    1    4    4    0    0 -0.52001157253E-01 -0.28400617531E-01 -0.19642676559E-01  0.62424444692E-01  0.51100000000E-03 0. -1.
         11    1    4    4    0    0 -0.43656113993E-01 -0.48074508873E-01 -0.21678483721E-01  0.68463365896E-01  0.51100000000E-03 0.  1.
</event>
<event>
 8    1  0.1126407E+005  0.1043930E+01  0.7957747E-01            NaN
         13   -1    0    0    0    0  0.00000000000E+00  0.00000000000E+00  0.74505805969E-08  0.10566000000E+00  0.10566000000E+00 0.  1.
     999900   -1    0    0    0    0 -0.00000000000E+00 -0.00000000000E+00 -0.74505805969E-08  0.93827000000E+00  0.93827000000E+00 0.  1.
     999902    2    1    2    0    0  0.30250338240E-02 -0.21749185283E-02  0.23550032328E-01  0.10200870739E+01  0.10198083905E+01 0.  0.
     999903    2    3    3    0    0 -0.12566788707E+00 -0.26316962973E-01  0.67561372317E-03  0.13010508243E+00  0.21020838218E-01 0.  0.
         14    1    1    2    0    0 -0.30250338240E-02  0.21749185283E-02 -0.23550032328E-01  0.23842926055E-01  0.00000000000E+00 0. -1.
     999901    1    3    3    0    0  0.12869292089E+00  0.24142044445E-01  0.22874418605E-01  0.88998199152E+00  0.88000000000E+00 0. -1.
        -11    1    4    4    0    0 -0.80318656658E-01 -0.72248764584E-02  0.43449726942E-02  0.80761533888E-01  0.51100000000E-03 0.  1.
         11    1    4    4    0    0 -0.45349230410E-01 -0.19092086515E-01 -0.36693589710E-02  0.49343548540E-01  0.51100000000E-03 0. -1.
</event>
<event>
 8    1  0.1126407E+005  0.1043930E+01  0.7957747E-01            NaN
         13   -1    0    0    0    0  0.00000000000E+00  0.00000000000E+00  0.74505805969E-08  0.10566000000E+00  0.10566000000E+00 0.  1.
     999900   -1    0    0    0    0 -0.00000000000E+00 -0.00000000000E+00 -0.74505805969E-08  0.93827000000E+00  0.93827000000E+00 0.  1.
     999902    2    1    2    0    0  0.16831192909E-01 -0.77111297101E-02  0.14267410126E-01  0.10205567339E+01  0.10202890461E+01 0.  0.
     999903    2    3    3    0    0  0.75483134864E-01  0.91160451383E-01 -0.51687732681E-01  0.13063217491E+00  0.19626814992E-01 0.  0.
         14    1    1    2    0    0 -0.16831192909E-01  0.77111297101E-02 -0.14267410126E-01  0.23373266093E-01  0.00000000000E+00 0. -1.
     999901    1    3    3    0    0 -0.58651941955E-01 -0.98871581094E-01  0.65955142807E-01  0.88992455900E+00  0.88000000000E+00 0.  1.
        -11    1    4    4    0    0  0.31590100947E-01  0.33541286085E-01 -0.10330898228E-01  0.47222250362E-01  0.51100000000E-03 0. -1.
         11    1    4    4    0    0  0.43893033917E-01  0.57619165298E-01 -0.41356834453E-01  0.83409924548E-01  0.51100000000E-03 0.  1.
</event>
<event>
 8    1  0.1126407E+005  0.1043930E+01  0.7957747E-01            NaN
         13   -1    0    0    0    0  0.00000000000E+00  0.00000000000E+00  0.74505805969E-08  0.10566000000E+00  0.10566000000E+00 0.  1.
     999900   -1    0    0    0    0 -0.00000000000E+00 -0.00000000000E+00 -0.74505805969E-08  0.93827000000E+00  0.93827000000E+00 0.  1.
     999902    2    1    2    0    0  0.22315959745E-01 -0.12094156291E-02  0.75734285802E-02  0.10203329331E+01  0.10200600339E+01 0.  0.
     999903    2    3    3    0    0 -0.57063642940E-03 -0.39651002589E-01  0.12383699278E+00  0.13155918898E+00  0.19992293308E-01 0.  0.
         14    1    1    2    0    0 -0.22315959745E-01  0.12094156291E-02 -0.75734285802E-02  0.23597066894E-01  0.00000000000E+00 0. -1.
     999901    1    3    3    0    0  0.22886596175E-01  0.38441586960E-01 -0.11626356420E+00  0.88877374413E+00  0.88000000000E+00 0.  1.
        -11    1    4    4    0    0  0.54798089594E-02 -0.22593866601E-01  0.44810933070E-01  0.50485561875E-01  0.51100000000E-03 0. -1.
         11    1    4    4    0    0 -0.60504453888E-02 -0.17057135988E-01  0.79026059709E-01  0.81073627103E-01  0.51100000000E-03 0.  1.
</event>
<event>
 8    1  0.1126407E+005  0.1043930E+01  0.7957747E-01            NaN
         13   -1    0    0    0    0  0.00000000000E+00  0.00000000000E+00  0.74505805969E-08  0.10566000000E+00  0.10566000000E+00 0. -1.
     999900   -1    0    0    0    0 -0.00000000000E+00 -0.00000000000E+00 -0.74505805969E-08  0.93827000000E+00  0.93827000000E+00 0.  1.
     999902    2    1    2    0    0 -0.57654283324E-02  0.19142111132E-01  0.14210040419E-01  0.10194027533E+01  0.10191076428E+01 0.  0.
     999903    2    3    3    0    0 -0.24331438310E-01  0.86879437352E-01  0.95454065937E-01  0.13287377250E+00  0.20097392639E-01 0.  0.
         14    1    1    2    0    0  0.57654283324E-02 -0.19142111132E-01 -0.14210040419E-01  0.24527246710E-01  0.00000000000E+00 0.  1.
     999901    1    3    3    0    0  0.18566009978E-01 -0.67737326219E-01 -0.81244025518E-01  0.88652898079E+00  0.88000000000E+00 0.  1.
        -11    1    4    4    0    0 -0.92856876912E-02  0.40148764378E-01  0.57865470045E-01  0.71040981282E-01  0.51100000000E-03 0. -1.
         11    1    4    4    0    0 -0.15045750619E-01  0.46730672973E-01  0.37588595892E-01  0.61832791222E-01  0.51100000000E-03 0.  1.
</event>
<event>
 8    1  0.1126407E+005  0.1043930E+01  0.7957747E-01            NaN
         13   -1    0    0    0    0  0.00000000000E+00  0.00000000000E+00  0.74505805969E-08  0.10566000000E+00  0.10566000000E+00 0.  1.
     999900   -1    0    0    0    0 -0.00000000000E+00 -0.00000000000E+00 -0.74505805969E-08  0.93827000000E+00  0.93827000000E+00 0.  1.
     999902    2    1    2    0    0 -0.20422362592E-01 -0.11820572089E-01  0.45060601223E-02  0.10199070236E+01  0.10196240647E+01 0.  0.
     999903    2    3    3    0    0 -0.59316533098E-02 -0.61374918411E-01 -0.11325065504E+00  0.13056330045E+00  0.20469475755E-01 0.  0.
         14    1    1    2    0    0  0.20422362592E-01  0.11820572089E-01 -0.45060601223E-02  0.24022976422E-01  0.00000000000E+00 0.  1.
     999901    1    3    3    0    0 -0.14490709282E-01  0.49554346322E-01  0.11775671516E+00  0.88934372312E+00  0.88000000000E+00 0. -1.
        -11    1    4    4    0    0 -0.10142147601E-02 -0.84104524079E-02 -0.47533109315E-02  0.97272517751E-02  0.51100000000E-03 0.  1.
         11    1    4    4    0    0 -0.49174385497E-02 -0.52964466003E-01 -0.10849734411E+00  0.12083604868E+00  0.51100000000E-03 0. -1.
</event>
<event>
 8    1  0.1126407E+005  0.1043930E+01  0.7957747E-01            NaN
         13   -1    0    0    0    0  0.00000000000E+00  0.00000000000E+00  0.74505805969E-08  0.10566000000E+00  0.10566000000E+00 0. -1.
     999900   -1    0    0    0    0 -0.00000000000E+00 -0.00000000000E+00 -0.74505805969E-08  0.93827000000E+00  0.93827000000E+00 0. -1.
     999902    2    1    2    0    0  0.75366224975E-02 -0.21410570372E-01  0.88404520856E-02  0.10195708786E+01  0.10192798486E+01 0.  0.
     999903    2    3    3    0    0 -0.63904268024E-01  0.76296813550E-01 -0.76557196368E-01  0.12719019074E+00  0.20282531253E-01 0.  0.
         14    1    1    2    0    0 -0.75366224975E-02  0.21410570372E-01 -0.88404520856E-02  0.24359121400E-01  0.00000000000E+00 0.  1.
     999901    1    3    3    0    0  0.71440890521E-01 -0.97707383922E-01  0.85397648454E-01  0.89238068786E+00  0.88000000000E+00 0.  1.
        -11    1    4    4    0    0 -0.54998421127E-01  0.73838122048E-01 -0.71969739411E-01  0.11686230832E+00  0.51100000000E-03 0.  1.
         11    1    4    4    0    0 -0.89058468966E-02  0.24586915021E-02 -0.45874569569E-02  0.10327882415E-01  0.51100000000E-03 0. -1.
</event>
<event>
 7    1  0.1126407E+005  0.1043930E+01  0.7957747E-01            NaN
         13   -1    0    0    0    0  0.00000000000E+00  0.00000000000E+00  0.74505805969E-08  0.10566000000E+00  0.10566000000E+00 0.  1.
     999900   -1    0    0    0    0 -0.00000000000E+00 -0.00000000000E+00 -0.74505805969E-08  0.93827000000E+00  0.93827000000E+00 0.  1.
     999903    2    1    2    0    0 -0.65065390089E-01  0.63846224236E-01  0.67374019855E-01  0.11512681793E+00  0.20126607245E-01 0.  0.
         14    1    1    2    0    0 -0.14403680151E-01  0.24969027841E-01 -0.27555215012E-01  0.39877415006E-01  0.00000000000E+00 0. -1.
     999901    1    1    2    0    0  0.79469070240E-01 -0.88815252077E-01 -0.39818804843E-01  0.88892576706E+00  0.88000000000E+00 0. -1.
        -11    1    3    3    0    0 -0.22301604621E-01  0.10416244049E-01  0.21970938444E-01  0.32997620609E-01  0.51100000000E-03 0.  1.
         11    1    3    3    0    0 -0.42763785469E-01  0.53429980187E-01  0.45403081411E-01  0.82129197324E-01  0.51100000000E-03 0. -1.
</event>
<event>
 8    1  0.1126407E+005  0.1043930E+01  0.7957747E-01            NaN
         13   -1    0    0    0    0  0.00000000000E+00  0.00000000000E+00  0.74505805969E-08  0.10566000000E+00  0.10566000000E+00 0.  1.
     999900   -1    0    0    0    0 -0.00000000000E+00 -0.00000000000E+00 -0.74505805969E-08  0.93827000000E+00  0.93827000000E+00 0.  1.
     999902    2    1    2    0    0  0.15196507829E-01 -0.18671991263E-01 -0.10116842214E-01  0.10178162564E+01  0.10174812058E+01 0.  0.
     999903    2    3    3    0    0 -0.64224624076E-01 -0.89599936073E-01 -0.65344087867E-01  0.12967857665E+00  0.19842694889E-01 0.  0.
         14    1    1    2    0    0 -0.15196507829E-01  0.18671991263E-01  0.10116842214E-01  0.26113743591E-01  0.00000000000E+00 0.  1.
     999901    1    3    3    0    0  0.79421131905E-01  0.70927944810E-01  0.55227245652E-01  0.88813767976E+00  0.88000000000E+00 0. -1.
        -11    1    4    4    0    0 -0.50040763430E-01 -0.53676299328E-01 -0.42963426318E-01  0.85037287328E-01  0.51100000000E-03 0.  1.
         11    1    4    4    0    0 -0.14183860647E-01 -0.35923636745E-01 -0.22380661549E-01  0.44641289321E-01  0.51100000000E-03 0. -1.
</event>
<event>
 8    1  0.1126407E+005  0.1043930E+01  0.7957747E-01            NaN
         13   -1    0    0    0    0  0.00000000000E+00  0.00000000000E+00  0.74505805969E-08  0.10566000000E+00  0.10566000000E+00 0.  1.
     999900   -1    0    0    0    0 -0.00000000000E+00 -0.00000000000E+00 -0.74505805969E-08  0.93827000000E+00  0.93827000000E+00 0. -1.
     999902    2    1    2    0    0 -0.35005168404E-02 -0.17749140348E-01  0.15095242148E-01  0.10203683376E+01  0.10200962662E+01 0.  0.
     999903    2    3    3    0    0 -0.77057992370E-01 -0.27922649150E-01 -0.98771248869E-01  0.12993036653E+00  0.20212175025E-01 0.  0.
         14    1    1    2    0    0  0.35005168404E-02  0.17749140348E-01 -0.15095242148E-01  0.23561662436E-01  0.00000000000E+00 0. -1.
     999901    1    3    3    0    0  0.73557475529E-01  0.10173508801E-01  0.11386649102E+00  0.89043797104E+00  0.88000000000E+00 0.  1.
        -11    1    4    4    0    0 -0.63306805511E-01 -0.15488169993E-01 -0.69510338545E-01  0.95286847568E-01  0.51100000000E-03 0. -1.
         11    1    4    4    0    0 -0.13751186858E-01 -0.12434479157E-01 -0.29260910324E-01  0.34643518959E-01  0.51100000000E-03 0.  1.
</event>
<event>
 8    1  0.1191300E+005  0.1043930E+01  0.7957747E-01            NaN
         13   -1    0    0    0    0  0.00000000000E+00  0.00000000000E+00  0.74505805969E-08  0.10566000000E+00  0.10566000000E+00 0.  1.
     999900   -1    0    0    0    0 -0.00000000000E+00 -0.00000000000E+00 -0.74505805969E-08  0.93827000000E+00  0.93827000000E+00 0.  1.
     999902    2    1    2    0    0  0.20350155229E-01  0.39219219860E-02 -0.11075900253E-01  0.10204313648E+01  0.10201607640E+01 0.  0.
     999903    2    3    3    0    0  0.72355829949E-01 -0.75675189258E-01  0.76238786857E-01  0.13101349624E+00  0.19750523524E-01 0.  0.
         14    1    1    2    0    0 -0.20350155229E-01 -0.39219219860E-02  0.11075900253E-01  0.23498635202E-01  0.00000000000E+00 0.  1.
     999901    1    3    3    0    0 -0.52005674720E-01  0.79597111244E-01 -0.87314687110E-01  0.88941786856E+00  0.88000000000E+00 0.  1.
        -11    1    4    4    0    0  0.16521873268E-01 -0.30571306664E-01  0.25901104084E-01  0.43344035359E-01  0.51100000000E-03 0.  1.
         11    1    4    4    0    0  0.55833956681E-01 -0.45103882593E-01  0.50337682773E-01  0.87669460883E-01  0.51100000000E-03 0. -1.
</event>
<event>
 8    1  0.1126407E+005  0.1043930E+01  0.7957747E-01            NaN
         13   -1    0    0    0    0  0.00000000000E+00  0.00000000000E+00  0.74505805969E-08  0.10566000000E+00  0.10566000000E+00 0. -1.
     999900   -1    0    0    0    0 -0.00000000000E+00 -0.00000000000E+00 -0.74505805969E-08  0.93827000000E+00  0.93827000000E+00 0.  1.
     999902    2    1    2    0    0  0.62307112368E-02  0.13933027177E-01 -0.18654232575E-01  0.10198274814E+01  0.10195426232E+01 0.  0.
     999903    2    3    3    0    0 -0.78546293714E-01  0.88268937628E-01  0.50174495902E-01  0.12996773853E+00  0.20327503884E-01 0.  0.
         14    1    1    2    0    0 -0.62307112368E-02 -0.13933027177E-01  0.18654232575E-01  0.24102518578E-01  0.00000000000E+00 0. -1.
     999901    1    3    3    0    0  0.84777004950E-01 -0.74335910451E-01 -0.68828728477E-01  0.88985974289E+00  0.88000000000E+00 0. -1.
        -11    1    4    4    0    0 -0.41873097617E-01  0.33085756495E-01  0.26672826971E-01  0.59663426037E-01  0.51100000000E-03 0.  1.
         11    1    4    4    0    0 -0.36673196097E-01  0.55183181133E-01  0.23501668931E-01  0.70304312496E-01  0.51100000000E-03 0. -1.
</event>
<event>
 8    1  0.1126407E+005  0.1043930E+01  0.7957747E-01            NaN
         13   -1    0    0    0    0  0.00000000000E+00  0.00000000000E+00  0.74505805969E-08  0.10566000000E+00  0.10566000000E+00 0. -1.
     999900   -1    0    0    0    0 -0.00000000000E+00 -0.00000000000E+00 -0.74505805969E-08  0.93827000000E+00  0.93827000000E+00 0.  1.
     999902    2    1    2    0    0 -0.12392504095E-01 -0.10964529071E-01 -0.15955720594E-01  0.10209434806E+01  0.10206846773E+01 0.  0.
     999903    2    3    3    0    0 -0.65647470942E-01 -0.67285782006E-01  0.89494559024E-01  0.13126492262E+00  0.19601961967E-01 0.  0.
         14    1    1    2    0    0  0.12392504095E-01  0.10964529071E-01  0.15955720594E-01  0.22986519422E-01  0.00000000000E+00 0.  1.
     999901    1    3    3    0    0  0.53254966847E-01  0.56321252936E-01 -0.10545027962E+00  0.88967855796E+00  0.88000000000E+00 0.  1.
        -11    1    4    4    0    0 -0.23183130634E-01 -0.12801767573E-01  0.19246173909E-01  0.32741703226E-01  0.51100000000E-03 0.  1.
         11    1    4    4    0    0 -0.42464340308E-01 -0.54484014433E-01  0.70248385115E-01  0.98523219390E-01  0.51100000000E-03 0. -1.
</event>
<event>
 8    1  0.1126407E+005  0.1043930E+01  0.7957747E-01            NaN
         13   -1    0    0    0    0  0.00000000000E+00  0.00000000000E+00  0.74505805969E-08  0.10566000000E+00  0.10566000000E+00 0.  1.
     999900   -1    0    0    0    0 -0.00000000000E+00 -0.00000000000E+00 -0.74505805969E-08  0.93827000000E+00  0.93827000000E+00 0.  1.
     999902    2    1    2    0    0 -0.18271517849E-01  0.12147691517E-01  0.41358574653E-02  0.10216024365E+01  0.10213584181E+01 0.  0.
     999903    2    3    3    0    0  0.36901827504E-01  0.11461964229E+00 -0.50300517745E-01  0.13227239786E+00  0.21597172909E-01 0.  0.
         14    1    1    2    0    0  0.18271517849E-01 -0.12147691517E-01 -0.41358574653E-02  0.22327563474E-01  0.00000000000E+00 0. -1.
     999901    1    3    3    0    0 -0.55173345352E-01 -0.10247195077E+00  0.54436375211E-01  0.88933003867E+00  0.88000000000E+00 0. -1.
        -11    1    4    4    0    0  0.73775838179E-02  0.45089772273E-01 -0.27660212545E-01  0.53412215697E-01  0.51100000000E-03 0.  1.
         11    1    4    4    0    0  0.29524243686E-01  0.69529870017E-01 -0.22640305200E-01  0.78860182160E-01  0.51100000000E-03 0. -1.
</event>
<event>
 8    1  0.1126407E+005  0.1043930E+01  0.7957747E-01            NaN
         13   -1    0    0    0    0  0.00000000000E+00  0.00000000000E+00  0.74505805969E-08  0.10566000000E+00  0.10566000000E+00 0. -1.
     999900   -1    0    0    0    0 -0.00000000000E+00 -0.00000000000E+00 -0.74505805969E-08  0.93827000000E+00  0.93827000000E+00 0. -1.
     999902    2    1    2    0    0  0.12386442584E-01  0.18607671105E-01 -0.35482373446E-02  0.10212968524E+01  0.10210460329E+01 0.  0.
     999903    2    3    3    0    0 -0.16892112329E-01 -0.12307509141E+00 -0.28434223104E-01  0.12913624392E+00  0.20852886263E-01 0.  0.
         14    1    1    2    0    0 -0.12386442584E-01 -0.18607671105E-01  0.35482373446E-02  0.22633147640E-01  0.00000000000E+00 0. -1.
     999901    1    3    3    0    0  0.29278554914E-01  0.14168276251E+00  0.24885985759E-01  0.89216060844E+00  0.88000000000E+00 0. -1.
        -11    1    4    4    0    0 -0.20149193938E-01 -0.82572179550E-01 -0.23604873354E-01  0.88213411786E-01  0.51100000000E-03 0. -1.
         11    1    4    4    0    0  0.32570816083E-02 -0.40502911858E-01 -0.48293497493E-02  0.40922832130E-01  0.51100000000E-03 0.  1.
</event>
<event>
 8    1  0.1126407E+005  0.1043930E+01  0.7957747E-01            NaN
         13   -1    0    0    0    0  0.00000000000E+00  0.00000000000E+00  0.74505805969E-08  0.10566000000E+00  0.10566000000E+00 0. -1.
     999900   -1    0    0    0    0 -0.00000000000E+00 -0.00000000000E+00 -0.74505805969E-08  0.93827000000E+00  0.93827000000E+00 0. -1.
     999902    2    1    2    0    0 -0.85890848460E-02  0.19210649895E-01 -0.10769785369E-01  0.10202908434E+01  0.10200169584E+01 0.  0.
     999903    2    3    3    0    0 -0.74051497101E-01  0.69411754294E-01 -0.83937159355E-01  0.13340926003E+00  0.21236009150E-01 0.  0.
         14    1    1    2    0    0  0.85890848460E-02 -0.19210649895E-01  0.10769785369E-01  0.23639156600E-01  0.00000000000E+00 0.  1.
     999901    1    3    3    0    0  0.65462412255E-01 -0.50201104399E-01  0.73167373986E-01  0.88688158337E+00  0.88000000000E+00 0.  1.
        -11    1    4    4    0    0 -0.49542764250E-01  0.42998026618E-01 -0.66367671552E-01  0.93317976461E-01  0.51100000000E-03 0.  1.
         11    1    4    4    0    0 -0.24508732851E-01  0.26413727676E-01 -0.17569487803E-01  0.40091283571E-01  0.51100000000E-03 0. -1.
</event>
<event>
 8    1  0.1126407E+005  0.1043930E+01  0.7957747E-01            NaN
         13   -1    0    0    0    0  0.00000000000E+00  0.00000000000E+00  0.74505805969E-08  0.10566000000E+00  0.10566000000E+00 0.  1.
     999900   -1    0    0    0    0 -0.00000000000E+00 -0.00000000000E+00 -0.74505805969E-08  0.93827000000E+00  0.93827000000E+00 0.  1.
     999902    2    1    2    0    0  0.11500638110E-01 -0.44734258498E-02  0.20053051025E-01  0.10203842770E+01  0.10201125780E+01 0.  0.
     999903    2    3    3    0    0  0.29832138741E-01 -0.11805273987E+00  0.48114087745E-01  0.13245200129E+00  0.20053960024E-01 0.  0.
         14    1    1    2    0    0 -0.11500638110E-01  0.44734258498E-02 -0.20053051025E-01  0.23545722991E-01  0.00000000000E+00 0. -1.
     999901    1    3    3    0    0 -0.18331500631E-01  0.11357931402E+00 -0.28061036720E-01  0.88793227572E+00  0.88000000000E+00 0.  1.
        -11    1    4    4    0    0  0.61986388076E-02 -0.19473467247E-01  0.48934399686E-03  0.20448462735E-01  0.51100000000E-03 0.  1.
         11    1    4    4    0    0  0.23633499933E-01 -0.98579272622E-01  0.47624743748E-01  0.11200353855E+00  0.51100000000E-03 0. -1.
</event>
<event>
 8    1  0.1126407E+005  0.1043930E+01  0.7957747E-01            NaN
         13   -1    0    0    0    0  0.00000000000E+00  0.00000000000E+00  0.74505805969E-08  0.10566000000E+00  0.10566000000E+00 0.  1.
     999900   -1    0    0    0    0 -0.00000000000E+00 -0.00000000000E+00 -0.74505805969E-08  0.93827000000E+00  0.93827000000E+00 0. -1.
     999902    2    1    2    0    0  0.25491303539E-01  0.87985370170E-03 -0.63864296976E-02  0.10176361379E+01  0.10172963885E+01 0.  0.
     999903    2    3    3    0    0  0.43260639479E-01  0.69029894466E-01  0.97643267586E-01  0.12871411925E+00  0.19912496889E-01 0.  0.
         14    1    1    2    0    0 -0.25491303539E-01 -0.87985370170E-03  0.63864296976E-02  0.26293862078E-01  0.00000000000E+00 0. -1.
     999901    1    3    3    0    0 -0.17769335940E-01 -0.68150040765E-01 -0.10402969728E+00  0.88892201867E+00  0.88000000000E+00 0.  1.
        -11    1    4    4    0    0  0.25821174027E-01  0.23455789240E-01  0.36628050454E-01  0.50584407460E-01  0.51100000000E-03 0. -1.
         11    1    4    4    0    0  0.17439465452E-01  0.45574105226E-01  0.61015217132E-01  0.78129711795E-01  0.51100000000E-03 0.  1.
</event>
<event>
 8    1  0.1126407E+005  0.1043930E+01  0.7957747E-01            NaN
         13   -1    0    0    0    0  0.00000000000E+00  0.00000000000E+00  0.74505805969E-08  0.10566000000E+00  0.10566000000E+00 0. -1.
     999900   -1    0    0    0    0 -0.00000000000E+00 -0.00000000000E+00 -0.74505805969E-08  0.93827000000E+00  0.93827000000E+00 0. -1.
     999902    2    1    2    0    0  0.12856857516E-01 -0.17491236416E-01  0.98937569781E-02  0.10200735844E+01  0.10197945818E+01 0.  0.
     999903    2    3    3    0    0  0.11178919096E+00 -0.21762434010E-01  0.65253713371E-01  0.13279089301E+00  0.20123305085E-01 0.  0.
         14    1    1    2    0    0 -0.12856857516E-01  0.17491236416E-01 -0.98937569781E-02  0.23856415567E-01  0.00000000000E+00 0.  1.
     999901    1    3    3    0    0 -0.98932333445E-01  0.42711975947E-02 -0.55359956393E-01  0.88728269142E+00  0.88000000000E+00 0. -1.
        -11    1    4    4    0    0  0.56764774049E-01 -0.72478543255E-02  0.22003450875E-01  0.61312184242E-01  0.51100000000E-03 0.  1.
         11    1    4    4    0    0  0.55024416913E-01 -0.14514579685E-01  0.43250262496E-01  0.71478708767E-01  0.51100000000E-03 0. -1.
</event>
<event>
 8    1  0.1126407E+005  0.1043930E+01  0.7957747E-01            NaN
         13   -1    0    0    0    0  0.00000000000E+00  0.00000000000E+00  0.74505805969E-08  0.10566000000E+00  0.10566000000E+00 0. -1.
     999900   -1    0    0    0    0 -0.00000000000E+00 -0.00000000000E+00 -0.74505805969E-08  0.93827000000E+00  0.93827000000E+00 0.  1.
     999902    2    1    2    0    0  0.16618505623E-01 -0.18742188780E-02  0.16614850655E-01  0.10203558470E+01  0.10200834838E+01 0.  0.
     999903    2    3    3    0    0 -0.30603078695E-02 -0.86915573714E-02 -0.12648347856E+00  0.12855381540E+00  0.21050046383E-01 0.  0.
         14    1    1    2    0    0 -0.16618505623E-01  0.18742188780E-02 -0.16614850655E-01  0.23574152961E-01  0.00000000000E+00 0.  1.
     999901    1    3    3    0    0  0.19678813492E-01  0.68173384934E-02  0.14309832921E+00  0.89180203164E+00  0.88000000000E+00 0. -1.
        -11    1    4    4    0    0 -0.60714730362E-02 -0.14063912879E-01 -0.66041655226E-01  0.67796886185E-01  0.51100000000E-03 0. -1.
         11    1    4    4    0    0  0.30111651667E-02  0.53723555080E-02 -0.60441823333E-01  0.60756929219E-01  0.51100000000E-03 0.  1.
</event>
<event>
 8    1  0.1126407E+005  0.1043930E+01  0.7957747E-01            NaN
         13   -1    0    0    0    0  0.00000000000E+00  0.00000000000E+00  0.74505805969E-08  0.10566000000E+00  0.10566000000E+00 0.  1.
     999900   -1    0    0    0    0 -0.00000000000E+00 -0.00000000000E+00 -0.74505805969E-08  0.93827000000E+00  0.93827000000E+00 0.  1.
     999902    2    1    2    0    0 -0.25917974408E-02  0.11443772355E-02 -0.23466832663E-01  0.10202927572E+01  0.10200189170E+01 0.  0.
     999903    2    3    3    0    0 -0.40310094283E-01  0.10923744250E+00 -0.59255058084E-01  0.13215561813E+00  0.19905349774E-01 0.  0.
         14    1    1    2    0    0  0.25917974408E-02 -0.11443772355E-02  0.23466832663E-01  0.23637242827E-01  0.00000000000E+00 0.  1.
     999901    1    3    3    0    0  0.37718296842E-01 -0.10809306526E+00  0.35788225421E-01  0.88813713905E+00  0.88000000000E+00 0. -1.
        -11    1    4    4    0    0 -0.80968636037E-02  0.26249822844E-01 -0.23740846402E-01  0.36311173328E-01  0.51100000000E-03 0.  1.
         11    1    4    4    0    0 -0.32213230679E-01  0.82987619653E-01 -0.35514211682E-01  0.95844444799E-01  0.51100000000E-03 0. -1.
</event>
<event>
 8    1  0.1126407E+005  0.1043930E+01  0.7957747E-01            NaN
         13   -1    0    0    0    0  0.00000000000E+00  0.00000000000E+00  0.74505805969E-08  0.10566000000E+00  0.10566000000E+00 0.  1.
     999900   -1    0    0    0    0 -0.00000000000E+00 -0.00000000000E+00 -0.74505805969E-08  0.93827000000E+00  0.93827000000E+00 0. -1.
     999902    2    1    2    0    0  0.21103666699E-01 -0.54596481380E-02  0.10338375296E-01  0.10198041941E+01  0.10195187786E+01 0.  0.
     999903    2    3    3    0    0 -0.20477401490E-01  0.37764534196E-01 -0.11920710525E+00  0.12830021392E+00  0.20127765266E-01 0.  0.
         14    1    1    2    0    0 -0.21103666699E-01  0.54596481380E-02 -0.10338375296E-01  0.24125805887E-01  0.00000000000E+00 0. -1.
     999901    1    3    3    0    0  0.41581068189E-01 -0.43224182334E-01  0.12954548055E+00  0.89150398019E+00  0.88000000000E+00 0.  1.
        -11    1    4    4    0    0 -0.56882192062E-02  0.18431872293E-01 -0.78774896540E-01  0.81103854408E-01  0.51100000000E-03 0. -1.
         11    1    4    4    0    0 -0.14789182283E-01  0.19332661903E-01 -0.40432208711E-01  0.47196359512E-01  0.51100000000E-03 0.  1.
</event>
<event>
 8    1  0.1126407E+005  0.1043930E+01  0.7957747E-01            NaN
         13   -1    0    0    0    0  0.00000000000E+00  0.00000000000E+00  0.74505805969E-08  0.10566000000E+00  0.10566000000E+00 0.  1.
     999900   -1    0    0    0    0 -0.00000000000E+00 -0.00000000000E+00 -0.74505805969E-08  0.93827000000E+00  0.93827000000E+00 0. -1.
     999902    2    1    2    0    0  0.20759336544E-01  0.16856704184E-01 -0.19194445694E-02  0.10171198751E+01  0.10167664715E+01 0.  0.
     999903    2    3    3    0    0  0.12587252099E+00 -0.23826760792E-01 -0.58642792653E-02  0.12992232800E+00  0.20828237332E-01 0.  0.
         14    1    1    2    0    0 -0.20759336544E-01 -0.16856704184E-01  0.19194445694E-02  0.26810124900E-01  0.00000000000E+00 0. -1.
     999901    1    3    3    0    0 -0.10511318445E+00  0.40683464976E-01  0.39448346960E-02  0.88719754710E+00  0.88000000000E+00 0.  1.
        -11    1    4    4    0    0  0.94074986420E-01 -0.26866195339E-01 -0.49568683531E-02  0.97962886782E-01  0.51100000000E-03 0. -1.
         11    1    4    4    0    0  0.31797534570E-01  0.30394345475E-02 -0.90741091224E-03  0.31959441214E-01  0.51100000000E-03 0.  1.
</event>
<event>
 8    1  0.1126407E+005  0.1043930E+01  0.7957747E-01            NaN
         13   -1    0    0    0    0  0.00000000000E+00  0.00000000000E+00  0.74505805969E-08  0.10566000000E+00  0.10566000000E+00 0. -1.
     999900   -1    0    0    0    0 -0.00000000000E+00 -0.00000000000E+00 -0.74505805969E-08  0.93827000000E+00  0.93827000000E+00 0. -1.
     999902    2    1    2    0    0  0.12501951190E-01 -0.16182136431E-01  0.11800562442E-01  0.10203203919E+01  0.10200471991E+01 0.  0.
     999903    2    3    3    0    0  0.85309751556E-01 -0.91894897085E-01 -0.38519097934E-01  0.13264620267E+00  0.19719745329E-01 0.  0.
         14    1    1    2    0    0 -0.12501951190E-01  0.16182136431E-01 -0.11800562442E-01  0.23609608149E-01  0.00000000000E+00 0. -1.
     999901    1    3    3    0    0 -0.72807800367E-01  0.75712760654E-01  0.50319660376E-01  0.88767418918E+00  0.88000000000E+00 0.  1.
        -11    1    4    4    0    0  0.50579806238E-03 -0.66243423232E-02 -0.17701649149E-02  0.68943707269E-02  0.51100000000E-03 0. -1.
         11    1    4    4    0    0  0.84803953494E-01 -0.85270554762E-01 -0.36748933019E-01  0.12575183194E+00  0.51100000000E-03 0.  1.
</event>
<event>
 8    1  0.1126407E+005  0.1043930E+01  0.7957747E-01            NaN
         13   -1    0    0    0    0  0.00000000000E+00  0.00000000000E+00  0.74505805969E-08  0.10566000000E+00  0.10566000000E+00 0.  1.
     999900   -1    0    0    0    0 -0.00000000000E+00 -0.00000000000E+00 -0.74505805969E-08  0.93827000000E+00  0.93827000000E+00 0. -1.
     999902    2    1    2    0    0 -0.59963718396E-02  0.16543226726E-01 -0.16740531126E-01  0.10196425504E+01  0.10193532510E+01 0.  0.
     999903    2    3    3    0    0  0.12546680915E+00 -0.13393726056E-01  0.16235273476E-01  0.12876310132E+00  0.19875614726E-01 0.  0.
         14    1    1    2    0    0  0.59963718396E-02 -0.16543226726E-01  0.16740531126E-01  0.24287449601E-01  0.00000000000E+00 0.  1.
     999901    1    3    3    0    0 -0.13146318099E+00  0.29936952781E-01 -0.32975804601E-01  0.89087944908E+00  0.88000000000E+00 0. -1.
        -11    1    4    4    0    0  0.30485051258E-01 -0.31331789118E-03 -0.40570747116E-02  0.30759673186E-01  0.51100000000E-03 0. -1.
         11    1    4    4    0    0  0.94981757895E-01 -0.13080408164E-01  0.20292348187E-01  0.98003428136E-01  0.51100000000E-03 0.  1.
</event>
<event>
 8    1  0.1126407E+005  0.1043930E+01  0.7957747E-01            NaN
         13   -1    0    0    0    0  0.00000000000E+00  0.00000000000E+00  0.74505805969E-08  0.10566000000E+00  0.10566000000E+00 0.  1.
     999900   -1    0    0    0    0 -0.00000000000E+00 -0.00000000000E+00 -0.74505805969E-08  0.93827000000E+00  0.93827000000E+00 0. -1.
     999902    2    1    2    0    0  0.19357818823E-01  0.99739854068E-02  0.70478609480E-03  0.10221423370E+01  0.10219101012E+01 0.  0.
     999903    2    3    3    0    0 -0.86813742555E-01  0.14096568483E-01  0.94858161198E-01  0.13076460891E+00  0.19130422312E-01 0.  0.
         14    1    1    2    0    0 -0.19357818823E-01 -0.99739854068E-02 -0.70478609480E-03  0.21787662975E-01  0.00000000000E+00 0.  1.
     999901    1    3    3    0    0  0.10617156138E+00 -0.41225830761E-02 -0.94153375103E-01  0.89137772812E+00  0.88000000000E+00 0. -1.
        -11    1    4    4    0    0 -0.37644960970E-01  0.73726759353E-02  0.27977555272E-01  0.47481619147E-01  0.51100000000E-03 0. -1.
         11    1    4    4    0    0 -0.49168781586E-01  0.67238925475E-02  0.66880605927E-01  0.83282989762E-01  0.51100000000E-03 0.  1.
</event>
<event>
 8    1  0.1126407E+005  0.1043930E+01  0.7957747E-01            NaN
         13   -1    0    0    0    0  0.00000000000E+00  0.00000000000E+00  0.74505805969E-08  0.10566000000E+00  0.10566000000E+00 0. -1.
     999900   -1    0    0    0    0 -0.00000000000E+00 -0.00000000000E+00 -0.74505805969E-08  0.93827000000E+00  0.93827000000E+00 0.  1.
     999902    2    1    2    0    0  0.19482248293E-01  0.41192888812E-02  0.12168458099E-01  0.10205933783E+01  0.10203265389E+01 0.  0.
     999903    2    3    3    0    0 -0.93567540858E-02 -0.36465507794E-01 -0.12177822393E+00  0.12906630222E+00  0.20270481935E-01 0.  0.
         14    1    1    2    0    0 -0.19482248293E-01 -0.41192888812E-02 -0.12168458099E-01  0.23336621691E-01  0.00000000000E+00 0.  1.
     999901    1    3    3    0    0  0.28839002379E-01  0.40584796675E-01  0.13394668203E+00  0.89152707609E+00  0.88000000000E+00 0. -1.
        -11    1    4    4    0    0  0.71797350407E-03 -0.29924945074E-01 -0.74667473681E-01  0.80445699516E-01  0.51100000000E-03 0.  1.
         11    1    4    4    0    0 -0.10074727590E-01 -0.65405627196E-02 -0.47110750251E-01  0.48620602700E-01  0.51100000000E-03 0. -1.
</event>
<event>
 8    1  0.1126407E+005  0.1043930E+01  0.7957747E-01            NaN
         13   -1    0    0    0    0  0.00000000000E+00  0.00000000000E+00  0.74505805969E-08  0.10566000000E+00  0.10566000000E+00 0. -1.
     999900   -1    0    0    0    0 -0.00000000000E+00 -0.00000000000E+00 -0.74505805969E-08  0.93827000000E+00  0.93827000000E+00 0. -1.
     999902    2    1    2    0    0 -0.81865436339E-02  0.92341805353E-02  0.20315883520E-01  0.10201597516E+01  0.10198827845E+01 0.  0.
     999903    2    3    3    0    0 -0.95055251188E-01 -0.27766864369E-01 -0.80908373270E-01  0.12933900651E+00  0.19388507041E-01 0.  0.
         14    1    1    2    0    0  0.81865436339E-02 -0.92341805353E-02 -0.20315883520E-01  0.23770248422E-01  0.00000000000E+00 0.  1.
     999901    1    3    3    0    0  0.86868707554E-01  0.37001044905E-01  0.10122425679E+00  0.89082074507E+00  0.88000000000E+00 0.  1.
        -11    1    4    4    0    0 -0.69734308509E-01 -0.11859539975E-01 -0.61048070847E-01  0.93437950249E-01  0.51100000000E-03 0. -1.
         11    1    4    4    0    0 -0.25320942679E-01 -0.15907324394E-01 -0.19860302423E-01  0.35901056264E-01  0.51100000000E-03 0.  1.
</event>
<event>
 8    1  0.1126407E+005  0.1043930E+01  0.7957747E-01            NaN
         13   -1    0    0    0    0  0.00000000000E+00  0.00000000000E+00  0.74505805969E-08  0.10566000000E+00  0.10566000000E+00 0.  1.
     999900   -1    0    0    0    0 -0.00000000000E+00 -0.00000000000E+00 -0.74505805969E-08  0.93827000000E+00  0.93827000000E+00 0. -1.
     999902    2    1    2    0    0 -0.10569326385E-01 -0.19522547064E-01  0.95609933460E-02  0.10197586720E+01  0.10194721654E+01 0.  0.
     999903    2    3    3    0    0 -0.62449346356E-01  0.10927166914E+00 -0.16551517162E-01  0.12848915618E+00  0.19881951603E-01 0.  0.
         14    1    1    2    0    0  0.10569326385E-01  0.19522547064E-01 -0.95609933460E-02  0.24171328012E-01  0.00000000000E+00 0.  1.
     999901    1    3    3    0    0  0.51880019971E-01 -0.12879421620E+00  0.26112510508E-01  0.89126951581E+00  0.88000000000E+00 0. -1.
        -11    1    4    4    0    0 -0.27560040244E-01  0.62871757569E-01 -0.15727637409E-01  0.70427504695E-01  0.51100000000E-03 0. -1.
         11    1    4    4    0    0 -0.34889306112E-01  0.46399911569E-01 -0.82387975250E-03  0.58061651487E-01  0.51100000000E-03 0.  1.
</event>
<event>
 8    1  0.1126407E+005  0.1043930E+01  0.7957747E-01            NaN
         13   -1    0    0    0    0  0.00000000000E+00  0.00000000000E+00  0.74505805969E-08  0.10566000000E+00  0.10566000000E+00 0.  1.
     999900   -1    0    0    0    0 -0.00000000000E+00 -0.00000000000E+00 -0.74505805969E-08  0.93827000000E+00  0.93827000000E+00 0.  1.
     999902    2    1    2    0    0  0.14624430511E-01  0.13466490192E-01 -0.96531129399E-02  0.10218301603E+01  0.10215911479E+01 0.  0.
     999903    2    3    3    0    0 -0.10916662884E+00  0.68484900900E-01 -0.17434860703E-01  0.13143035824E+00  0.19037599521E-01 0.  0.
         14    1    1    2    0    0 -0.14624430511E-01 -0.13466490192E-01  0.96531129399E-02  0.22099839712E-01  0.00000000000E+00 0.  1.
     999901    1    3    3    0    0  0.12379105935E+00 -0.55018410707E-01  0.77817477633E-02  0.89039980205E+00  0.88000000000E+00 0.  1.
        -11    1    4    4    0    0 -0.92104887206E-01  0.63585876787E-01 -0.10682885909E-01  0.11243157540E+00  0.51100000000E-03 0. -1.
         11    1    4    4    0    0 -0.17061741633E-01  0.48990241130E-02 -0.67519747940E-02  0.18998782841E-01  0.51100000000E-03 0.  1.
</event>
<event>
 8    1  0.1126407E+005  0.1043930E+01  0.7957747E-01            NaN
         13   -1    0    0    0    0  0.00000000000E+00  0.00000000000E+00  0.74505805969E-08  0.10566000000E+00  0.10566000000E+00 0.  1.
     999900   -1    0    0    0    0 -0.00000000000E+00 -0.00000000000E+00 -0.74505805969E-08  0.93827000000E+00  0.93827000000E+00 0.  1.
     999902    2    1    2    0    0  0.10395817276E-01  0.88959576208E-02  0.20226800414E-01  0.10195100382E+01  0.10192175349E+01 0.  0.
     999903    2    3    3    0    0 -0.10881346255E-02 -0.12334363978E+00  0.20353551608E-01  0.12955542794E+00  0.33992710046E-01 0.  0.
         14    1    1    2    0    0 -0.10395817276E-01 -0.88959576208E-02 -0.20226800414E-01  0.24419961790E-01  0.00000000000E+00 0. -1.
     999901    1    3    3    0    0  0.11483951902E-01  0.13223959740E+00 -0.12675119375E-03  0.88995461027E+00  0.88000000000E+00 0.  1.
        -11    1    4    4    0    0 -0.14216021087E-01 -0.86091426172E-01  0.57736131462E-02  0.87449554862E-01  0.51100000000E-03 0.  1.
         11    1    4    4    0    0  0.13127886461E-01 -0.37252213604E-01  0.14579938462E-01  0.42105873080E-01  0.51100000000E-03 0. -1.
</event>
<event>
 8    1  0.1126407E+005  0.1043930E+01  0.7957747E-01            NaN
         13   -1    0    0    0    0  0.00000000000E+00  0.00000000000E+00  0.74505805969E-08  0.10566000000E+00  0.10566000000E+00 0. -1.
     999900   -1    0    0    0    0 -0.00000000000E+00 -0.00000000000E+00 -0.74505805969E-08  0.93827000000E+00  0.93827000000E+00 0.  1.
     999902    2    1    2    0    0 -0.16963279477E-01 -0.76374153938E-02 -0.14480356973E-01  0.10203553589E+01  0.10200829842E+01 0.  0.
     999903    2    3    3    0    0 -0.52374733686E-01 -0.11657843264E+00 -0.29453860549E-01  0.13280461549E+00  0.20878034113E-01 0.  0.
         14    1    1    2    0    0  0.16963279477E-01  0.76374153938E-02  0.14480356973E-01  0.23574641091E-01  0.00000000000E+00 0. -1.
     999901    1    3    3    0    0  0.35411454209E-01  0.10894101725E+00  0.14973503575E-01  0.88755074342E+00  0.88000000000E+00 0. -1.
        -11    1    4    4    0    0 -0.25848744746E-01 -0.77498036667E-01 -0.24602824640E-01  0.85320943463E-01  0.51100000000E-03 0. -1.
         11    1    4    4    0    0 -0.26525988940E-01 -0.39080395977E-01 -0.48510359081E-02  0.47483672029E-01  0.51100000000E-03 0.  1.
</event>
<event>
 8    1  0.1126407E+005  0.1043930E+01  0.7957747E-01            NaN
         13   -1    0    0    0    0  0.00000000000E+00  0.00000000000E+00  0.74505805969E-08  0.10566000000E+00  0.10566000000E+00 0.  1.
     999900   -1    0    0    0    0 -0.00000000000E+00 -0.00000000000E+00 -0.74505805969E-08  0.93827000000E+00  0.93827000000E+00 0.  1.
     999902    2    1    2    0    0  0.20829025089E-01 -0.43573817387E-02 -0.98409825011E-02  0.10204847447E+01  0.10202153861E+01 0.  0.
     999903    2    3    3    0    0  0.47787732494E-01 -0.51665131123E-01 -0.11101154829E+00  0.13301627848E+00  0.20416006866E-01 0.  0.
         14    1    1    2    0    0 -0.20829025089E-01  0.43573817387E-02  0.98409825011E-02  0.23445255349E-01  0.00000000000E+00 0. -1.
     999901    1    3    3    0    0 -0.26958707405E-01  0.47307749384E-01  0.10117056579E+00  0.88746846617E+00  0.88000000000E+00 0. -1.
        -11    1    4    4    0    0  0.24086392810E-01 -0.38751707914E-01 -0.60928445490E-01  0.76120862946E-01  0.51100000000E-03 0. -1.
         11    1    4    4    0    0  0.23701339684E-01 -0.12913423209E-01 -0.50083102805E-01  0.56895415539E-01  0.51100000000E-03 0.  1.
</event>
<event>
 8    1  0.1126407E+005  0.1043930E+01  0.7957747E-01            NaN
         13   -1    0    0    0    0  0.00000000000E+00  0.00000000000E+00  0.74505805969E-08  0.10566000000E+00  0.10566000000E+00 0.  1.
     999900   -1    0    0    0    0 -0.00000000000E+00 -0.00000000000E+00 -0.74505805969E-08  0.93827000000E+00  0.93827000000E+00 0. -1.
     999902    2    1    2    0    0  0.12293165260E-01 -0.83659406443E-02 -0.18071591870E-01  0.10205271517E+01  0.10202587780E+01 0.  0.
     999903    2    3    3    0    0  0.13145813860E-01 -0.10013097616E+00  0.80640456759E-01  0.13026560740E+00  0.16346877258E-01 0.  0.
         14    1    1    2    0    0 -0.12293165260E-01  0.83659406443E-02  0.18071591870E-01  0.23402848281E-01  0.00000000000E+00 0.  1.
     999901    1    3    3    0    0 -0.85264860077E-03  0.91765035513E-01 -0.98712048629E-01  0.89026154432E+00  0.88000000000E+00 0. -1.
        -11    1    4    4    0    0  0.14097335838E-01 -0.57792732116E-01  0.53147275522E-01  0.79772355986E-01  0.51100000000E-03 0.  1.
         11    1    4    4    0    0 -0.95152197735E-03 -0.42338244041E-01  0.27493181237E-01  0.50493251411E-01  0.51100000000E-03 0. -1.
</event>
<event>
 8    1  0.1126407E+005  0.1043930E+01  0.7957747E-01            NaN
         13   -1    0    0    0    0  0.00000000000E+00  0.00000000000E+00  0.74505805969E-08  0.10566000000E+00  0.10566000000E+00 0.  1.
     999900   -1    0    0    0    0 -0.00000000000E+00 -0.00000000000E+00 -0.74505805969E-08  0.93827000000E+00  0.93827000000E+00 0.  1.
     999902    2    1    2    0    0  0.25266911804E-01 -0.39027399037E-02  0.44664904171E-02  0.10179762383E+01  0.10176453331E+01 0.  0.
     999903    2    3    3    0    0  0.68616530055E-01  0.97534795370E-01 -0.46538166713E-01  0.12962369676E+00  0.20377372188E-01 0.  0.
         14    1    1    2    0    0 -0.25266911804E-01  0.39027399037E-02 -0.44664904171E-02  0.25953761722E-01  0.00000000000E+00 0.  1.
     999901    1    3    3    0    0 -0.43349618251E-01 -0.10143753527E+00  0.51004657130E-01  0.88835254151E+00  0.88000000000E+00 0.  1.
        -11    1    4    4    0    0  0.26674706334E-01  0.55590113477E-01 -0.23382957824E-01  0.65945617838E-01  0.51100000000E-03 0. -1.
         11    1    4    4    0    0  0.41941823721E-01  0.41944681893E-01 -0.23155208888E-01  0.63678078927E-01  0.51100000000E-03 0.  1.
</event>
<event>
 8    1  0.1126407E+005  0.1043930E+01  0.7957747E-01            NaN
         13   -1    0    0    0    0  0.00000000000E+00  0.00000000000E+00  0.74505805969E-08  0.10566000000E+00  0.10566000000E+00 0. -1.
     999900   -1    0    0    0    0 -0.00000000000E+00 -0.00000000000E+00 -0.74505805969E-08  0.93827000000E+00  0.93827000000E+00 0. -1.
     999902    2    1    2    0    0  0.52297922744E-02  0.24982739278E-01 -0.31523486826E-03  0.10184037907E+01  0.10180838342E+01 0.  0.
     999903    2    3    3    0    0 -0.57777982207E-01  0.10714719015E+00  0.43518932278E-01  0.13124968296E+00  0.22666411862E-01 0.  0.
         14    1    1    2    0    0 -0.52297922744E-02 -0.24982739278E-01  0.31523486826E-03  0.25526209317E-01  0.00000000000E+00 0.  1.
     999901    1    3    3    0    0  0.63007774481E-01 -0.82164450872E-01 -0.43834167146E-01  0.88715410772E+00  0.88000000000E+00 0.  1.
        -11    1    4    4    0    0 -0.23352645151E-01  0.22459526270E-01  0.11070058746E-01  0.34243009176E-01  0.51100000000E-03 0. -1.
         11    1    4    4    0    0 -0.34425337056E-01  0.84687663881E-01  0.32448873532E-01  0.97006673788E-01  0.51100000000E-03 0.  1.
</event>
<event>
 8    1  0.1126407E+005  0.1043930E+01  0.7957747E-01            NaN
         13   -1    0    0    0    0  0.00000000000E+00  0.00000000000E+00  0.74505805969E-08  0.10566000000E+00  0.10566000000E+00 0. -1.
     999900   -1    0    0    0    0 -0.00000000000E+00 -0.00000000000E+00 -0.74505805969E-08  0.93827000000E+00  0.93827000000E+00 0. -1.
     999902    2    1    2    0    0  0.18153453088E-01 -0.16989830178E-01  0.31600963546E-02  0.10188663132E+01  0.10185579884E+01 0.  0.
     999903    2    3    3    0    0  0.86324025318E-01 -0.15335448320E-01 -0.94219479819E-01  0.13087265004E+00  0.23734507153E-01 0.  0.
         14    1    1    2    0    0 -0.18153453088E-01  0.16989830178E-01 -0.31600963546E-02  0.25063686829E-01  0.00000000000E+00 0.  1.
     999901    1    3    3    0    0 -0.68170572230E-01 -0.16543818588E-02  0.97379576174E-01  0.88799366313E+00  0.88000000000E+00 0.  1.
        -11    1    4    4    0    0  0.33511290911E-01 -0.12885371872E-01 -0.24920674355E-01  0.43707442823E-01  0.51100000000E-03 0. -1.
         11    1    4    4    0    0  0.52812734407E-01 -0.24500764480E-02 -0.69298805464E-01  0.87165207221E-01  0.51100000000E-03 0.  1.
</event>
<event>
 8    1  0.1126407E+005  0.1043930E+01  0.7957747E-01            NaN
         13   -1    0    0    0    0  0.00000000000E+00  0.00000000000E+00  0.74505805969E-08  0.10566000000E+00  0.10566000000E+00 0. -1.
     999900   -1    0    0    0    0 -0.00000000000E+00 -0.00000000000E+00 -0.74505805969E-08  0.93827000000E+00  0.93827000000E+00 0. -1.
     999902    2    1    2    0    0 -0.28842320590E-02  0.22300499236E-01 -0.60647231597E-02  0.10206402613E+01  0.10203745053E+01 0.  0.
     999903    2    3    3    0    0 -0.71623140948E-01 -0.37664621977E-01 -0.10060291505E+00  0.13088842902E+00  0.21502006112E-01 0.  0.
         14    1    1    2    0    0  0.28842320590E-02 -0.22300499236E-01  0.60647231597E-02  0.23289738679E-01  0.00000000000E+00 0. -1.
     999901    1    3    3    0    0  0.68738908889E-01  0.59965121213E-01  0.94538191890E-01  0.88975183230E+00  0.88000000000E+00 0.  1.
        -11    1    4    4    0    0 -0.45127884055E-01 -0.12369072646E-01 -0.50883588795E-01  0.69129737502E-01  0.51100000000E-03 0. -1.
         11    1    4    4    0    0 -0.26495256892E-01 -0.25295549331E-01 -0.49719326255E-01  0.61758691518E-01  0.51100000000E-03 0.  1.
</event>
<event>
 8    1  0.1126407E+005  0.1043930E+01  0.7957747E-01            NaN
         13   -1    0    0    0    0  0.00000000000E+00  0.00000000000E+00  0.74505805969E-08  0.10566000000E+00  0.10566000000E+00 0. -1.
     999900   -1    0    0    0    0 -0.00000000000E+00 -0.00000000000E+00 -0.74505805969E-08  0.93827000000E+00  0.93827000000E+00 0. -1.
     999902    2    1    2    0    0 -0.10922527508E-01 -0.18721020227E-01  0.55216894411E-02  0.10215633449E+01  0.10213184618E+01 0.  0.
     999903    2    3    3    0    0 -0.88229765846E-01 -0.58678206055E-01  0.79650788593E-01  0.13416934609E+00  0.20725391695E-01 0.  0.
         14    1    1    2    0    0  0.10922527508E-01  0.18721020227E-01 -0.55216894411E-02  0.22366655087E-01  0.00000000000E+00 0. -1.
     999901    1    3    3    0    0  0.77307238338E-01  0.39957185828E-01 -0.74129099152E-01  0.88739399882E+00  0.88000000000E+00 0. -1.
        -11    1    4    4    0    0 -0.78903752850E-01 -0.45655910443E-01  0.73123246976E-01  0.11686545572E+00  0.51100000000E-03 0. -1.
         11    1    4    4    0    0 -0.93260129958E-02 -0.13022295612E-01  0.65275416176E-02  0.17303890371E-01  0.51100000000E-03 0.  1.
</event>
<event>
 8    1  0.1126407E+005  0.1043930E+01  0.7957747E-01            NaN
         13   -1    0    0    0    0  0.00000000000E+00  0.00000000000E+00  0.74505805969E-08  0.10566000000E+00  0.10566000000E+00 0.  1.
     999900   -1    0    0    0    0 -0.00000000000E+00 -0.00000000000E+00 -0.74505805969E-08  0.93827000000E+00  0.93827000000E+00 0.  1.
     999902    2    1    2    0    0  0.19935996581E-01  0.80144120238E-02 -0.13518754225E-01  0.10185443451E+01  0.10182279467E+01 0.  0.
     999903    2    3    3    0    0  0.25963690122E-01 -0.11614692627E+00 -0.46078455270E-01  0.12921172725E+00  0.20204572055E-01 0.  0.
         14    1    1    2    0    0 -0.19935996581E-01 -0.80144120238E-02  0.13518754225E-01  0.25385654917E-01  0.00000000000E+00 0.  1.
     999901    1    3    3    0    0 -0.60276935406E-02  0.12416133829E+00  0.32559701045E-01  0.88933261784E+00  0.88000000000E+00 0.  1.
        -11    1    4    4    0    0  0.10622905223E-01 -0.87955097111E-01 -0.34887531020E-01  0.95217362728E-01  0.51100000000E-03 0. -1.
         11    1    4    4    0    0  0.15340784898E-01 -0.28191829157E-01 -0.11190924249E-01  0.33994364519E-01  0.51100000000E-03 0.  1.
</event>
<event>
 8    1  0.1126407E+005  0.1043930E+01  0.7957747E-01            NaN
         13   -1    0    0    0    0  0.00000000000E+00  0.00000000000E+00  0.74505805969E-08  0.10566000000E+00  0.10566000000E+00 0.  1.
     999900   -1    0    0    0    0 -0.00000000000E+00 -0.00000000000E+00 -0.74505805969E-08  0.93827000000E+00  0.93827000000E+00 0.  1.
     999902    2    1    2    0    0  0.15425605584E-01 -0.66531008023E-02 -0.17079201995E-01  0.10199735353E+01  0.10196921597E+01 0.  0.
     999903    2    3    3    0    0  0.18615431940E-01  0.11851102038E+00 -0.47936955182E-01  0.13057574293E+00  0.18991490504E-01 0.  0.
         14    1    1    2    0    0 -0.15425605584E-01  0.66531008023E-02  0.17079201995E-01  0.23956464654E-01  0.00000000000E+00 0.  1.
     999901    1    3    3    0    0 -0.31898263560E-02 -0.12516412118E+00  0.30857753187E-01  0.88939779242E+00  0.88000000000E+00 0. -1.
        -11    1    4    4    0    0  0.36018423105E-02  0.75774126892E-01 -0.25572426705E-01  0.80055616311E-01  0.51100000000E-03 0.  1.
         11    1    4    4    0    0  0.15013589629E-01  0.42736893488E-01 -0.22364528477E-01  0.50520126619E-01  0.51100000000E-03 0. -1.
</event>
<event>
 8    1  0.1126407E+005  0.1043930E+01  0.7957747E-01            NaN
         13   -1    0    0    0    0  0.00000000000E+00  0.00000000000E+00  0.74505805969E-08  0.10566000000E+00  0.10566000000E+00 0. -1.
     999900   -1    0    0    0    0 -0.00000000000E+00 -0.00000000000E+00 -0.74505805969E-08  0.93827000000E+00  0.93827000000E+00 0.  1.
     999902    2    1    2    0    0 -0.89063031800E-02 -0.21777623430E-01 -0.72626691248E-02  0.10193061603E+01  0.10190086923E+01 0.  0.
     999903    2    3    3    0    0  0.12629853335E+00  0.30186733049E-02 -0.72344817043E-02  0.12863494995E+00  0.23112349696E-01 0.  0.
         14    1    1    2    0    0  0.89063031800E-02  0.21777623430E-01  0.72626691248E-02  0.24623839697E-01  0.00000000000E+00 0.  1.
     999901    1    3    3    0    0 -0.13520483653E+00 -0.24796296735E-01 -0.28187420482E-04  0.89067121035E+00  0.88000000000E+00 0.  1.
        -11    1    4    4    0    0  0.42879887967E-01 -0.92107049211E-02 -0.63516862315E-02  0.44318471501E-01  0.51100000000E-03 0. -1.
         11    1    4    4    0    0  0.83418645384E-01  0.12229378226E-01 -0.88279547278E-03  0.84316478451E-01  0.51100000000E-03 0.  1.
</event>
<event>
 8    1  0.1126407E+005  0.1043930E+01  0.7957747E-01            NaN
         13   -1    0    0    0    0  0.00000000000E+00  0.00000000000E+00  0.74505805969E-08  0.10566000000E+00  0.10566000000E+00 0. -1.
     999900   -1    0    0    0    0 -0.00000000000E+00 -0.00000000000E+00 -0.74505805969E-08  0.93827000000E+00  0.93827000000E+00 0. -1.
     999902    2    1    2    0    0  0.36147697397E-02 -0.30535162040E-01 -0.13676292805E-01  0.10102773082E+01  0.10097166611E+01 0.  0.
     999903    2    3    3    0    0 -0.11752143554E+00  0.10514635700E-01  0.15379123896E-01  0.12055640624E+00  0.19377416223E-01 0.  0.
         14    1    1    2    0    0 -0.36147697397E-02  0.30535162040E-01  0.13676292805E-01  0.33652691809E-01  0.00000000000E+00 0.  1.
     999901    1    3    3    0    0  0.12113620528E+00 -0.41049797739E-01 -0.29055416701E-01  0.88972090195E+00  0.88000000000E+00 0. -1.
        -11    1    4    4    0    0 -0.10879890232E+00  0.14338517911E-01  0.16418827917E-01  0.11096230564E+00  0.51100000000E-03 0.  1.
         11    1    4    4    0    0 -0.87225332182E-02 -0.38238822116E-02 -0.10397040210E-02  0.95941006020E-02  0.51100000000E-03 0. -1.
</event>
<event>
 8    1  0.1126407E+005  0.1043930E+01  0.7957747E-01            NaN
         13   -1    0    0    0    0  0.00000000000E+00  0.00000000000E+00  0.74505805969E-08  0.10566000000E+00  0.10566000000E+00 0.  1.
     999900   -1    0    0    0    0 -0.00000000000E+00 -0.00000000000E+00 -0.74505805969E-08  0.93827000000E+00  0.93827000000E+00 0. -1.
     999902    2    1    2    0    0 -0.20661784044E-01  0.11471457957E-01  0.18865080441E-02  0.10202221410E+01  0.10199466429E+01 0.  0.
     999903    2    3    3    0    0  0.19628906564E-01  0.90318233497E-01  0.91077623705E-01  0.13129289244E+00  0.20000319772E-01 0.  0.
         14    1    1    2    0    0  0.20661784044E-01 -0.11471457957E-01 -0.18865080441E-02  0.23707859037E-01  0.00000000000E+00 0. -1.
     999901    1    3    3    0    0 -0.40290690608E-01 -0.78846775540E-01 -0.89191115661E-01  0.88892924852E+00  0.88000000000E+00 0.  1.
        -11    1    4    4    0    0  0.18340589245E-01  0.37689160609E-01  0.40598232177E-01  0.58355185015E-01  0.51100000000E-03 0.  1.
         11    1    4    4    0    0  0.12883173196E-02  0.52629072888E-01  0.50479391528E-01  0.72937707426E-01  0.51100000000E-03 0. -1.
</event>
<event>
 8    1  0.1126407E+005  0.1043930E+01  0.7957747E-01            NaN
         13   -1    0    0    0    0  0.00000000000E+00  0.00000000000E+00  0.74505805969E-08  0.10566000000E+00  0.10566000000E+00 0. -1.
     999900   -1    0    0    0    0 -0.00000000000E+00 -0.00000000000E+00 -0.74505805969E-08  0.93827000000E+00  0.93827000000E+00 0. -1.
     999902    2    1    2    0    0  0.14394909980E-01  0.18665925667E-01 -0.11944247097E-02  0.10203279479E+01  0.10200549320E+01 0.  0.
     999903    2    3    3    0    0  0.16343641441E-01 -0.10234681365E+00 -0.74174911830E-01  0.12905131734E+00  0.20256852701E-01 0.  0.
         14    1    1    2    0    0 -0.14394909980E-01 -0.18665925667E-01  0.11944247097E-02  0.23602052130E-01  0.00000000000E+00 0.  1.
     999901    1    3    3    0    0 -0.19487314612E-02  0.12101273932E+00  0.72980487120E-01  0.89127663053E+00  0.88000000000E+00 0.  1.
        -11    1    4    4    0    0  0.13077474885E-01 -0.82185873126E-01 -0.48799957304E-01  0.96474012276E-01  0.51100000000E-03 0.  1.
         11    1    4    4    0    0  0.32661665567E-02 -0.20160940527E-01 -0.25374954526E-01  0.32577305062E-01  0.51100000000E-03 0. -1.
</event>
<event>
 8    1  0.1126407E+005  0.1043930E+01  0.7957747E-01            NaN
         13   -1    0    0    0    0  0.00000000000E+00  0.00000000000E+00  0.74505805969E-08  0.10566000000E+00  0.10566000000E+00 0.  1.
     999900   -1    0    0    0    0 -0.00000000000E+00 -0.00000000000E+00 -0.74505805969E-08  0.93827000000E+00  0.93827000000E+00 0.  1.
     999902    2    1    2    0    0  0.53540244740E-02  0.79537882146E-02  0.21612281333E-01  0.10202864167E+01  0.10200124279E+01 0.  0.
     999903    2    3    3    0    0  0.99840727368E-01  0.51742171035E-01 -0.62321475320E-01  0.13017966191E+00  0.20429267802E-01 0.  0.
         14    1    1    2    0    0 -0.53540244740E-02 -0.79537882146E-02 -0.21612281333E-01  0.23643583262E-01  0.00000000000E+00 0. -1.
     999901    1    3    3    0    0 -0.94486702894E-01 -0.43788382820E-01  0.83933756653E-01  0.89010675483E+00  0.88000000000E+00 0. -1.
        -11    1    4    4    0    0  0.52771979624E-01  0.33335694009E-01 -0.44205219228E-01  0.76488645278E-01  0.51100000000E-03 0. -1.
         11    1    4    4    0    0  0.47068747743E-01  0.18406477026E-01 -0.18116256093E-01  0.53691016627E-01  0.51100000000E-03 0.  1.
</event>
<event>
 8    1  0.1126407E+005  0.1043930E+01  0.7957747E-01            NaN
         13   -1    0    0    0    0  0.00000000000E+00  0.00000000000E+00  0.74505805969E-08  0.10566000000E+00  0.10566000000E+00 0. -1.
     999900   -1    0    0    0    0 -0.00000000000E+00 -0.00000000000E+00 -0.74505805969E-08  0.93827000000E+00  0.93827000000E+00 0.  1.
     999902    2    1    2    0    0 -0.69821205226E-02 -0.21528827282E-01  0.67435715663E-02  0.10203139849E+01  0.10200406422E+01 0.  0.
     999903    2    3    3    0    0  0.99561249581E-01  0.35997263346E-01 -0.70332606604E-01  0.12868543105E+00  0.20125089502E-01 0.  0.
         14    1    1    2    0    0  0.69821205226E-02  0.21528827282E-01 -0.67435715663E-02  0.23616015087E-01  0.00000000000E+00 0. -1.
     999901    1    3    3    0    0 -0.10654337010E+00 -0.57526090627E-01  0.77076178170E-01  0.89162855386E+00  0.88000000000E+00 0. -1.
        -11    1    4    4    0    0  0.70329836437E-01  0.23668634504E-01 -0.59639276802E-01  0.95202912828E-01  0.51100000000E-03 0. -1.
         11    1    4    4    0    0  0.29231413143E-01  0.12328628842E-01 -0.10693329802E-01  0.33482518226E-01  0.51100000000E-03 0.  1.
</event>
<event>
 8    1  0.1126407E+005  0.1043930E+01  0.7957747E-01            NaN
         13   -1    0    0    0    0  0.00000000000E+00  0.00000000000E+00  0.74505805969E-08  0.10566000000E+00  0.10566000000E+00 0. -1.
     999900   -1    0    0    0    0 -0.00000000000E+00 -0.00000000000E+00 -0.74505805969E-08  0.93827000000E+00  0.93827000000E+00 0.  1.
     999902    2    1    2    0    0 -0.44402626536E-03 -0.89842998527E-02  0.22499800547E-01  0.10196987015E+01  0.10194107543E+01 0.  0.
     999903    2    3    3    0    0 -0.29049912453E-01  0.89229380096E-01  0.89374757815E-01  0.13125259532E+00  0.20823466487E-01 0.  0.
         14    1    1    2    0    0  0.44402626536E-03  0.89842998527E-02 -0.22499800547E-01  0.24231298517E-01  0.00000000000E+00 0.  1.
     999901    1    3    3    0    0  0.28605886188E-01 -0.98213679949E-01 -0.66874957268E-01  0.88844610617E+00  0.88000000000E+00 0.  1.
        -11    1    4    4    0    0 -0.25083188920E-01  0.43543902698E-01  0.45926201026E-01  0.68078740369E-01  0.51100000000E-03 0.  1.
         11    1    4    4    0    0 -0.39667235336E-02  0.45685477398E-01  0.43448556789E-01  0.63173854946E-01  0.51100000000E-03 0. -1.
</event>
<event>
 8    1  0.1126407E+005  0.1043930E+01  0.7957747E-01            NaN
         13   -1    0    0    0    0  0.00000000000E+00  0.00000000000E+00  0.74505805969E-08  0.10566000000E+00  0.10566000000E+00 0. -1.
     999900   -1    0    0    0    0 -0.00000000000E+00 -0.00000000000E+00 -0.74505805969E-08  0.93827000000E+00  0.93827000000E+00 0.  1.
     999902    2    1    2    0    0 -0.51112613820E-02 -0.35439372212E-02 -0.22596855828E-01  0.10204927993E+01  0.10202236279E+01 0.  0.
     999903    2    3    3    0    0 -0.10820548977E+00  0.59048169757E-01 -0.43204566303E-01  0.13202734159E+00  0.19221602718E-01 0.  0.
         14    1    1    2    0    0  0.51112613820E-02  0.35439372212E-02  0.22596855828E-01  0.23437200712E-01  0.00000000000E+00 0. -1.
     999901    1    3    3    0    0  0.10309422839E+00 -0.62592106978E-01  0.20607710475E-01  0.88846545769E+00  0.88000000000E+00 0.  1.
        -11    1    4    4    0    0 -0.88609349199E-01  0.56104872778E-01 -0.37775772322E-01  0.11147485640E+00  0.51100000000E-03 0.  1.
         11    1    4    4    0    0 -0.19596140571E-01  0.29432969787E-02 -0.54287939810E-02  0.20552485190E-01  0.51100000000E-03 0. -1.
</event>
<event>
 8    1  0.1126407E+005  0.1043930E+01  0.7957747E-01            NaN
         13   -1    0    0    0    0  0.00000000000E+00  0.00000000000E+00  0.74505805969E-08  0.10566000000E+00  0.10566000000E+00 0. -1.
     999900   -1    0    0    0    0 -0.00000000000E+00 -0.00000000000E+00 -0.74505805969E-08  0.93827000000E+00  0.93827000000E+00 0. -1.
     999902    2    1    2    0    0  0.15860821205E-01 -0.33495943467E-02  0.11482439813E-01  0.10240646569E+01  0.10238719596E+01 0.  0.
     999903    2    3    3    0    0 -0.10190197675E+00 -0.82093237648E-01 -0.48021078998E-02  0.13258620826E+00  0.20802159657E-01 0.  0.
         14    1    1    2    0    0 -0.15860821205E-01  0.33495943467E-02 -0.11482439813E-01  0.19865343079E-01  0.00000000000E+00 0.  1.
     999901    1    3    3    0    0  0.11776279795E+00  0.78743643302E-01  0.16284547713E-01  0.89147844867E+00  0.88000000000E+00 0.  1.
        -11    1    4    4    0    0 -0.54928085447E-01 -0.40470300376E-01  0.74609906666E-02  0.68635758072E-01  0.51100000000E-03 0.  1.
         11    1    4    4    0    0 -0.46973891301E-01 -0.41622937273E-01 -0.12263098566E-01  0.63950450183E-01  0.51100000000E-03 0. -1.
</event>
<event>
 8    1  0.1126407E+005  0.1043930E+01  0.7957747E-01            NaN
         13   -1    0    0    0    0  0.00000000000E+00  0.00000000000E+00  0.74505805969E-08  0.10566000000E+00  0.10566000000E+00 0.  1.
     999900   -1    0    0    0    0 -0.00000000000E+00 -0.00000000000E+00 -0.74505805969E-08  0.93827000000E+00  0.93827000000E+00 0. -1.
     999902    2    1    2    0    0  0.14049808415E-01 -0.15339332802E-01 -0.95018404277E-02  0.10210613048E+01  0.10208051778E+01 0.  0.
     999903    2    3    3    0    0 -0.10737663955E+00 -0.49705788536E-01 -0.52666471425E-01  0.13101151919E+00  0.19744690769E-01 0.  0.
         14    1    1    2    0    0 -0.14049808415E-01  0.15339332802E-01  0.95018404277E-02  0.22868695171E-01  0.00000000000E+00 0.  1.
     999901    1    3    3    0    0  0.12142644796E+00  0.34366455734E-01  0.43164630997E-01  0.89004978564E+00  0.88000000000E+00 0.  1.
        -11    1    4    4    0    0 -0.84867182460E-01 -0.37473044489E-01 -0.32150409742E-01  0.98186443512E-01  0.51100000000E-03 0.  1.
         11    1    4    4    0    0 -0.22509457089E-01 -0.12232744048E-01 -0.20516061683E-01  0.32825075679E-01  0.51100000000E-03 0. -1.
</event>
<event>
 8    1  0.1126407E+005  0.1043930E+01  0.7957747E-01            NaN
         13   -1    0    0    0    0  0.00000000000E+00  0.00000000000E+00  0.74505805969E-08  0.10566000000E+00  0.10566000000E+00 0. -1.
     999900   -1    0    0    0    0 -0.00000000000E+00 -0.00000000000E+00 -0.74505805969E-08  0.93827000000E+00  0.93827000000E+00 0. -1.
     999902    2    1    2    0    0  0.62721444189E-02  0.70192620447E-02 -0.23789761927E-01  0.10183455788E+01  0.10180241428E+01 0.  0.
     999903    2    3    3    0    0  0.43426128060E-01  0.99716414936E-01  0.65332462262E-01  0.12822426601E+00  0.18545613009E-01 0.  0.
         14    1    1    2    0    0 -0.62721444189E-02 -0.70192620447E-02  0.23789761927E-01  0.25584421194E-01  0.00000000000E+00 0.  1.
     999901    1    3    3    0    0 -0.37153983641E-01 -0.92697152892E-01 -0.89122224189E-01  0.89012131280E+00  0.88000000000E+00 0. -1.
        -11    1    4    4    0    0  0.35341375836E-01  0.65101379172E-01  0.50776912972E-01  0.89809567575E-01  0.51100000000E-03 0. -1.
         11    1    4    4    0    0  0.80847522237E-02  0.34615035764E-01  0.14555549289E-01  0.38414698432E-01  0.51100000000E-03 0.  1.
</event>
<event>
 8    1  0.1126407E+005  0.1043930E+01  0.7957747E-01            NaN
         13   -1    0    0    0    0  0.00000000000E+00  0.00000000000E+00  0.74505805969E-08  0.10566000000E+00  0.10566000000E+00 0.  1.
     999900   -1    0    0    0    0 -0.00000000000E+00 -0.00000000000E+00 -0.74505805969E-08  0.93827000000E+00  0.93827000000E+00 0.  1.
     999902    2    1    2    0    0 -0.19150648012E-01 -0.15152813160E-01 -0.30159363037E-02  0.10193240873E+01  0.10190270576E+01 0.  0.
     999903    2    3    3    0    0  0.11153357416E+00 -0.96262530229E-02 -0.58975404846E-01  0.12789805513E+00  0.18638970392E-01 0.  0.
         14    1    1    2    0    0  0.19150648012E-01  0.15152813160E-01  0.30159363037E-02  0.24605912658E-01  0.00000000000E+00 0.  1.
     999901    1    3    3    0    0 -0.13068422217E+00 -0.55265601375E-02  0.55959468542E-01  0.89142603221E+00  0.88000000000E+00 0. -1.
        -11    1    4    4    0    0  0.90442997704E-01 -0.25113406004E-02 -0.41246100079E-01  0.99437138726E-01  0.51100000000E-03 0. -1.
         11    1    4    4    0    0  0.21090576451E-01 -0.71149124226E-02 -0.17729304767E-01  0.28460916400E-01  0.51100000000E-03 0.  1.
</event>
<event>
 8    1  0.1126407E+005  0.1043930E+01  0.7957747E-01            NaN
         13   -1    0    0    0    0  0.00000000000E+00  0.00000000000E+00  0.74505805969E-08  0.10566000000E+00  0.10566000000E+00 0. -1.
     999900   -1    0    0    0    0 -0.00000000000E+00 -0.00000000000E+00 -0.74505805969E-08  0.93827000000E+00  0.93827000000E+00 0.  1.
     999902    2    1    2    0    0 -0.17328023289E-02 -0.88913347678E-02  0.19941517054E-01  0.10220274307E+01  0.10217927122E+01 0.  0.
     999903    2    3    3    0    0 -0.41541727634E-01 -0.12160817379E+00 -0.21370522666E-01  0.13298495652E+00  0.26721458713E-01 0.  0.
         14    1    1    2    0    0  0.17328023289E-02  0.88913347678E-02 -0.19941517054E-01  0.21902569262E-01  0.00000000000E+00 0.  1.
     999901    1    3    3    0    0  0.39808925305E-01  0.11271683902E+00  0.41312039719E-01  0.88904247421E+00  0.88000000000E+00 0. -1.
        -11    1    4    4    0    0 -0.32777818428E-01 -0.66418277445E-01 -0.21414051501E-01  0.77101204156E-01  0.51100000000E-03 0.  1.
         11    1    4    4    0    0 -0.87639092059E-02 -0.55189896343E-01  0.43528834981E-04  0.55883752368E-01  0.51100000000E-03 0. -1.
</event>
<event>
 8    1  0.1126407E+005  0.1043930E+01  0.7957747E-01            NaN
         13   -1    0    0    0    0  0.00000000000E+00  0.00000000000E+00  0.74505805969E-08  0.10566000000E+00  0.10566000000E+00 0.  1.
     999900   -1    0    0    0    0 -0.00000000000E+00 -0.00000000000E+00 -0.74505805969E-08  0.93827000000E+00  0.93827000000E+00 0. -1.
     999902    2    1    2    0    0 -0.21947741046E-02 -0.43127856935E-02  0.28380215134E-01  0.10151401795E+01  0.10147318514E+01 0.  0.
     999903    2    3    3    0    0  0.11792083604E+00 -0.25009953540E-01 -0.27332006796E-01  0.12499413292E+00  0.18592291938E-01 0.  0.
         14    1    1    2    0    0  0.21947741046E-02  0.43127856935E-02 -0.28380215134E-01  0.28789820508E-01  0.00000000000E+00 0. -1.
     999901    1    3    3    0    0 -0.12011561015E+00  0.20697167846E-01  0.55712221930E-01  0.89014604657E+00  0.88000000000E+00 0.  1.
        -11    1    4    4    0    0  0.67458709797E-01 -0.17642187172E-01 -0.69591260209E-02  0.70075779351E-01  0.51100000000E-03 0. -1.
         11    1    4    4    0    0  0.50462126246E-01 -0.73677663682E-02 -0.20372880775E-01  0.54918353568E-01  0.51100000000E-03 0.  1.
</event>
<event>
 8    1  0.1126407E+005  0.1043930E+01  0.7957747E-01            NaN
         13   -1    0    0    0    0  0.00000000000E+00  0.00000000000E+00  0.74505805969E-08  0.10566000000E+00  0.10566000000E+00 0. -1.
     999900   -1    0    0    0    0 -0.00000000000E+00 -0.00000000000E+00 -0.74505805969E-08  0.93827000000E+00  0.93827000000E+00 0.  1.
     999902    2    1    2    0    0  0.14121360688E-01  0.23489198969E-02 -0.18509429089E-01  0.10205306578E+01  0.10202623654E+01 0.  0.
     999903    2    3    3    0    0 -0.11437146110E+00 -0.37444722709E-01  0.39744168289E-01  0.12840543064E+00  0.20625647437E-01 0.  0.
         14    1    1    2    0    0 -0.14121360688E-01 -0.23489198969E-02  0.18509429089E-01  0.23399342246E-01  0.00000000000E+00 0. -1.
     999901    1    3    3    0    0  0.12849282179E+00  0.39793642606E-01 -0.58253597377E-01  0.89212522711E+00  0.88000000000E+00 0. -1.
        -11    1    4    4    0    0 -0.82333992057E-01 -0.32911548619E-01  0.36479636651E-01  0.95880557424E-01  0.51100000000E-03 0. -1.
         11    1    4    4    0    0 -0.32037469043E-01 -0.45331740895E-02  0.32645316373E-02  0.32524873218E-01  0.51100000000E-03 0.  1.
</event>
<event>
 8    1  0.1126407E+005  0.1043930E+01  0.7957747E-01            NaN
         13   -1    0    0    0    0  0.00000000000E+00  0.00000000000E+00  0.74505805969E-08  0.10566000000E+00  0.10566000000E+00 0.  1.
     999900   -1    0    0    0    0 -0.00000000000E+00 -0.00000000000E+00 -0.74505805969E-08  0.93827000000E+00  0.93827000000E+00 0. -1.
     999902    2    1    2    0    0 -0.41612389010E-02 -0.22800709877E-01  0.38951472656E-02  0.10204276501E+01  0.10201569627E+01 0.  0.
     999903    2    3    3    0    0  0.12378236373E+00 -0.37594503139E-01  0.56842096116E-02  0.13105055203E+00  0.20162259590E-01 0.  0.
         14    1    1    2    0    0  0.41612389010E-02  0.22800709877E-01 -0.38951472656E-02  0.23502349931E-01  0.00000000000E+00 0.  1.
     999901    1    3    3    0    0 -0.12794360263E+00  0.14793793262E-01 -0.17890623461E-02  0.88937709804E+00  0.88000000000E+00 0.  1.
        -11    1    4    4    0    0  0.81135733222E-01 -0.34318502121E-01  0.20406064293E-02  0.88120326763E-01  0.51100000000E-03 0. -1.
         11    1    4    4    0    0  0.42646630507E-01 -0.32760010184E-02  0.36436031823E-02  0.42930225266E-01  0.51100000000E-03 0.  1.
</event>
<event>
 8    1  0.1126407E+005  0.1043930E+01  0.7957747E-01            NaN
         13   -1    0    0    0    0  0.00000000000E+00  0.00000000000E+00  0.74505805969E-08  0.10566000000E+00  0.10566000000E+00 0.  1.
     999900   -1    0    0    0    0 -0.00000000000E+00 -0.00000000000E+00 -0.74505805969E-08  0.93827000000E+00  0.93827000000E+00 0.  1.
     999902    2    1    2    0    0 -0.21619999432E-01  0.22543971147E-02 -0.82486208980E-02  0.10206803456E+01  0.10204155142E+01 0.  0.
     999903    2    3    3    0    0 -0.55955703987E-01  0.54351057115E-01 -0.10553680726E+00  0.13312302703E+00  0.22330347528E-01 0.  0.
         14    1    1    2    0    0  0.21619999432E-01 -0.22543971147E-02  0.82486208980E-02  0.23249654374E-01  0.00000000000E+00 0.  1.
     999901    1    3    3    0    0  0.34335704555E-01 -0.52096660001E-01  0.97288186361E-01  0.88755731860E+00  0.88000000000E+00 0. -1.
        -11    1    4    4    0    0 -0.34173683467E-01  0.45785657682E-01 -0.67229179105E-01  0.88228060928E-01  0.51100000000E-03 0. -1.
         11    1    4    4    0    0 -0.21782020520E-01  0.85653994334E-02 -0.38307628154E-01  0.44894966101E-01  0.51100000000E-03 0.  1.
</event>
<event>
 8    1  0.1126407E+005  0.1043930E+01  0.7957747E-01            NaN
         13   -1    0    0    0    0  0.00000000000E+00  0.00000000000E+00  0.74505805969E-08  0.10566000000E+00  0.10566000000E+00 0.  1.
     999900   -1    0    0    0    0 -0.00000000000E+00 -0.00000000000E+00 -0.74505805969E-08  0.93827000000E+00  0.93827000000E+00 0.  1.
     999902    2    1    2    0    0  0.47619792610E-02  0.22209400639E-01 -0.29193536002E-02  0.10210289837E+01  0.10207721239E+01 0.  0.
     999903    2    3    3    0    0 -0.11515845020E+00  0.59396416819E-01 -0.16100970587E-01  0.13201968192E+00  0.19507746602E-01 0.  0.
         14    1    1    2    0    0 -0.47619792610E-02 -0.22209400639E-01  0.29193536002E-02  0.22901016324E-01  0.00000000000E+00 0. -1.
     999901    1    3    3    0    0  0.11992042946E+00 -0.37187016180E-01  0.13181616987E-01  0.88900930175E+00  0.88000000000E+00 0. -1.
        -11    1    4    4    0    0 -0.11941752718E-01  0.53584637711E-02 -0.77345944813E-02  0.15211957953E-01  0.51100000000E-03 0.  1.
         11    1    4    4    0    0 -0.10321669748E+00  0.54037953048E-01 -0.83663761061E-02  0.11680772397E+00  0.51100000000E-03 0. -1.
</event>
<event>
 8    1  0.1126407E+005  0.1043930E+01  0.7957747E-01            NaN
         13   -1    0    0    0    0  0.00000000000E+00  0.00000000000E+00  0.74505805969E-08  0.10566000000E+00  0.10566000000E+00 0. -1.
     999900   -1    0    0    0    0 -0.00000000000E+00 -0.00000000000E+00 -0.74505805969E-08  0.93827000000E+00  0.93827000000E+00 0. -1.
     999902    2    1    2    0    0  0.75861068343E-02  0.18113910251E-01  0.13053221188E-01  0.10203493014E+01  0.10200767851E+01 0.  0.
     999903    2    3    3    0    0 -0.12627377715E+00 -0.66841773433E-02  0.19735602549E-01  0.12985614149E+00  0.21985869339E-01 0.  0.
         14    1    1    2    0    0 -0.75861068343E-02 -0.18113910251E-01 -0.13053221188E-01  0.23580698566E-01  0.00000000000E+00 0.  1.
     999901    1    3    3    0    0  0.13385988399E+00  0.24798087594E-01 -0.66823813608E-02  0.89049315995E+00  0.88000000000E+00 0.  1.
        -11    1    4    4    0    0 -0.10235502914E+00  0.15466833468E-02  0.21095942424E-01  0.10451910891E+00  0.51100000000E-03 0. -1.
         11    1    4    4    0    0 -0.23918748013E-01 -0.82308606902E-02 -0.13603398749E-02  0.25337032577E-01  0.51100000000E-03 0.  1.
</event>
<event>
 8    1  0.1126407E+005  0.1043930E+01  0.7957747E-01            NaN
         13   -1    0    0    0    0  0.00000000000E+00  0.00000000000E+00  0.74505805969E-08  0.10566000000E+00  0.10566000000E+00 0.  1.
     999900   -1    0    0    0    0 -0.00000000000E+00 -0.00000000000E+00 -0.74505805969E-08  0.93827000000E+00  0.93827000000E+00 0.  1.
     999902    2    1    2    0    0 -0.25690464449E-01 -0.16673978861E-01 -0.21157529847E-01  0.10067055107E+01  0.10060170588E+01 0.  0.
     999903    2    3    3    0    0 -0.11071724144E+00  0.42149896571E-01  0.59739429837E-02  0.12023728343E+00  0.19656932593E-01 0.  0.
         14    1    1    2    0    0  0.25690464449E-01  0.16673978861E-01  0.21157529847E-01  0.37224489303E-01  0.00000000000E+00 0.  1.
     999901    1    3    3    0    0  0.85026776996E-01 -0.58823875432E-01 -0.27131472831E-01  0.88646822726E+00  0.88000000000E+00 0.  1.
        -11    1    4    4    0    0 -0.77440099104E-01  0.27225561039E-01  0.12946076902E-01  0.83102720480E-01  0.51100000000E-03 0. -1.
         11    1    4    4    0    0 -0.33277142341E-01  0.14924335531E-01 -0.69721339183E-02  0.37134562954E-01  0.51100000000E-03 0.  1.
</event>
<event>
 8    1  0.1126407E+005  0.1043930E+01  0.7957747E-01            NaN
         13   -1    0    0    0    0  0.00000000000E+00  0.00000000000E+00  0.74505805969E-08  0.10566000000E+00  0.10566000000E+00 0. -1.
     999900   -1    0    0    0    0 -0.00000000000E+00 -0.00000000000E+00 -0.74505805969E-08  0.93827000000E+00  0.93827000000E+00 0. -1.
     999902    2    1    2    0    0 -0.20616411180E-02 -0.19495135914E-03  0.21420497111E-01  0.10224096360E+01  0.10221831234E+01 0.  0.
     999903    2    3    3    0    0  0.11023798322E+00  0.67206256796E-01  0.21946852289E-01  0.13271620255E+00  0.21513535177E-01 0.  0.
         14    1    1    2    0    0  0.20616411180E-02  0.19495135914E-03 -0.21420497111E-01  0.21520363998E-01  0.00000000000E+00 0.  1.
     999901    1    3    3    0    0 -0.11229962434E+00 -0.67401208155E-01 -0.52635517799E-03  0.88969343346E+00  0.88000000000E+00 0.  1.
        -11    1    4    4    0    0  0.44003350724E-01  0.34531398679E-01  0.10016892509E-02  0.55946196225E-01  0.51100000000E-03 0. -1.
         11    1    4    4    0    0  0.66234632495E-01  0.32674858117E-01  0.20945163038E-01  0.76770006320E-01  0.51100000000E-03 0.  1.
</event>
<event>
 8    1  0.1126407E+005  0.1043930E+01  0.7957747E-01            NaN
         13   -1    0    0    0    0  0.00000000000E+00  0.00000000000E+00  0.74505805969E-08  0.10566000000E+00  0.10566000000E+00 0.  1.
     999900   -1    0    0    0    0 -0.00000000000E+00 -0.00000000000E+00 -0.74505805969E-08  0.93827000000E+00  0.93827000000E+00 0. -1.
     999902    2    1    2    0    0 -0.14711142108E-01 -0.38055290344E-02 -0.17814499017E-01  0.10205151302E+01  0.10202464775E+01 0.  0.
     999903    2    3    3    0    0 -0.24455845875E-01  0.73463485777E-01 -0.10542685733E+00  0.13274185663E+00  0.22596595238E-01 0.  0.
         14    1    1    2    0    0  0.14711142108E-01  0.38055290344E-02  0.17814499017E-01  0.23414869818E-01  0.00000000000E+00 0.  1.
     999901    1    3    3    0    0  0.97447037666E-02 -0.77269014812E-01  0.87612358309E-01  0.88777327355E+00  0.88000000000E+00 0.  1.
        -11    1    4    4    0    0 -0.24258638008E-01  0.66981802663E-01 -0.10403537851E+00  0.12608990645E+00  0.51100000000E-03 0. -1.
         11    1    4    4    0    0 -0.19720786711E-03  0.64816831148E-02 -0.13914788189E-02  0.66519501837E-02  0.51100000000E-03 0.  1.
</event>
<event>
 8    1  0.1126407E+005  0.1043930E+01  0.7957747E-01            NaN
         13   -1    0    0    0    0  0.00000000000E+00  0.00000000000E+00  0.74505805969E-08  0.10566000000E+00  0.10566000000E+00 0. -1.
     999900   -1    0    0    0    0 -0.00000000000E+00 -0.00000000000E+00 -0.74505805969E-08  0.93827000000E+00  0.93827000000E+00 0. -1.
     999902    2    1    2    0    0 -0.17089436454E-01  0.17406978331E-02 -0.15390812120E-01  0.10208658294E+01  0.10206052546E+01 0.  0.
     999903    2    3    3    0    0 -0.53136347235E-01  0.91638758069E-01 -0.78352765314E-01  0.13331569079E+00  0.20317091352E-01 0.  0.
         14    1    1    2    0    0  0.17089436454E-01 -0.17406978331E-02  0.15390812120E-01  0.23064170590E-01  0.00000000000E+00 0. -1.
     999901    1    3    3    0    0  0.36046910781E-01 -0.89898060236E-01  0.62961953194E-01  0.88755013862E+00  0.88000000000E+00 0.  1.
        -11    1    4    4    0    0 -0.41777985245E-01  0.62595739095E-01 -0.64787511097E-01  0.99304125388E-01  0.51100000000E-03 0. -1.
         11    1    4    4    0    0 -0.11358361990E-01  0.29043018975E-01 -0.13565254217E-01  0.34011565404E-01  0.51100000000E-03 0.  1.
</event>
<event>
 8    1  0.1126407E+005  0.1043930E+01  0.7957747E-01            NaN
         13   -1    0    0    0    0  0.00000000000E+00  0.00000000000E+00  0.74505805969E-08  0.10566000000E+00  0.10566000000E+00 0.  1.
     999900   -1    0    0    0    0 -0.00000000000E+00 -0.00000000000E+00 -0.74505805969E-08  0.93827000000E+00  0.93827000000E+00 0.  1.
     999902    2    1    2    0    0  0.25157990191E-02  0.24122059561E-01 -0.39269453718E-02  0.10193612413E+01  0.10190651188E+01 0.  0.
     999903    2    3    3    0    0 -0.53553112782E-01 -0.99302821225E-01 -0.55914573091E-01  0.12746430923E+00  0.19792030009E-01 0.  0.
         14    1    1    2    0    0 -0.25157990191E-02 -0.24122059561E-01  0.39269453718E-02  0.24568758661E-01  0.00000000000E+00 0.  1.
     999901    1    3    3    0    0  0.56068911801E-01  0.12342488079E+00  0.51987627719E-01  0.89189693211E+00  0.88000000000E+00 0. -1.
        -11    1    4    4    0    0 -0.14686035410E-01 -0.29798524694E-01 -0.68374012037E-02  0.33921127431E-01  0.51100000000E-03 0. -1.
         11    1    4    4    0    0 -0.38867077372E-01 -0.69504296532E-01 -0.49077171887E-01  0.93543181800E-01  0.51100000000E-03 0.  1.
</event>
<event>
 8    1  0.1126407E+005  0.1043930E+01  0.7957747E-01            NaN
         13   -1    0    0    0    0  0.00000000000E+00  0.00000000000E+00  0.74505805969E-08  0.10566000000E+00  0.10566000000E+00 0. -1.
     999900   -1    0    0    0    0 -0.00000000000E+00 -0.00000000000E+00 -0.74505805969E-08  0.93827000000E+00  0.93827000000E+00 0.  1.
     999902    2    1    2    0    0  0.18783732989E-01 -0.99824913944E-02  0.11593784147E-01  0.10197040926E+01  0.10194162750E+01 0.  0.
     999903    2    3    3    0    0  0.64395632457E-01 -0.10726840698E+00 -0.36386248274E-01  0.13187129399E+00  0.20316754138E-01 0.  0.
         14    1    1    2    0    0 -0.18783732989E-01  0.99824913944E-02 -0.11593784147E-01  0.24225907419E-01  0.00000000000E+00 0.  1.
     999901    1    3    3    0    0 -0.45611899468E-01  0.97285915588E-01  0.47980032421E-01  0.88783279859E+00  0.88000000000E+00 0. -1.
        -11    1    4    4    0    0  0.37848750439E-01 -0.65297031166E-01 -0.32113638339E-01  0.82023027725E-01  0.51100000000E-03 0. -1.
         11    1    4    4    0    0  0.26546882018E-01 -0.41971375817E-01 -0.42726099353E-02  0.49848266264E-01  0.51100000000E-03 0.  1.
</event>
<event>
 8    1  0.1126407E+005  0.1043930E+01  0.7957747E-01            NaN
         13   -1    0    0    0    0  0.00000000000E+00  0.00000000000E+00  0.74505805969E-08  0.10566000000E+00  0.10566000000E+00 0.  1.
     999900   -1    0    0    0    0 -0.00000000000E+00 -0.00000000000E+00 -0.74505805969E-08  0.93827000000E+00  0.93827000000E+00 0.  1.
     999902    2    1    2    0    0 -0.19019264329E-01  0.12798716202E-01  0.59761245792E-02  0.10202392082E+01  0.10199641113E+01 0.  0.
     999903    2    3    3    0    0 -0.19880623744E-01 -0.10174309633E+00  0.75761593129E-01  0.13007597575E+00  0.20809700153E-01 0.  0.
         14    1    1    2    0    0  0.19019264329E-01 -0.12798716202E-01 -0.59761245792E-02  0.23690791819E-01  0.00000000000E+00 0. -1.
     999901    1    3    3    0    0  0.86135941511E-03  0.11454181254E+00 -0.69785468550E-01  0.89016323244E+00  0.88000000000E+00 0.  1.
        -11    1    4    4    0    0 -0.11460365274E-01 -0.17687434086E-01  0.12208978894E-01  0.24361970023E-01  0.51100000000E-03 0.  1.
         11    1    4    4    0    0 -0.84202584698E-02 -0.84055662249E-01  0.63552614235E-01  0.10571400572E+00  0.51100000000E-03 0. -1.
</event>
<event>
 8    1  0.1126407E+005  0.1043930E+01  0.7957747E-01            NaN
         13   -1    0    0    0    0  0.00000000000E+00  0.00000000000E+00  0.74505805969E-08  0.10566000000E+00  0.10566000000E+00 0.  1.
     999900   -1    0    0    0    0 -0.00000000000E+00 -0.00000000000E+00 -0.74505805969E-08  0.93827000000E+00  0.93827000000E+00 0.  1.
     999902    2    1    2    0    0  0.38059566263E-02 -0.63695070243E-02  0.21410590390E-01  0.10212701389E+01  0.10210187203E+01 0.  0.
     999903    2    3    3    0    0 -0.52296267996E-01  0.11067046849E+00 -0.38397666730E-01  0.12974176406E+00  0.19382783308E-01 0.  0.
         14    1    1    2    0    0 -0.38059566263E-02  0.63695070243E-02 -0.21410590390E-01  0.22659861130E-01  0.00000000000E+00 0. -1.
     999901    1    3    3    0    0  0.56102224623E-01 -0.11703997551E+00  0.59808257121E-01  0.89152837481E+00  0.88000000000E+00 0. -1.
        -11    1    4    4    0    0 -0.24359556897E-01  0.48151890433E-01 -0.26923825712E-01  0.60308756216E-01  0.51100000000E-03 0. -1.
         11    1    4    4    0    0 -0.27936711100E-01  0.62518578056E-01 -0.11473841019E-01  0.69433007841E-01  0.51100000000E-03 0.  1.
</event>
<event>
 8    1  0.1126407E+005  0.1043930E+01  0.7957747E-01            NaN
         13   -1    0    0    0    0  0.00000000000E+00  0.00000000000E+00  0.74505805969E-08  0.10566000000E+00  0.10566000000E+00 0.  1.
     999900   -1    0    0    0    0 -0.00000000000E+00 -0.00000000000E+00 -0.74505805969E-08  0.93827000000E+00  0.93827000000E+00 0.  1.
     999902    2    1    2    0    0 -0.16696535491E-01  0.16187310705E-01  0.29324407168E-02  0.10204906627E+01  0.10202214417E+01 0.  0.
     999903    2    3    3    0    0  0.39988911939E-02  0.13037224153E+00 -0.14348184488E-01  0.13270402214E+00  0.19788244053E-01 0.  0.
         14    1    1    2    0    0  0.16696535491E-01 -0.16187310705E-01 -0.29324407168E-02  0.23439337316E-01  0.00000000000E+00 0. -1.
     999901    1    3    3    0    0 -0.20695426685E-01 -0.11418493083E+00  0.17280625205E-01  0.88778664054E+00  0.88000000000E+00 0. -1.
        -11    1    4    4    0    0  0.10636941460E-01  0.43359196653E-01 -0.40495870184E-02  0.44831068848E-01  0.51100000000E-03 0.  1.
         11    1    4    4    0    0 -0.66380502666E-02  0.87013044878E-01 -0.10298597469E-01  0.87872953297E-01  0.51100000000E-03 0. -1.
</event>
<event>
 8    1  0.1126407E+005  0.1043930E+01  0.7957747E-01            NaN
         13   -1    0    0    0    0  0.00000000000E+00  0.00000000000E+00  0.74505805969E-08  0.10566000000E+00  0.10566000000E+00 0. -1.
     999900   -1    0    0    0    0 -0.00000000000E+00 -0.00000000000E+00 -0.74505805969E-08  0.93827000000E+00  0.93827000000E+00 0. -1.
     999902    2    1    2    0    0 -0.21134790913E-01  0.21199372203E-01  0.22594393515E-02  0.10139100427E+01  0.10134655282E+01 0.  0.
     999903    2    3    3    0    0  0.93201994859E-01 -0.69993991420E-01 -0.27055812046E-01  0.12135835564E+00  0.20250008336E-01 0.  0.
         14    1    1    2    0    0  0.21134790913E-01 -0.21199372203E-01 -0.22594393515E-02  0.30019957277E-01  0.00000000000E+00 0. -1.
     999901    1    3    3    0    0 -0.11433678577E+00  0.91193363623E-01  0.29315251398E-01  0.89255168708E+00  0.88000000000E+00 0.  1.
        -11    1    4    4    0    0  0.25725533977E-01 -0.18789384486E-01  0.16936577235E-02  0.31905699573E-01  0.51100000000E-03 0. -1.
         11    1    4    4    0    0  0.67476460882E-01 -0.51204606934E-01 -0.28749469770E-01  0.89452656067E-01  0.51100000000E-03 0.  1.
</event>
<event>
 8    1  0.1126407E+005  0.1043930E+01  0.7957747E-01            NaN
         13   -1    0    0    0    0  0.00000000000E+00  0.00000000000E+00  0.74505805969E-08  0.10566000000E+00  0.10566000000E+00 0.  1.
     999900   -1    0    0    0    0 -0.00000000000E+00 -0.00000000000E+00 -0.74505805969E-08  0.93827000000E+00  0.93827000000E+00 0.  1.
     999902    2    1    2    0    0  0.22433509645E-01  0.60034892147E-02  0.63311692745E-02  0.10198595214E+01  0.10195754290E+01 0.  0.
     999903    2    3    3    0    0  0.54625952405E-01  0.67836489482E-01 -0.95870118538E-01  0.13120617132E+00  0.20933126465E-01 0.  0.
         14    1    1    2    0    0 -0.22433509645E-01 -0.60034892147E-02 -0.63311692745E-02  0.24070478643E-01  0.00000000000E+00 0. -1.
     999901    1    3    3    0    0 -0.32192442760E-01 -0.61833000268E-01  0.10220128781E+00  0.88865335003E+00  0.88000000000E+00 0. -1.
        -11    1    4    4    0    0  0.21865166491E-01  0.28963786660E-01 -0.55380553322E-01  0.66213693830E-01  0.51100000000E-03 0.  1.
         11    1    4    4    0    0  0.32760785915E-01  0.38872702822E-01 -0.40489565216E-01  0.64992477494E-01  0.51100000000E-03 0. -1.
</event>
<event>
 8    1  0.1126407E+005  0.1043930E+01  0.7957747E-01            NaN
         13   -1    0    0    0    0  0.00000000000E+00  0.00000000000E+00  0.74505805969E-08  0.10566000000E+00  0.10566000000E+00 0. -1.
     999900   -1    0    0    0    0 -0.00000000000E+00 -0.00000000000E+00 -0.74505805969E-08  0.93827000000E+00  0.93827000000E+00 0.  1.
     999902    2    1    2    0    0 -0.70393037630E-02  0.18216713599E-01  0.13887014091E-01  0.10199664942E+01  0.10196849511E+01 0.  0.
     999903    2    3    3    0    0  0.11512583504E+00  0.47010237637E-01 -0.31676889671E-01  0.12989376820E+00  0.20125738288E-01 0.  0.
         14    1    1    2    0    0  0.70393037630E-02 -0.18216713599E-01 -0.13887014091E-01  0.23963505841E-01  0.00000000000E+00 0.  1.
     999901    1    3    3    0    0 -0.12216513881E+00 -0.28793524039E-01  0.45563903763E-01  0.89007272596E+00  0.88000000000E+00 0. -1.
        -11    1    4    4    0    0  0.23131240697E-01  0.76617813135E-02 -0.14536915562E-01  0.28378516947E-01  0.51100000000E-03 0.  1.
         11    1    4    4    0    0  0.91994594346E-01  0.39348456324E-01 -0.17139974109E-01  0.10151525126E+00  0.51100000000E-03 0. -1.
</event>
<event>
 8    1  0.1126407E+005  0.1043930E+01  0.7957747E-01            NaN
         13   -1    0    0    0    0  0.00000000000E+00  0.00000000000E+00  0.74505805969E-08  0.10566000000E+00  0.10566000000E+00 0.  1.
     999900   -1    0    0    0    0 -0.00000000000E+00 -0.00000000000E+00 -0.74505805969E-08  0.93827000000E+00  0.93827000000E+00 0.  1.
     999902    2    1    2    0    0 -0.14434612218E-01 -0.13911330930E-01 -0.85245753534E-02  0.10221457960E+01  0.10219136347E+01 0.  0.
     999903    2    3    3    0    0  0.10134085426E+00  0.60878092417E-03 -0.82575960287E-01  0.13136052453E+00  0.12901892598E-01 0.  0.
         14    1    1    2    0    0  0.14434612218E-01  0.13911330930E-01  0.85245753534E-02  0.21784203981E-01  0.00000000000E+00 0.  1.
     999901    1    3    3    0    0 -0.11577546647E+00 -0.14520111854E-01  0.74051384934E-01  0.89078527149E+00  0.88000000000E+00 0.  1.
        -11    1    4    4    0    0  0.80098335202E-01  0.49730654788E-02 -0.68389471815E-01  0.10544124268E+00  0.51100000000E-03 0. -1.
         11    1    4    4    0    0  0.21242519055E-01 -0.43642845546E-02 -0.14186488472E-01  0.25919281851E-01  0.51100000000E-03 0.  1.
</event>
<event>
 8    1  0.1126407E+005  0.1043930E+01  0.7957747E-01            NaN
         13   -1    0    0    0    0  0.00000000000E+00  0.00000000000E+00  0.74505805969E-08  0.10566000000E+00  0.10566000000E+00 0. -1.
     999900   -1    0    0    0    0 -0.00000000000E+00 -0.00000000000E+00 -0.74505805969E-08  0.93827000000E+00  0.93827000000E+00 0.  1.
     999902    2    1    2    0    0  0.15884811792E-01  0.12950357008E-01  0.88400931380E-02  0.10216099140E+01  0.10213660608E+01 0.  0.
     999903    2    3    3    0    0  0.12184591403E+00 -0.13481479207E-02  0.52214418106E-01  0.13407764163E+00  0.20055529404E-01 0.  0.
         14    1    1    2    0    0 -0.15884811792E-01 -0.12950357008E-01 -0.88400931380E-02  0.22320085998E-01  0.00000000000E+00 0.  1.
     999901    1    3    3    0    0 -0.10596110224E+00  0.14298504928E-01 -0.43374324968E-01  0.88753227237E+00  0.88000000000E+00 0.  1.
        -11    1    4    4    0    0  0.22711931210E-01  0.49615006411E-02  0.16517165304E-01  0.28522380311E-01  0.51100000000E-03 0. -1.
         11    1    4    4    0    0  0.99133982817E-01 -0.63096485618E-02  0.35697252802E-01  0.10555526132E+00  0.51100000000E-03 0.  1.
</event>
<event>
 7    1  0.1126407E+005  0.1043930E+01  0.7957747E-01            NaN
         13   -1    0    0    0    0  0.00000000000E+00  0.00000000000E+00  0.74505805969E-08  0.10566000000E+00  0.10566000000E+00 0. -1.
     999900   -1    0    0    0    0 -0.00000000000E+00 -0.00000000000E+00 -0.74505805969E-08  0.93827000000E+00  0.93827000000E+00 0.  1.
     999903    2    1    2    0    0  0.34505705386E-01 -0.33189807263E-02 -0.43126657711E-01  0.56763754203E-01  0.12671063437E-01 0.  0.
         14    1    1    2    0    0 -0.68830357084E-02 -0.91417948833E-01 -0.35179897451E-01  0.98194922140E-01  0.00000000000E+00 0. -1.
     999901    1    1    2    0    0 -0.27622669678E-01  0.94736929560E-01  0.78306555162E-01  0.88897132366E+00  0.88000000000E+00 0. -1.
        -11    1    3    3    0    0  0.19371844734E-01  0.37237064228E-02 -0.27835785333E-01  0.34120762360E-01  0.51100000000E-03 0. -1.
         11    1    3    3    0    0  0.15133860652E-01 -0.70426871491E-02 -0.15290872378E-01  0.22642991843E-01  0.51100000000E-03 0.  1.
</event>
<event>
 8    1  0.1126407E+005  0.1043930E+01  0.7957747E-01            NaN
         13   -1    0    0    0    0  0.00000000000E+00  0.00000000000E+00  0.74505805969E-08  0.10566000000E+00  0.10566000000E+00 0. -1.
     999900   -1    0    0    0    0 -0.00000000000E+00 -0.00000000000E+00 -0.74505805969E-08  0.93827000000E+00  0.93827000000E+00 0.  1.
     999902    2    1    2    0    0  0.12623054399E-01 -0.25684563460E-01  0.90359086517E-03  0.10152968937E+01  0.10148930621E+01 0.  0.
     999903    2    3    3    0    0 -0.42501329482E-01  0.92792501349E-01 -0.64705915329E-01  0.12323180641E+00  0.24133199485E-01 0.  0.
         14    1    1    2    0    0 -0.12623054399E-01  0.25684563460E-01 -0.90359086517E-03  0.28633106345E-01  0.00000000000E+00 0. -1.
     999901    1    3    3    0    0  0.55124383881E-01 -0.11847706481E+00  0.65609506195E-01  0.89206508725E+00  0.88000000000E+00 0. -1.
        -11    1    4    4    0    0 -0.36876278127E-01  0.52433226743E-01 -0.38374312116E-01  0.74712462860E-01  0.51100000000E-03 0.  1.
         11    1    4    4    0    0 -0.56250513546E-02  0.40359274606E-01 -0.26331603214E-01  0.48519343547E-01  0.51100000000E-03 0. -1.
</event>
<event>
 8    1  0.1126407E+005  0.1043930E+01  0.7957747E-01            NaN
         13   -1    0    0    0    0  0.00000000000E+00  0.00000000000E+00  0.74505805969E-08  0.10566000000E+00  0.10566000000E+00 0. -1.
     999900   -1    0    0    0    0 -0.00000000000E+00 -0.00000000000E+00 -0.74505805969E-08  0.93827000000E+00  0.93827000000E+00 0. -1.
     999902    2    1    2    0    0  0.15620422359E-01 -0.14421189404E-01  0.52465749045E-02  0.10220326292E+01  0.10217980233E+01 0.  0.
     999903    2    3    3    0    0 -0.50807731406E-01 -0.29601000681E-01  0.11645545951E+00  0.13242004934E+00  0.22705739457E-01 0.  0.
         14    1    1    2    0    0 -0.15620422359E-01  0.14421189404E-01 -0.52465749045E-02  0.21897370772E-01  0.00000000000E+00 0. -1.
     999901    1    3    3    0    0  0.66428153765E-01  0.15179811277E-01 -0.11120888461E+00  0.88961257989E+00  0.88000000000E+00 0. -1.
        -11    1    4    4    0    0 -0.11209352977E-01 -0.18009313106E-02  0.42880447623E-01  0.44360870789E-01  0.51100000000E-03 0.  1.
         11    1    4    4    0    0 -0.39598378429E-01 -0.27800069370E-01  0.73575011890E-01  0.88059178549E-01  0.51100000000E-03 0. -1.
</event>
<event>
 8    1  0.1126407E+005  0.1043930E+01  0.7957747E-01            NaN
         13   -1    0    0    0    0  0.00000000000E+00  0.00000000000E+00  0.74505805969E-08  0.10566000000E+00  0.10566000000E+00 0.  1.
     999900   -1    0    0    0    0 -0.00000000000E+00 -0.00000000000E+00 -0.74505805969E-08  0.93827000000E+00  0.93827000000E+00 0.  1.
     999902    2    1    2    0    0 -0.14585778666E-01  0.18313750517E-01  0.39691090546E-02  0.10201835850E+01  0.10199071796E+01 0.  0.
     999903    2    3    3    0    0 -0.54409294208E-01  0.11028279813E+00 -0.46822222319E-01  0.13303986643E+00  0.19611697935E-01 0.  0.
         14    1    1    2    0    0  0.14585778666E-01 -0.18313750517E-01 -0.39691090546E-02  0.23746414971E-01  0.00000000000E+00 0. -1.
     999901    1    3    3    0    0  0.39823515542E-01 -0.91969047617E-01  0.50791331373E-01  0.88714371860E+00  0.88000000000E+00 0. -1.
        -11    1    4    4    0    0 -0.11891956640E-01  0.11409863423E-01 -0.26508516774E-02  0.16700052445E-01  0.51100000000E-03 0. -1.
         11    1    4    4    0    0 -0.42517337568E-01  0.98872934712E-01 -0.44171370641E-01  0.11633981398E+00  0.51100000000E-03 0.  1.
</event>
<event>
 8    1  0.1126407E+005  0.1043930E+01  0.7957747E-01            NaN
         13   -1    0    0    0    0  0.00000000000E+00  0.00000000000E+00  0.74505805969E-08  0.10566000000E+00  0.10566000000E+00 0.  1.
     999900   -1    0    0    0    0 -0.00000000000E+00 -0.00000000000E+00 -0.74505805969E-08  0.93827000000E+00  0.93827000000E+00 0.  1.
     999902    2    1    2    0    0  0.17671249040E-01  0.13667571901E-02  0.16097901320E-01  0.10199866607E+01  0.10197055970E+01 0.  0.
     999903    2    3    3    0    0  0.86001156393E-01 -0.71071528317E-01 -0.64925754326E-01  0.13067169167E+00  0.20307052729E-01 0.  0.
         14    1    1    2    0    0 -0.17671249040E-01 -0.13667571901E-02 -0.16097901320E-01  0.23943339257E-01  0.00000000000E+00 0. -1.
     999901    1    3    3    0    0 -0.68329907353E-01  0.72438285507E-01  0.81023655646E-01  0.88931496907E+00  0.88000000000E+00 0. -1.
        -11    1    4    4    0    0  0.25801646456E-01 -0.25721192614E-01 -0.31723733474E-01  0.48311086677E-01  0.51100000000E-03 0. -1.
         11    1    4    4    0    0  0.60199509937E-01 -0.45350335703E-01 -0.33202020852E-01  0.82360604992E-01  0.51100000000E-03 0.  1.
</event>
<event>
 7    1  0.1456241E+005  0.1043930E+01  0.7957747E-01            NaN
         13   -1    0    0    0    0  0.00000000000E+00  0.00000000000E+00  0.74505805969E-08  0.10566000000E+00  0.10566000000E+00 0. -1.
     999900   -1    0    0    0    0 -0.00000000000E+00 -0.00000000000E+00 -0.74505805969E-08  0.93827000000E+00  0.93827000000E+00 0. -1.
     999903    2    1    2    0    0 -0.19214090165E-01  0.98431679155E-01 -0.64951598920E-01  0.12114386379E+00  0.19978708916E-01 0.  0.
         14    1    1    2    0    0 -0.84217485967E-02 -0.26639466790E-01  0.26633206443E-01  0.38599413541E-01  0.00000000000E+00 0. -1.
     999901    1    1    2    0    0  0.27635838762E-01 -0.71792212365E-01  0.38318392477E-01  0.88418672267E+00  0.88000000000E+00 0.  1.
        -11    1    3    3    0    0 -0.37660193287E-02  0.45556247001E-01 -0.19394532130E-01  0.49658468965E-01  0.51100000000E-03 0.  1.
         11    1    3    3    0    0 -0.15448070837E-01  0.52875432154E-01 -0.45557066789E-01  0.71485394827E-01  0.51100000000E-03 0. -1.
</event>
<event>
 8    1  0.1126407E+005  0.1043930E+01  0.7957747E-01            NaN
         13   -1    0    0    0    0  0.00000000000E+00  0.00000000000E+00  0.74505805969E-08  0.10566000000E+00  0.10566000000E+00 0. -1.
     999900   -1    0    0    0    0 -0.00000000000E+00 -0.00000000000E+00 -0.74505805969E-08  0.93827000000E+00  0.93827000000E+00 0. -1.
     999902    2    1    2    0    0 -0.22940757645E-01  0.63960594136E-02 -0.47902831750E-03  0.10201094751E+01  0.10198313213E+01 0.  0.
     999903    2    3    3    0    0  0.11296777330E+00  0.46477237182E-01  0.33080402548E-01  0.12814318372E+00  0.20112461802E-01 0.  0.
         14    1    1    2    0    0  0.22940757645E-01 -0.63960594136E-02  0.47902831750E-03  0.23820524878E-01  0.00000000000E+00 0.  1.
     999901    1    3    3    0    0 -0.13590853095E+00 -0.40081177768E-01 -0.33559430866E-01  0.89196629140E+00  0.88000000000E+00 0. -1.
        -11    1    4    4    0    0  0.46338660171E-01  0.20009939938E-01  0.35413223250E-02  0.50601098877E-01  0.51100000000E-03 0.  1.
         11    1    4    4    0    0  0.66629113134E-01  0.26467297244E-01  0.29539080223E-01  0.77542084843E-01  0.51100000000E-03 0. -1.
</event>
<event>
 8    1  0.1126407E+005  0.1043930E+01  0.7957747E-01            NaN
         13   -1    0    0    0    0  0.00000000000E+00  0.00000000000E+00  0.74505805969E-08  0.10566000000E+00  0.10566000000E+00 0. -1.
     999900   -1    0    0    0    0 -0.00000000000E+00 -0.00000000000E+00 -0.74505805969E-08  0.93827000000E+00  0.93827000000E+00 0. -1.
     999902    2    1    2    0    0  0.20654477862E-01  0.76399820174E-03  0.11662440871E-01  0.10201980874E+01  0.10199220234E+01 0.  0.
     999903    2    3    3    0    0 -0.99394471227E-01  0.78411948548E-01  0.10109262294E-01  0.12865820229E+00  0.20567966494E-01 0.  0.
         14    1    1    2    0    0 -0.20654477862E-01 -0.76399820174E-03 -0.11662440871E-01  0.23731912609E-01  0.00000000000E+00 0.  1.
     999901    1    3    3    0    0  0.12004894909E+00 -0.77647950346E-01  0.15531785765E-02  0.89153988511E+00  0.88000000000E+00 0. -1.
        -11    1    4    4    0    0 -0.61764048107E-01  0.56038395090E-01 -0.13181036568E-02  0.83409219401E-01  0.51100000000E-03 0. -1.
         11    1    4    4    0    0 -0.37630423120E-01  0.22373553457E-01  0.11427365951E-01  0.45248982884E-01  0.51100000000E-03 0.  1.
</event>
<event>
 7    1  0.1593654E+005  0.1043930E+01  0.7957747E-01            NaN
         13   -1    0    0    0    0  0.00000000000E+00  0.00000000000E+00  0.74505805969E-08  0.10566000000E+00  0.10566000000E+00 0.  1.
     999900   -1    0    0    0    0 -0.00000000000E+00 -0.00000000000E+00 -0.74505805969E-08  0.93827000000E+00  0.93827000000E+00 0.  1.
     999903    2    1    2    0    0 -0.79281688831E-01  0.55428048505E-01  0.95279646748E-02  0.99317298985E-01  0.20378641314E-01 0.  0.
         14    1    1    2    0    0  0.17494131980E-01  0.51679042464E-01  0.11327198829E-01  0.55723186529E-01  0.00000000000E+00 0.  1.
     999901    1    1    2    0    0  0.61787556852E-01 -0.10710709097E+00 -0.20855163504E-01  0.88888951449E+00  0.88000000000E+00 0.  1.
        -11    1    3    3    0    0 -0.49503247613E-01  0.46104901788E-01  0.62707235479E-02  0.67939801206E-01  0.51100000000E-03 0.  1.
         11    1    3    3    0    0 -0.29778441219E-01  0.93231467170E-02  0.32572411269E-02  0.31377497779E-01  0.51100000000E-03 0. -1.
</event>
<event>
 8    1  0.1126407E+005  0.1043930E+01  0.7957747E-01            NaN
         13   -1    0    0    0    0  0.00000000000E+00  0.00000000000E+00  0.74505805969E-08  0.10566000000E+00  0.10566000000E+00 0. -1.
     999900   -1    0    0    0    0 -0.00000000000E+00 -0.00000000000E+00 -0.74505805969E-08  0.93827000000E+00  0.93827000000E+00 0.  1.
     999902    2    1    2    0    0 -0.13836490222E-01  0.14571169401E-01 -0.10143927648E-01  0.10214207417E+01  0.10211726910E+01 0.  0.
     999903    2    3    3    0    0  0.18870317654E-01 -0.23404644360E-01 -0.12760976660E+00  0.13220191545E+00  0.17006694268E-01 0.  0.
         14    1    1    2    0    0  0.13836490222E-01 -0.14571169401E-01  0.10143927648E-01  0.22509258262E-01  0.00000000000E+00 0.  1.
     999901    1    3    3    0    0 -0.32706807876E-01  0.37975813761E-01  0.11746583895E+00  0.88921882629E+00  0.88000000000E+00 0. -1.
        -11    1    4    4    0    0  0.19561908853E-01 -0.12458792494E-01 -0.77190990041E-01  0.80601487908E-01  0.51100000000E-03 0.  1.
         11    1    4    4    0    0 -0.69159119904E-03 -0.10945851866E-01 -0.50418776559E-01  0.51600427538E-01  0.51100000000E-03 0. -1.
</event>
<event>
 8    1  0.1129423E+005  0.1043930E+01  0.7957747E-01            NaN
         13   -1    0    0    0    0  0.00000000000E+00  0.00000000000E+00  0.74505805969E-08  0.10566000000E+00  0.10566000000E+00 0.  1.
     999900   -1    0    0    0    0 -0.00000000000E+00 -0.00000000000E+00 -0.74505805969E-08  0.93827000000E+00  0.93827000000E+00 0. -1.
     999902    2    1    2    0    0  0.32365794324E-02 -0.18624337204E-01  0.15788111371E-01  0.10193006305E+01  0.10190030272E+01 0.  0.
     999903    2    3    3    0    0 -0.13924572457E-02  0.20492414461E-01 -0.12422841514E+00  0.12736107202E+00  0.19138065438E-01 0.  0.
         14    1    1    2    0    0 -0.32365794324E-02  0.18624337204E-01 -0.15788111371E-01  0.24629369528E-01  0.00000000000E+00 0. -1.
     999901    1    3    3    0    0  0.46290366781E-02 -0.39116751665E-01  0.14001652651E+00  0.89193955846E+00  0.88000000000E+00 0.  1.
        -11    1    4    4    0    0  0.82911555230E-02  0.14292405711E-01 -0.76251597572E-01  0.78022966966E-01  0.51100000000E-03 0. -1.
         11    1    4    4    0    0 -0.96836127687E-02  0.62000087501E-02 -0.47976817570E-01  0.49338105050E-01  0.51100000000E-03 0.  1.
</event>
<event>
 8    1  0.1126407E+005  0.1043930E+01  0.7957747E-01            NaN
         13   -1    0    0    0    0  0.00000000000E+00  0.00000000000E+00  0.74505805969E-08  0.10566000000E+00  0.10566000000E+00 0.  1.
     999900   -1    0    0    0    0 -0.00000000000E+00 -0.00000000000E+00 -0.74505805969E-08  0.93827000000E+00  0.93827000000E+00 0. -1.
     999902    2    1    2    0    0  0.31205098257E-02 -0.21201023691E-01  0.14684869109E-01  0.10179518098E+01  0.10176202733E+01 0.  0.
     999903    2    3    3    0    0 -0.10332097087E+00 -0.69064159400E-01  0.31842786808E-01  0.13008072525E+00  0.21493042513E-01 0.  0.
         14    1    1    2    0    0 -0.31205098257E-02  0.21201023691E-01 -0.14684869109E-01  0.25978190235E-01  0.00000000000E+00 0. -1.
     999901    1    3    3    0    0  0.10644148069E+00  0.47863135709E-01 -0.17157917699E-01  0.88787108451E+00  0.88000000000E+00 0. -1.
        -11    1    4    4    0    0 -0.76469936222E-01 -0.60959658099E-01  0.21127885233E-01  0.10005188512E+00  0.51100000000E-03 0.  1.
         11    1    4    4    0    0 -0.26851034644E-01 -0.81045013010E-02  0.10714901576E-01  0.30028840130E-01  0.51100000000E-03 0. -1.
</event>
<event>
 8    1  0.1126407E+005  0.1043930E+01  0.7957747E-01            NaN
         13   -1    0    0    0    0  0.00000000000E+00  0.00000000000E+00  0.74505805969E-08  0.10566000000E+00  0.10566000000E+00 0.  1.
     999900   -1    0    0    0    0 -0.00000000000E+00 -0.00000000000E+00 -0.74505805969E-08  0.93827000000E+00  0.93827000000E+00 0.  1.
     999902    2    1    2    0    0  0.32748071154E-01 -0.75494720828E-02 -0.57613567659E-02  0.10098327285E+01  0.10092569126E+01 0.  0.
     999903    2    3    3    0    0  0.68849521115E-02 -0.26597205357E-01 -0.11737604741E+00  0.12220129808E+00  0.20030148533E-01 0.  0.
         14    1    1    2    0    0 -0.32748071154E-01  0.75494720828E-02  0.57613567659E-02  0.34097271516E-01  0.00000000000E+00 0.  1.
     999901    1    3    3    0    0  0.25863119043E-01  0.19047733274E-01  0.11161469064E+00  0.88763143040E+00  0.88000000000E+00 0. -1.
        -11    1    4    4    0    0 -0.10089662624E-02  0.10495517141E-02 -0.33448006133E-01  0.33483575182E-01  0.51100000000E-03 0.  1.
         11    1    4    4    0    0  0.78939183739E-02 -0.27646757071E-01 -0.83928041273E-01  0.88717722901E-01  0.51100000000E-03 0. -1.
</event>
<event>
 8    1  0.1126407E+005  0.1043930E+01  0.7957747E-01            NaN
         13   -1    0    0    0    0  0.00000000000E+00  0.00000000000E+00  0.74505805969E-08  0.10566000000E+00  0.10566000000E+00 0.  1.
     999900   -1    0    0    0    0 -0.00000000000E+00 -0.00000000000E+00 -0.74505805969E-08  0.93827000000E+00  0.93827000000E+00 0. -1.
     999902    2    1    2    0    0 -0.34800835060E-02  0.23626131711E-01  0.50075965088E-02  0.10195295676E+01  0.10192375376E+01 0.  0.
     999903    2    3    3    0    0  0.83109712716E-02 -0.13315634867E-01 -0.12646000204E+00  0.12891884869E+00  0.19533536668E-01 0.  0.
         14    1    1    2    0    0  0.34800835060E-02 -0.23626131711E-01 -0.50075965088E-02  0.24400432447E-01  0.00000000000E+00 0. -1.
     999901    1    3    3    0    0 -0.11791054778E-01  0.36941766577E-01  0.13146759855E+00  0.89061071887E+00  0.88000000000E+00 0.  1.
        -11    1    4    4    0    0 -0.54328400172E-02 -0.60679511788E-03 -0.16884959268E-01  0.17755194210E-01  0.51100000000E-03 0. -1.
         11    1    4    4    0    0  0.13743811289E-01 -0.12708839749E-01 -0.10957504277E+00  0.11116365448E+00  0.51100000000E-03 0.  1.
</event>
<event>
 8    1  0.1126407E+005  0.1043930E+01  0.7957747E-01            NaN
         13   -1    0    0    0    0  0.00000000000E+00  0.00000000000E+00  0.74505805969E-08  0.10566000000E+00  0.10566000000E+00 0.  1.
     999900   -1    0    0    0    0 -0.00000000000E+00 -0.00000000000E+00 -0.74505805969E-08  0.93827000000E+00  0.93827000000E+00 0.  1.
     999902    2    1    2    0    0  0.20667007538E-01  0.14772580877E-01  0.52273151952E-02  0.10179939407E+01  0.10176634926E+01 0.  0.
     999903    2    3    3    0    0  0.51777846599E-01  0.11752109504E+00 -0.16646464160E-01  0.13119993777E+00  0.21075239572E-01 0.  0.
         14    1    1    2    0    0 -0.20667007538E-01 -0.14772580877E-01 -0.52273151952E-02  0.25936059271E-01  0.00000000000E+00 0.  1.
     999901    1    3    3    0    0 -0.31110839061E-01 -0.10274851416E+00  0.21873779355E-01  0.88679400296E+00  0.88000000000E+00 0. -1.
        -11    1    4    4    0    0  0.40966482374E-02  0.31192151718E-01 -0.56288033164E-02  0.31963688826E-01  0.51100000000E-03 0.  1.
         11    1    4    4    0    0  0.47681198361E-01  0.86328943321E-01 -0.11017660843E-01  0.99236248940E-01  0.51100000000E-03 0. -1.
</event>
<event>
 8    1  0.1126407E+005  0.1043930E+01  0.7957747E-01            NaN
         13   -1    0    0    0    0  0.00000000000E+00  0.00000000000E+00  0.74505805969E-08  0.10566000000E+00  0.10566000000E+00 0.  1.
     999900   -1    0    0    0    0 -0.00000000000E+00 -0.00000000000E+00 -0.74505805969E-08  0.93827000000E+00  0.93827000000E+00 0.  1.
     999902    2    1    2    0    0  0.21777713910E-01 -0.82350231063E-02 -0.59833063212E-02  0.10198907741E+01  0.10196074277E+01 0.  0.
     999903    2    3    3    0    0 -0.23805035128E-02  0.53450521523E-01  0.11558900667E+00  0.12906612625E+00  0.20847576220E-01 0.  0.
         14    1    1    2    0    0 -0.21777713910E-01  0.82350231063E-02  0.59833063212E-02  0.24039225928E-01  0.00000000000E+00 0. -1.
     999901    1    3    3    0    0  0.24158217422E-01 -0.61685544630E-01 -0.12157231299E+00  0.89082464782E+00  0.88000000000E+00 0.  1.
        -11    1    4    4    0    0 -0.49764193787E-02  0.31719357695E-01  0.45884267418E-01  0.56004549100E-01  0.51100000000E-03 0. -1.
         11    1    4    4    0    0  0.25959158659E-02  0.21731163828E-01  0.69704739249E-01  0.73061577148E-01  0.51100000000E-03 0.  1.
</event>
<event>
 8    1  0.1126407E+005  0.1043930E+01  0.7957747E-01            NaN
         13   -1    0    0    0    0  0.00000000000E+00  0.00000000000E+00  0.74505805969E-08  0.10566000000E+00  0.10566000000E+00 0. -1.
     999900   -1    0    0    0    0 -0.00000000000E+00 -0.00000000000E+00 -0.74505805969E-08  0.93827000000E+00  0.93827000000E+00 0. -1.
     999902    2    1    2    0    0  0.18384397468E-01  0.38091589976E-02 -0.15343686025E-01  0.10196828463E+01  0.10193945176E+01 0.  0.
     999903    2    3    3    0    0  0.89218803112E-01 -0.91728781266E-01  0.19581799068E-01  0.13099572442E+00  0.20056640314E-01 0.  0.
         14    1    1    2    0    0 -0.18384397468E-01 -0.38091589976E-02  0.15343686025E-01  0.24247153717E-01  0.00000000000E+00 0. -1.
     999901    1    3    3    0    0 -0.70834405643E-01  0.95537940264E-01 -0.34925485093E-01  0.88868712186E+00  0.88000000000E+00 0.  1.
        -11    1    4    4    0    0  0.40435961473E-01 -0.52030583682E-01  0.30760677336E-02  0.65969477278E-01  0.51100000000E-03 0. -1.
         11    1    4    4    0    0  0.48782841638E-01 -0.39698197584E-01  0.16505731334E-01  0.65026247144E-01  0.51100000000E-03 0.  1.
</event>
<event>
 8    1  0.1126407E+005  0.1043930E+01  0.7957747E-01            NaN
         13   -1    0    0    0    0  0.00000000000E+00  0.00000000000E+00  0.74505805969E-08  0.10566000000E+00  0.10566000000E+00 0. -1.
     999900   -1    0    0    0    0 -0.00000000000E+00 -0.00000000000E+00 -0.74505805969E-08  0.93827000000E+00  0.93827000000E+00 0.  1.
     999902    2    1    2    0    0  0.17208057464E-01  0.15663516629E-01  0.41717938519E-02  0.10202896350E+01  0.10200157216E+01 0.  0.
     999903    2    3    3    0    0 -0.92207185361E-01 -0.68913837056E-01  0.51864542926E-01  0.12821361666E+00  0.22305127557E-01 0.  0.
         14    1    1    2    0    0 -0.17208057464E-01 -0.15663516629E-01 -0.41717938519E-02  0.23640365031E-01  0.00000000000E+00 0. -1.
     999901    1    3    3    0    0  0.10941524282E+00  0.84577353686E-01 -0.47692749074E-01  0.89207601830E+00  0.88000000000E+00 0.  1.
        -11    1    4    4    0    0 -0.44605777103E-01 -0.23942158456E-01  0.13831650009E-01  0.52483120768E-01  0.51100000000E-03 0. -1.
         11    1    4    4    0    0 -0.47601408257E-01 -0.44971678600E-01  0.38032892917E-01  0.75730495897E-01  0.51100000000E-03 0.  1.
</event>
<event>
 8    1  0.1126407E+005  0.1043930E+01  0.7957747E-01            NaN
         13   -1    0    0    0    0  0.00000000000E+00  0.00000000000E+00  0.74505805969E-08  0.10566000000E+00  0.10566000000E+00 0. -1.
     999900   -1    0    0    0    0 -0.00000000000E+00 -0.00000000000E+00 -0.74505805969E-08  0.93827000000E+00  0.93827000000E+00 0. -1.
     999902    2    1    2    0    0  0.16163974619E-01  0.14758673139E-01 -0.62749296962E-02  0.10211601240E+01  0.10209062306E+01 0.  0.
     999903    2    3    3    0    0 -0.94236799117E-01 -0.79560447605E-01  0.30377601997E-01  0.12850798829E+00  0.19520891925E-01 0.  0.
         14    1    1    2    0    0 -0.16163974619E-01 -0.14758673139E-01  0.62749296962E-02  0.22769875955E-01  0.00000000000E+00 0. -1.
     999901    1    3    3    0    0  0.11040077374E+00  0.94319120744E-01 -0.36652531693E-01  0.89265213575E+00  0.88000000000E+00 0. -1.
        -11    1    4    4    0    0 -0.19353273836E-01 -0.14642446715E-01 -0.17162024297E-02  0.24334274712E-01  0.51100000000E-03 0. -1.
         11    1    4    4    0    0 -0.74883525281E-01 -0.64918000889E-01  0.32093804427E-01  0.10417371358E+00  0.51100000000E-03 0.  1.
</event>
<event>
 8    1  0.1126407E+005  0.1043930E+01  0.7957747E-01            NaN
         13   -1    0    0    0    0  0.00000000000E+00  0.00000000000E+00  0.74505805969E-08  0.10566000000E+00  0.10566000000E+00 0.  1.
     999900   -1    0    0    0    0 -0.00000000000E+00 -0.00000000000E+00 -0.74505805969E-08  0.93827000000E+00  0.93827000000E+00 0. -1.
     999902    2    1    2    0    0  0.75137923977E-02  0.15506684957E-01 -0.15787277411E-01  0.10205600945E+01  0.10202924845E+01 0.  0.
     999903    2    3    3    0    0 -0.50814885692E-01 -0.65565618517E-01 -0.99849728036E-01  0.13093014409E+00  0.17080149397E-01 0.  0.
         14    1    1    2    0    0 -0.75137923977E-02 -0.15506684957E-01  0.15787277411E-01  0.23369905490E-01  0.00000000000E+00 0.  1.
     999901    1    3    3    0    0  0.58328678090E-01  0.81072303474E-01  0.84062450625E-01  0.88962995042E+00  0.88000000000E+00 0. -1.
        -11    1    4    4    0    0 -0.76992547814E-02 -0.21662443264E-01 -0.30831224569E-01  0.38462520741E-01  0.51100000000E-03 0. -1.
         11    1    4    4    0    0 -0.43115630911E-01 -0.43903175253E-01 -0.69018503467E-01  0.92467623350E-01  0.51100000000E-03 0.  1.
</event>
<event>
 8    1  0.1126407E+005  0.1043930E+01  0.7957747E-01            NaN
         13   -1    0    0    0    0  0.00000000000E+00  0.00000000000E+00  0.74505805969E-08  0.10566000000E+00  0.10566000000E+00 0. -1.
     999900   -1    0    0    0    0 -0.00000000000E+00 -0.00000000000E+00 -0.74505805969E-08  0.93827000000E+00  0.93827000000E+00 0.  1.
     999902    2    1    2    0    0 -0.22346362186E-01 -0.39494498702E-02  0.79335069728E-02  0.10198904786E+01  0.10196071252E+01 0.  0.
     999903    2    3    3    0    0  0.48725182424E-01 -0.25803944495E-01  0.11621375049E+00  0.13014141591E+00  0.19777901218E-01 0.  0.
         14    1    1    2    0    0  0.22346362186E-01  0.39494498702E-02 -0.79335069728E-02  0.24039521420E-01  0.00000000000E+00 0.  1.
     999901    1    3    3    0    0 -0.71071544610E-01  0.21854494625E-01 -0.10828024352E+00  0.88974906267E+00  0.88000000000E+00 0.  1.
        -11    1    4    4    0    0  0.18349612340E-01 -0.19284803110E-01  0.64965820954E-01  0.70209906119E-01  0.51100000000E-03 0. -1.
         11    1    4    4    0    0  0.30375570083E-01 -0.65191413848E-02  0.51247929541E-01  0.59931509789E-01  0.51100000000E-03 0.  1.
</event>
<event>
 7    1  0.2618626E+005  0.1043930E+01  0.7957747E-01            NaN
         13   -1    0    0    0    0  0.00000000000E+00  0.00000000000E+00  0.74505805969E-08  0.10566000000E+00  0.10566000000E+00 0.  1.
     999900   -1    0    0    0    0 -0.00000000000E+00 -0.00000000000E+00 -0.74505805969E-08  0.93827000000E+00  0.93827000000E+00 0. -1.
     999903    2    1    2    0    0 -0.30400183475E-01  0.57895883907E-01  0.57415058068E-01  0.88992385045E-01  0.18629309549E-01 0.  0.
         14    1    1    2    0    0 -0.39139290141E-01  0.21387680464E-01  0.44251266606E-01  0.62829065763E-01  0.00000000000E+00 0.  1.
     999901    1    1    2    0    0  0.69539473616E-01 -0.79283564371E-01 -0.10166632467E+00  0.89210854919E+00  0.88000000000E+00 0. -1.
        -11    1    3    3    0    0 -0.22707519424E-01  0.23285347873E-01  0.26854332977E-01  0.42181218387E-01  0.51100000000E-03 0.  1.
         11    1    3    3    0    0 -0.76926640511E-02  0.34610536034E-01  0.30560725091E-01  0.46811166658E-01  0.51100000000E-03 0. -1.
</event>
<event>
 8    1  0.1126407E+005  0.1043930E+01  0.7957747E-01            NaN
         13   -1    0    0    0    0  0.00000000000E+00  0.00000000000E+00  0.74505805969E-08  0.10566000000E+00  0.10566000000E+00 0.  1.
     999900   -1    0    0    0    0 -0.00000000000E+00 -0.00000000000E+00 -0.74505805969E-08  0.93827000000E+00  0.93827000000E+00 0. -1.
     999902    2    1    2    0    0  0.13984081468E-01 -0.15824795954E-01 -0.11375403613E-01  0.10199429512E+01  0.10196608481E+01 0.  0.
     999903    2    3    3    0    0  0.36719989391E-01  0.11685013890E+00  0.33512357721E-01  0.12857632017E+00  0.20161334435E-01 0.  0.
         14    1    1    2    0    0 -0.13984081468E-01  0.15824795954E-01  0.11375403613E-01  0.23987048774E-01  0.00000000000E+00 0. -1.
     999901    1    3    3    0    0 -0.22735907923E-01 -0.13267493485E+00 -0.44887761335E-01  0.89136663106E+00  0.88000000000E+00 0.  1.
        -11    1    4    4    0    0  0.15069222057E-01  0.78856094453E-01  0.24325276903E-01  0.83888886649E-01  0.51100000000E-03 0. -1.
         11    1    4    4    0    0  0.21650767334E-01  0.37994044446E-01  0.91870808180E-02  0.44687433519E-01  0.51100000000E-03 0.  1.
</event>
<event>
 8    1  0.1126407E+005  0.1043930E+01  0.7957747E-01            NaN
         13   -1    0    0    0    0  0.00000000000E+00  0.00000000000E+00  0.74505805969E-08  0.10566000000E+00  0.10566000000E+00 0.  1.
     999900   -1    0    0    0    0 -0.00000000000E+00 -0.00000000000E+00 -0.74505805969E-08  0.93827000000E+00  0.93827000000E+00 0. -1.
     999902    2    1    2    0    0  0.14817992720E-01 -0.19217814634E-01 -0.28642000490E-02  0.10194943508E+01  0.10192014671E+01 0.  0.
     999903    2    3    3    0    0 -0.11567410572E+00  0.11383409409E-01 -0.50081577789E-01  0.12809427040E+00  0.19745807937E-01 0.  0.
         14    1    1    2    0    0 -0.14817992720E-01  0.19217814634E-01  0.28642000490E-02  0.24435649152E-01  0.00000000000E+00 0.  1.
     999901    1    3    3    0    0  0.13049209844E+00 -0.30601224043E-01  0.47217377740E-01  0.89140008045E+00  0.88000000000E+00 0.  1.
        -11    1    4    4    0    0 -0.96666665220E-01  0.79808995836E-02 -0.49191226354E-01  0.10875742179E+00  0.51100000000E-03 0.  1.
         11    1    4    4    0    0 -0.19007440498E-01  0.34025098257E-02 -0.89035143522E-03  0.19336848608E-01  0.51100000000E-03 0. -1.
</event>
<event>
 8    1  0.1126407E+005  0.1043930E+01  0.7957747E-01            NaN
         13   -1    0    0    0    0  0.00000000000E+00  0.00000000000E+00  0.74505805969E-08  0.10566000000E+00  0.10566000000E+00 0.  1.
     999900   -1    0    0    0    0 -0.00000000000E+00 -0.00000000000E+00 -0.74505805969E-08  0.93827000000E+00  0.93827000000E+00 0. -1.
     999902    2    1    2    0    0  0.82161063401E-02 -0.21760747126E-01 -0.73169780731E-02  0.10195461388E+01  0.10192545101E+01 0.  0.
     999903    2    3    3    0    0  0.55827447456E-01 -0.63897747649E-01 -0.99739059815E-01  0.13242483491E+00  0.19718793197E-01 0.  0.
         14    1    1    2    0    0 -0.82161063401E-02  0.21760747126E-01  0.73169780731E-02  0.24383861200E-01  0.00000000000E+00 0. -1.
     999901    1    3    3    0    0 -0.47611341116E-01  0.42137000523E-01  0.92422081742E-01  0.88712130389E+00  0.88000000000E+00 0.  1.
        -11    1    4    4    0    0  0.56882350538E-01 -0.58650256197E-01 -0.94386528772E-01  0.12483802421E+00  0.51100000000E-03 0.  1.
         11    1    4    4    0    0 -0.10549030820E-02 -0.52474914516E-02 -0.53525310431E-02  0.75868107011E-02  0.51100000000E-03 0. -1.
</event>
<event>
 8    1  0.1126407E+005  0.1043930E+01  0.7957747E-01            NaN
         13   -1    0    0    0    0  0.00000000000E+00  0.00000000000E+00  0.74505805969E-08  0.10566000000E+00  0.10566000000E+00 0. -1.
     999900   -1    0    0    0    0 -0.00000000000E+00 -0.00000000000E+00 -0.74505805969E-08  0.93827000000E+00  0.93827000000E+00 0.  1.
     999902    2    1    2    0    0  0.14344951917E-01 -0.16720171469E-01 -0.11499204358E-01  0.10190789743E+01  0.10187759235E+01 0.  0.
     999903    2    3    3    0    0 -0.27605831406E-01 -0.10722875766E+00  0.64887574046E-01  0.13015456110E+00  0.21673119590E-01 0.  0.
         14    1    1    2    0    0 -0.14344951917E-01  0.16720171469E-01  0.11499204358E-01  0.24851025739E-01  0.00000000000E+00 0. -1.
     999901    1    3    3    0    0  0.41950783323E-01  0.90508586192E-01 -0.76386778403E-01  0.88892441316E+00  0.88000000000E+00 0. -1.
        -11    1    4    4    0    0 -0.10442593070E-01 -0.79258753118E-01  0.44043128462E-01  0.91274618496E-01  0.51100000000E-03 0.  1.
         11    1    4    4    0    0 -0.17163238335E-01 -0.27970004543E-01  0.20844445583E-01  0.38879942605E-01  0.51100000000E-03 0. -1.
</event>
<event>
 8    1  0.1126407E+005  0.1043930E+01  0.7957747E-01            NaN
         13   -1    0    0    0    0  0.00000000000E+00  0.00000000000E+00  0.74505805969E-08  0.10566000000E+00  0.10566000000E+00 0. -1.
     999900   -1    0    0    0    0 -0.00000000000E+00 -0.00000000000E+00 -0.74505805969E-08  0.93827000000E+00  0.93827000000E+00 0.  1.
     999902    2    1    2    0    0  0.16303122154E-01  0.16225504563E-01  0.56969239494E-02  0.10202337190E+01  0.10199584931E+01 0.  0.
     999903    2    3    3    0    0 -0.50837419355E-01  0.11960596765E+00 -0.78463053538E-02  0.13153872548E+00  0.18730752484E-01 0.  0.
         14    1    1    2    0    0 -0.16303122154E-01 -0.16225504563E-01 -0.56969239494E-02  0.23696280990E-01  0.00000000000E+00 0.  1.
     999901    1    3    3    0    0  0.67140541509E-01 -0.10338046309E+00  0.13543229303E-01  0.88869499353E+00  0.88000000000E+00 0. -1.
        -11    1    4    4    0    0 -0.45542682676E-01  0.88125258878E-01 -0.29865948667E-02  0.99244032907E-01  0.51100000000E-03 0.  1.
         11    1    4    4    0    0 -0.52947366790E-02  0.31480708775E-01 -0.48597104871E-02  0.32294692574E-01  0.51100000000E-03 0. -1.
</event>
<event>
 8    1  0.1126407E+005  0.1043930E+01  0.7957747E-01            NaN
         13   -1    0    0    0    0  0.00000000000E+00  0.00000000000E+00  0.74505805969E-08  0.10566000000E+00  0.10566000000E+00 0.  1.
     999900   -1    0    0    0    0 -0.00000000000E+00 -0.00000000000E+00 -0.74505805969E-08  0.93827000000E+00  0.93827000000E+00 0. -1.
     999902    2    1    2    0    0 -0.14557834010E-01 -0.14127440462E-01 -0.12822582163E-01  0.10199313809E+01  0.10196490024E+01 0.  0.
     999903    2    3    3    0    0  0.12262874824E+00  0.19027494973E-01 -0.27186000515E-01  0.12856966091E+00  0.19779373666E-01 0.  0.
         14    1    1    2    0    0  0.14557834010E-01  0.14127440462E-01  0.12822582163E-01  0.23998619093E-01  0.00000000000E+00 0.  1.
     999901    1    3    3    0    0 -0.13718658225E+00 -0.33154935435E-01  0.14363418352E-01  0.89136172000E+00  0.88000000000E+00 0. -1.
        -11    1    4    4    0    0  0.67324381561E-01  0.70107629615E-02 -0.24226796131E-01  0.71895214873E-01  0.51100000000E-03 0. -1.
         11    1    4    4    0    0  0.55304366677E-01  0.12016732012E-01 -0.29592043840E-02  0.56674446035E-01  0.51100000000E-03 0.  1.
</event>
<event>
 8    1  0.1126407E+005  0.1043930E+01  0.7957747E-01            NaN
         13   -1    0    0    0    0  0.00000000000E+00  0.00000000000E+00  0.74505805969E-08  0.10566000000E+00  0.10566000000E+00 0. -1.
     999900   -1    0    0    0    0 -0.00000000000E+00 -0.00000000000E+00 -0.74505805969E-08  0.93827000000E+00  0.93827000000E+00 0.  1.
     999902    2    1    2    0    0 -0.99156263136E-02  0.68851411247E-02 -0.20457104259E-01  0.10201767281E+01  0.10199001611E+01 0.  0.
     999903    2    3    3    0    0 -0.69396176196E-01  0.10857028804E+00 -0.22690113200E-01  0.13232381724E+00  0.19784202156E-01 0.  0.
         14    1    1    2    0    0  0.99156263136E-02 -0.68851411247E-02  0.20457104259E-01  0.23753271946E-01  0.00000000000E+00 0. -1.
     999901    1    3    3    0    0  0.59480549882E-01 -0.10168514692E+00  0.22330089410E-02  0.88785291082E+00  0.88000000000E+00 0. -1.
        -11    1    4    4    0    0 -0.41984006890E-01  0.54413120053E-01 -0.41518887897E-02  0.68854511617E-01  0.51100000000E-03 0.  1.
         11    1    4    4    0    0 -0.27412169306E-01  0.54157167988E-01 -0.18538224410E-01  0.63469305620E-01  0.51100000000E-03 0. -1.
</event>
<event>
 8    1  0.1126407E+005  0.1043930E+01  0.7957747E-01            NaN
         13   -1    0    0    0    0  0.00000000000E+00  0.00000000000E+00  0.74505805969E-08  0.10566000000E+00  0.10566000000E+00 0.  1.
     999900   -1    0    0    0    0 -0.00000000000E+00 -0.00000000000E+00 -0.74505805969E-08  0.93827000000E+00  0.93827000000E+00 0.  1.
     999902    2    1    2    0    0  0.11823271743E-01 -0.13493556770E-01  0.15772759011E-01  0.10200418072E+01  0.10197620520E+01 0.  0.
     999903    2    3    3    0    0 -0.89609208727E-01 -0.71523660017E-01 -0.56444022677E-01  0.12938401402E+00  0.20220068160E-01 0.  0.
         14    1    1    2    0    0 -0.11823271743E-01  0.13493556770E-01 -0.15772759011E-01  0.23888192812E-01  0.00000000000E+00 0. -1.
     999901    1    3    3    0    0  0.10143248047E+00  0.58030103247E-01  0.72216781689E-01  0.89065779317E+00  0.88000000000E+00 0. -1.
        -11    1    4    4    0    0 -0.29640585981E-01 -0.21216474378E-01 -0.28483208951E-01  0.46262916418E-01  0.51100000000E-03 0.  1.
         11    1    4    4    0    0 -0.59968622745E-01 -0.50307185639E-01 -0.27960813726E-01  0.83121097600E-01  0.51100000000E-03 0. -1.
</event>
<event>
 8    1  0.1126407E+005  0.1043930E+01  0.7957747E-01            NaN
         13   -1    0    0    0    0  0.00000000000E+00  0.00000000000E+00  0.74505805969E-08  0.10566000000E+00  0.10566000000E+00 0. -1.
     999900   -1    0    0    0    0 -0.00000000000E+00 -0.00000000000E+00 -0.74505805969E-08  0.93827000000E+00  0.93827000000E+00 0.  1.
     999902    2    1    2    0    0  0.19592448248E-01  0.12999868950E-01 -0.30059633561E-02  0.10202256452E+01  0.10199502295E+01 0.  0.
     999903    2    3    3    0    0  0.32916155429E-01  0.36073951358E-01  0.11883232161E+00  0.13143179838E+00  0.27719915416E-01 0.  0.
         14    1    1    2    0    0 -0.19592448248E-01 -0.12999868950E-01  0.30059633561E-02  0.23704354806E-01  0.00000000000E+00 0.  1.
     999901    1    3    3    0    0 -0.13323707181E-01 -0.23074082408E-01 -0.12183828497E+00  0.88879384681E+00  0.88000000000E+00 0.  1.
        -11    1    4    4    0    0  0.19966422897E-01  0.32493539561E-01  0.60107869203E-01  0.71187816497E-01  0.51100000000E-03 0. -1.
         11    1    4    4    0    0  0.12949732533E-01  0.35804117972E-02  0.58724452409E-01  0.60243981882E-01  0.51100000000E-03 0.  1.
</event>
<event>
 8    1  0.1126407E+005  0.1043930E+01  0.7957747E-01            NaN
         13   -1    0    0    0    0  0.00000000000E+00  0.00000000000E+00  0.74505805969E-08  0.10566000000E+00  0.10566000000E+00 0.  1.
     999900   -1    0    0    0    0 -0.00000000000E+00 -0.00000000000E+00 -0.74505805969E-08  0.93827000000E+00  0.93827000000E+00 0. -1.
     999902    2    1    2    0    0  0.13287073182E-01 -0.19465646106E-01  0.26874029726E-02  0.10202091268E+01  0.10199333226E+01 0.  0.
     999903    2    3    3    0    0  0.10839952385E+00 -0.74899126986E-01  0.98024387901E-03  0.13334827891E+00  0.20505282645E-01 0.  0.
         14    1    1    2    0    0 -0.13287073182E-01  0.19465646106E-01 -0.26874029726E-02  0.23720873230E-01  0.00000000000E+00 0. -1.
     999901    1    3    3    0    0 -0.95112450667E-01  0.55433480879E-01  0.17071590936E-02  0.88686084786E+00  0.88000000000E+00 0.  1.
        -11    1    4    4    0    0  0.58073316954E-01 -0.36628508306E-01 -0.93087809747E-02  0.69289770435E-01  0.51100000000E-03 0.  1.
         11    1    4    4    0    0  0.50326206895E-01 -0.38270618680E-01  0.10289024854E-01  0.64058508475E-01  0.51100000000E-03 0. -1.
</event>
<event>
 8    1  0.1126407E+005  0.1043930E+01  0.7957747E-01            NaN
         13   -1    0    0    0    0  0.00000000000E+00  0.00000000000E+00  0.74505805969E-08  0.10566000000E+00  0.10566000000E+00 0. -1.
     999900   -1    0    0    0    0 -0.00000000000E+00 -0.00000000000E+00 -0.74505805969E-08  0.93827000000E+00  0.93827000000E+00 0.  1.
     999902    2    1    2    0    0  0.13664826426E-01 -0.19574633828E-01 -0.14859517052E-02  0.10200113499E+01  0.10197308724E+01 0.  0.
     999903    2    3    3    0    0  0.90118014701E-01 -0.96046750072E-01  0.53059515970E-02  0.13336643533E+00  0.20303156825E-01 0.  0.
         14    1    1    2    0    0 -0.13664826426E-01  0.19574633828E-01  0.14859517052E-02  0.23918650113E-01  0.00000000000E+00 0. -1.
     999901    1    3    3    0    0 -0.76453188275E-01  0.76472116244E-01 -0.67919033022E-02  0.88664491456E+00  0.88000000000E+00 0.  1.
        -11    1    4    4    0    0  0.73936041413E-01 -0.85905832756E-01 -0.68600313555E-03  0.11334496920E+00  0.51100000000E-03 0.  1.
         11    1    4    4    0    0  0.16181973288E-01 -0.10140917316E-01  0.59919547325E-02  0.20021466131E-01  0.51100000000E-03 0. -1.
</event>
<event>
 8    1  0.1126407E+005  0.1043930E+01  0.7957747E-01            NaN
         13   -1    0    0    0    0  0.00000000000E+00  0.00000000000E+00  0.74505805969E-08  0.10566000000E+00  0.10566000000E+00 0. -1.
     999900   -1    0    0    0    0 -0.00000000000E+00 -0.00000000000E+00 -0.74505805969E-08  0.93827000000E+00  0.93827000000E+00 0. -1.
     999902    2    1    2    0    0  0.13706658320E-01 -0.19380185631E-01 -0.38585414751E-02  0.10198810412E+01  0.10195974626E+01 0.  0.
     999903    2    3    3    0    0  0.86700297254E-01 -0.86805165208E-01 -0.47090197189E-01  0.13323388744E+00  0.21947752532E-01 0.  0.
         14    1    1    2    0    0 -0.13706658320E-01  0.19380185631E-01  0.38585414751E-02  0.24048958807E-01  0.00000000000E+00 0.  1.
     999901    1    3    3    0    0 -0.72993638934E-01  0.67424979577E-01  0.43231655714E-01  0.88664715375E+00  0.88000000000E+00 0.  1.
        -11    1    4    4    0    0  0.14380674925E-01 -0.15784558323E-01 -0.17578972109E-01  0.27662925987E-01  0.51100000000E-03 0. -1.
         11    1    4    4    0    0  0.72319622329E-01 -0.71020606885E-01 -0.29511225081E-01  0.10557096146E+00  0.51100000000E-03 0.  1.
</event>
<event>
 8    1  0.1126407E+005  0.1043930E+01  0.7957747E-01            NaN
         13   -1    0    0    0    0  0.00000000000E+00  0.00000000000E+00  0.74505805969E-08  0.10566000000E+00  0.10566000000E+00 0.  1.
     999900   -1    0    0    0    0 -0.00000000000E+00 -0.00000000000E+00 -0.74505805969E-08  0.93827000000E+00  0.93827000000E+00 0. -1.
     999902    2    1    2    0    0  0.13606231699E-01  0.14725866356E-01  0.15018314316E-01  0.10188794422E+01  0.10185714444E+01 0.  0.
     999903    2    3    3    0    0  0.44311254650E-01  0.67875243130E-01  0.10289554321E+00  0.13237503610E+00  0.19108151445E-01 0.  0.
         14    1    1    2    0    0 -0.13606231699E-01 -0.14725866356E-01 -0.15018314316E-01  0.25050557796E-01  0.00000000000E+00 0. -1.
     999901    1    3    3    0    0 -0.30705022952E-01 -0.53149376774E-01 -0.87877228892E-01  0.88650440611E+00  0.88000000000E+00 0. -1.
        -11    1    4    4    0    0  0.41890356575E-01  0.60052258612E-01  0.82037924604E-01  0.10996162027E+00  0.51100000000E-03 0. -1.
         11    1    4    4    0    0  0.24208980752E-02  0.78229845180E-02  0.20857618603E-01  0.22413415828E-01  0.51100000000E-03 0.  1.
</event>
<event>
 8    1  0.1126407E+005  0.1043930E+01  0.7957747E-01            NaN
         13   -1    0    0    0    0  0.00000000000E+00  0.00000000000E+00  0.74505805969E-08  0.10566000000E+00  0.10566000000E+00 0. -1.
     999900   -1    0    0    0    0 -0.00000000000E+00 -0.00000000000E+00 -0.74505805969E-08  0.93827000000E+00  0.93827000000E+00 0. -1.
     999902    2    1    2    0    0  0.23155603106E-02  0.97667823382E-02 -0.21142356166E-01  0.10205259174E+01  0.10202575151E+01 0.  0.
     999903    2    3    3    0    0  0.73854086836E-01 -0.67846585383E-02  0.10323013026E+00  0.12875227667E+00  0.20499541959E-01 0.  0.
         14    1    1    2    0    0 -0.23155603106E-02 -0.97667823382E-02  0.21142356166E-01  0.23404082572E-01  0.00000000000E+00 0. -1.
     999901    1    3    3    0    0 -0.71538526526E-01  0.16551440876E-01 -0.12437248642E+00  0.89177364076E+00  0.88000000000E+00 0. -1.
        -11    1    4    4    0    0  0.50908573035E-01  0.27854234633E-02  0.58721676037E-01  0.77768488155E-01  0.51100000000E-03 0.  1.
         11    1    4    4    0    0  0.22945513801E-01 -0.95700820016E-02  0.44508454221E-01  0.50983788514E-01  0.51100000000E-03 0. -1.
</event>
<event>
 8    1  0.1126407E+005  0.1043930E+01  0.7957747E-01            NaN
         13   -1    0    0    0    0  0.00000000000E+00  0.00000000000E+00  0.74505805969E-08  0.10566000000E+00  0.10566000000E+00 0. -1.
     999900   -1    0    0    0    0 -0.00000000000E+00 -0.00000000000E+00 -0.74505805969E-08  0.93827000000E+00  0.93827000000E+00 0. -1.
     999902    2    1    2    0    0 -0.52933275855E-02  0.21524290656E-01 -0.15260834778E-02  0.10217119142E+01  0.10214703091E+01 0.  0.
     999903    2    3    3    0    0  0.67940593717E-02  0.68356446376E-01  0.11217596384E+00  0.13307953168E+00  0.20197818776E-01 0.  0.
         14    1    1    2    0    0  0.52933275855E-02 -0.21524290656E-01  0.15260834778E-02  0.22218085785E-01  0.00000000000E+00 0. -1.
     999901    1    3    3    0    0 -0.12087386957E-01 -0.46832155720E-01 -0.11370204732E+00  0.88863238254E+00  0.88000000000E+00 0.  1.
        -11    1    4    4    0    0  0.31418143978E-02  0.22368085131E-01  0.56003917170E-01  0.60389585936E-01  0.51100000000E-03 0.  1.
         11    1    4    4    0    0  0.36522449739E-02  0.45988361245E-01  0.56172046671E-01  0.72689945739E-01  0.51100000000E-03 0. -1.
</event>
<event>
 8    1  0.1126407E+005  0.1043930E+01  0.7957747E-01            NaN
         13   -1    0    0    0    0  0.00000000000E+00  0.00000000000E+00  0.74505805969E-08  0.10566000000E+00  0.10566000000E+00 0. -1.
     999900   -1    0    0    0    0 -0.00000000000E+00 -0.00000000000E+00 -0.74505805969E-08  0.93827000000E+00  0.93827000000E+00 0. -1.
     999902    2    1    2    0    0  0.21669231218E-01 -0.10661123897E-01  0.31894657545E-02  0.10195704467E+01  0.10192794062E+01 0.  0.
     999903    2    3    3    0    0 -0.79311645145E-01  0.83268106716E-01  0.51135597720E-01  0.12753980300E+00  0.20679394196E-01 0.  0.
         14    1    1    2    0    0 -0.21669231218E-01  0.10661123897E-01 -0.31894657545E-02  0.24359553282E-01  0.00000000000E+00 0. -1.
     999901    1    3    3    0    0  0.10098087636E+00 -0.93929230613E-01 -0.47946131966E-01  0.89203064371E+00  0.88000000000E+00 0.  1.
        -11    1    4    4    0    0 -0.68412764104E-01  0.59979033753E-01  0.37264537481E-01  0.98319365626E-01  0.51100000000E-03 0.  1.
         11    1    4    4    0    0 -0.10898881041E-01  0.23289072963E-01  0.13871060239E-01  0.29220437378E-01  0.51100000000E-03 0. -1.
</event>
<event>
 8    1  0.1126407E+005  0.1043930E+01  0.7957747E-01            NaN
         13   -1    0    0    0    0  0.00000000000E+00  0.00000000000E+00  0.74505805969E-08  0.10566000000E+00  0.10566000000E+00 0.  1.
     999900   -1    0    0    0    0 -0.00000000000E+00 -0.00000000000E+00 -0.74505805969E-08  0.93827000000E+00  0.93827000000E+00 0. -1.
     999902    2    1    2    0    0 -0.20636046282E-01 -0.20496302982E-02  0.19076153876E-02  0.10231048617E+01  0.10228928935E+01 0.  0.
     999903    2    3    3    0    0  0.52562449963E-01  0.29905570961E-01 -0.11530154002E+00  0.13174795174E+00  0.20147539245E-01 0.  0.
         14    1    1    2    0    0  0.20636046282E-01  0.20496302982E-02 -0.19076153876E-02  0.20825138342E-01  0.00000000000E+00 0. -1.
     999901    1    3    3    0    0 -0.73198496245E-01 -0.31955201259E-01  0.11720915541E+00  0.89135690991E+00  0.88000000000E+00 0.  1.
        -11    1    4    4    0    0  0.25888869958E-01  0.26120046920E-01 -0.68036734204E-01  0.77341765954E-01  0.51100000000E-03 0.  1.
         11    1    4    4    0    0  0.26673580005E-01  0.37855240412E-02 -0.47264805814E-01  0.54406185790E-01  0.51100000000E-03 0. -1.
</event>
<event>
 8    1  0.1126407E+005  0.1043930E+01  0.7957747E-01            NaN
         13   -1    0    0    0    0  0.00000000000E+00  0.00000000000E+00  0.74505805969E-08  0.10566000000E+00  0.10566000000E+00 0. -1.
     999900   -1    0    0    0    0 -0.00000000000E+00 -0.00000000000E+00 -0.74505805969E-08  0.93827000000E+00  0.93827000000E+00 0.  1.
     999902    2    1    2    0    0 -0.51298544328E-02  0.24404281984E-01  0.16605642262E-02  0.10189371638E+01  0.10186306013E+01 0.  0.
     999903    2    3    3    0    0 -0.37609273897E-01  0.92891640468E-01  0.83422826088E-01  0.13190249799E+00  0.19889361763E-01 0.  0.
         14    1    1    2    0    0  0.51298544328E-02 -0.24404281984E-01 -0.16605642262E-02  0.24992836158E-01  0.00000000000E+00 0.  1.
     999901    1    3    3    0    0  0.32479419464E-01 -0.68487358483E-01 -0.81762261862E-01  0.88703466585E+00  0.88000000000E+00 0.  1.
        -11    1    4    4    0    0 -0.11501897128E-01  0.10534385677E-01  0.10133551175E-01  0.18606904621E-01  0.51100000000E-03 0. -1.
         11    1    4    4    0    0 -0.26107376769E-01  0.82357254790E-01  0.73289274912E-01  0.11329559337E+00  0.51100000000E-03 0.  1.
</event>
<event>
 8    1  0.1126407E+005  0.1043930E+01  0.7957747E-01            NaN
         13   -1    0    0    0    0  0.00000000000E+00  0.00000000000E+00  0.74505805969E-08  0.10566000000E+00  0.10566000000E+00 0. -1.
     999900   -1    0    0    0    0 -0.00000000000E+00 -0.00000000000E+00 -0.74505805969E-08  0.93827000000E+00  0.93827000000E+00 0.  1.
     999902    2    1    2    0    0  0.27494644451E-01  0.93566986942E-02  0.71622418341E-02  0.10140167756E+01  0.10135754635E+01 0.  0.
     999903    2    3    3    0    0 -0.44547414947E-01 -0.94328970624E-01 -0.60891301720E-01  0.12240471810E+00  0.19817606084E-01 0.  0.
         14    1    1    2    0    0 -0.27494644451E-01 -0.93566986942E-02 -0.71622418341E-02  0.29913224367E-01  0.00000000000E+00 0. -1.
     999901    1    3    3    0    0  0.72042059398E-01  0.10368566932E+00  0.68053543555E-01  0.89161205753E+00  0.88000000000E+00 0.  1.
        -11    1    4    4    0    0 -0.37154682627E-01 -0.60888670488E-01 -0.47113657098E-01  0.85486013131E-01  0.51100000000E-03 0. -1.
         11    1    4    4    0    0 -0.73927323200E-02 -0.33440300137E-01 -0.13777644622E-01  0.36918704971E-01  0.51100000000E-03 0.  1.
</event>
<event>
 8    1  0.1126407E+005  0.1043930E+01  0.7957747E-01            NaN
         13   -1    0    0    0    0  0.00000000000E+00  0.00000000000E+00  0.74505805969E-08  0.10566000000E+00  0.10566000000E+00 0. -1.
     999900   -1    0    0    0    0 -0.00000000000E+00 -0.00000000000E+00 -0.74505805969E-08  0.93827000000E+00  0.93827000000E+00 0.  1.
     999902    2    1    2    0    0 -0.17210445446E-01 -0.29881365741E-02  0.16917843195E-01  0.10196124793E+01  0.10193224545E+01 0.  0.
     999903    2    3    3    0    0  0.85745518737E-01 -0.10996248369E-01 -0.90875518647E-01  0.12704121088E+00  0.20196482665E-01 0.  0.
         14    1    1    2    0    0  0.17210445446E-01  0.29881365741E-02 -0.16917843195E-01  0.24317520659E-01  0.00000000000E+00 0.  1.
     999901    1    3    3    0    0 -0.10295596418E+00  0.80081117946E-02  0.10779336184E+00  0.89257126846E+00  0.88000000000E+00 0. -1.
        -11    1    4    4    0    0  0.49990323683E-01 -0.12840916595E-02 -0.64221928094E-01  0.81396551048E-01  0.51100000000E-03 0.  1.
         11    1    4    4    0    0  0.35755195054E-01 -0.97121567093E-02 -0.26653590553E-01  0.45644659837E-01  0.51100000000E-03 0. -1.
</event>
<event>
 8    1  0.1126407E+005  0.1043930E+01  0.7957747E-01            NaN
         13   -1    0    0    0    0  0.00000000000E+00  0.00000000000E+00  0.74505805969E-08  0.10566000000E+00  0.10566000000E+00 0.  1.
     999900   -1    0    0    0    0 -0.00000000000E+00 -0.00000000000E+00 -0.74505805969E-08  0.93827000000E+00  0.93827000000E+00 0.  1.
     999902    2    1    2    0    0 -0.54143495989E-02  0.17889458188E-01 -0.20783646866E-01  0.10159781150E+01  0.10155935321E+01 0.  0.
     999903    2    3    3    0    0  0.11886318936E+00 -0.21720764317E-01  0.24738622401E-01  0.12519971756E+00  0.21510937974E-01 0.  0.
         14    1    1    2    0    0  0.54143495989E-02 -0.17889458188E-01  0.20783646866E-01  0.27951884962E-01  0.00000000000E+00 0.  1.
     999901    1    3    3    0    0 -0.12427753895E+00  0.39610222505E-01 -0.45522269267E-01  0.89077839748E+00  0.88000000000E+00 0.  1.
        -11    1    4    4    0    0  0.57044084561E-01 -0.70559277347E-05  0.83156173385E-02  0.57649269258E-01  0.51100000000E-03 0. -1.
         11    1    4    4    0    0  0.61819104794E-01 -0.21713708389E-01  0.16423005062E-01  0.67550448302E-01  0.51100000000E-03 0.  1.
</event>
<event>
 8    1  0.1126407E+005  0.1043930E+01  0.7957747E-01            NaN
         13   -1    0    0    0    0  0.00000000000E+00  0.00000000000E+00  0.74505805969E-08  0.10566000000E+00  0.10566000000E+00 0.  1.
     999900   -1    0    0    0    0 -0.00000000000E+00 -0.00000000000E+00 -0.74505805969E-08  0.93827000000E+00  0.93827000000E+00 0.  1.
     999902    2    1    2    0    0  0.91111138938E-02  0.13966610696E-02  0.21162800602E-01  0.10208469502E+01  0.10205859437E+01 0.  0.
     999903    2    3    3    0    0 -0.39653804235E-02 -0.19255831511E-01 -0.12533563932E+00  0.12840125827E+00  0.19782551702E-01 0.  0.
         14    1    1    2    0    0 -0.91111138938E-02 -0.13966610696E-02 -0.21162800602E-01  0.23083049795E-01  0.00000000000E+00 0. -1.
     999901    1    3    3    0    0  0.13076494317E-01  0.20652492581E-01  0.14649843992E+00  0.89244569194E+00  0.88000000000E+00 0. -1.
        -11    1    4    4    0    0  0.51099995320E-02 -0.10642838550E-01 -0.92622990175E-01  0.93373773285E-01  0.51100000000E-03 0.  1.
         11    1    4    4    0    0 -0.90753799555E-02 -0.86129929611E-02 -0.32712649147E-01  0.35027484984E-01  0.51100000000E-03 0. -1.
</event>
<event>
 8    1  0.1126407E+005  0.1043930E+01  0.7957747E-01            NaN
         13   -1    0    0    0    0  0.00000000000E+00  0.00000000000E+00  0.74505805969E-08  0.10566000000E+00  0.10566000000E+00 0.  1.
     999900   -1    0    0    0    0 -0.00000000000E+00 -0.00000000000E+00 -0.74505805969E-08  0.93827000000E+00  0.93827000000E+00 0.  1.
     999902    2    1    2    0    0  0.16542184829E-01 -0.11758578517E-01  0.12853319722E-01  0.10199067638E+01  0.10196237988E+01 0.  0.
     999903    2    3    3    0    0 -0.77113055309E-01  0.80071679294E-01 -0.58768761784E-01  0.12730728882E+00  0.19886711650E-01 0.  0.
         14    1    1    2    0    0 -0.16542184829E-01  0.11758578517E-01 -0.12853319722E-01  0.24023236159E-01  0.00000000000E+00 0.  1.
     999901    1    3    3    0    0  0.93655240138E-01 -0.91830257810E-01  0.71622081506E-01  0.89259947502E+00  0.88000000000E+00 0. -1.
        -11    1    4    4    0    0 -0.15179945826E-01  0.19837017466E-01 -0.48007297667E-02  0.25441032693E-01  0.51100000000E-03 0. -1.
         11    1    4    4    0    0 -0.61933109483E-01  0.60234661828E-01 -0.53968032017E-01  0.10186625612E+00  0.51100000000E-03 0.  1.
</event>
<event>
 8    1  0.1126407E+005  0.1043930E+01  0.7957747E-01            NaN
         13   -1    0    0    0    0  0.00000000000E+00  0.00000000000E+00  0.74505805969E-08  0.10566000000E+00  0.10566000000E+00 0. -1.
     999900   -1    0    0    0    0 -0.00000000000E+00 -0.00000000000E+00 -0.74505805969E-08  0.93827000000E+00  0.93827000000E+00 0. -1.
     999902    2    1    2    0    0  0.67568863766E-02  0.40783823048E-02  0.13621056914E-01  0.10281876397E+01  0.10280671187E+01 0.  0.
     999903    2    3    3    0    0  0.80670090938E-01 -0.63703218199E-01  0.91717088095E-01  0.13905519893E+00  0.18935694353E-01 0.  0.
         14    1    1    2    0    0 -0.67568863766E-02 -0.40783823048E-02 -0.13621056914E-01  0.15742360280E-01  0.00000000000E+00 0.  1.
     999901    1    3    3    0    0 -0.73913204561E-01  0.67781600504E-01 -0.78096031181E-01  0.88913244079E+00  0.88000000000E+00 0. -1.
        -11    1    4    4    0    0  0.43853131551E-01 -0.24453739314E-01  0.51001719962E-01  0.71571775675E-01  0.51100000000E-03 0.  1.
         11    1    4    4    0    0  0.36816959387E-01 -0.39249478885E-01  0.40715368133E-01  0.67483423257E-01  0.51100000000E-03 0. -1.
</event>
<event>
 8    1  0.1126407E+005  0.1043930E+01  0.7957747E-01            NaN
         13   -1    0    0    0    0  0.00000000000E+00  0.00000000000E+00  0.74505805969E-08  0.10566000000E+00  0.10566000000E+00 0. -1.
     999900   -1    0    0    0    0 -0.00000000000E+00 -0.00000000000E+00 -0.74505805969E-08  0.93827000000E+00  0.93827000000E+00 0. -1.
     999902    2    1    2    0    0  0.17754711925E-01  0.10904363085E-01 -0.10289896026E-01  0.10206917365E+01  0.10204271675E+01 0.  0.
     999903    2    3    3    0    0 -0.34043940371E-01 -0.96430606872E-01 -0.77948552564E-01  0.13008430899E+00  0.19700222840E-01 0.  0.
         14    1    1    2    0    0 -0.17754711925E-01 -0.10904363085E-01  0.10289896026E-01  0.23238263491E-01  0.00000000000E+00 0. -1.
     999901    1    3    3    0    0  0.51798652296E-01  0.10733496996E+00  0.67658656538E-01  0.89060742752E+00  0.88000000000E+00 0. -1.
        -11    1    4    4    0    0 -0.17224462207E-01 -0.30132525571E-01 -0.17849803892E-01  0.39032394438E-01  0.51100000000E-03 0.  1.
         11    1    4    4    0    0 -0.16819478164E-01 -0.66298081301E-01 -0.60098748673E-01  0.91051914548E-01  0.51100000000E-03 0. -1.
</event>
<event>
 8    1  0.1126407E+005  0.1043930E+01  0.7957747E-01            NaN
         13   -1    0    0    0    0  0.00000000000E+00  0.00000000000E+00  0.74505805969E-08  0.10566000000E+00  0.10566000000E+00 0.  1.
     999900   -1    0    0    0    0 -0.00000000000E+00 -0.00000000000E+00 -0.74505805969E-08  0.93827000000E+00  0.93827000000E+00 0. -1.
     999902    2    1    2    0    0  0.87874916759E-02  0.21823580498E-01 -0.51265758758E-02  0.10198515770E+01  0.10195672948E+01 0.  0.
     999903    2    3    3    0    0  0.73020018988E-01 -0.75132505013E-04 -0.10743701635E+00  0.13132875935E+00  0.19302894382E-01 0.  0.
         14    1    1    2    0    0 -0.87874916759E-02 -0.21823580498E-01  0.51265758758E-02  0.24078423036E-01  0.00000000000E+00 0. -1.
     999901    1    3    3    0    0 -0.64232527312E-01  0.21898713003E-01  0.10231044047E+00  0.88852281762E+00  0.88000000000E+00 0.  1.
        -11    1    4    4    0    0  0.19757040166E-01 -0.61840210153E-02 -0.41204521404E-01  0.46115685587E-01  0.51100000000E-03 0. -1.
         11    1    4    4    0    0  0.53262978822E-01  0.61088885103E-02 -0.66232494946E-01  0.85213073760E-01  0.51100000000E-03 0.  1.
</event>
<event>
 8    1  0.1126407E+005  0.1043930E+01  0.7957747E-01            NaN
         13   -1    0    0    0    0  0.00000000000E+00  0.00000000000E+00  0.74505805969E-08  0.10566000000E+00  0.10566000000E+00 0. -1.
     999900   -1    0    0    0    0 -0.00000000000E+00 -0.00000000000E+00 -0.74505805969E-08  0.93827000000E+00  0.93827000000E+00 0. -1.
     999902    2    1    2    0    0  0.14154791191E-01 -0.12605054807E-01  0.18395070190E-01  0.10175174248E+01  0.10171745601E+01 0.  0.
     999903    2    3    3    0    0 -0.42316961447E-01 -0.12029726705E+00  0.19804692979E-02  0.12900399749E+00  0.19389466863E-01 0.  0.
         14    1    1    2    0    0 -0.14154791191E-01  0.12605054807E-01 -0.18395070190E-01  0.26412575180E-01  0.00000000000E+00 0. -1.
     999901    1    3    3    0    0  0.56471752638E-01  0.10769221224E+00  0.16414600892E-01  0.88851342733E+00  0.88000000000E+00 0. -1.
        -11    1    4    4    0    0 -0.24502951481E-01 -0.45926342580E-01  0.61236031815E-02  0.52415486366E-01  0.51100000000E-03 0.  1.
         11    1    4    4    0    0 -0.17814009966E-01 -0.74370924466E-01 -0.41431338836E-02  0.76588511125E-01  0.51100000000E-03 0. -1.
</event>
<event>
 8    1  0.1126407E+005  0.1043930E+01  0.7957747E-01            NaN
         13   -1    0    0    0    0  0.00000000000E+00  0.00000000000E+00  0.74505805969E-08  0.10566000000E+00  0.10566000000E+00 0. -1.
     999900   -1    0    0    0    0 -0.00000000000E+00 -0.00000000000E+00 -0.74505805969E-08  0.93827000000E+00  0.93827000000E+00 0. -1.
     999902    2    1    2    0    0 -0.64555591064E-02 -0.13319044613E-01 -0.17855667181E-01  0.10207374140E+01  0.10204738960E+01 0.  0.
     999903    2    3    3    0    0  0.11237986061E+00 -0.59188605900E-01  0.22949417057E-01  0.13063015729E+00  0.20125558615E-01 0.  0.
         14    1    1    2    0    0  0.64555591064E-02  0.13319044613E-01  0.17855667181E-01  0.23192585954E-01  0.00000000000E+00 0. -1.
     999901    1    3    3    0    0 -0.11883541972E+00  0.45869561288E-01 -0.40805084239E-01  0.89010725676E+00  0.88000000000E+00 0. -1.
        -11    1    4    4    0    0  0.91100549227E-01 -0.48831803704E-01  0.10530999768E-01  0.10389907699E+00  0.51100000000E-03 0. -1.
         11    1    4    4    0    0  0.21279311388E-01 -0.10356802196E-01  0.12418417289E-01  0.26731080297E-01  0.51100000000E-03 0.  1.
</event>
<event>
 8    1  0.1126407E+005  0.1043930E+01  0.7957747E-01            NaN
         13   -1    0    0    0    0  0.00000000000E+00  0.00000000000E+00  0.74505805969E-08  0.10566000000E+00  0.10566000000E+00 0. -1.
     999900   -1    0    0    0    0 -0.00000000000E+00 -0.00000000000E+00 -0.74505805969E-08  0.93827000000E+00  0.93827000000E+00 0.  1.
     999902    2    1    2    0    0  0.13993968524E-01  0.17632558168E-02  0.20886733620E-01  0.10187269076E+01  0.10184151002E+01 0.  0.
     999903    2    3    3    0    0  0.88878696010E-02  0.67922370376E-01  0.11074132320E+00  0.13166605964E+00  0.19490201976E-01 0.  0.
         14    1    1    2    0    0 -0.13993968524E-01 -0.17632558168E-02 -0.20886733620E-01  0.25203092418E-01  0.00000000000E+00 0. -1.
     999901    1    3    3    0    0  0.51060989231E-02 -0.66159114560E-01 -0.89854589581E-01  0.88706084794E+00  0.88000000000E+00 0.  1.
        -11    1    4    4    0    0  0.12905071532E-01  0.40492137881E-01  0.55993157928E-01  0.70296863067E-01  0.51100000000E-03 0. -1.
         11    1    4    4    0    0 -0.40172019306E-02  0.27430232496E-01  0.54748165272E-01  0.61369196571E-01  0.51100000000E-03 0.  1.
</event>
<event>
 8    1  0.1126407E+005  0.1043930E+01  0.7957747E-01            NaN
         13   -1    0    0    0    0  0.00000000000E+00  0.00000000000E+00  0.74505805969E-08  0.10566000000E+00  0.10566000000E+00 0.  1.
     999900   -1    0    0    0    0 -0.00000000000E+00 -0.00000000000E+00 -0.74505805969E-08  0.93827000000E+00  0.93827000000E+00 0. -1.
     999902    2    1    2    0    0  0.11323474027E-01 -0.29241046073E-02 -0.20943367517E-01  0.10199425847E+01  0.10196604729E+01 0.  0.
     999903    2    3    3    0    0  0.98163432913E-01  0.76744403459E-01  0.34653249023E-01  0.13034760187E+00  0.16244587437E-01 0.  0.
         14    1    1    2    0    0 -0.11323474027E-01  0.29241046073E-02  0.20943367517E-01  0.23987415342E-01  0.00000000000E+00 0.  1.
     999901    1    3    3    0    0 -0.86839958886E-01 -0.79668508067E-01 -0.55596616540E-01  0.88959498279E+00  0.88000000000E+00 0. -1.
        -11    1    4    4    0    0  0.27496075002E-01  0.15544421980E-01  0.14280486582E-01  0.34667803697E-01  0.51100000000E-03 0. -1.
         11    1    4    4    0    0  0.70667357911E-01  0.61199981480E-01  0.20372762441E-01  0.95679798169E-01  0.51100000000E-03 0.  1.
</event>
<event>
 8    1  0.1126407E+005  0.1043930E+01  0.7957747E-01            NaN
         13   -1    0    0    0    0  0.00000000000E+00  0.00000000000E+00  0.74505805969E-08  0.10566000000E+00  0.10566000000E+00 0.  1.
     999900   -1    0    0    0    0 -0.00000000000E+00 -0.00000000000E+00 -0.74505805969E-08  0.93827000000E+00  0.93827000000E+00 0. -1.
     999902    2    1    2    0    0  0.78859111242E-02  0.18963097181E-01 -0.11117942195E-01  0.10205763003E+01  0.10203090657E+01 0.  0.
     999903    2    3    3    0    0 -0.72765174753E-01 -0.15256322385E-01 -0.10612813944E+00  0.13113686794E+00  0.20153662780E-01 0.  0.
         14    1    1    2    0    0 -0.78859111242E-02 -0.18963097181E-01  0.11117942195E-01  0.23353699656E-01  0.00000000000E+00 0.  1.
     999901    1    3    3    0    0  0.80651085877E-01  0.34219419566E-01  0.95010197245E-01  0.88943943240E+00  0.88000000000E+00 0.  1.
        -11    1    4    4    0    0 -0.58144779845E-01 -0.40986427236E-02 -0.75155187009E-01  0.95111395483E-01  0.51100000000E-03 0. -1.
         11    1    4    4    0    0 -0.14620394908E-01 -0.11157679661E-01 -0.30972952432E-01  0.36025472461E-01  0.51100000000E-03 0.  1.
</event>
<event>
 8    1  0.1126407E+005  0.1043930E+01  0.7957747E-01            NaN
         13   -1    0    0    0    0  0.00000000000E+00  0.00000000000E+00  0.74505805969E-08  0.10566000000E+00  0.10566000000E+00 0.  1.
     999900   -1    0    0    0    0 -0.00000000000E+00 -0.00000000000E+00 -0.74505805969E-08  0.93827000000E+00  0.93827000000E+00 0.  1.
     999902    2    1    2    0    0 -0.97580298153E-03  0.10201275573E-01  0.20689789318E-01  0.10208413535E+01  0.10205802190E+01 0.  0.
     999903    2    3    3    0    0 -0.24048049979E-01 -0.12208101452E+00 -0.28694357830E-01  0.12928668505E+00  0.20238526304E-01 0.  0.
         14    1    1    2    0    0  0.97580298153E-03 -0.10201275573E-01 -0.20689789318E-01  0.23088646492E-01  0.00000000000E+00 0. -1.
     999901    1    3    3    0    0  0.23072246997E-01  0.13228229009E+00  0.49384147148E-01  0.89155466845E+00  0.88000000000E+00 0. -1.
        -11    1    4    4    0    0 -0.22770400465E-01 -0.86229302525E-01 -0.27720944957E-01  0.93395372806E-01  0.51100000000E-03 0.  1.
         11    1    4    4    0    0 -0.12776495135E-02 -0.35851711995E-01 -0.97341287286E-03  0.35891312248E-01  0.51100000000E-03 0. -1.
</event>
<event>
 8    1  0.1126407E+005  0.1043930E+01  0.7957747E-01            NaN
         13   -1    0    0    0    0  0.00000000000E+00  0.00000000000E+00  0.74505805969E-08  0.10566000000E+00  0.10566000000E+00 0. -1.
     999900   -1    0    0    0    0 -0.00000000000E+00 -0.00000000000E+00 -0.74505805969E-08  0.93827000000E+00  0.93827000000E+00 0.  1.
     999902    2    1    2    0    0  0.14991117125E-01 -0.42870558461E-02  0.17476594595E-01  0.10205089881E+01  0.10202401928E+01 0.  0.
     999903    2    3    3    0    0  0.24366597994E-01  0.70169956328E-01 -0.10334914206E+00  0.12908843361E+00  0.21569067141E-01 0.  0.
         14    1    1    2    0    0 -0.14991117125E-01  0.42870558461E-02 -0.17476594595E-01  0.23421011915E-01  0.00000000000E+00 0. -1.
     999901    1    3    3    0    0 -0.93754808687E-02 -0.74457012175E-01  0.12082573666E+00  0.89142055448E+00  0.88000000000E+00 0.  1.
        -11    1    4    4    0    0  0.71883972195E-02  0.38698595750E-01 -0.68967443694E-01  0.79410476502E-01  0.51100000000E-03 0.  1.
         11    1    4    4    0    0  0.17178200774E-01  0.31471360579E-01 -0.34381698369E-01  0.49677957106E-01  0.51100000000E-03 0. -1.
</event>
<event>
 8    1  0.1126407E+005  0.1043930E+01  0.7957747E-01            NaN
         13   -1    0    0    0    0  0.00000000000E+00  0.00000000000E+00  0.74505805969E-08  0.10566000000E+00  0.10566000000E+00 0.  1.
     999900   -1    0    0    0    0 -0.00000000000E+00 -0.00000000000E+00 -0.74505805969E-08  0.93827000000E+00  0.93827000000E+00 0.  1.
     999902    2    1    2    0    0  0.16225032448E-01 -0.14393791914E-01 -0.89168372467E-02  0.10204791384E+01  0.10202096495E+01 0.  0.
     999903    2    3    3    0    0 -0.12107386168E+00 -0.10607240677E-01  0.37087270558E-01  0.12863739109E+00  0.20017972242E-01 0.  0.
         14    1    1    2    0    0 -0.16225032448E-01  0.14393791914E-01  0.89168372467E-02  0.23450861607E-01  0.00000000000E+00 0.  1.
     999901    1    3    3    0    0  0.13729889413E+00 -0.37865512379E-02 -0.46004107805E-01  0.89184174730E+00  0.88000000000E+00 0.  1.
        -11    1    4    4    0    0 -0.79195539849E-01 -0.22768482833E-03  0.16810070801E-01  0.80961873581E-01  0.51100000000E-03 0. -1.
         11    1    4    4    0    0 -0.41878321828E-01 -0.10379555848E-01  0.20277199757E-01  0.47675517509E-01  0.51100000000E-03 0.  1.
</event>
<event>
 8    1  0.1126407E+005  0.1043930E+01  0.7957747E-01            NaN
         13   -1    0    0    0    0  0.00000000000E+00  0.00000000000E+00  0.74505805969E-08  0.10566000000E+00  0.10566000000E+00 0.  1.
     999900   -1    0    0    0    0 -0.00000000000E+00 -0.00000000000E+00 -0.74505805969E-08  0.93827000000E+00  0.93827000000E+00 0. -1.
     999902    2    1    2    0    0  0.94242132861E-02 -0.62762574024E-02 -0.21709562705E-01  0.10194450594E+01  0.10191509784E+01 0.  0.
     999903    2    3    3    0    0 -0.11448458515E+00  0.28256087690E-01  0.44667875270E-01  0.12762005558E+00  0.19660436813E-01 0.  0.
         14    1    1    2    0    0 -0.94242132861E-02  0.62762574024E-02  0.21709562705E-01  0.24484940593E-01  0.00000000000E+00 0.  1.
     999901    1    3    3    0    0  0.12390879843E+00 -0.34532345093E-01 -0.66377437974E-01  0.89182500383E+00  0.88000000000E+00 0. -1.
        -11    1    4    4    0    0 -0.88031327395E-01  0.30071543098E-01  0.34808296805E-01  0.99326184638E-01  0.51100000000E-03 0.  1.
         11    1    4    4    0    0 -0.26453257753E-01 -0.18154554079E-02  0.98595784651E-02  0.28293870937E-01  0.51100000000E-03 0. -1.
</event>
<event>
 8    1  0.1126407E+005  0.1043930E+01  0.7957747E-01            NaN
         13   -1    0    0    0    0  0.00000000000E+00  0.00000000000E+00  0.74505805969E-08  0.10566000000E+00  0.10566000000E+00 0. -1.
     999900   -1    0    0    0    0 -0.00000000000E+00 -0.00000000000E+00 -0.74505805969E-08  0.93827000000E+00  0.93827000000E+00 0.  1.
     999902    2    1    2    0    0 -0.57039437871E-02 -0.20875662589E-02 -0.23263086918E-01  0.10198870359E+01  0.10196036004E+01 0.  0.
     999903    2    3    3    0    0  0.79879739310E-01 -0.78770389367E-01  0.59510914803E-01  0.12856422263E+00  0.20041541027E-01 0.  0.
         14    1    1    2    0    0  0.57039437871E-02  0.20875662589E-02  0.23263086918E-01  0.24042964055E-01  0.00000000000E+00 0. -1.
     999901    1    3    3    0    0 -0.85583683097E-01  0.76682823109E-01 -0.82774001721E-01  0.89132281331E+00  0.88000000000E+00 0.  1.
        -11    1    4    4    0    0  0.18404315610E-01 -0.17636835188E-01  0.23532240765E-01  0.34695882536E-01  0.51100000000E-03 0. -1.
         11    1    4    4    0    0  0.61475423700E-01 -0.61133554179E-01  0.35978674038E-01  0.93868340095E-01  0.51100000000E-03 0.  1.
</event>
<event>
 8    1  0.1126407E+005  0.1043930E+01  0.7957747E-01            NaN
         13   -1    0    0    0    0  0.00000000000E+00  0.00000000000E+00  0.74505805969E-08  0.10566000000E+00  0.10566000000E+00 0. -1.
     999900   -1    0    0    0    0 -0.00000000000E+00 -0.00000000000E+00 -0.74505805969E-08  0.93827000000E+00  0.93827000000E+00 0.  1.
     999902    2    1    2    0    0 -0.15502893732E-01 -0.12958945280E-01 -0.10592833612E-01  0.10211159232E+01  0.10208610319E+01 0.  0.
     999903    2    3    3    0    0  0.12543451956E+00 -0.27182744867E-02 -0.25850631561E-01  0.12971195966E+00  0.20389448576E-01 0.  0.
         14    1    1    2    0    0  0.15502893732E-01  0.12958945280E-01  0.10592833612E-01  0.22814076812E-01  0.00000000000E+00 0. -1.
     999901    1    3    3    0    0 -0.14093741329E+00 -0.10240670793E-01  0.15257797949E-01  0.89140396353E+00  0.88000000000E+00 0.  1.
        -11    1    4    4    0    0  0.82463808876E-01  0.68669831732E-02 -0.12408380390E-01  0.83675947901E-01  0.51100000000E-03 0.  1.
         11    1    4    4    0    0  0.42970710680E-01 -0.95852576600E-02 -0.13442251171E-01  0.46036011755E-01  0.51100000000E-03 0. -1.
</event>
<event>
 8    1  0.1126407E+005  0.1043930E+01  0.7957747E-01            NaN
         13   -1    0    0    0    0  0.00000000000E+00  0.00000000000E+00  0.74505805969E-08  0.10566000000E+00  0.10566000000E+00 0. -1.
     999900   -1    0    0    0    0 -0.00000000000E+00 -0.00000000000E+00 -0.74505805969E-08  0.93827000000E+00  0.93827000000E+00 0. -1.
     999902    2    1    2    0    0  0.13419463298E-01  0.73335213658E-02  0.17198960049E-01  0.10209155098E+01  0.10206560691E+01 0.  0.
     999903    2    3    3    0    0 -0.42874848340E-01 -0.98444524761E-01 -0.68236355222E-01  0.12869511236E+00  0.19407593798E-01 0.  0.
         14    1    1    2    0    0 -0.13419463298E-01 -0.73335213658E-02 -0.17198960049E-01  0.23014490166E-01  0.00000000000E+00 0.  1.
     999901    1    3    3    0    0  0.56294311637E-01  0.10577804613E+00  0.85435315271E-01  0.89222039747E+00  0.88000000000E+00 0.  1.
        -11    1    4    4    0    0 -0.15591903788E-01 -0.59465450278E-01 -0.36405807482E-01  0.71448521188E-01  0.51100000000E-03 0. -1.
         11    1    4    4    0    0 -0.27282944551E-01 -0.38979074483E-01 -0.31830547739E-01  0.57246591177E-01  0.51100000000E-03 0.  1.
</event>
<event>
 8    1  0.1126407E+005  0.1043930E+01  0.7957747E-01            NaN
         13   -1    0    0    0    0  0.00000000000E+00  0.00000000000E+00  0.74505805969E-08  0.10566000000E+00  0.10566000000E+00 0.  1.
     999900   -1    0    0    0    0 -0.00000000000E+00 -0.00000000000E+00 -0.74505805969E-08  0.93827000000E+00  0.93827000000E+00 0. -1.
     999902    2    1    2    0    0 -0.89783948254E-02 -0.14951533819E-01  0.14678724185E-01  0.10211347180E+01  0.10208802513E+01 0.  0.
     999903    2    3    3    0    0  0.75200162132E-01 -0.84304076722E-02 -0.10290513174E+00  0.12930821150E+00  0.20124891693E-01 0.  0.
         14    1    1    2    0    0  0.89783948254E-02  0.14951533819E-01 -0.14678724185E-01  0.22795281987E-01  0.00000000000E+00 0. -1.
     999901    1    3    3    0    0 -0.84178556957E-01 -0.65211261465E-02  0.11758385593E+00  0.89182650651E+00  0.88000000000E+00 0.  1.
        -11    1    4    4    0    0  0.13397538790E-01 -0.95491907839E-02 -0.23029886952E-01  0.28307559137E-01  0.51100000000E-03 0.  1.
         11    1    4    4    0    0  0.61802623342E-01  0.11187831118E-02 -0.79875244788E-01  0.10100065237E+00  0.51100000000E-03 0. -1.
</event>
<event>
 8    1  0.1126407E+005  0.1043930E+01  0.7957747E-01            NaN
         13   -1    0    0    0    0  0.00000000000E+00  0.00000000000E+00  0.74505805969E-08  0.10566000000E+00  0.10566000000E+00 0.  1.
     999900   -1    0    0    0    0 -0.00000000000E+00 -0.00000000000E+00 -0.74505805969E-08  0.93827000000E+00  0.93827000000E+00 0. -1.
     999902    2    1    2    0    0  0.10840725466E-02 -0.16609336898E-01  0.19187105560E-01  0.10185294034E+01  0.10182126278E+01 0.  0.
     999903    2    3    3    0    0  0.26830736270E-01  0.88711989421E-01  0.87652243114E-01  0.12923589311E+00  0.20719432151E-01 0.  0.
         14    1    1    2    0    0 -0.10840725466E-02  0.16609336898E-01 -0.19187105560E-01  0.25400596553E-01  0.00000000000E+00 0. -1.
     999901    1    3    3    0    0 -0.25746663724E-01 -0.10532132632E+00 -0.68465137555E-01  0.88929351034E+00  0.88000000000E+00 0. -1.
        -11    1    4    4    0    0  0.14707723620E-01  0.64201963886E-01  0.72567394310E-01  0.98002536390E-01  0.51100000000E-03 0. -1.
         11    1    4    4    0    0  0.12123012651E-01  0.24510025535E-01  0.15084848804E-01  0.31233356719E-01  0.51100000000E-03 0.  1.
</event>
<event>
 8    1  0.1126407E+005  0.1043930E+01  0.7957747E-01            NaN
         13   -1    0    0    0    0  0.00000000000E+00  0.00000000000E+00  0.74505805969E-08  0.10566000000E+00  0.10566000000E+00 0. -1.
     999900   -1    0    0    0    0 -0.00000000000E+00 -0.00000000000E+00 -0.74505805969E-08  0.93827000000E+00  0.93827000000E+00 0.  1.
     999902    2    1    2    0    0  0.14124575108E-01 -0.13315060001E-01 -0.12623393748E-01  0.10207752054E+01  0.10205125552E+01 0.  0.
     999903    2    3    3    0    0  0.11953037971E-01 -0.50639401531E-01  0.11791157395E+00  0.13036114447E+00  0.19587358511E-01 0.  0.
         14    1    1    2    0    0 -0.14124575108E-01  0.13315060001E-01  0.12623393748E-01  0.23154794633E-01  0.00000000000E+00 0. -1.
     999901    1    3    3    0    0  0.21715371367E-02  0.37324341529E-01 -0.13053496770E+00  0.89041406089E+00  0.88000000000E+00 0.  1.
        -11    1    4    4    0    0 -0.45395173501E-02 -0.11175287853E-01  0.35720704193E-01  0.37705756926E-01  0.51100000000E-03 0. -1.
         11    1    4    4    0    0  0.16492555321E-01 -0.39464113677E-01  0.82190869756E-01  0.92655387547E-01  0.51100000000E-03 0.  1.
</event>
<event>
 8    1  0.1126407E+005  0.1043930E+01  0.7957747E-01            NaN
         13   -1    0    0    0    0  0.00000000000E+00  0.00000000000E+00  0.74505805969E-08  0.10566000000E+00  0.10566000000E+00 0. -1.
     999900   -1    0    0    0    0 -0.00000000000E+00 -0.00000000000E+00 -0.74505805969E-08  0.93827000000E+00  0.93827000000E+00 0. -1.
     999902    2    1    2    0    0  0.65668004318E-02  0.10715165412E-01 -0.20063305330E-01  0.10202556709E+01  0.10199809607E+01 0.  0.
     999903    2    3    3    0    0  0.13862587960E-01 -0.12639465860E+00  0.11545088227E-01  0.12904782595E+00  0.18768890537E-01 0.  0.
         14    1    1    2    0    0 -0.65668004318E-02 -0.10715165412E-01  0.20063305330E-01  0.23674329103E-01  0.00000000000E+00 0. -1.
     999901    1    3    3    0    0 -0.72957875287E-02  0.13710982401E+00 -0.31608393557E-01  0.89120784495E+00  0.88000000000E+00 0. -1.
        -11    1    4    4    0    0  0.37741517973E-02 -0.82776680868E-01  0.21677513004E-03  0.82864535417E-01  0.51100000000E-03 0. -1.
         11    1    4    4    0    0  0.10088436163E-01 -0.43617977732E-01  0.11328313097E-01  0.46183290531E-01  0.51100000000E-03 0.  1.
</event>
<event>
 8    1  0.1126407E+005  0.1043930E+01  0.7957747E-01            NaN
         13   -1    0    0    0    0  0.00000000000E+00  0.00000000000E+00  0.74505805969E-08  0.10566000000E+00  0.10566000000E+00 0. -1.
     999900   -1    0    0    0    0 -0.00000000000E+00 -0.00000000000E+00 -0.74505805969E-08  0.93827000000E+00  0.93827000000E+00 0. -1.
     999902    2    1    2    0    0  0.18149625126E-02  0.21473679872E-01 -0.77785154067E-02  0.10210189040E+01  0.10207618156E+01 0.  0.
     999903    2    3    3    0    0 -0.37519181556E-01 -0.12022713592E+00  0.17830919690E-01  0.12844838063E+00  0.17854735903E-01 0.  0.
         14    1    1    2    0    0 -0.18149625126E-02 -0.21473679872E-01  0.77785154067E-02  0.22911095960E-01  0.00000000000E+00 0.  1.
     999901    1    3    3    0    0  0.39334144069E-01  0.14170081579E+00 -0.25609435097E-01  0.89257052341E+00  0.88000000000E+00 0.  1.
        -11    1    4    4    0    0 -0.16689900701E-01 -0.52785619603E-01 -0.10734799985E-02  0.55374072476E-01  0.51100000000E-03 0.  1.
         11    1    4    4    0    0 -0.20829280855E-01 -0.67441516318E-01  0.18904399688E-01  0.73074308158E-01  0.51100000000E-03 0. -1.
</event>
<event>
 8    1  0.1126407E+005  0.1043930E+01  0.7957747E-01            NaN
         13   -1    0    0    0    0  0.00000000000E+00  0.00000000000E+00  0.74505805969E-08  0.10566000000E+00  0.10566000000E+00 0.  1.
     999900   -1    0    0    0    0 -0.00000000000E+00 -0.00000000000E+00 -0.74505805969E-08  0.93827000000E+00  0.93827000000E+00 0.  1.
     999902    2    1    2    0    0 -0.15975439520E-01  0.13352770490E-01  0.11907710773E-01  0.10199444893E+01  0.10196624228E+01 0.  0.
     999903    2    3    3    0    0 -0.77235878346E-01 -0.99624361371E-01  0.26956543439E-01  0.13048221295E+00  0.20212827104E-01 0.  0.
         14    1    1    2    0    0  0.15975439520E-01 -0.13352770490E-01 -0.11907710773E-01  0.23985510698E-01  0.00000000000E+00 0.  1.
     999901    1    3    3    0    0  0.61260438827E-01  0.11297713186E+00 -0.15048832666E-01  0.88946227635E+00  0.88000000000E+00 0. -1.
        -11    1    4    4    0    0 -0.13745667000E-01 -0.14471911015E-01 -0.28335235562E-02  0.20166049352E-01  0.51100000000E-03 0.  1.
         11    1    4    4    0    0 -0.63490211347E-01 -0.85152450356E-01  0.29790066995E-01  0.11031616360E+00  0.51100000000E-03 0. -1.
</event>
<event>
 8    1  0.1126407E+005  0.1043930E+01  0.7957747E-01            NaN
         13   -1    0    0    0    0  0.00000000000E+00  0.00000000000E+00  0.74505805969E-08  0.10566000000E+00  0.10566000000E+00 0. -1.
     999900   -1    0    0    0    0 -0.00000000000E+00 -0.00000000000E+00 -0.74505805969E-08  0.93827000000E+00  0.93827000000E+00 0. -1.
     999902    2    1    2    0    0  0.11757207434E-01  0.38784707968E-03 -0.20471718274E-01  0.10203191211E+01  0.10200458986E+01 0.  0.
     999903    2    3    3    0    0  0.12976380616E+00  0.27209080481E-02 -0.21310174231E-01  0.13243866548E+00  0.15486376503E-01 0.  0.
         14    1    1    2    0    0 -0.11757207434E-01 -0.38784707968E-03  0.20471718274E-01  0.23610878871E-01  0.00000000000E+00 0. -1.
     999901    1    3    3    0    0 -0.11800659873E+00 -0.23330609684E-02  0.83845595726E-03  0.88788045565E+00  0.88000000000E+00 0. -1.
        -11    1    4    4    0    0  0.38573811003E-01  0.10464312466E-02  0.76281597629E-03  0.38598923856E-01  0.51100000000E-03 0. -1.
         11    1    4    4    0    0  0.91189995161E-01  0.16744768015E-02 -0.22072990207E-01  0.93839741622E-01  0.51100000000E-03 0.  1.
</event>
<event>
 8    1  0.1126407E+005  0.1043930E+01  0.7957747E-01            NaN
         13   -1    0    0    0    0  0.00000000000E+00  0.00000000000E+00  0.74505805969E-08  0.10566000000E+00  0.10566000000E+00 0.  1.
     999900   -1    0    0    0    0 -0.00000000000E+00 -0.00000000000E+00 -0.74505805969E-08  0.93827000000E+00  0.93827000000E+00 0. -1.
     999902    2    1    2    0    0 -0.21019137136E-01  0.12700406325E-02 -0.10682191554E-01  0.10203180042E+01  0.10200447556E+01 0.  0.
     999903    2    3    3    0    0  0.11093642478E+00 -0.10825344732E-01 -0.61553243474E-01  0.12894466346E+00  0.20343205730E-01 0.  0.
         14    1    1    2    0    0  0.21019137136E-01 -0.12700406325E-02  0.10682191554E-01  0.23611995797E-01  0.00000000000E+00 0.  1.
     999901    1    3    3    0    0 -0.13195556192E+00  0.12095385365E-01  0.50871051921E-01  0.89137334075E+00  0.88000000000E+00 0. -1.
        -11    1    4    4    0    0  0.30237639972E-01 -0.11085744918E-01 -0.22505871657E-01  0.39293561705E-01  0.51100000000E-03 0. -1.
         11    1    4    4    0    0  0.80698784812E-01  0.26040018519E-03 -0.39047371817E-01  0.89651101752E-01  0.51100000000E-03 0.  1.
</event>
<event>
 8    1  0.1126407E+005  0.1043930E+01  0.7957747E-01            NaN
         13   -1    0    0    0    0  0.00000000000E+00  0.00000000000E+00  0.74505805969E-08  0.10566000000E+00  0.10566000000E+00 0.  1.
     999900   -1    0    0    0    0 -0.00000000000E+00 -0.00000000000E+00 -0.74505805969E-08  0.93827000000E+00  0.93827000000E+00 0.  1.
     999902    2    1    2    0    0  0.47825168033E-02 -0.11928547684E-01 -0.19990322761E-01  0.10201649896E+01  0.10198881459E+01 0.  0.
     999903    2    3    3    0    0  0.35190415161E-01 -0.11841432635E+00  0.39500358213E-01  0.13123135736E+00  0.20026803340E-01 0.  0.
         14    1    1    2    0    0 -0.47825168033E-02  0.11928547684E-01  0.19990322761E-01  0.23765010434E-01  0.00000000000E+00 0. -1.
     999901    1    3    3    0    0 -0.30407898358E-01  0.10648577867E+00 -0.59490680975E-01  0.88893363220E+00  0.88000000000E+00 0. -1.
        -11    1    4    4    0    0  0.24257051578E-01 -0.60825338899E-01  0.29252915975E-01  0.71722525175E-01  0.51100000000E-03 0.  1.
         11    1    4    4    0    0  0.10933363584E-01 -0.57588987451E-01  0.10247442238E-01  0.59508832187E-01  0.51100000000E-03 0. -1.
</event>
<event>
 8    1  0.1126407E+005  0.1043930E+01  0.7957747E-01            NaN
         13   -1    0    0    0    0  0.00000000000E+00  0.00000000000E+00  0.74505805969E-08  0.10566000000E+00  0.10566000000E+00 0.  1.
     999900   -1    0    0    0    0 -0.00000000000E+00 -0.00000000000E+00 -0.74505805969E-08  0.93827000000E+00  0.93827000000E+00 0. -1.
     999902    2    1    2    0    0  0.20712983794E-01  0.21985288691E-03  0.27908087101E-02  0.10230286927E+01  0.10228151551E+01 0.  0.
     999903    2    3    3    0    0  0.98942534441E-01  0.57441015919E-01  0.69398971119E-01  0.13520507769E+00  0.19367509129E-01 0.  0.
         14    1    1    2    0    0 -0.20712983794E-01 -0.21985288691E-03 -0.27908087101E-02  0.20901307285E-01  0.00000000000E+00 0. -1.
     999901    1    3    3    0    0 -0.78229550647E-01 -0.57221163032E-01 -0.66608162409E-01  0.88782361502E+00  0.88000000000E+00 0. -1.
        -11    1    4    4    0    0  0.51758000149E-01  0.23426818580E-01  0.25219373733E-01  0.62160955114E-01  0.51100000000E-03 0.  1.
         11    1    4    4    0    0  0.47184534292E-01  0.34014197339E-01  0.44179597386E-01  0.73044122578E-01  0.51100000000E-03 0. -1.
</event>
<event>
 8    1  0.1126407E+005  0.1043930E+01  0.7957747E-01            NaN
         13   -1    0    0    0    0  0.00000000000E+00  0.00000000000E+00  0.74505805969E-08  0.10566000000E+00  0.10566000000E+00 0. -1.
     999900   -1    0    0    0    0 -0.00000000000E+00 -0.00000000000E+00 -0.74505805969E-08  0.93827000000E+00  0.93827000000E+00 0.  1.
     999902    2    1    2    0    0  0.49804632156E-02 -0.18926711043E-01  0.12968033224E-01  0.10204524514E+01  0.10201823416E+01 0.  0.
     999903    2    3    3    0    0 -0.12072607724E-01 -0.10670982016E+00 -0.73506775920E-01  0.13170357001E+00  0.20244768970E-01 0.  0.
         14    1    1    2    0    0 -0.49804632156E-02  0.18926711043E-01 -0.12968033224E-01  0.23477548646E-01  0.00000000000E+00 0.  1.
     999901    1    3    3    0    0  0.17053070940E-01  0.87783109119E-01  0.86474809144E-01  0.88874888134E+00  0.88000000000E+00 0. -1.
        -11    1    4    4    0    0 -0.15439729443E-01 -0.47022340798E-01 -0.32836187187E-01  0.59396650490E-01  0.51100000000E-03 0. -1.
         11    1    4    4    0    0  0.33671217182E-02 -0.59687479364E-01 -0.40670588734E-01  0.72306919519E-01  0.51100000000E-03 0.  1.
</event>
<event>
 8    1  0.1126407E+005  0.1043930E+01  0.7957747E-01            NaN
         13   -1    0    0    0    0  0.00000000000E+00  0.00000000000E+00  0.74505805969E-08  0.10566000000E+00  0.10566000000E+00 0.  1.
     999900   -1    0    0    0    0 -0.00000000000E+00 -0.00000000000E+00 -0.74505805969E-08  0.93827000000E+00  0.93827000000E+00 0. -1.
     999902    2    1    2    0    0  0.72176343396E-02  0.46933849548E-02 -0.21336557993E-01  0.10209219402E+01  0.10206626461E+01 0.  0.
     999903    2    3    3    0    0 -0.72428488220E-01 -0.10226331037E+00 -0.31490220840E-01  0.13081726302E+00  0.20441422159E-01 0.  0.
         14    1    1    2    0    0 -0.72176343396E-02 -0.46933849548E-02  0.21336557993E-01  0.23008059779E-01  0.00000000000E+00 0.  1.
     999901    1    3    3    0    0  0.79646122560E-01  0.10695669533E+00  0.10153662847E-01  0.89010467721E+00  0.88000000000E+00 0.  1.
        -11    1    4    4    0    0 -0.42961444758E-01 -0.45482263395E-01 -0.20949815017E-01  0.65980890336E-01  0.51100000000E-03 0. -1.
         11    1    4    4    0    0 -0.29467043462E-01 -0.56781046978E-01 -0.10540405823E-01  0.64836372679E-01  0.51100000000E-03 0.  1.
</event>
<event>
 8    1  0.1126407E+005  0.1043930E+01  0.7957747E-01            NaN
         13   -1    0    0    0    0  0.00000000000E+00  0.00000000000E+00  0.74505805969E-08  0.10566000000E+00  0.10566000000E+00 0.  1.
     999900   -1    0    0    0    0 -0.00000000000E+00 -0.00000000000E+00 -0.74505805969E-08  0.93827000000E+00  0.93827000000E+00 0.  1.
     999902    2    1    2    0    0  0.49965724995E-02  0.12890425362E-01 -0.18872497905E-01  0.10205355566E+01  0.10202673779E+01 0.  0.
     999903    2    3    3    0    0 -0.67722440836E-02 -0.10287519908E+00  0.73394593853E-01  0.12809317695E+00  0.19797113407E-01 0.  0.
         14    1    1    2    0    0 -0.49965724995E-02 -0.12890425362E-01  0.18872497905E-01  0.23394443356E-01  0.00000000000E+00 0.  1.
     999901    1    3    3    0    0  0.11768816583E-01  0.11576562444E+00 -0.92267091758E-01  0.89244237969E+00  0.88000000000E+00 0.  1.
        -11    1    4    4    0    0 -0.11133118032E-01 -0.40472898464E-01  0.23754990653E-01  0.48234453756E-01  0.51100000000E-03 0. -1.
         11    1    4    4    0    0  0.43608739483E-02 -0.62402300617E-01  0.49639603200E-01  0.79858723197E-01  0.51100000000E-03 0.  1.
</event>
<event>
 8    1  0.1126407E+005  0.1043930E+01  0.7957747E-01            NaN
         13   -1    0    0    0    0  0.00000000000E+00  0.00000000000E+00  0.74505805969E-08  0.10566000000E+00  0.10566000000E+00 0.  1.
     999900   -1    0    0    0    0 -0.00000000000E+00 -0.00000000000E+00 -0.74505805969E-08  0.93827000000E+00  0.93827000000E+00 0.  1.
     999902    2    1    2    0    0  0.22512606697E-01 -0.40415831429E-02 -0.65498725375E-02  0.10201381383E+01  0.10198606613E+01 0.  0.
     999903    2    3    3    0    0  0.32147372775E-01 -0.38645762190E-01 -0.12088275350E+00  0.13201523821E+00  0.16983359969E-01 0.  0.
         14    1    1    2    0    0 -0.22512606697E-01  0.40415831429E-02  0.65498725375E-02  0.23791861735E-01  0.00000000000E+00 0. -1.
     999901    1    3    3    0    0 -0.96347660781E-02  0.34604179047E-01  0.11433288096E+00  0.88812290005E+00  0.88000000000E+00 0. -1.
        -11    1    4    4    0    0  0.31719497734E-01 -0.35680464733E-01 -0.98875670148E-01  0.10979927763E+00  0.51100000000E-03 0. -1.
         11    1    4    4    0    0  0.42787504125E-03 -0.29652974576E-02 -0.22007083350E-01  0.22215960583E-01  0.51100000000E-03 0.  1.
</event>
<event>
 8    1  0.1126407E+005  0.1043930E+01  0.7957747E-01            NaN
         13   -1    0    0    0    0  0.00000000000E+00  0.00000000000E+00  0.74505805969E-08  0.10566000000E+00  0.10566000000E+00 0. -1.
     999900   -1    0    0    0    0 -0.00000000000E+00 -0.00000000000E+00 -0.74505805969E-08  0.93827000000E+00  0.93827000000E+00 0. -1.
     999902    2    1    2    0    0 -0.24722070501E-01  0.34633695513E-02  0.60231112411E-02  0.10182501720E+01  0.10179263034E+01 0.  0.
     999903    2    3    3    0    0 -0.12173757559E+00 -0.41739821285E-01 -0.18146203804E-01  0.13143593411E+00  0.19592602464E-01 0.  0.
         14    1    1    2    0    0  0.24722070501E-01 -0.34633695513E-02 -0.60231112411E-02  0.25679828028E-01  0.00000000000E+00 0.  1.
     999901    1    3    3    0    0  0.97015505087E-01  0.45203190836E-01  0.24169315046E-01  0.88681423786E+00  0.88000000000E+00 0. -1.
        -11    1    4    4    0    0 -0.59478119650E-01 -0.17746508513E-01  0.78987656533E-03  0.62076326466E-01  0.51100000000E-03 0. -1.
         11    1    4    4    0    0 -0.62259455938E-01 -0.23993312771E-01 -0.18936080370E-01  0.69359607642E-01  0.51100000000E-03 0.  1.
</event>
<event>
 8    1  0.1126407E+005  0.1043930E+01  0.7957747E-01            NaN
         13   -1    0    0    0    0  0.00000000000E+00  0.00000000000E+00  0.74505805969E-08  0.10566000000E+00  0.10566000000E+00 0.  1.
     999900   -1    0    0    0    0 -0.00000000000E+00 -0.00000000000E+00 -0.74505805969E-08  0.93827000000E+00  0.93827000000E+00 0.  1.
     999902    2    1    2    0    0 -0.14445626066E-01  0.16555162012E-01 -0.98568510524E-02  0.10198487414E+01  0.10195643915E+01 0.  0.
     999903    2    3    3    0    0  0.96511576524E-01 -0.15428235988E-01 -0.81386584560E-01  0.12942696422E+00  0.23980159546E-01 0.  0.
         14    1    1    2    0    0  0.14445626066E-01 -0.16555162012E-01  0.98568510524E-02  0.24081258571E-01  0.00000000000E+00 0.  1.
     999901    1    3    3    0    0 -0.11095720259E+00  0.31983397999E-01  0.71529733507E-01  0.89042177721E+00  0.88000000000E+00 0.  1.
        -11    1    4    4    0    0  0.61299468536E-01 -0.15037998062E-01 -0.64931000882E-01  0.90554194961E-01  0.51100000000E-03 0.  1.
         11    1    4    4    0    0  0.35212107988E-01 -0.39023792525E-03 -0.16455583677E-01  0.38872769258E-01  0.51100000000E-03 0. -1.
</event>
<event>
 8    1  0.1126407E+005  0.1043930E+01  0.7957747E-01            NaN
         13   -1    0    0    0    0  0.00000000000E+00  0.00000000000E+00  0.74505805969E-08  0.10566000000E+00  0.10566000000E+00 0.  1.
     999900   -1    0    0    0    0 -0.00000000000E+00 -0.00000000000E+00 -0.74505805969E-08  0.93827000000E+00  0.93827000000E+00 0.  1.
     999902    2    1    2    0    0  0.15810749667E-01 -0.17794187542E-01 -0.69605653708E-02  0.10191295487E+01  0.10188277453E+01 0.  0.
     999903    2    3    3    0    0 -0.20937273135E-01 -0.93477505593E-01  0.86181051223E-01  0.13022362421E+00  0.18830965331E-01 0.  0.
         14    1    1    2    0    0 -0.15810749667E-01  0.17794187542E-01  0.69605653708E-02  0.24800451319E-01  0.00000000000E+00 0.  1.
     999901    1    3    3    0    0  0.36748022802E-01  0.75683318051E-01 -0.93141616594E-01  0.88890592447E+00  0.88000000000E+00 0.  1.
        -11    1    4    4    0    0 -0.19462705674E-01 -0.71287530528E-01  0.75139124730E-01  0.10538907964E+00  0.51100000000E-03 0. -1.
         11    1    4    4    0    0 -0.14745674617E-02 -0.22189975065E-01  0.11041926493E-01  0.24834544576E-01  0.51100000000E-03 0.  1.
</event>
<event>
 8    1  0.1126407E+005  0.1043930E+01  0.7957747E-01            NaN
         13   -1    0    0    0    0  0.00000000000E+00  0.00000000000E+00  0.74505805969E-08  0.10566000000E+00  0.10566000000E+00 0.  1.
     999900   -1    0    0    0    0 -0.00000000000E+00 -0.00000000000E+00 -0.74505805969E-08  0.93827000000E+00  0.93827000000E+00 0.  1.
     999902    2    1    2    0    0 -0.98689065097E-02 -0.19914058811E-01  0.78468995730E-02  0.10203601276E+01  0.10200878644E+01 0.  0.
     999903    2    3    3    0    0  0.23765780288E-01 -0.10867813516E+00 -0.67783826524E-01  0.13203003118E+00  0.21483310239E-01 0.  0.
         14    1    1    2    0    0  0.98689065097E-02  0.19914058811E-01 -0.78468995730E-02  0.23569872442E-01  0.00000000000E+00 0. -1.
     999901    1    3    3    0    0 -0.33634686798E-01  0.88764076353E-01  0.75630726097E-01  0.88833009638E+00  0.88000000000E+00 0. -1.
        -11    1    4    4    0    0  0.10352964324E-01 -0.56924833120E-01 -0.22919998041E-01  0.62235102050E-01  0.51100000000E-03 0. -1.
         11    1    4    4    0    0  0.13412815964E-01 -0.51753302044E-01 -0.44863828484E-01  0.69794929127E-01  0.51100000000E-03 0.  1.
</event>
<event>
 8    1  0.1126407E+005  0.1043930E+01  0.7957747E-01            NaN
         13   -1    0    0    0    0  0.00000000000E+00  0.00000000000E+00  0.74505805969E-08  0.10566000000E+00  0.10566000000E+00 0.  1.
     999900   -1    0    0    0    0 -0.00000000000E+00 -0.00000000000E+00 -0.74505805969E-08  0.93827000000E+00  0.93827000000E+00 0.  1.
     999902    2    1    2    0    0 -0.63814368329E-02 -0.31225753059E-02 -0.26642384673E-01  0.10163566456E+01  0.10159825496E+01 0.  0.
     999903    2    3    3    0    0  0.12153146302E-01 -0.60931726514E-01  0.10550722591E+00  0.12442113877E+00  0.22101375382E-01 0.  0.
         14    1    1    2    0    0  0.63814368329E-02  0.31225753059E-02  0.26642384673E-01  0.27573354414E-01  0.00000000000E+00 0.  1.
     999901    1    3    3    0    0 -0.18534583135E-01  0.57809151208E-01 -0.13214961058E+00  0.89193550681E+00  0.88000000000E+00 0.  1.
        -11    1    4    4    0    0  0.73614237517E-02 -0.71908328043E-02  0.29201976480E-01  0.30966355734E-01  0.51100000000E-03 0. -1.
         11    1    4    4    0    0  0.47917225505E-02 -0.53740893710E-01  0.76305249428E-01  0.93454783040E-01  0.51100000000E-03 0.  1.
</event>
<event>
 8    1  0.1126407E+005  0.1043930E+01  0.7957747E-01            NaN
         13   -1    0    0    0    0  0.00000000000E+00  0.00000000000E+00  0.74505805969E-08  0.10566000000E+00  0.10566000000E+00 0.  1.
     999900   -1    0    0    0    0 -0.00000000000E+00 -0.00000000000E+00 -0.74505805969E-08  0.93827000000E+00  0.93827000000E+00 0.  1.
     999902    2    1    2    0    0  0.17757954348E-01  0.55589567818E-02 -0.11037592908E-01  0.10222949497E+01  0.10220659905E+01 0.  0.
     999903    2    3    3    0    0 -0.22529405031E-01  0.12865828202E+00  0.10601273910E-01  0.13255074168E+00  0.19919449939E-01 0.  0.
         14    1    1    2    0    0 -0.17757954348E-01 -0.55589567818E-02  0.11037592908E-01  0.21635050273E-01  0.00000000000E+00 0.  1.
     999901    1    3    3    0    0  0.40287359379E-01 -0.12309932524E+00 -0.21638866818E-01  0.88974420805E+00  0.88000000000E+00 0.  1.
        -11    1    4    4    0    0 -0.20766093665E-01  0.11956333683E+00  0.44838493834E-02  0.12143717794E+00  0.51100000000E-03 0.  1.
         11    1    4    4    0    0 -0.17633113664E-02  0.90949451973E-02  0.61174245266E-02  0.11113563738E-01  0.51100000000E-03 0. -1.
</event>
<event>
 8    1  0.1126407E+005  0.1043930E+01  0.7957747E-01            NaN
         13   -1    0    0    0    0  0.00000000000E+00  0.00000000000E+00  0.74505805969E-08  0.10566000000E+00  0.10566000000E+00 0.  1.
     999900   -1    0    0    0    0 -0.00000000000E+00 -0.00000000000E+00 -0.74505805969E-08  0.93827000000E+00  0.93827000000E+00 0. -1.
     999902    2    1    2    0    0 -0.21318225456E-01  0.22561013158E-02 -0.98468635933E-02  0.10203393779E+01  0.10200666295E+01 0.  0.
     999903    2    3    3    0    0 -0.97949322898E-01 -0.79089487760E-01  0.34760608346E-01  0.13215062738E+00  0.20156177536E-01 0.  0.
         14    1    1    2    0    0  0.21318225456E-01 -0.22561013158E-02  0.98468635933E-02  0.23590622127E-01  0.00000000000E+00 0.  1.
     999901    1    3    3    0    0  0.76631097442E-01  0.81345589076E-01 -0.44607471939E-01  0.88818875050E+00  0.88000000000E+00 0. -1.
        -11    1    4    4    0    0 -0.68144872634E-01 -0.45528906998E-01  0.28798602546E-01  0.86869014432E-01  0.51100000000E-03 0.  1.
         11    1    4    4    0    0 -0.29804450263E-01 -0.33560580763E-01  0.59620057999E-02  0.45281612944E-01  0.51100000000E-03 0. -1.
</event>
<event>
 8    1  0.1126407E+005  0.1043930E+01  0.7957747E-01            NaN
         13   -1    0    0    0    0  0.00000000000E+00  0.00000000000E+00  0.74505805969E-08  0.10566000000E+00  0.10566000000E+00 0. -1.
     999900   -1    0    0    0    0 -0.00000000000E+00 -0.00000000000E+00 -0.74505805969E-08  0.93827000000E+00  0.93827000000E+00 0.  1.
     999902    2    1    2    0    0  0.24550461431E-01  0.48530946192E-02  0.21330004118E-02  0.10188137229E+01  0.10185040867E+01 0.  0.
     999903    2    3    3    0    0  0.30924417598E-01  0.92280327015E-01 -0.84466410877E-01  0.13022855181E+00  0.18786239143E-01 0.  0.
         14    1    1    2    0    0 -0.24550461431E-01 -0.48530946192E-02 -0.21330004118E-02  0.25116277085E-01  0.00000000000E+00 0.  1.
     999901    1    3    3    0    0 -0.63739561671E-02 -0.87427232395E-01  0.86599411289E-01  0.88858517111E+00  0.88000000000E+00 0.  1.
        -11    1    4    4    0    0  0.10871136102E-01  0.40317805864E-01 -0.48141411145E-01  0.63730398225E-01  0.51100000000E-03 0. -1.
         11    1    4    4    0    0  0.20053281496E-01  0.51962521151E-01 -0.36324999731E-01  0.66498153580E-01  0.51100000000E-03 0.  1.
</event>
<event>
 8    1  0.1126407E+005  0.1043930E+01  0.7957747E-01            NaN
         13   -1    0    0    0    0  0.00000000000E+00  0.00000000000E+00  0.74505805969E-08  0.10566000000E+00  0.10566000000E+00 0. -1.
     999900   -1    0    0    0    0 -0.00000000000E+00 -0.00000000000E+00 -0.74505805969E-08  0.93827000000E+00  0.93827000000E+00 0.  1.
     999902    2    1    2    0    0 -0.61947301849E-02 -0.10660516629E-01 -0.14639959958E-01  0.10247897355E+01  0.10246109761E+01 0.  0.
     999903    2    3    3    0    0  0.28214082440E-01 -0.80274475795E-01  0.10131386226E+00  0.13379290130E+00  0.19900146772E-01 0.  0.
         14    1    1    2    0    0  0.61947301849E-02  0.10660516629E-01  0.14639959958E-01  0.19140264482E-01  0.00000000000E+00 0. -1.
     999901    1    3    3    0    0 -0.34408812625E-01  0.69613959165E-01 -0.11595382221E+00  0.89099683422E+00  0.88000000000E+00 0.  1.
        -11    1    4    4    0    0  0.25455186513E-01 -0.47517543882E-01  0.55176712801E-01  0.77140224614E-01  0.51100000000E-03 0.  1.
         11    1    4    4    0    0  0.27588959266E-02 -0.32756931913E-01  0.46137149455E-01  0.56652676688E-01  0.51100000000E-03 0. -1.
</event>
<event>
 8    1  0.1126407E+005  0.1043930E+01  0.7957747E-01            NaN
         13   -1    0    0    0    0  0.00000000000E+00  0.00000000000E+00  0.74505805969E-08  0.10566000000E+00  0.10566000000E+00 0. -1.
     999900   -1    0    0    0    0 -0.00000000000E+00 -0.00000000000E+00 -0.74505805969E-08  0.93827000000E+00  0.93827000000E+00 0.  1.
     999902    2    1    2    0    0 -0.68230175647E-02 -0.17149694247E-01 -0.13971934702E-01  0.10207809063E+01  0.10205183869E+01 0.  0.
     999903    2    3    3    0    0  0.54684772440E-01 -0.18048073647E-01 -0.11748071348E+00  0.13258155781E+00  0.21447473761E-01 0.  0.
         14    1    1    2    0    0  0.68230175647E-02  0.17149694247E-01  0.13971934702E-01  0.23149093735E-01  0.00000000000E+00 0. -1.
     999901    1    3    3    0    0 -0.61507790005E-01  0.89837939972E-03  0.10350877878E+00  0.88819934846E+00  0.88000000000E+00 0. -1.
        -11    1    4    4    0    0  0.34361700894E-01 -0.21106005600E-01 -0.85942642420E-01  0.94934655779E-01  0.51100000000E-03 0.  1.
         11    1    4    4    0    0  0.20323071546E-01  0.30579319535E-02 -0.31538071062E-01  0.37646902027E-01  0.51100000000E-03 0. -1.
</event>
<event>
 8    1  0.1126407E+005  0.1043930E+01  0.7957747E-01            NaN
         13   -1    0    0    0    0  0.00000000000E+00  0.00000000000E+00  0.74505805969E-08  0.10566000000E+00  0.10566000000E+00 0.  1.
     999900   -1    0    0    0    0 -0.00000000000E+00 -0.00000000000E+00 -0.74505805969E-08  0.93827000000E+00  0.93827000000E+00 0. -1.
     999902    2    1    2    0    0 -0.13668458721E-01  0.18561462519E-01  0.81070275226E-02  0.10194948092E+01  0.10192019365E+01 0.  0.
     999903    2    3    3    0    0 -0.93124175291E-02  0.16436429269E-01  0.12790803482E+00  0.13136431641E+00  0.23221561691E-01 0.  0.
         14    1    1    2    0    0  0.13668458721E-01 -0.18561462519E-01 -0.81070275226E-02  0.24435190810E-01  0.00000000000E+00 0. -1.
     999901    1    3    3    0    0 -0.43560411922E-02  0.21250332506E-02 -0.11980100729E+00  0.88813049278E+00  0.88000000000E+00 0. -1.
        -11    1    4    4    0    0 -0.62525600433E-02  0.22367467423E-01  0.97766235209E-01  0.10048828774E+00  0.51100000000E-03 0. -1.
         11    1    4    4    0    0 -0.30598574858E-02 -0.59310381538E-02  0.30141799607E-01  0.30876028663E-01  0.51100000000E-03 0.  1.
</event>
<event>
 8    1  0.1126407E+005  0.1043930E+01  0.7957747E-01            NaN
         13   -1    0    0    0    0  0.00000000000E+00  0.00000000000E+00  0.74505805969E-08  0.10566000000E+00  0.10566000000E+00 0. -1.
     999900   -1    0    0    0    0 -0.00000000000E+00 -0.00000000000E+00 -0.74505805969E-08  0.93827000000E+00  0.93827000000E+00 0.  1.
     999902    2    1    2    0    0 -0.21852349960E-02  0.35159525453E-02 -0.26973324374E-01  0.10166408556E+01  0.10162745357E+01 0.  0.
     999903    2    3    3    0    0 -0.82429819210E-01  0.74641391628E-03 -0.98940596412E-01  0.13005969638E+00  0.18194800778E-01 0.  0.
         14    1    1    2    0    0  0.21852349960E-02 -0.35159525453E-02  0.26973324374E-01  0.27289144400E-01  0.00000000000E+00 0. -1.
     999901    1    3    3    0    0  0.80244584214E-01  0.27695386290E-02  0.71967272037E-01  0.88658115922E+00  0.88000000000E+00 0.  1.
        -11    1    4    4    0    0 -0.64866405731E-01  0.65498721574E-02 -0.83636466097E-01  0.10604655110E+00  0.51100000000E-03 0.  1.
         11    1    4    4    0    0 -0.17563413479E-01 -0.58034582412E-02 -0.15304130314E-01  0.24013145281E-01  0.51100000000E-03 0. -1.
</event>
<event>
 8    1  0.1126407E+005  0.1043930E+01  0.7957747E-01            NaN
         13   -1    0    0    0    0  0.00000000000E+00  0.00000000000E+00  0.74505805969E-08  0.10566000000E+00  0.10566000000E+00 0. -1.
     999900   -1    0    0    0    0 -0.00000000000E+00 -0.00000000000E+00 -0.74505805969E-08  0.93827000000E+00  0.93827000000E+00 0.  1.
     999902    2    1    2    0    0  0.11249795771E-01 -0.15825734716E-01  0.13000119252E-01  0.10205630386E+01  0.10202954968E+01 0.  0.
     999903    2    3    3    0    0 -0.10564041904E+00  0.44423695966E-01  0.57317745110E-01  0.12968854230E+00  0.20010777119E-01 0.  0.
         14    1    1    2    0    0 -0.11249795771E-01  0.15825734716E-01 -0.13000119252E-01  0.23366961394E-01  0.00000000000E+00 0.  1.
     999901    1    3    3    0    0  0.11689021481E+00 -0.60249430682E-01 -0.44317625857E-01  0.89087449631E+00  0.88000000000E+00 0.  1.
        -11    1    4    4    0    0 -0.25478513719E-01  0.68507405441E-02  0.50140440806E-02  0.26860548512E-01  0.51100000000E-03 0. -1.
         11    1    4    4    0    0 -0.80161905318E-01  0.37572955422E-01  0.52303701029E-01  0.10282799378E+00  0.51100000000E-03 0.  1.
</event>
<event>
 8    1  0.1126407E+005  0.1043930E+01  0.7957747E-01            NaN
         13   -1    0    0    0    0  0.00000000000E+00  0.00000000000E+00  0.74505805969E-08  0.10566000000E+00  0.10566000000E+00 0. -1.
     999900   -1    0    0    0    0 -0.00000000000E+00 -0.00000000000E+00 -0.74505805969E-08  0.93827000000E+00  0.93827000000E+00 0.  1.
     999902    2    1    2    0    0 -0.20959921952E-01 -0.10554486789E-01  0.35471620629E-02  0.10201961028E+01  0.10199199921E+01 0.  0.
     999903    2    3    3    0    0 -0.13924092032E-01 -0.12354877872E+00 -0.39441573402E-01  0.13190265784E+00  0.19608477016E-01 0.  0.
         14    1    1    2    0    0  0.20959921952E-01  0.10554486789E-01 -0.35471620629E-02  0.23733897242E-01  0.00000000000E+00 0. -1.
     999901    1    3    3    0    0 -0.70358299197E-02  0.11299429193E+00  0.42988735464E-01  0.88829344492E+00  0.88000000000E+00 0. -1.
        -11    1    4    4    0    0  0.28314610267E-02 -0.35106611578E-01 -0.52617904457E-02  0.35615149975E-01  0.51100000000E-03 0.  1.
         11    1    4    4    0    0 -0.16755553059E-01 -0.88442167139E-01 -0.34179782956E-01  0.96287507863E-01  0.51100000000E-03 0. -1.
</event>
<event>
 8    1  0.1126407E+005  0.1043930E+01  0.7957747E-01            NaN
         13   -1    0    0    0    0  0.00000000000E+00  0.00000000000E+00  0.74505805969E-08  0.10566000000E+00  0.10566000000E+00 0.  1.
     999900   -1    0    0    0    0 -0.00000000000E+00 -0.00000000000E+00 -0.74505805969E-08  0.93827000000E+00  0.93827000000E+00 0. -1.
     999902    2    1    2    0    0 -0.39800415802E-02 -0.20010639586E-01 -0.71998077226E-02  0.10222942967E+01  0.10220653234E+01 0.  0.
     999903    2    3    3    0    0 -0.36072635038E-01 -0.59624557652E-01  0.11136047643E+00  0.13288115417E+00  0.19998063615E-01 0.  0.
         14    1    1    2    0    0  0.39800415802E-02  0.20010639586E-01  0.71998077226E-02  0.21635703336E-01  0.00000000000E+00 0. -1.
     999901    1    3    3    0    0  0.32092593458E-01  0.39613918066E-01 -0.11856028416E+00  0.88941314249E+00  0.88000000000E+00 0. -1.
        -11    1    4    4    0    0 -0.20476718066E-01 -0.22160107566E-01  0.62194362438E-01  0.69128620629E-01  0.51100000000E-03 0. -1.
         11    1    4    4    0    0 -0.15595916972E-01 -0.37464450086E-01  0.49166113997E-01  0.63752533542E-01  0.51100000000E-03 0.  1.
</event>
<event>
 8    1  0.1126407E+005  0.1043930E+01  0.7957747E-01            NaN
         13   -1    0    0    0    0  0.00000000000E+00  0.00000000000E+00  0.74505805969E-08  0.10566000000E+00  0.10566000000E+00 0.  1.
     999900   -1    0    0    0    0 -0.00000000000E+00 -0.00000000000E+00 -0.74505805969E-08  0.93827000000E+00  0.93827000000E+00 0. -1.
     999902    2    1    2    0    0  0.85456766478E-02 -0.35069502540E-02 -0.22109626343E-01  0.10199683042E+01  0.10196868042E+01 0.  0.
     999903    2    3    3    0    0 -0.74928211565E-01  0.90444696206E-01  0.47542447862E-01  0.12831466441E+00  0.20245710478E-01 0.  0.
         14    1    1    2    0    0 -0.85456766478E-02  0.35069502540E-02  0.22109626343E-01  0.23961695818E-01  0.00000000000E+00 0.  1.
     999901    1    3    3    0    0  0.83473888212E-01 -0.93951646460E-01 -0.69652074205E-01  0.89165363978E+00  0.88000000000E+00 0. -1.
        -11    1    4    4    0    0 -0.71146323575E-01  0.79155453669E-01  0.37875399108E-01  0.11296987290E+00  0.51100000000E-03 0.  1.
         11    1    4    4    0    0 -0.37818879894E-02  0.11289242536E-01  0.96670487545E-02  0.15344791508E-01  0.51100000000E-03 0. -1.
</event>
<event>
 8    1  0.1126407E+005  0.1043930E+01  0.7957747E-01            NaN
         13   -1    0    0    0    0  0.00000000000E+00  0.00000000000E+00  0.74505805969E-08  0.10566000000E+00  0.10566000000E+00 0. -1.
     999900   -1    0    0    0    0 -0.00000000000E+00 -0.00000000000E+00 -0.74505805969E-08  0.93827000000E+00  0.93827000000E+00 0.  1.
     999902    2    1    2    0    0  0.18368917771E-01 -0.15712406830E-01 -0.18408980277E-02  0.10196877688E+01  0.10193995586E+01 0.  0.
     999903    2    3    3    0    0  0.39227385261E-01 -0.11534850731E+00 -0.48208821083E-01  0.13260693117E+00  0.20406907450E-01 0.  0.
         14    1    1    2    0    0 -0.18368917771E-01  0.15712406830E-01  0.18408980277E-02  0.24242231210E-01  0.00000000000E+00 0.  1.
     999901    1    3    3    0    0 -0.20858467489E-01  0.99636100477E-01  0.46367923055E-01  0.88708083762E+00  0.88000000000E+00 0. -1.
        -11    1    4    4    0    0  0.12222683040E-01 -0.25255793209E-01 -0.29117484805E-02  0.28213267650E-01  0.51100000000E-03 0. -1.
         11    1    4    4    0    0  0.27004702221E-01 -0.90092714099E-01 -0.45297072603E-01  0.10439366352E+00  0.51100000000E-03 0.  1.
</event>
<event>
 8    1  0.1126407E+005  0.1043930E+01  0.7957747E-01            NaN
         13   -1    0    0    0    0  0.00000000000E+00  0.00000000000E+00  0.74505805969E-08  0.10566000000E+00  0.10566000000E+00 0.  1.
     999900   -1    0    0    0    0 -0.00000000000E+00 -0.00000000000E+00 -0.74505805969E-08  0.93827000000E+00  0.93827000000E+00 0. -1.
     999902    2    1    2    0    0 -0.37104251297E-02 -0.21964504028E-01  0.90425938898E-02  0.10198888853E+01  0.10196054939E+01 0.  0.
     999903    2    3    3    0    0 -0.72233914049E-01 -0.31952454248E-01 -0.10171196123E+00  0.13024749734E+00  0.19503585177E-01 0.  0.
         14    1    1    2    0    0  0.37104251297E-02  0.21964504028E-01 -0.90425938898E-02  0.24041114702E-01  0.00000000000E+00 0. -1.
     999901    1    3    3    0    0  0.68523488919E-01  0.99879502200E-02  0.11075455512E+00  0.88964138796E+00  0.88000000000E+00 0.  1.
        -11    1    4    4    0    0 -0.41215029766E-01 -0.98469001107E-02 -0.43930727319E-01  0.61039413858E-01  0.51100000000E-03 0. -1.
         11    1    4    4    0    0 -0.31018884283E-01 -0.22105554137E-01 -0.57781233915E-01  0.69208083485E-01  0.51100000000E-03 0.  1.
</event>
<event>
 8    1  0.1126407E+005  0.1043930E+01  0.7957747E-01            NaN
         13   -1    0    0    0    0  0.00000000000E+00  0.00000000000E+00  0.74505805969E-08  0.10566000000E+00  0.10566000000E+00 0.  1.
     999900   -1    0    0    0    0 -0.00000000000E+00 -0.00000000000E+00 -0.74505805969E-08  0.93827000000E+00  0.93827000000E+00 0. -1.
     999902    2    1    2    0    0  0.16900916876E-02 -0.19191026129E-01 -0.14931333070E-01  0.10195559031E+01  0.10192645108E+01 0.  0.
     999903    2    3    3    0    0 -0.33323771609E-01  0.10050459309E-02 -0.12567112691E+00  0.13169490388E+00  0.20948310157E-01 0.  0.
         14    1    1    2    0    0 -0.16900916876E-02  0.19191026129E-01  0.14931333070E-01  0.24374096928E-01  0.00000000000E+00 0.  1.
     999901    1    3    3    0    0  0.35013863296E-01 -0.20196072060E-01  0.11073979384E+00  0.88786099919E+00  0.88000000000E+00 0.  1.
        -11    1    4    4    0    0 -0.26364318111E-01 -0.95719952565E-03 -0.59010025202E-01  0.64640836131E-01  0.51100000000E-03 0.  1.
         11    1    4    4    0    0 -0.69594534980E-02  0.19622454565E-02 -0.66661101704E-01  0.67054067748E-01  0.51100000000E-03 0. -1.
</event>
<event>
 8    1  0.1126407E+005  0.1043930E+01  0.7957747E-01            NaN
         13   -1    0    0    0    0  0.00000000000E+00  0.00000000000E+00  0.74505805969E-08  0.10566000000E+00  0.10566000000E+00 0. -1.
     999900   -1    0    0    0    0 -0.00000000000E+00 -0.00000000000E+00 -0.74505805969E-08  0.93827000000E+00  0.93827000000E+00 0.  1.
     999902    2    1    2    0    0  0.15829541022E-01 -0.12904383019E-01  0.12228020124E-01  0.10201261779E+01  0.10198484186E+01 0.  0.
     999903    2    3    3    0    0  0.45001354841E-01 -0.12231229897E+00  0.15857593650E-01  0.13286395027E+00  0.20394744081E-01 0.  0.
         14    1    1    2    0    0 -0.15829541022E-01  0.12904383019E-01 -0.12228020124E-01  0.23803822093E-01  0.00000000000E+00 0.  1.
     999901    1    3    3    0    0 -0.29171813820E-01  0.10940791595E+00 -0.36295735264E-02  0.88726222764E+00  0.88000000000E+00 0. -1.
        -11    1    4    4    0    0  0.11801817028E-01 -0.18165697082E-01  0.85962311754E-02  0.23311622575E-01  0.51100000000E-03 0. -1.
         11    1    4    4    0    0  0.33199537813E-01 -0.10414660189E+00  0.72613624749E-02  0.10955232769E+00  0.51100000000E-03 0.  1.
</event>
<event>
 8    1  0.1126407E+005  0.1043930E+01  0.7957747E-01            NaN
         13   -1    0    0    0    0  0.00000000000E+00  0.00000000000E+00  0.74505805969E-08  0.10566000000E+00  0.10566000000E+00 0. -1.
     999900   -1    0    0    0    0 -0.00000000000E+00 -0.00000000000E+00 -0.74505805969E-08  0.93827000000E+00  0.93827000000E+00 0.  1.
     999902    2    1    2    0    0 -0.76494641387E-02 -0.14705481068E-01 -0.14826716516E-01  0.10216904632E+01  0.10214483861E+01 0.  0.
     999903    2    3    3    0    0 -0.25322540667E-02  0.83977981438E-01  0.96065077804E-01  0.12924348904E+00  0.20412413117E-01 0.  0.
         14    1    1    2    0    0  0.76494641387E-02  0.14705481068E-01  0.14826716516E-01  0.22239536814E-01  0.00000000000E+00 0. -1.
     999901    1    3    3    0    0 -0.51172100720E-02 -0.98683462506E-01 -0.11089179432E+00  0.89244697414E+00  0.88000000000E+00 0.  1.
        -11    1    4    4    0    0 -0.84756226138E-02  0.20300835944E-01  0.18797646263E-01  0.28940849068E-01  0.51100000000E-03 0.  1.
         11    1    4    4    0    0  0.59433685472E-02  0.63677145494E-01  0.77267431541E-01  0.10030263997E+00  0.51100000000E-03 0. -1.
</event>
<event>
 8    1  0.1126407E+005  0.1043930E+01  0.7957747E-01            NaN
         13   -1    0    0    0    0  0.00000000000E+00  0.00000000000E+00  0.74505805969E-08  0.10566000000E+00  0.10566000000E+00 0.  1.
     999900   -1    0    0    0    0 -0.00000000000E+00 -0.00000000000E+00 -0.74505805969E-08  0.93827000000E+00  0.93827000000E+00 0. -1.
     999902    2    1    2    0    0 -0.11449936807E-01 -0.56271243628E-02 -0.20466206382E-01  0.10198129690E+01  0.10195277635E+01 0.  0.
     999903    2    3    3    0    0 -0.12310706020E+00  0.41228749455E-01 -0.23046246541E-02  0.13133526573E+00  0.19709963931E-01 0.  0.
         14    1    1    2    0    0  0.11449936807E-01  0.56271243628E-02  0.20466206382E-01  0.24117031019E-01  0.00000000000E+00 0.  1.
     999901    1    3    3    0    0  0.11165712339E+00 -0.46855873818E-01 -0.18161581728E-01  0.88847770325E+00  0.88000000000E+00 0. -1.
        -11    1    4    4    0    0 -0.50038532400E-01  0.13985365620E-01 -0.10208156149E-01  0.52951985319E-01  0.51100000000E-03 0. -1.
         11    1    4    4    0    0 -0.73068527799E-01  0.27243383836E-01  0.79035314953E-02  0.78383280415E-01  0.51100000000E-03 0.  1.
</event>
<event>
 8    1  0.1126407E+005  0.1043930E+01  0.7957747E-01            NaN
         13   -1    0    0    0    0  0.00000000000E+00  0.00000000000E+00  0.74505805969E-08  0.10566000000E+00  0.10566000000E+00 0. -1.
     999900   -1    0    0    0    0 -0.00000000000E+00 -0.00000000000E+00 -0.74505805969E-08  0.93827000000E+00  0.93827000000E+00 0. -1.
     999902    2    1    2    0    0 -0.32306435993E-02 -0.25838959401E-01  0.61888791627E-02  0.10171645165E+01  0.10168123045E+01 0.  0.
     999903    2    3    3    0    0  0.89820836372E-01  0.41310883875E-01 -0.75458051541E-01  0.12596650223E+00  0.19981750860E-01 0.  0.
         14    1    1    2    0    0  0.32306435993E-02  0.25838959401E-01 -0.61888791627E-02  0.26765483487E-01  0.00000000000E+00 0.  1.
     999901    1    3    3    0    0 -0.93051479972E-01 -0.67149843276E-01  0.81646930703E-01  0.89119801429E+00  0.88000000000E+00 0.  1.
        -11    1    4    4    0    0  0.71832745708E-01  0.26304691648E-01 -0.64667988138E-01  0.10017030483E+00  0.51100000000E-03 0. -1.
         11    1    4    4    0    0  0.17988090664E-01  0.15006192227E-01 -0.10790063402E-01  0.25796197396E-01  0.51100000000E-03 0.  1.
</event>
<event>
 8    1  0.1126407E+005  0.1043930E+01  0.7957747E-01            NaN
         13   -1    0    0    0    0  0.00000000000E+00  0.00000000000E+00  0.74505805969E-08  0.10566000000E+00  0.10566000000E+00 0. -1.
     999900   -1    0    0    0    0 -0.00000000000E+00 -0.00000000000E+00 -0.74505805969E-08  0.93827000000E+00  0.93827000000E+00 0.  1.
     999902    2    1    2    0    0 -0.42632566649E-02  0.86159031385E-03 -0.24540053242E-01  0.10190074819E+01  0.10187026633E+01 0.  0.
     999903    2    3    3    0    0  0.12023814613E+00  0.33254243683E-01 -0.28460465464E-01  0.12964520874E+00  0.20852471002E-01 0.  0.
         14    1    1    2    0    0  0.42632566649E-02 -0.86159031385E-03  0.24540053242E-01  0.24922518099E-01  0.00000000000E+00 0. -1.
     999901    1    3    3    0    0 -0.12450140280E+00 -0.32392653369E-01  0.39204122217E-02  0.88936227316E+00  0.88000000000E+00 0.  1.
        -11    1    4    4    0    0  0.21820309365E-01  0.59231018218E-02  0.28878509086E-02  0.22799338584E-01  0.51100000000E-03 0.  1.
         11    1    4    4    0    0  0.98417836766E-01  0.27331141861E-01 -0.31348316372E-01  0.10684587016E+00  0.51100000000E-03 0. -1.
</event>
<event>
 8    1  0.1126407E+005  0.1043930E+01  0.7957747E-01            NaN
         13   -1    0    0    0    0  0.00000000000E+00  0.00000000000E+00  0.74505805969E-08  0.10566000000E+00  0.10566000000E+00 0. -1.
     999900   -1    0    0    0    0 -0.00000000000E+00 -0.00000000000E+00 -0.74505805969E-08  0.93827000000E+00  0.93827000000E+00 0.  1.
     999902    2    1    2    0    0  0.11428169663E-01  0.19104330200E-01 -0.58343613072E-02  0.10209165634E+01  0.10206571467E+01 0.  0.
     999903    2    3    3    0    0  0.74449826019E-01 -0.80582533932E-01 -0.68366027035E-01  0.13084948203E+00  0.20281812659E-01 0.  0.
         14    1    1    2    0    0 -0.11428169663E-01 -0.19104330200E-01  0.58343613072E-02  0.23013436643E-01  0.00000000000E+00 0.  1.
     999901    1    3    3    0    0 -0.63021656356E-01  0.99686864132E-01  0.62531665728E-01  0.89006708133E+00  0.88000000000E+00 0. -1.
        -11    1    4    4    0    0  0.57858463594E-01 -0.55032628627E-01 -0.40394339537E-01  0.89488299854E-01  0.51100000000E-03 0. -1.
         11    1    4    4    0    0  0.16591362425E-01 -0.25549905305E-01 -0.27971687498E-01  0.41361182172E-01  0.51100000000E-03 0.  1.
</event>
<event>
 8    1  0.1126407E+005  0.1043930E+01  0.7957747E-01            NaN
         13   -1    0    0    0    0  0.00000000000E+00  0.00000000000E+00  0.74505805969E-08  0.10566000000E+00  0.10566000000E+00 0.  1.
     999900   -1    0    0    0    0 -0.00000000000E+00 -0.00000000000E+00 -0.74505805969E-08  0.93827000000E+00  0.93827000000E+00 0.  1.
     999902    2    1    2    0    0  0.18650065597E-02  0.21999120486E-01 -0.91453821027E-02  0.10200327708E+01  0.10197528013E+01 0.  0.
     999903    2    3    3    0    0  0.46490165727E-01 -0.68086461106E-01 -0.98419608208E-01  0.12982116429E+00  0.19235740773E-01 0.  0.
         14    1    1    2    0    0 -0.18650065597E-02 -0.21999120486E-01  0.91453821027E-02  0.23897229241E-01  0.00000000000E+00 0. -1.
     999901    1    3    3    0    0 -0.44625159167E-01  0.90085581591E-01  0.89274226105E-01  0.89021160647E+00  0.88000000000E+00 0. -1.
        -11    1    4    4    0    0  0.26455870864E-01 -0.22329147925E-01 -0.37498342144E-01  0.51038130205E-01  0.51100000000E-03 0. -1.
         11    1    4    4    0    0  0.20034294863E-01 -0.45757313181E-01 -0.60921266063E-01  0.78783034087E-01  0.51100000000E-03 0.  1.
</event>
<event>
 8    1  0.1126407E+005  0.1043930E+01  0.7957747E-01            NaN
         13   -1    0    0    0    0  0.00000000000E+00  0.00000000000E+00  0.74505805969E-08  0.10566000000E+00  0.10566000000E+00 0. -1.
     999900   -1    0    0    0    0 -0.00000000000E+00 -0.00000000000E+00 -0.74505805969E-08  0.93827000000E+00  0.93827000000E+00 0. -1.
     999902    2    1    2    0    0 -0.19929367402E-01 -0.13246372278E-01  0.42227286483E-02  0.10196302572E+01  0.10193406613E+01 0.  0.
     999903    2    3    3    0    0 -0.98489316292E-01  0.68798456788E-01  0.48695587205E-01  0.13121545841E+00  0.20319036175E-01 0.  0.
         14    1    1    2    0    0  0.19929367402E-01  0.13246372278E-01 -0.42227286483E-02  0.24299742813E-01  0.00000000000E+00 0.  1.
     999901    1    3    3    0    0  0.78559948890E-01 -0.82044829066E-01 -0.44472858557E-01  0.88841479878E+00  0.88000000000E+00 0. -1.
        -11    1    4    4    0    0 -0.40180350203E-01  0.19679680135E-01  0.10584636348E-01  0.45978755967E-01  0.51100000000E-03 0.  1.
         11    1    4    4    0    0 -0.58308966089E-01  0.49118776653E-01  0.38110950858E-01  0.85236702438E-01  0.51100000000E-03 0. -1.
</event>
<event>
 8    1  0.1126407E+005  0.1043930E+01  0.7957747E-01            NaN
         13   -1    0    0    0    0  0.00000000000E+00  0.00000000000E+00  0.74505805969E-08  0.10566000000E+00  0.10566000000E+00 0. -1.
     999900   -1    0    0    0    0 -0.00000000000E+00 -0.00000000000E+00 -0.74505805969E-08  0.93827000000E+00  0.93827000000E+00 0. -1.
     999902    2    1    2    0    0 -0.21904634103E-01  0.16992770635E-02  0.11573574510E-01  0.10190975985E+01  0.10187950074E+01 0.  0.
     999903    2    3    3    0    0  0.10494751578E+00  0.34954207543E-01 -0.58155743443E-01  0.12665178159E+00  0.20562236984E-01 0.  0.
         14    1    1    2    0    0  0.21904634103E-01 -0.16992770635E-02 -0.11573574510E-01  0.24832401508E-01  0.00000000000E+00 0.  1.
     999901    1    3    3    0    0 -0.12685214988E+00 -0.33254930480E-01  0.69729317954E-01  0.89244581691E+00  0.88000000000E+00 0. -1.
        -11    1    4    4    0    0  0.28106593179E-01  0.15568911139E-02 -0.92411040240E-02  0.29632138206E-01  0.51100000000E-03 0. -1.
         11    1    4    4    0    0  0.76840922602E-01  0.33397316429E-01 -0.48914639419E-01  0.97019643379E-01  0.51100000000E-03 0.  1.
</event>
<event>
 8    1  0.1126407E+005  0.1043930E+01  0.7957747E-01            NaN
         13   -1    0    0    0    0  0.00000000000E+00  0.00000000000E+00  0.74505805969E-08  0.10566000000E+00  0.10566000000E+00 0.  1.
     999900   -1    0    0    0    0 -0.00000000000E+00 -0.00000000000E+00 -0.74505805969E-08  0.93827000000E+00  0.93827000000E+00 0.  1.
     999902    2    1    2    0    0  0.13795630564E-01 -0.15833114288E-01  0.10285854667E-01  0.10205461223E+01  0.10202781885E+01 0.  0.
     999903    2    3    3    0    0 -0.98534948591E-01  0.46423165733E-01  0.66903957997E-01  0.12942345226E+00  0.20249542903E-01 0.  0.
         14    1    1    2    0    0 -0.13795630564E-01  0.15833114288E-01 -0.10285854667E-01  0.23383877714E-01  0.00000000000E+00 0. -1.
     999901    1    3    3    0    0  0.11233057916E+00 -0.62256280021E-01 -0.56618103330E-01  0.89112267003E+00  0.88000000000E+00 0.  1.
        -11    1    4    4    0    0 -0.93051280281E-01  0.41405933821E-01  0.56034790821E-01  0.11624607959E+00  0.51100000000E-03 0.  1.
         11    1    4    4    0    0 -0.54836683099E-02  0.50172319125E-02  0.10869167176E-01  0.13177372663E-01  0.51100000000E-03 0. -1.
</event>
<event>
 8    1  0.1126407E+005  0.1043930E+01  0.7957747E-01            NaN
         13   -1    0    0    0    0  0.00000000000E+00  0.00000000000E+00  0.74505805969E-08  0.10566000000E+00  0.10566000000E+00 0.  1.
     999900   -1    0    0    0    0 -0.00000000000E+00 -0.00000000000E+00 -0.74505805969E-08  0.93827000000E+00  0.93827000000E+00 0. -1.
     999902    2    1    2    0    0  0.23412015966E-01 -0.65128218005E-02 -0.15733336598E-03  0.10196284755E+01  0.10193388367E+01 0.  0.
     999903    2    3    3    0    0 -0.98988544862E-01  0.77245385242E-01 -0.14151255934E-02  0.12721662182E+00  0.20407957574E-01 0.  0.
         14    1    1    2    0    0 -0.23412015966E-01  0.65128218005E-02  0.15733336598E-03  0.24301524503E-01  0.00000000000E+00 0. -1.
     999901    1    3    3    0    0  0.12240056083E+00 -0.83758207042E-01  0.12577922274E-02  0.89241185367E+00  0.88000000000E+00 0. -1.
        -11    1    4    4    0    0 -0.31962312204E-01  0.24537725628E-01  0.90659242449E-02  0.41305465544E-01  0.51100000000E-03 0.  1.
         11    1    4    4    0    0 -0.67026232658E-01  0.52707659614E-01 -0.10481049838E-01  0.85911156278E-01  0.51100000000E-03 0. -1.
</event>
<event>
 8    1  0.1126407E+005  0.1043930E+01  0.7957747E-01            NaN
         13   -1    0    0    0    0  0.00000000000E+00  0.00000000000E+00  0.74505805969E-08  0.10566000000E+00  0.10566000000E+00 0. -1.
     999900   -1    0    0    0    0 -0.00000000000E+00 -0.00000000000E+00 -0.74505805969E-08  0.93827000000E+00  0.93827000000E+00 0. -1.
     999902    2    1    2    0    0 -0.20218806153E-01 -0.12824196259E-01 -0.86126933236E-02  0.10184851848E+01  0.10181672913E+01 0.  0.
     999903    2    3    3    0    0 -0.69149743740E-01 -0.73872478908E-01  0.80147417236E-01  0.13056655868E+00  0.19626195672E-01 0.  0.
         14    1    1    2    0    0  0.20218806153E-01  0.12824196259E-01  0.86126933236E-02  0.25444815154E-01  0.00000000000E+00 0. -1.
     999901    1    3    3    0    0  0.48930937587E-01  0.61048282649E-01 -0.88760110560E-01  0.88791862617E+00  0.88000000000E+00 0. -1.
        -11    1    4    4    0    0 -0.40869355650E-01 -0.32865919633E-01  0.32923397921E-01  0.61924826655E-01  0.51100000000E-03 0.  1.
         11    1    4    4    0    0 -0.28280388089E-01 -0.41006559275E-01  0.47224019315E-01  0.68641732024E-01  0.51100000000E-03 0. -1.
</event>
<event>
 8    1  0.1126407E+005  0.1043930E+01  0.7957747E-01            NaN
         13   -1    0    0    0    0  0.00000000000E+00  0.00000000000E+00  0.74505805969E-08  0.10566000000E+00  0.10566000000E+00 0. -1.
     999900   -1    0    0    0    0 -0.00000000000E+00 -0.00000000000E+00 -0.74505805969E-08  0.93827000000E+00  0.93827000000E+00 0.  1.
     999902    2    1    2    0    0  0.75868380937E-02 -0.83785788030E-02  0.21442357716E-01  0.10196908705E+01  0.10194027349E+01 0.  0.
     999903    2    3    3    0    0 -0.20025477112E-01  0.11698219929E+00  0.48983653935E-01  0.12995142119E+00  0.20052900875E-01 0.  0.
         14    1    1    2    0    0 -0.75868380937E-02  0.83785788030E-02 -0.21442357716E-01  0.24239129511E-01  0.00000000000E+00 0.  1.
     999901    1    3    3    0    0  0.27612315206E-01 -0.12536077809E+00 -0.27541296220E-01  0.88973944930E+00  0.88000000000E+00 0.  1.
        -11    1    4    4    0    0 -0.74851701464E-02  0.89386135731E-01  0.32236366735E-01  0.95317120678E-01  0.51100000000E-03 0.  1.
         11    1    4    4    0    0 -0.12540306966E-01  0.27596063557E-01  0.16747287201E-01  0.34634300516E-01  0.51100000000E-03 0. -1.
</event>
<event>
 8    1  0.1126407E+005  0.1043930E+01  0.7957747E-01            NaN
         13   -1    0    0    0    0  0.00000000000E+00  0.00000000000E+00  0.74505805969E-08  0.10566000000E+00  0.10566000000E+00 0. -1.
     999900   -1    0    0    0    0 -0.00000000000E+00 -0.00000000000E+00 -0.74505805969E-08  0.93827000000E+00  0.93827000000E+00 0.  1.
     999902    2    1    2    0    0 -0.15394574009E-01  0.13310771437E-01  0.66875884489E-02  0.10225082031E+01  0.10222837825E+01 0.  0.
     999903    2    3    3    0    0  0.32031742565E-01 -0.98691706242E-01 -0.76210434390E-01  0.13028295532E+00  0.19988314665E-01 0.  0.
         14    1    1    2    0    0  0.15394574009E-01 -0.13310771437E-01 -0.66875884489E-02  0.21421796947E-01  0.00000000000E+00 0. -1.
     999901    1    3    3    0    0 -0.47426316574E-01  0.11200247768E+00  0.82898022839E-01  0.89222524774E+00  0.88000000000E+00 0.  1.
        -11    1    4    4    0    0  0.28576455911E-01 -0.59779312770E-01 -0.42846928659E-01  0.78906910243E-01  0.51100000000E-03 0. -1.
         11    1    4    4    0    0  0.34552866541E-02 -0.38912393472E-01 -0.33363505732E-01  0.51376045072E-01  0.51100000000E-03 0.  1.
</event>
<event>
 8    1  0.1126407E+005  0.1043930E+01  0.7957747E-01            NaN
         13   -1    0    0    0    0  0.00000000000E+00  0.00000000000E+00  0.74505805969E-08  0.10566000000E+00  0.10566000000E+00 0. -1.
     999900   -1    0    0    0    0 -0.00000000000E+00 -0.00000000000E+00 -0.74505805969E-08  0.93827000000E+00  0.93827000000E+00 0. -1.
     999902    2    1    2    0    0 -0.11226277305E-01 -0.20926152833E-01  0.47812922352E-03  0.10201779099E+01  0.10199013708E+01 0.  0.
     999903    2    3    3    0    0 -0.20886880278E-01 -0.90164325995E-01  0.92844638688E-01  0.13258632371E+00  0.19827729403E-01 0.  0.
         14    1    1    2    0    0  0.11226277305E-01  0.20926152833E-01 -0.47812922352E-03  0.23752090057E-01  0.00000000000E+00 0. -1.
     999901    1    3    3    0    0  0.96606029728E-02  0.69238173162E-01 -0.92366509464E-01  0.88759158623E+00  0.88000000000E+00 0. -1.
        -11    1    4    4    0    0 -0.20515716059E-01 -0.46598196021E-01  0.53911135647E-01  0.74154960357E-01  0.51100000000E-03 0.  1.
         11    1    4    4    0    0 -0.37116421848E-03 -0.43566129974E-01  0.38933503041E-01  0.58431363358E-01  0.51100000000E-03 0. -1.
</event>
<event>
 8    1  0.1126407E+005  0.1043930E+01  0.7957747E-01            NaN
         13   -1    0    0    0    0  0.00000000000E+00  0.00000000000E+00  0.74505805969E-08  0.10566000000E+00  0.10566000000E+00 0. -1.
     999900   -1    0    0    0    0 -0.00000000000E+00 -0.00000000000E+00 -0.74505805969E-08  0.93827000000E+00  0.93827000000E+00 0.  1.
     999902    2    1    2    0    0  0.37096229476E-02  0.20008969209E-01 -0.11640303905E-01  0.10204860919E+01  0.10202167647E+01 0.  0.
     999903    2    3    3    0    0  0.88496027101E-01  0.83902957804E-01 -0.49665479787E-01  0.13328989597E+00  0.20695007689E-01 0.  0.
         14    1    1    2    0    0 -0.37096229476E-02 -0.20008969209E-01  0.11640303905E-01  0.23443908084E-01  0.00000000000E+00 0.  1.
     999901    1    3    3    0    0 -0.84786404154E-01 -0.63893988594E-01  0.38025175882E-01  0.88719619595E+00  0.88000000000E+00 0.  1.
        -11    1    4    4    0    0  0.61983979551E-01  0.52579409091E-01 -0.23475053357E-01  0.84604652546E-01  0.51100000000E-03 0.  1.
         11    1    4    4    0    0  0.26512047550E-01  0.31323548712E-01 -0.26190426430E-01  0.48685243420E-01  0.51100000000E-03 0. -1.
</event>
<event>
 8    1  0.1126407E+005  0.1043930E+01  0.7957747E-01            NaN
         13   -1    0    0    0    0  0.00000000000E+00  0.00000000000E+00  0.74505805969E-08  0.10566000000E+00  0.10566000000E+00 0. -1.
     999900   -1    0    0    0    0 -0.00000000000E+00 -0.00000000000E+00 -0.74505805969E-08  0.93827000000E+00  0.93827000000E+00 0.  1.
     999902    2    1    2    0    0 -0.61522285907E-03 -0.17070339497E-01 -0.15960552023E-01  0.10205523566E+01  0.10202845673E+01 0.  0.
     999903    2    3    3    0    0  0.75153471099E-01  0.95908530953E-01  0.36057271078E-01  0.12858208016E+00  0.19665553948E-01 0.  0.
         14    1    1    2    0    0  0.61522285907E-03  0.17070339497E-01  0.15960552023E-01  0.23377643393E-01  0.00000000000E+00 0. -1.
     999901    1    3    3    0    0 -0.75768693958E-01 -0.11297887045E+00 -0.52017823101E-01  0.89197027645E+00  0.88000000000E+00 0.  1.
        -11    1    4    4    0    0  0.49370536045E-01  0.51750854523E-01  0.13956278833E-01  0.72874135419E-01  0.51100000000E-03 0. -1.
         11    1    4    4    0    0  0.25782935054E-01  0.44157676430E-01  0.22100992244E-01  0.55707944737E-01  0.51100000000E-03 0.  1.
</event>
<event>
 8    1  0.1126407E+005  0.1043930E+01  0.7957747E-01            NaN
         13   -1    0    0    0    0  0.00000000000E+00  0.00000000000E+00  0.74505805969E-08  0.10566000000E+00  0.10566000000E+00 0.  1.
     999900   -1    0    0    0    0 -0.00000000000E+00 -0.00000000000E+00 -0.74505805969E-08  0.93827000000E+00  0.93827000000E+00 0. -1.
     999902    2    1    2    0    0 -0.10447293241E-01 -0.20405154045E-02  0.22725212862E-01  0.10188352807E+01  0.10185261824E+01 0.  0.
     999903    2    3    3    0    0  0.68013296452E-02  0.71688025450E-01 -0.10240757376E+00  0.12676374372E+00  0.19907397638E-01 0.  0.
         14    1    1    2    0    0  0.10447293241E-01  0.20405154045E-02 -0.22725212862E-01  0.25094719341E-01  0.00000000000E+00 0. -1.
     999901    1    3    3    0    0 -0.17248622886E-01 -0.73728540855E-01  0.12513278662E+00  0.89207153694E+00  0.88000000000E+00 0.  1.
        -11    1    4    4    0    0  0.96911942126E-02  0.16520890038E-01 -0.21560172840E-01  0.28843738086E-01  0.51100000000E-03 0. -1.
         11    1    4    4    0    0 -0.28898645674E-02  0.55167135412E-01 -0.80847400920E-01  0.97920005634E-01  0.51100000000E-03 0.  1.
</event>
<event>
 8    1  0.1126407E+005  0.1043930E+01  0.7957747E-01            NaN
         13   -1    0    0    0    0  0.00000000000E+00  0.00000000000E+00  0.74505805969E-08  0.10566000000E+00  0.10566000000E+00 0.  1.
     999900   -1    0    0    0    0 -0.00000000000E+00 -0.00000000000E+00 -0.74505805969E-08  0.93827000000E+00  0.93827000000E+00 0. -1.
     999902    2    1    2    0    0 -0.17094240531E-01  0.11358722018E-01  0.12805229093E-01  0.10197389372E+01  0.10194519570E+01 0.  0.
     999903    2    3    3    0    0 -0.24958043503E-01  0.12111190626E-01 -0.12456621965E+00  0.12904633003E+00  0.19147515343E-01 0.  0.
         14    1    1    2    0    0  0.17094240531E-01 -0.11358722018E-01 -0.12805229093E-01  0.24191062757E-01  0.00000000000E+00 0. -1.
     999901    1    3    3    0    0  0.78638029722E-02 -0.75246860814E-03  0.13737144874E+00  0.89069260721E+00  0.88000000000E+00 0.  1.
        -11    1    4    4    0    0 -0.16153002618E-01 -0.21975884512E-02 -0.49366720915E-01  0.51991183324E-01  0.51100000000E-03 0.  1.
         11    1    4    4    0    0 -0.88050408857E-02  0.14308779077E-01 -0.75199498734E-01  0.77055146710E-01  0.51100000000E-03 0. -1.
</event>
<event>
 8    1  0.1126407E+005  0.1043930E+01  0.7957747E-01            NaN
         13   -1    0    0    0    0  0.00000000000E+00  0.00000000000E+00  0.74505805969E-08  0.10566000000E+00  0.10566000000E+00 0. -1.
     999900   -1    0    0    0    0 -0.00000000000E+00 -0.00000000000E+00 -0.74505805969E-08  0.93827000000E+00  0.93827000000E+00 0.  1.
     999902    2    1    2    0    0 -0.63637979985E-02 -0.18214281023E-01 -0.10874105606E-01  0.10217826722E+01  0.10215426202E+01 0.  0.
     999903    2    3    3    0    0 -0.24743730376E-01  0.91283552224E-01 -0.88870143957E-01  0.13138333511E+00  0.20463117028E-01 0.  0.
         14    1    1    2    0    0  0.63637979985E-02  0.18214281023E-01  0.10874105606E-01  0.22147327850E-01  0.00000000000E+00 0.  1.
     999901    1    3    3    0    0  0.18379932377E-01 -0.10949783325E+00  0.77996038351E-01  0.89039933704E+00  0.88000000000E+00 0. -1.
        -11    1    4    4    0    0 -0.19787006468E-01  0.42663522323E-01 -0.34859712882E-01  0.58541971825E-01  0.51100000000E-03 0.  1.
         11    1    4    4    0    0 -0.49567239078E-02  0.48620029902E-01 -0.54010431075E-01  0.72841363287E-01  0.51100000000E-03 0. -1.
</event>
<event>
 8    1  0.1126407E+005  0.1043930E+01  0.7957747E-01            NaN
         13   -1    0    0    0    0  0.00000000000E+00  0.00000000000E+00  0.74505805969E-08  0.10566000000E+00  0.10566000000E+00 0. -1.
     999900   -1    0    0    0    0 -0.00000000000E+00 -0.00000000000E+00 -0.74505805969E-08  0.93827000000E+00  0.93827000000E+00 0.  1.
     999902    2    1    2    0    0 -0.20791178629E-01  0.11397331932E-01 -0.56480629942E-02  0.10195563893E+01  0.10192650087E+01 0.  0.
     999903    2    3    3    0    0  0.66373334277E-01  0.49977892823E-01 -0.98708928122E-01  0.12953030168E+00  0.11464610263E-01 0.  0.
         14    1    1    2    0    0  0.20791178629E-01 -0.11397331932E-01  0.56480629942E-02  0.24373610720E-01  0.00000000000E+00 0.  1.
     999901    1    3    3    0    0 -0.87164512906E-01 -0.38580560891E-01  0.93060865127E-01  0.89002608760E+00  0.88000000000E+00 0. -1.
        -11    1    4    4    0    0  0.25556526872E-01  0.18839270595E-01 -0.46492723975E-01  0.56301764502E-01  0.51100000000E-03 0. -1.
         11    1    4    4    0    0  0.40816807404E-01  0.31138622227E-01 -0.52216204146E-01  0.73228537179E-01  0.51100000000E-03 0.  1.
</event>
<event>
 8    1  0.1126407E+005  0.1043930E+01  0.7957747E-01            NaN
         13   -1    0    0    0    0  0.00000000000E+00  0.00000000000E+00  0.74505805969E-08  0.10566000000E+00  0.10566000000E+00 0. -1.
     999900   -1    0    0    0    0 -0.00000000000E+00 -0.00000000000E+00 -0.74505805969E-08  0.93827000000E+00  0.93827000000E+00 0. -1.
     999902    2    1    2    0    0  0.15131012555E-01 -0.19983856411E-01  0.15055838581E-02  0.10188188702E+01  0.10185093625E+01 0.  0.
     999903    2    3    3    0    0  0.12535363541E+00  0.66934396640E-02  0.31735389876E-01  0.13102692052E+00  0.20064468205E-01 0.  0.
         14    1    1    2    0    0 -0.15131012555E-01  0.19983856411E-01 -0.15055838581E-02  0.25111129818E-01  0.00000000000E+00 0.  1.
     999901    1    3    3    0    0 -0.11022262286E+00 -0.26677296075E-01 -0.30229806018E-01  0.88779194966E+00  0.88000000000E+00 0. -1.
        -11    1    4    4    0    0  0.10771221425E+00  0.10369113959E-02  0.32388373001E-01  0.11248228354E+00  0.51100000000E-03 0. -1.
         11    1    4    4    0    0  0.17641421159E-01  0.56565282681E-02 -0.65298312502E-03  0.18544636975E-01  0.51100000000E-03 0.  1.
</event>
<event>
 8    1  0.1126407E+005  0.1043930E+01  0.7957747E-01            NaN
         13   -1    0    0    0    0  0.00000000000E+00  0.00000000000E+00  0.74505805969E-08  0.10566000000E+00  0.10566000000E+00 0. -1.
     999900   -1    0    0    0    0 -0.00000000000E+00 -0.00000000000E+00 -0.74505805969E-08  0.93827000000E+00  0.93827000000E+00 0.  1.
     999902    2    1    2    0    0 -0.20181543681E-02  0.11271826180E-01 -0.20643287220E-01  0.10203233840E+01  0.10200502613E+01 0.  0.
     999903    2    3    3    0    0 -0.11111618608E+00 -0.52610813467E-01  0.35532485126E-01  0.12951527357E+00  0.19923455699E-01 0.  0.
         14    1    1    2    0    0  0.20181543681E-02 -0.11271826180E-01  0.20643287220E-01  0.23606616016E-01  0.00000000000E+00 0. -1.
     999901    1    3    3    0    0  0.10909803171E+00  0.63882639647E-01 -0.56175772345E-01  0.89080811041E+00  0.88000000000E+00 0.  1.
        -11    1    4    4    0    0 -0.34254438015E-01 -0.25337295652E-01  0.74444109003E-02  0.43255351685E-01  0.51100000000E-03 0. -1.
         11    1    4    4    0    0 -0.76861748067E-01 -0.27273517814E-01  0.28088074225E-01  0.86259921890E-01  0.51100000000E-03 0.  1.
</event>
<event>
 8    1  0.1126407E+005  0.1043930E+01  0.7957747E-01            NaN
         13   -1    0    0    0    0  0.00000000000E+00  0.00000000000E+00  0.74505805969E-08  0.10566000000E+00  0.10566000000E+00 0.  1.
     999900   -1    0    0    0    0 -0.00000000000E+00 -0.00000000000E+00 -0.74505805969E-08  0.93827000000E+00  0.93827000000E+00 0. -1.
     999902    2    1    2    0    0 -0.12948849559E-01  0.50819966964E-02  0.16831266925E-01  0.10220944569E+01  0.10218611882E+01 0.  0.
     999903    2    3    3    0    0  0.15616747735E-01 -0.11301074504E+00  0.64383365478E-01  0.13247482411E+00  0.19724349613E-01 0.  0.
         14    1    1    2    0    0  0.12948849559E-01 -0.50819966964E-02 -0.16831266925E-01  0.21835543081E-01  0.00000000000E+00 0. -1.
     999901    1    3    3    0    0 -0.28565597294E-01  0.11809274174E+00 -0.47552098552E-01  0.88961963281E+00  0.88000000000E+00 0. -1.
        -11    1    4    4    0    0  0.15312973430E-01 -0.90048316383E-01  0.59437487500E-01  0.10897826609E+00  0.51100000000E-03 0.  1.
         11    1    4    4    0    0  0.30377430492E-03 -0.22962428661E-01  0.49458779778E-02  0.23496558021E-01  0.51100000000E-03 0. -1.
</event>
<event>
 8    1  0.1126407E+005  0.1043930E+01  0.7957747E-01            NaN
         13   -1    0    0    0    0  0.00000000000E+00  0.00000000000E+00  0.74505805969E-08  0.10566000000E+00  0.10566000000E+00 0.  1.
     999900   -1    0    0    0    0 -0.00000000000E+00 -0.00000000000E+00 -0.74505805969E-08  0.93827000000E+00  0.93827000000E+00 0.  1.
     999902    2    1    2    0    0 -0.70432996543E-02  0.61999996647E-02 -0.15275502643E-01  0.10260026732E+01  0.10258460393E+01 0.  0.
     999903    2    3    3    0    0 -0.85562624470E-01 -0.10275410775E+00  0.79700008410E-02  0.13551031761E+00  0.20497704780E-01 0.  0.
         14    1    1    2    0    0  0.70432996543E-02 -0.61999996647E-02  0.15275502643E-01  0.17927326818E-01  0.00000000000E+00 0.  1.
     999901    1    3    3    0    0  0.78519324816E-01  0.10895410741E+00 -0.23245503484E-01  0.89049235557E+00  0.88000000000E+00 0.  1.
        -11    1    4    4    0    0 -0.39922544342E-01 -0.41909218097E-01  0.12849874112E-01  0.59292263356E-01  0.51100000000E-03 0.  1.
         11    1    4    4    0    0 -0.45640080128E-01 -0.60844889651E-01 -0.48798732705E-02  0.76218054258E-01  0.51100000000E-03 0. -1.
</event>
<event>
 8    1  0.1126407E+005  0.1043930E+01  0.7957747E-01            NaN
         13   -1    0    0    0    0  0.00000000000E+00  0.00000000000E+00  0.74505805969E-08  0.10566000000E+00  0.10566000000E+00 0. -1.
     999900   -1    0    0    0    0 -0.00000000000E+00 -0.00000000000E+00 -0.74505805969E-08  0.93827000000E+00  0.93827000000E+00 0. -1.
     999902    2    1    2    0    0 -0.49011660054E-02  0.14808899129E-01  0.20222790405E-01  0.10183901062E+01  0.10180698023E+01 0.  0.
     999903    2    3    3    0    0 -0.78689719952E-01 -0.28904357206E-01  0.98117998489E-01  0.13079601944E+00  0.21281991983E-01 0.  0.
         14    1    1    2    0    0  0.49011660054E-02 -0.14808899129E-01 -0.20222790405E-01  0.25539893762E-01  0.00000000000E+00 0. -1.
     999901    1    3    3    0    0  0.73788553946E-01  0.43713256335E-01 -0.77895208085E-01  0.88759408680E+00  0.88000000000E+00 0. -1.
        -11    1    4    4    0    0 -0.21367410726E-01 -0.50788017545E-02  0.40621791652E-01  0.46181723077E-01  0.51100000000E-03 0. -1.
         11    1    4    4    0    0 -0.57322309226E-01 -0.23825555452E-01  0.57496206837E-01  0.84614296365E-01  0.51100000000E-03 0.  1.
</event>
<event>
 8    1  0.1126407E+005  0.1043930E+01  0.7957747E-01            NaN
         13   -1    0    0    0    0  0.00000000000E+00  0.00000000000E+00  0.74505805969E-08  0.10566000000E+00  0.10566000000E+00 0. -1.
     999900   -1    0    0    0    0 -0.00000000000E+00 -0.00000000000E+00 -0.74505805969E-08  0.93827000000E+00  0.93827000000E+00 0.  1.
     999902    2    1    2    0    0  0.13864091824E-01  0.17642201799E-01 -0.72326831174E-02  0.10203551823E+01  0.10200828035E+01 0.  0.
     999903    2    3    3    0    0 -0.57569315773E-01  0.68852477688E-01 -0.94749986740E-01  0.13165697560E+00  0.17352505173E-01 0.  0.
         14    1    1    2    0    0 -0.13864091824E-01 -0.17642201799E-01  0.72326831174E-02  0.23574817741E-01  0.00000000000E+00 0. -1.
     999901    1    3    3    0    0  0.71433407597E-01 -0.51210275889E-01  0.87517303623E-01  0.88869820665E+00  0.88000000000E+00 0. -1.
        -11    1    4    4    0    0 -0.67017224903E-02  0.14860580456E-01 -0.10473610649E-01  0.19383177677E-01  0.51100000000E-03 0. -1.
         11    1    4    4    0    0 -0.50867593282E-01  0.53991897232E-01 -0.84276376091E-01  0.11227379793E+00  0.51100000000E-03 0.  1.
</event>
<event>
 8    1  0.1126407E+005  0.1043930E+01  0.7957747E-01            NaN
         13   -1    0    0    0    0  0.00000000000E+00  0.00000000000E+00  0.74505805969E-08  0.10566000000E+00  0.10566000000E+00 0. -1.
     999900   -1    0    0    0    0 -0.00000000000E+00 -0.00000000000E+00 -0.74505805969E-08  0.93827000000E+00  0.93827000000E+00 0.  1.
     999902    2    1    2    0    0  0.34999175277E-02 -0.40149997408E-03  0.19388305678E-01  0.10242242389E+01  0.10240346549E+01 0.  0.
     999903    2    3    3    0    0 -0.10941847663E+00 -0.71503446582E-01  0.21263557542E-01  0.13416268643E+00  0.21502131291E-01 0.  0.
         14    1    1    2    0    0 -0.34999175277E-02  0.40149997408E-03 -0.19388305678E-01  0.19705761138E-01  0.00000000000E+00 0.  1.
     999901    1    3    3    0    0  0.11291839415E+00  0.71101946608E-01 -0.18752518635E-02  0.89006155243E+00  0.88000000000E+00 0.  1.
        -11    1    4    4    0    0 -0.60886189319E-01 -0.38516751441E-01  0.92344626854E-03  0.72054021854E-01  0.51100000000E-03 0.  1.
         11    1    4    4    0    0 -0.48532287308E-01 -0.32986695141E-01  0.20340111273E-01  0.62108664575E-01  0.51100000000E-03 0. -1.
</event>
<event>
 8    1  0.1126407E+005  0.1043930E+01  0.7957747E-01            NaN
         13   -1    0    0    0    0  0.00000000000E+00  0.00000000000E+00  0.74505805969E-08  0.10566000000E+00  0.10566000000E+00 0. -1.
     999900   -1    0    0    0    0 -0.00000000000E+00 -0.00000000000E+00 -0.74505805969E-08  0.93827000000E+00  0.93827000000E+00 0. -1.
     999902    2    1    2    0    0  0.64222611476E-02 -0.10425290639E-03 -0.22848069819E-01  0.10201962561E+01  0.10199201490E+01 0.  0.
     999903    2    3    3    0    0  0.80772421347E-01 -0.54011449153E-01  0.82684032390E-01  0.12914577672E+00  0.20014038664E-01 0.  0.
         14    1    1    2    0    0 -0.64222611476E-02  0.10425290639E-03  0.22848069819E-01  0.23733743940E-01  0.00000000000E+00 0. -1.
     999901    1    3    3    0    0 -0.74350160199E-01  0.53907196247E-01 -0.10553210221E+00  0.89105047934E+00  0.88000000000E+00 0. -1.
        -11    1    4    4    0    0  0.60151420533E-01 -0.29442339329E-01  0.52489755220E-01  0.85091011637E-01  0.51100000000E-03 0. -1.
         11    1    4    4    0    0  0.20621000814E-01 -0.24569109824E-01  0.30194277170E-01  0.44054765087E-01  0.51100000000E-03 0.  1.
</event>
<event>
 8    1  0.1126407E+005  0.1043930E+01  0.7957747E-01            NaN
         13   -1    0    0    0    0  0.00000000000E+00  0.00000000000E+00  0.74505805969E-08  0.10566000000E+00  0.10566000000E+00 0.  1.
     999900   -1    0    0    0    0 -0.00000000000E+00 -0.00000000000E+00 -0.74505805969E-08  0.93827000000E+00  0.93827000000E+00 0. -1.
     999902    2    1    2    0    0  0.29700283663E-02  0.17513903694E-01 -0.15185428311E-01  0.10205600380E+01  0.10202924267E+01 0.  0.
     999903    2    3    3    0    0 -0.71358781048E-01 -0.58105026559E-01 -0.91066484696E-01  0.13095286107E+00  0.19679365924E-01 0.  0.
         14    1    1    2    0    0 -0.29700283663E-02 -0.17513903694E-01  0.15185428311E-01  0.23369962004E-01  0.00000000000E+00 0.  1.
     999901    1    3    3    0    0  0.74328809414E-01  0.75618930252E-01  0.75881056386E-01  0.88960717693E+00  0.88000000000E+00 0.  1.
        -11    1    4    4    0    0 -0.40201111504E-01 -0.22136966636E-01 -0.37225911800E-01  0.59094875314E-01  0.51100000000E-03 0. -1.
         11    1    4    4    0    0 -0.31157669544E-01 -0.35968059922E-01 -0.53840572896E-01  0.71857985755E-01  0.51100000000E-03 0.  1.
</event>
<event>
 8    1  0.1126407E+005  0.1043930E+01  0.7957747E-01            NaN
         13   -1    0    0    0    0  0.00000000000E+00  0.00000000000E+00  0.74505805969E-08  0.10566000000E+00  0.10566000000E+00 0.  1.
     999900   -1    0    0    0    0 -0.00000000000E+00 -0.00000000000E+00 -0.74505805969E-08  0.93827000000E+00  0.93827000000E+00 0.  1.
     999902    2    1    2    0    0  0.11993067503E-01  0.13238060943E-01  0.15970039247E-01  0.10199691553E+01  0.10196876755E+01 0.  0.
     999903    2    3    3    0    0 -0.78885793058E-01  0.79639558662E-01 -0.61560229543E-01  0.12941928652E+00  0.19856037128E-01 0.  0.
         14    1    1    2    0    0 -0.11993067503E-01 -0.13238060943E-01 -0.15970039247E-01  0.23960844710E-01  0.00000000000E+00 0.  1.
     999901    1    3    3    0    0  0.90878860561E-01 -0.66401497719E-01  0.77530268790E-01  0.89054986877E+00  0.88000000000E+00 0. -1.
        -11    1    4    4    0    0 -0.64403585009E-01  0.74179142777E-01 -0.51115738055E-01  0.11074044782E+00  0.51100000000E-03 0.  1.
         11    1    4    4    0    0 -0.14482208049E-01  0.54604158854E-02 -0.10444491489E-01  0.18678838697E-01  0.51100000000E-03 0. -1.
</event>
<event>
 8    1  0.1126407E+005  0.1043930E+01  0.7957747E-01            NaN
         13   -1    0    0    0    0  0.00000000000E+00  0.00000000000E+00  0.74505805969E-08  0.10566000000E+00  0.10566000000E+00 0.  1.
     999900   -1    0    0    0    0 -0.00000000000E+00 -0.00000000000E+00 -0.74505805969E-08  0.93827000000E+00  0.93827000000E+00 0. -1.
     999902    2    1    2    0    0  0.17835005044E-01 -0.15567328555E-01 -0.52441857318E-02  0.10196827196E+01  0.10193943879E+01 0.  0.
     999903    2    3    3    0    0 -0.39446665749E-01 -0.21027772163E-02 -0.12208492454E+00  0.13001185787E+00  0.20925899625E-01 0.  0.
         14    1    1    2    0    0 -0.17835005044E-01  0.15567328555E-01  0.52441857318E-02  0.24247280410E-01  0.00000000000E+00 0.  1.
     999901    1    3    3    0    0  0.57281670794E-01 -0.13464551339E-01  0.11684073881E+00  0.88967086172E+00  0.88000000000E+00 0.  1.
        -11    1    4    4    0    0 -0.27518499903E-01  0.95897163024E-03 -0.51913093103E-01  0.58765787836E-01  0.51100000000E-03 0. -1.
         11    1    4    4    0    0 -0.11928165846E-01 -0.30617488466E-02 -0.70171831439E-01  0.71246070032E-01  0.51100000000E-03 0.  1.
</event>
<event>
 8    1  0.1126407E+005  0.1043930E+01  0.7957747E-01            NaN
         13   -1    0    0    0    0  0.00000000000E+00  0.00000000000E+00  0.74505805969E-08  0.10566000000E+00  0.10566000000E+00 0. -1.
     999900   -1    0    0    0    0 -0.00000000000E+00 -0.00000000000E+00 -0.74505805969E-08  0.93827000000E+00  0.93827000000E+00 0.  1.
     999902    2    1    2    0    0 -0.62978936306E-02  0.22390950552E-01  0.44379710701E-04  0.10206701612E+01  0.10204050950E+01 0.  0.
     999903    2    3    3    0    0  0.82085006375E-01 -0.27663155515E-01 -0.94682607982E-01  0.12977726488E+00  0.19342796586E-01 0.  0.
         14    1    1    2    0    0  0.62978936306E-02 -0.22390950552E-01 -0.44379710701E-04  0.23259838786E-01  0.00000000000E+00 0. -1.
     999901    1    3    3    0    0 -0.88382900006E-01  0.50054106067E-01  0.94726987693E-01  0.89089289634E+00  0.88000000000E+00 0. -1.
        -11    1    4    4    0    0  0.78587255263E-02  0.29834627939E-02 -0.80694647967E-02  0.11663532923E-01  0.51100000000E-03 0.  1.
         11    1    4    4    0    0  0.74226280849E-01 -0.30646618309E-01 -0.86613143185E-01  0.11811373195E+00  0.51100000000E-03 0. -1.
</event>
<event>
 8    1  0.1126407E+005  0.1043930E+01  0.7957747E-01            NaN
         13   -1    0    0    0    0  0.00000000000E+00  0.00000000000E+00  0.74505805969E-08  0.10566000000E+00  0.10566000000E+00 0.  1.
     999900   -1    0    0    0    0 -0.00000000000E+00 -0.00000000000E+00 -0.74505805969E-08  0.93827000000E+00  0.93827000000E+00 0.  1.
     999902    2    1    2    0    0  0.98967029572E-02  0.42297723524E-02 -0.21276686878E-01  0.10200860677E+01  0.10198073604E+01 0.  0.
     999903    2    3    3    0    0 -0.12705537113E+00 -0.14080771928E-01  0.34109220007E-02  0.12896283005E+00  0.16686571670E-01 0.  0.
         14    1    1    2    0    0 -0.98967029572E-02 -0.42297723524E-02  0.21276686878E-01  0.23843932312E-01  0.00000000000E+00 0.  1.
     999901    1    3    3    0    0  0.13695207409E+00  0.18310544280E-01 -0.24687608879E-01  0.89112323764E+00  0.88000000000E+00 0.  1.
        -11    1    4    4    0    0 -0.47379597469E-01 -0.13219491776E-01 -0.32993801592E-03  0.49192999494E-01  0.51100000000E-03 0.  1.
         11    1    4    4    0    0 -0.79675773662E-01 -0.86128015217E-03  0.37408600166E-02  0.79769830555E-01  0.51100000000E-03 0. -1.
</event>
<event>
 8    1  0.1126407E+005  0.1043930E+01  0.7957747E-01            NaN
         13   -1    0    0    0    0  0.00000000000E+00  0.00000000000E+00  0.74505805969E-08  0.10566000000E+00  0.10566000000E+00 0. -1.
     999900   -1    0    0    0    0 -0.00000000000E+00 -0.00000000000E+00 -0.74505805969E-08  0.93827000000E+00  0.93827000000E+00 0. -1.
     999902    2    1    2    0    0 -0.15330441474E-01 -0.42541432363E-02 -0.17146208418E-01  0.10205395611E+01  0.10202714752E+01 0.  0.
     999903    2    3    3    0    0 -0.83354283480E-01  0.69820638379E-01 -0.73843423461E-01  0.13299863776E+00  0.20320638244E-01 0.  0.
         14    1    1    2    0    0  0.15330441474E-01  0.42541432363E-02  0.17146208418E-01  0.23390438935E-01  0.00000000000E+00 0. -1.
     999901    1    3    3    0    0  0.68023842006E-01 -0.74074781615E-01  0.56697215043E-01  0.88754092331E+00  0.88000000000E+00 0.  1.
        -11    1    4    4    0    0 -0.55330443776E-01  0.57776348186E-01 -0.56074581119E-01  0.97694340608E-01  0.51100000000E-03 0.  1.
         11    1    4    4    0    0 -0.28023839703E-01  0.12044290192E-01 -0.17768842343E-01  0.35304297149E-01  0.51100000000E-03 0. -1.
</event>
<event>
 8    1  0.1126407E+005  0.1043930E+01  0.7957747E-01            NaN
         13   -1    0    0    0    0  0.00000000000E+00  0.00000000000E+00  0.74505805969E-08  0.10566000000E+00  0.10566000000E+00 0. -1.
     999900   -1    0    0    0    0 -0.00000000000E+00 -0.00000000000E+00 -0.74505805969E-08  0.93827000000E+00  0.93827000000E+00 0. -1.
     999902    2    1    2    0    0 -0.19847795812E-01  0.11471093710E-01  0.62575769096E-02  0.10201670402E+01  0.10198902449E+01 0.  0.
     999903    2    3    3    0    0  0.29659075384E-01  0.12108335491E+00  0.34376851881E-01  0.13154086924E+00  0.24091341741E-01 0.  0.
         14    1    1    2    0    0  0.19847795812E-01 -0.11471093710E-01 -0.62575769096E-02  0.23762959796E-01  0.00000000000E+00 0. -1.
     999901    1    3    3    0    0 -0.49506871196E-01 -0.10961226120E+00 -0.28119274972E-01  0.88862617097E+00  0.88000000000E+00 0. -1.
        -11    1    4    4    0    0  0.74982150699E-02  0.73470184856E-01  0.26335206347E-01  0.78408516797E-01  0.51100000000E-03 0. -1.
         11    1    4    4    0    0  0.22160860314E-01  0.47613170050E-01  0.80416455347E-02  0.53132352441E-01  0.51100000000E-03 0.  1.
</event>
<event>
 8    1  0.1126407E+005  0.1043930E+01  0.7957747E-01            NaN
         13   -1    0    0    0    0  0.00000000000E+00  0.00000000000E+00  0.74505805969E-08  0.10566000000E+00  0.10566000000E+00 0. -1.
     999900   -1    0    0    0    0 -0.00000000000E+00 -0.00000000000E+00 -0.74505805969E-08  0.93827000000E+00  0.93827000000E+00 0. -1.
     999902    2    1    2    0    0 -0.13107878109E-01  0.45857919180E-02  0.18763098536E-01  0.10205869106E+01  0.10203199215E+01 0.  0.
     999903    2    3    3    0    0  0.78685059293E-01 -0.86698356591E-01 -0.50137432545E-01  0.12845125819E+00  0.16673931628E-01 0.  0.
         14    1    1    2    0    0  0.13107878109E-01 -0.45857919180E-02 -0.18763098536E-01  0.23343089400E-01  0.00000000000E+00 0.  1.
     999901    1    3    3    0    0 -0.91792937402E-01  0.91284148509E-01  0.68900531081E-01  0.89213565241E+00  0.88000000000E+00 0.  1.
        -11    1    4    4    0    0  0.43154285876E-01 -0.36295840021E-01 -0.27699588971E-01  0.62826815473E-01  0.51100000000E-03 0. -1.
         11    1    4    4    0    0  0.35530773417E-01 -0.50402516570E-01 -0.22437843574E-01  0.65624442713E-01  0.51100000000E-03 0.  1.
</event>
<event>
 8    1  0.1126407E+005  0.1043930E+01  0.7957747E-01            NaN
         13   -1    0    0    0    0  0.00000000000E+00  0.00000000000E+00  0.74505805969E-08  0.10566000000E+00  0.10566000000E+00 0. -1.
     999900   -1    0    0    0    0 -0.00000000000E+00 -0.00000000000E+00 -0.74505805969E-08  0.93827000000E+00  0.93827000000E+00 0.  1.
     999902    2    1    2    0    0 -0.16625516585E-01  0.12908656904E-01  0.10858874070E-01  0.10202454825E+01  0.10199705330E+01 0.  0.
     999903    2    3    3    0    0  0.21817186904E-01 -0.12408130962E+00  0.17375643527E-01  0.12879354284E+00  0.20339681582E-01 0.  0.
         14    1    1    2    0    0  0.16625516585E-01 -0.12908656904E-01 -0.10858874070E-01  0.23684517534E-01  0.00000000000E+00 0.  1.
     999901    1    3    3    0    0 -0.38442703488E-01  0.13698996653E+00 -0.65167694567E-02  0.89145193963E+00  0.88000000000E+00 0. -1.
        -11    1    4    4    0    0  0.23095984743E-01 -0.74366430518E-01  0.98126281012E-02  0.78487828933E-01  0.51100000000E-03 0.  1.
         11    1    4    4    0    0 -0.12787978392E-02 -0.49714879104E-01  0.75630154257E-02  0.50305713906E-01  0.51100000000E-03 0. -1.
</event>
<event>
 8    1  0.1126407E+005  0.1043930E+01  0.7957747E-01            NaN
         13   -1    0    0    0    0  0.00000000000E+00  0.00000000000E+00  0.74505805969E-08  0.10566000000E+00  0.10566000000E+00 0. -1.
     999900   -1    0    0    0    0 -0.00000000000E+00 -0.00000000000E+00 -0.74505805969E-08  0.93827000000E+00  0.93827000000E+00 0. -1.
     999902    2    1    2    0    0 -0.13439362632E-01  0.17223040742E-01  0.89960613541E-02  0.10203041938E+01  0.10200306216E+01 0.  0.
     999903    2    3    3    0    0 -0.95277478426E-01  0.67250608726E-02 -0.87601461291E-01  0.13118172405E+00  0.20288035003E-01 0.  0.
         14    1    1    2    0    0  0.13439362632E-01 -0.17223040742E-01 -0.89960613541E-02  0.23625806235E-01  0.00000000000E+00 0.  1.
     999901    1    3    3    0    0  0.81838115794E-01  0.10497979870E-01  0.96597522645E-01  0.88912246972E+00  0.88000000000E+00 0.  1.
        -11    1    4    4    0    0 -0.70112721913E-01  0.92529528196E-02 -0.53285283456E-01  0.88549384323E-01  0.51100000000E-03 0. -1.
         11    1    4    4    0    0 -0.25164756513E-01 -0.25278919470E-02 -0.34316177835E-01  0.42632339723E-01  0.51100000000E-03 0.  1.
</event>
<event>
 8    1  0.1126407E+005  0.1043930E+01  0.7957747E-01            NaN
         13   -1    0    0    0    0  0.00000000000E+00  0.00000000000E+00  0.74505805969E-08  0.10566000000E+00  0.10566000000E+00 0.  1.
     999900   -1    0    0    0    0 -0.00000000000E+00 -0.00000000000E+00 -0.74505805969E-08  0.93827000000E+00  0.93827000000E+00 0. -1.
     999902    2    1    2    0    0 -0.90000592305E-02  0.19534524575E-01 -0.10303642554E-01  0.10200812313E+01  0.10198024097E+01 0.  0.
     999903    2    3    3    0    0  0.72589938393E-01 -0.98909707634E-01 -0.30610576649E-01  0.12817409749E+00  0.20956202978E-01 0.  0.
         14    1    1    2    0    0  0.90000592305E-02 -0.19534524575E-01  0.10303642554E-01  0.23848768656E-01  0.00000000000E+00 0.  1.
     999901    1    3    3    0    0 -0.81589997623E-01  0.11844423221E+00  0.20306934094E-01  0.89190713386E+00  0.88000000000E+00 0.  1.
        -11    1    4    4    0    0  0.45588966325E-01 -0.77816334239E-01 -0.21481227055E-01  0.92711595616E-01  0.51100000000E-03 0. -1.
         11    1    4    4    0    0  0.27000972067E-01 -0.21093373396E-01 -0.91293495939E-02  0.35462501869E-01  0.51100000000E-03 0.  1.
</event>
<event>
 8    1  0.1126407E+005  0.1043930E+01  0.7957747E-01            NaN
         13   -1    0    0    0    0  0.00000000000E+00  0.00000000000E+00  0.74505805969E-08  0.10566000000E+00  0.10566000000E+00 0.  1.
     999900   -1    0    0    0    0 -0.00000000000E+00 -0.00000000000E+00 -0.74505805969E-08  0.93827000000E+00  0.93827000000E+00 0. -1.
     999902    2    1    2    0    0  0.59669106813E-02  0.20544288005E-01  0.10625007281E-01  0.10200435483E+01  0.10197638344E+01 0.  0.
     999903    2    3    3    0    0  0.27159226343E-01  0.11532295645E+00  0.57604446115E-01  0.13345504295E+00  0.21329988653E-01 0.  0.
         14    1    1    2    0    0 -0.59669106813E-02 -0.20544288005E-01 -0.10625007281E-01  0.23886451650E-01  0.00000000000E+00 0. -1.
     999901    1    3    3    0    0 -0.21192315662E-01 -0.94778668447E-01 -0.46979438834E-01  0.88658850540E+00  0.88000000000E+00 0. -1.
        -11    1    4    4    0    0  0.55897699064E-02  0.59630898988E-01  0.36342612165E-01  0.70058091765E-01  0.51100000000E-03 0.  1.
         11    1    4    4    0    0  0.21569456437E-01  0.55692057464E-01  0.21261833949E-01  0.63396951184E-01  0.51100000000E-03 0. -1.
</event>
<event>
 8    1  0.1126407E+005  0.1043930E+01  0.7957747E-01            NaN
         13   -1    0    0    0    0  0.00000000000E+00  0.00000000000E+00  0.74505805969E-08  0.10566000000E+00  0.10566000000E+00 0. -1.
     999900   -1    0    0    0    0 -0.00000000000E+00 -0.00000000000E+00 -0.74505805969E-08  0.93827000000E+00  0.93827000000E+00 0. -1.
     999902    2    1    2    0    0 -0.77381243204E-02  0.12700450908E-01  0.18537741810E-01  0.10201638919E+01  0.10198870224E+01 0.  0.
     999903    2    3    3    0    0 -0.80314682626E-02  0.12924413258E+00 -0.14709673790E-01  0.13185769110E+00  0.20038111440E-01 0.  0.
         14    1    1    2    0    0  0.77381243204E-02 -0.12700450908E-01 -0.18537741810E-01  0.23766108068E-01  0.00000000000E+00 0.  1.
     999901    1    3    3    0    0  0.29334394223E-03 -0.11654368167E+00  0.33247415600E-01  0.88830620083E+00  0.88000000000E+00 0.  1.
        -11    1    4    4    0    0 -0.60072978241E-02  0.76849089227E-01  0.10885144706E-02  0.77092905814E-01  0.51100000000E-03 0.  1.
         11    1    4    4    0    0 -0.20241704385E-02  0.52395043356E-01 -0.15798188260E-01  0.54764785288E-01  0.51100000000E-03 0. -1.
</event>
<event>
 8    1  0.1126407E+005  0.1043930E+01  0.7957747E-01            NaN
         13   -1    0    0    0    0  0.00000000000E+00  0.00000000000E+00  0.74505805969E-08  0.10566000000E+00  0.10566000000E+00 0. -1.
     999900   -1    0    0    0    0 -0.00000000000E+00 -0.00000000000E+00 -0.74505805969E-08  0.93827000000E+00  0.93827000000E+00 0. -1.
     999902    2    1    2    0    0  0.69475676260E-02 -0.22588304997E-01  0.46625105089E-04  0.10202973448E+01  0.10200236122E+01 0.  0.
     999903    2    3    3    0    0  0.34705918775E-01  0.82236967550E-01  0.90985238938E-01  0.12899004912E+00  0.19816645459E-01 0.  0.
         14    1    1    2    0    0 -0.69475676260E-02  0.22588304997E-01 -0.46625105089E-04  0.23632655214E-01  0.00000000000E+00 0.  1.
     999901    1    3    3    0    0 -0.27758351149E-01 -0.10482527255E+00 -0.90938613833E-01  0.89130729567E+00  0.88000000000E+00 0. -1.
        -11    1    4    4    0    0  0.35303216638E-01  0.63353145913E-01  0.71560558488E-01  0.10188774634E+00  0.51100000000E-03 0.  1.
         11    1    4    4    0    0 -0.59729786268E-03  0.18883821637E-01  0.19424680450E-01  0.27102302779E-01  0.51100000000E-03 0. -1.
</event>
<event>
 8    1  0.1126407E+005  0.1043930E+01  0.7957747E-01            NaN
         13   -1    0    0    0    0  0.00000000000E+00  0.00000000000E+00  0.74505805969E-08  0.10566000000E+00  0.10566000000E+00 0.  1.
     999900   -1    0    0    0    0 -0.00000000000E+00 -0.00000000000E+00 -0.74505805969E-08  0.93827000000E+00  0.93827000000E+00 0. -1.
     999902    2    1    2    0    0  0.62885741032E-03 -0.28946347230E-02  0.22673368116E-01  0.10210639554E+01  0.10208078884E+01 0.  0.
     999903    2    3    3    0    0 -0.27027079862E-01  0.12128258222E+00  0.39688299487E-01  0.13175279507E+00  0.18539420080E-01 0.  0.
         14    1    1    2    0    0 -0.62885741032E-03  0.28946347230E-02 -0.22673368116E-01  0.22866044554E-01  0.00000000000E+00 0. -1.
     999901    1    3    3    0    0  0.27655937272E-01 -0.12417721695E+00 -0.17014931371E-01  0.88931116037E+00  0.88000000000E+00 0.  1.
        -11    1    4    4    0    0 -0.56949274935E-02  0.37052739109E-01  0.35927529753E-02  0.37663067714E-01  0.51100000000E-03 0. -1.
         11    1    4    4    0    0 -0.21332152369E-01  0.84229843113E-01  0.36095546512E-01  0.94089727359E-01  0.51100000000E-03 0.  1.
</event>
<event>
 8    1  0.1126407E+005  0.1043930E+01  0.7957747E-01            NaN
         13   -1    0    0    0    0  0.00000000000E+00  0.00000000000E+00  0.74505805969E-08  0.10566000000E+00  0.10566000000E+00 0.  1.
     999900   -1    0    0    0    0 -0.00000000000E+00 -0.00000000000E+00 -0.74505805969E-08  0.93827000000E+00  0.93827000000E+00 0.  1.
     999902    2    1    2    0    0  0.12374301299E-01  0.12456066240E-01 -0.20293744667E-01  0.10170950789E+01  0.10167410125E+01 0.  0.
     999903    2    3    3    0    0  0.23090989659E-02 -0.56867374330E-01 -0.11437752714E+00  0.12931199398E+00  0.20003571462E-01 0.  0.
         14    1    1    2    0    0 -0.12374301299E-01 -0.12456066240E-01  0.20293744667E-01  0.26834921118E-01  0.00000000000E+00 0.  1.
     999901    1    3    3    0    0  0.10065202334E-01  0.69323440569E-01  0.94083782475E-01  0.88778308490E+00  0.88000000000E+00 0. -1.
        -11    1    4    4    0    0 -0.57342014108E-02 -0.42113127542E-01 -0.70475167274E-01  0.82300710206E-01  0.51100000000E-03 0.  1.
         11    1    4    4    0    0  0.80433003767E-02 -0.14754246787E-01 -0.43902359868E-01  0.47011283775E-01  0.51100000000E-03 0. -1.
</event>
<event>
 8    1  0.1126407E+005  0.1043930E+01  0.7957747E-01            NaN
         13   -1    0    0    0    0  0.00000000000E+00  0.00000000000E+00  0.74505805969E-08  0.10566000000E+00  0.10566000000E+00 0.  1.
     999900   -1    0    0    0    0 -0.00000000000E+00 -0.00000000000E+00 -0.74505805969E-08  0.93827000000E+00  0.93827000000E+00 0.  1.
     999902    2    1    2    0    0  0.17858185388E-01  0.49162434785E-02  0.13784293091E-01  0.10208412371E+01  0.10205801000E+01 0.  0.
     999903    2    3    3    0    0  0.21192511068E-01 -0.17992452452E-01  0.12851653366E+00  0.13309160287E+00  0.20591854211E-01 0.  0.
         14    1    1    2    0    0 -0.17858185388E-01 -0.49162434785E-02 -0.13784293091E-01  0.23088762880E-01  0.00000000000E+00 0. -1.
     999901    1    3    3    0    0 -0.33343256800E-02  0.22908695931E-01 -0.11473224057E+00  0.88774963425E+00  0.88000000000E+00 0.  1.
        -11    1    4    4    0    0  0.92598003957E-02  0.32051801961E-02  0.47385788222E-01  0.48391023236E-01  0.51100000000E-03 0.  1.
         11    1    4    4    0    0  0.11932710672E-01 -0.21197632648E-01  0.81130745443E-01  0.84700579638E-01  0.51100000000E-03 0. -1.
</event>
<event>
 8    1  0.1126407E+005  0.1043930E+01  0.7957747E-01            NaN
         13   -1    0    0    0    0  0.00000000000E+00  0.00000000000E+00  0.74505805969E-08  0.10566000000E+00  0.10566000000E+00 0.  1.
     999900   -1    0    0    0    0 -0.00000000000E+00 -0.00000000000E+00 -0.74505805969E-08  0.93827000000E+00  0.93827000000E+00 0.  1.
     999902    2    1    2    0    0 -0.25170663329E-01 -0.78513169336E-02  0.70142428012E-03  0.10175539225E+01  0.10172120171E+01 0.  0.
     999903    2    3    3    0    0 -0.22485098504E-01  0.11030956700E+00 -0.57115394100E-01  0.12777193162E+00  0.19741277581E-01 0.  0.
         14    1    1    2    0    0  0.25170663329E-01  0.78513169336E-02 -0.70142428012E-03  0.26376077533E-01  0.00000000000E+00 0.  1.
     999901    1    3    3    0    0 -0.26855648248E-02 -0.11816088393E+00  0.57816818380E-01  0.88978199085E+00  0.88000000000E+00 0.  1.
        -11    1    4    4    0    0 -0.17264227440E-01  0.73198176260E-01 -0.27774658322E-01  0.80173058585E-01  0.51100000000E-03 0.  1.
         11    1    4    4    0    0 -0.52208710642E-02  0.37111390737E-01 -0.29340735779E-01  0.47598873034E-01  0.51100000000E-03 0. -1.
</event>
<event>
 8    1  0.1126407E+005  0.1043930E+01  0.7957747E-01            NaN
         13   -1    0    0    0    0  0.00000000000E+00  0.00000000000E+00  0.74505805969E-08  0.10566000000E+00  0.10566000000E+00 0. -1.
     999900   -1    0    0    0    0 -0.00000000000E+00 -0.00000000000E+00 -0.74505805969E-08  0.93827000000E+00  0.93827000000E+00 0.  1.
     999902    2    1    2    0    0  0.14200593616E-01  0.20629540403E-01  0.18308843478E-03  0.10188846747E+01  0.10185768072E+01 0.  0.
     999903    2    3    3    0    0  0.92214348821E-01 -0.85933889078E-01  0.17236947222E-01  0.12886627908E+00  0.20525255510E-01 0.  0.
         14    1    1    2    0    0 -0.14200593616E-01 -0.20629540403E-01 -0.18308843478E-03  0.25045325266E-01  0.00000000000E+00 0. -1.
     999901    1    3    3    0    0 -0.78013755205E-01  0.10656342948E+00 -0.17053858787E-01  0.89001839565E+00  0.88000000000E+00 0. -1.
        -11    1    4    4    0    0  0.73061247885E-01 -0.61156246156E-01  0.20223717230E-01  0.97402732231E-01  0.51100000000E-03 0. -1.
         11    1    4    4    0    0  0.19153100935E-01 -0.24777642923E-01 -0.29867700076E-02  0.31463546849E-01  0.51100000000E-03 0.  1.
</event>
<event>
 8    1  0.1126407E+005  0.1043930E+01  0.7957747E-01            NaN
         13   -1    0    0    0    0  0.00000000000E+00  0.00000000000E+00  0.74505805969E-08  0.10566000000E+00  0.10566000000E+00 0. -1.
     999900   -1    0    0    0    0 -0.00000000000E+00 -0.00000000000E+00 -0.74505805969E-08  0.93827000000E+00  0.93827000000E+00 0.  1.
     999902    2    1    2    0    0 -0.32979103769E-02  0.25279350490E-01  0.90164914141E-02  0.10168889406E+01  0.10165293398E+01 0.  0.
     999903    2    3    3    0    0  0.52425857263E-01 -0.10952235487E+00 -0.18191567250E-01  0.12446700203E+00  0.20432443545E-01 0.  0.
         14    1    1    2    0    0  0.32979103769E-02 -0.25279350490E-01 -0.90164914141E-02  0.27041059363E-01  0.00000000000E+00 0.  1.
     999901    1    3    3    0    0 -0.55723767640E-01  0.13480170536E+00  0.27208058664E-01  0.89242193861E+00  0.88000000000E+00 0.  1.
        -11    1    4    4    0    0  0.34206166295E-01 -0.61127955305E-01 -0.12881330835E-02  0.70061466872E-01  0.51100000000E-03 0.  1.
         11    1    4    4    0    0  0.18219690968E-01 -0.48394399566E-01 -0.16903434166E-01  0.54405535159E-01  0.51100000000E-03 0. -1.
</event>
<event>
 8    1  0.1126407E+005  0.1043930E+01  0.7957747E-01            NaN
         13   -1    0    0    0    0  0.00000000000E+00  0.00000000000E+00  0.74505805969E-08  0.10566000000E+00  0.10566000000E+00 0.  1.
     999900   -1    0    0    0    0 -0.00000000000E+00 -0.00000000000E+00 -0.74505805969E-08  0.93827000000E+00  0.93827000000E+00 0. -1.
     999902    2    1    2    0    0 -0.11931708400E-01 -0.10708167252E-01  0.19956612508E-01  0.10183312326E+01  0.10180094314E+01 0.  0.
     999903    2    3    3    0    0 -0.62954294362E-01  0.77474442848E-01  0.81478469184E-01  0.13031973723E+00  0.19466907771E-01 0.  0.
         14    1    1    2    0    0  0.11931708400E-01  0.10708167252E-01 -0.19956612508E-01  0.25598767432E-01  0.00000000000E+00 0.  1.
     999901    1    3    3    0    0  0.51022585962E-01 -0.88182610100E-01 -0.61521856676E-01  0.88801149534E+00  0.88000000000E+00 0. -1.
        -11    1    4    4    0    0 -0.55954153654E-01  0.56397872873E-01  0.62029762538E-01  0.10079454319E+00  0.51100000000E-03 0.  1.
         11    1    4    4    0    0 -0.70001407075E-02  0.21076569975E-01  0.19448706646E-01  0.29525194039E-01  0.51100000000E-03 0. -1.
</event>
<event>
 8    1  0.1126407E+005  0.1043930E+01  0.7957747E-01            NaN
         13   -1    0    0    0    0  0.00000000000E+00  0.00000000000E+00  0.74505805969E-08  0.10566000000E+00  0.10566000000E+00 0. -1.
     999900   -1    0    0    0    0 -0.00000000000E+00 -0.00000000000E+00 -0.74505805969E-08  0.93827000000E+00  0.93827000000E+00 0. -1.
     999902    2    1    2    0    0 -0.19017807340E-01  0.14157215006E-01 -0.89596500188E-03  0.10202043496E+01  0.10199284330E+01 0.  0.
     999903    2    3    3    0    0  0.11359104056E+00 -0.53694825930E-01  0.94759389023E-02  0.12762573549E+00  0.20309507978E-01 0.  0.
         14    1    1    2    0    0  0.19017807340E-01 -0.14157215006E-01  0.89596500188E-03  0.23725650382E-01  0.00000000000E+00 0. -1.
     999901    1    3    3    0    0 -0.13260884790E+00  0.67852040935E-01 -0.10371903904E-01  0.89257861412E+00  0.88000000000E+00 0.  1.
        -11    1    4    4    0    0  0.84176390389E-01 -0.39848904474E-01  0.15904520556E-01  0.94481822494E-01  0.51100000000E-03 0. -1.
         11    1    4    4    0    0  0.29414650175E-01 -0.13845921456E-01 -0.64285816537E-02  0.33143913000E-01  0.51100000000E-03 0.  1.
</event>
<event>
 8    1  0.1126407E+005  0.1043930E+01  0.7957747E-01            NaN
         13   -1    0    0    0    0  0.00000000000E+00  0.00000000000E+00  0.74505805969E-08  0.10566000000E+00  0.10566000000E+00 0.  1.
     999900   -1    0    0    0    0 -0.00000000000E+00 -0.00000000000E+00 -0.74505805969E-08  0.93827000000E+00  0.93827000000E+00 0. -1.
     999902    2    1    2    0    0  0.10119005061E-01  0.20196810769E-01 -0.17370720737E-02  0.10212733708E+01  0.10210220247E+01 0.  0.
     999903    2    3    3    0    0  0.12914792214E+00 -0.16492605343E-01 -0.13667401296E-01  0.13242224200E+00  0.19941426588E-01 0.  0.
         14    1    1    2    0    0 -0.10119005061E-01 -0.20196810769E-01  0.17370720737E-02  0.22656629230E-01  0.00000000000E+00 0.  1.
     999901    1    3    3    0    0 -0.11902891708E+00  0.36689416111E-01  0.11930329222E-01  0.88885112877E+00  0.88000000000E+00 0. -1.
        -11    1    4    4    0    0  0.51071073346E-01 -0.85871850427E-02  0.41195266375E-02  0.51954074916E-01  0.51100000000E-03 0. -1.
         11    1    4    4    0    0  0.78076848796E-01 -0.79054203000E-02 -0.17786927933E-01  0.80468167086E-01  0.51100000000E-03 0.  1.
</event>
<event>
 8    1  0.1126407E+005  0.1043930E+01  0.7957747E-01            NaN
         13   -1    0    0    0    0  0.00000000000E+00  0.00000000000E+00  0.74505805969E-08  0.10566000000E+00  0.10566000000E+00 0.  1.
     999900   -1    0    0    0    0 -0.00000000000E+00 -0.00000000000E+00 -0.74505805969E-08  0.93827000000E+00  0.93827000000E+00 0. -1.
     999902    2    1    2    0    0 -0.80542131161E-02  0.22402864150E-01 -0.27414594886E-02  0.10199659797E+01  0.10196844244E+01 0.  0.
     999903    2    3    3    0    0 -0.67539286843E-01  0.34368316579E-01 -0.10608651147E+00  0.13184332719E+00  0.19636154326E-01 0.  0.
         14    1    1    2    0    0  0.80542131161E-02 -0.22402864150E-01  0.27414594886E-02  0.23964020347E-01  0.00000000000E+00 0.  1.
     999901    1    3    3    0    0  0.59485073727E-01 -0.11965452428E-01  0.10334505198E+00  0.88812265246E+00  0.88000000000E+00 0.  1.
        -11    1    4    4    0    0 -0.49410774991E-01  0.27229391628E-01 -0.91513109179E-01  0.10750709152E+00  0.51100000000E-03 0. -1.
         11    1    4    4    0    0 -0.18128511852E-01  0.71389249507E-02 -0.14573402293E-01  0.24336235674E-01  0.51100000000E-03 0.  1.
</event>
<event>
 8    1  0.1126407E+005  0.1043930E+01  0.7957747E-01            NaN
         13   -1    0    0    0    0  0.00000000000E+00  0.00000000000E+00  0.74505805969E-08  0.10566000000E+00  0.10566000000E+00 0. -1.
     999900   -1    0    0    0    0 -0.00000000000E+00 -0.00000000000E+00 -0.74505805969E-08  0.93827000000E+00  0.93827000000E+00 0.  1.
     999902    2    1    2    0    0 -0.68403722570E-02 -0.17190456400E-01 -0.18165316810E-01  0.10180016137E+01  0.10176713635E+01 0.  0.
     999903    2    3    3    0    0 -0.37994255465E-01 -0.11309130260E+00 -0.51788074117E-01  0.13160552468E+00  0.20119724945E-01 0.  0.
         14    1    1    2    0    0  0.68403722570E-02  0.17190456400E-01  0.18165316810E-01  0.25928386349E-01  0.00000000000E+00 0. -1.
     999901    1    3    3    0    0  0.31153883208E-01  0.95900846203E-01  0.33622757308E-01  0.88639608898E+00  0.88000000000E+00 0. -1.
        -11    1    4    4    0    0 -0.74158331369E-02 -0.12313941042E-01 -0.32207145135E-03  0.14387236570E-01  0.51100000000E-03 0. -1.
         11    1    4    4    0    0 -0.30578422328E-01 -0.10077736156E+00 -0.51466002666E-01  0.11721828811E+00  0.51100000000E-03 0.  1.
</event>
<event>
 8    1  0.1126407E+005  0.1043930E+01  0.7957747E-01            NaN
         13   -1    0    0    0    0  0.00000000000E+00  0.00000000000E+00  0.74505805969E-08  0.10566000000E+00  0.10566000000E+00 0. -1.
     999900   -1    0    0    0    0 -0.00000000000E+00 -0.00000000000E+00 -0.74505805969E-08  0.93827000000E+00  0.93827000000E+00 0.  1.
     999902    2    1    2    0    0 -0.14240020088E-01 -0.18081774420E-01 -0.15599168054E-02  0.10208613616E+01  0.10206006846E+01 0.  0.
     999903    2    3    3    0    0 -0.28794086515E-01  0.10891605102E+00  0.60436301343E-01  0.12946706073E+00  0.20429579184E-01 0.  0.
         14    1    1    2    0    0  0.14240020088E-01  0.18081774420E-01  0.15599168054E-02  0.23068638424E-01  0.00000000000E+00 0.  1.
     999901    1    3    3    0    0  0.14554066427E-01 -0.12699782544E+00 -0.61996218148E-01  0.89139430085E+00  0.88000000000E+00 0.  1.
        -11    1    4    4    0    0 -0.38310610126E-03  0.73068435992E-02  0.10321578300E-01  0.12662260196E-01  0.51100000000E-03 0.  1.
         11    1    4    4    0    0 -0.28410980414E-01  0.10160920742E+00  0.50114723043E-01  0.11680480053E+00  0.51100000000E-03 0. -1.
</event>
<event>
 8    1  0.1126407E+005  0.1043930E+01  0.7957747E-01            NaN
         13   -1    0    0    0    0  0.00000000000E+00  0.00000000000E+00  0.74505805969E-08  0.10566000000E+00  0.10566000000E+00 0.  1.
     999900   -1    0    0    0    0 -0.00000000000E+00 -0.00000000000E+00 -0.74505805969E-08  0.93827000000E+00  0.93827000000E+00 0. -1.
     999902    2    1    2    0    0  0.18478375882E-01 -0.60132470249E-02 -0.29131572553E-02  0.10242806743E+01  0.10240921852E+01 0.  0.
     999903    2    3    3    0    0  0.37279457617E-01 -0.29026247823E-01  0.12430913489E+00  0.13463546946E+00  0.21015889187E-01 0.  0.
         14    1    1    2    0    0 -0.18478375882E-01  0.60132470249E-02  0.29131572553E-02  0.19649325694E-01  0.00000000000E+00 0. -1.
     999901    1    3    3    0    0 -0.18801081735E-01  0.23013000798E-01 -0.12722229214E+00  0.88964520484E+00  0.88000000000E+00 0. -1.
        -11    1    4    4    0    0  0.36046606780E-01 -0.31587388779E-01  0.10924992097E+00  0.11930183294E+00  0.51100000000E-03 0.  1.
         11    1    4    4    0    0  0.12328508375E-02  0.25611409563E-02  0.15059213918E-01  0.15333636523E-01  0.51100000000E-03 0. -1.
</event>
<event>
 8    1  0.1126407E+005  0.1043930E+01  0.7957747E-01            NaN
         13   -1    0    0    0    0  0.00000000000E+00  0.00000000000E+00  0.74505805969E-08  0.10566000000E+00  0.10566000000E+00 0.  1.
     999900   -1    0    0    0    0 -0.00000000000E+00 -0.00000000000E+00 -0.74505805969E-08  0.93827000000E+00  0.93827000000E+00 0.  1.
     999902    2    1    2    0    0 -0.83943737908E-02  0.10151888923E-01  0.17690686253E-01  0.10218735556E+01  0.10216354912E+01 0.  0.
     999903    2    3    3    0    0 -0.33612526993E-01  0.12010369958E+00 -0.38093610629E-01  0.13292066387E+00  0.25730897539E-01 0.  0.
         14    1    1    2    0    0  0.83943737908E-02 -0.10151888923E-01 -0.17690686253E-01  0.22056444413E-01  0.00000000000E+00 0. -1.
     999901    1    3    3    0    0  0.25218153202E-01 -0.10995181066E+00  0.55784296882E-01  0.88895289172E+00  0.88000000000E+00 0.  1.
        -11    1    4    4    0    0 -0.35447719478E-01  0.83917509084E-01 -0.26491000449E-01  0.94872142238E-01  0.51100000000E-03 0. -1.
         11    1    4    4    0    0  0.18351924851E-02  0.36186190498E-01 -0.11602610179E-01  0.38048521629E-01  0.51100000000E-03 0.  1.
</event>
<event>
 8    1  0.1126407E+005  0.1043930E+01  0.7957747E-01            NaN
         13   -1    0    0    0    0  0.00000000000E+00  0.00000000000E+00  0.74505805969E-08  0.10566000000E+00  0.10566000000E+00 0.  1.
     999900   -1    0    0    0    0 -0.00000000000E+00 -0.00000000000E+00 -0.74505805969E-08  0.93827000000E+00  0.93827000000E+00 0. -1.
     999902    2    1    2    0    0  0.11163847101E-02 -0.14258910930E-01  0.17550053752E-01  0.10212900521E+01  0.10210390802E+01 0.  0.
     999903    2    3    3    0    0  0.80779228376E-01  0.99284632753E-01  0.15986531468E-01  0.13042488293E+00  0.19296602341E-01 0.  0.
         14    1    1    2    0    0 -0.11163847101E-02  0.14258910930E-01 -0.17550053752E-01  0.22639947934E-01  0.00000000000E+00 0. -1.
     999901    1    3    3    0    0 -0.79662843666E-01 -0.11354354368E+00  0.15635222841E-02  0.89086516913E+00  0.88000000000E+00 0. -1.
        -11    1    4    4    0    0  0.48710417101E-01  0.73970571602E-01  0.10098710051E-01  0.89143677639E-01  0.51100000000E-03 0.  1.
         11    1    4    4    0    0  0.32068811274E-01  0.25314061151E-01  0.58878214170E-02  0.41281205294E-01  0.51100000000E-03 0. -1.
</event>
<event>
 8    1  0.1126407E+005  0.1043930E+01  0.7957747E-01            NaN
         13   -1    0    0    0    0  0.00000000000E+00  0.00000000000E+00  0.74505805969E-08  0.10566000000E+00  0.10566000000E+00 0. -1.
     999900   -1    0    0    0    0 -0.00000000000E+00 -0.00000000000E+00 -0.74505805969E-08  0.93827000000E+00  0.93827000000E+00 0.  1.
     999902    2    1    2    0    0  0.12551972509E-01 -0.49943276701E-02  0.20250603915E-01  0.10195869870E+01  0.10192963464E+01 0.  0.
     999903    2    3    3    0    0  0.83887562952E-01  0.80474289685E-01 -0.53659672219E-01  0.12949913745E+00  0.19427600422E-01 0.  0.
         14    1    1    2    0    0 -0.12551972509E-01  0.49943276701E-02 -0.20250603915E-01  0.24343012995E-01  0.00000000000E+00 0.  1.
     999901    1    3    3    0    0 -0.71335590442E-01 -0.85468617355E-01  0.73910276134E-01  0.89008784956E+00  0.88000000000E+00 0. -1.
        -11    1    4    4    0    0  0.29809101196E-02  0.97859239123E-02 -0.67476396676E-02  0.12265475696E-01  0.51100000000E-03 0. -1.
         11    1    4    4    0    0  0.80906652832E-01  0.70688365772E-01 -0.46912032552E-01  0.11723366175E+00  0.51100000000E-03 0.  1.
</event>
<event>
 8    1  0.1126407E+005  0.1043930E+01  0.7957747E-01            NaN
         13   -1    0    0    0    0  0.00000000000E+00  0.00000000000E+00  0.74505805969E-08  0.10566000000E+00  0.10566000000E+00 0. -1.
     999900   -1    0    0    0    0 -0.00000000000E+00 -0.00000000000E+00 -0.74505805969E-08  0.93827000000E+00  0.93827000000E+00 0.  1.
     999902    2    1    2    0    0 -0.10657916205E-01 -0.19257719583E-01 -0.95796674238E-02  0.10199253969E+01  0.10196428759E+01 0.  0.
     999903    2    3    3    0    0  0.70181077289E-01  0.15977795634E-01  0.10409278984E+00  0.12824276731E+00  0.20741863631E-01 0.  0.
         14    1    1    2    0    0  0.10657916205E-01  0.19257719583E-01  0.95796674238E-02  0.24004603086E-01  0.00000000000E+00 0.  1.
     999901    1    3    3    0    0 -0.80838993494E-01 -0.35235515217E-01 -0.11367245727E+00  0.89168262961E+00  0.88000000000E+00 0. -1.
        -11    1    4    4    0    0  0.53900252140E-04  0.36610004966E-02  0.47766393013E-02  0.60401352541E-02  0.51100000000E-03 0. -1.
         11    1    4    4    0    0  0.70127177037E-01  0.12316795137E-01  0.99316150540E-01  0.12220263205E+00  0.51100000000E-03 0.  1.
</event>
<event>
 8    1  0.1126407E+005  0.1043930E+01  0.7957747E-01            NaN
         13   -1    0    0    0    0  0.00000000000E+00  0.00000000000E+00  0.74505805969E-08  0.10566000000E+00  0.10566000000E+00 0.  1.
     999900   -1    0    0    0    0 -0.00000000000E+00 -0.00000000000E+00 -0.74505805969E-08  0.93827000000E+00  0.93827000000E+00 0.  1.
     999902    2    1    2    0    0  0.13832862481E-01  0.52163459556E-02 -0.17877984439E-01  0.10207312785E+01  0.10204676194E+01 0.  0.
     999903    2    3    3    0    0  0.96488106097E-01  0.79283371523E-01 -0.43189875077E-01  0.13339903785E+00  0.18279233336E-01 0.  0.
         14    1    1    2    0    0 -0.13832862481E-01 -0.52163459556E-02  0.17877984439E-01  0.23198721455E-01  0.00000000000E+00 0.  1.
     999901    1    3    3    0    0 -0.82655243615E-01 -0.74067025567E-01  0.25311890639E-01  0.88733224070E+00  0.88000000000E+00 0. -1.
        -11    1    4    4    0    0  0.53362736382E-01  0.44071817278E-01 -0.33473555220E-01  0.76880730567E-01  0.51100000000E-03 0.  1.
         11    1    4    4    0    0  0.43125369714E-01  0.35211554245E-01 -0.97163198569E-02  0.56518307281E-01  0.51100000000E-03 0. -1.
</event>
<event>
 8    1  0.1126407E+005  0.1043930E+01  0.7957747E-01            NaN
         13   -1    0    0    0    0  0.00000000000E+00  0.00000000000E+00  0.74505805969E-08  0.10566000000E+00  0.10566000000E+00 0.  1.
     999900   -1    0    0    0    0 -0.00000000000E+00 -0.00000000000E+00 -0.74505805969E-08  0.93827000000E+00  0.93827000000E+00 0.  1.
     999902    2    1    2    0    0  0.21034770168E-01  0.32710819755E-02 -0.99692982215E-02  0.10204236511E+01  0.10201528705E+01 0.  0.
     999903    2    3    3    0    0 -0.11750904150E+00  0.42770468653E-01  0.25580575801E-01  0.12800089091E+00  0.96007496095E-02 0.  0.
         14    1    1    2    0    0 -0.21034770168E-01 -0.32710819755E-02  0.99692982215E-02  0.23506348937E-01  0.00000000000E+00 0. -1.
     999901    1    3    3    0    0  0.13854381166E+00 -0.39499386678E-01 -0.35549874023E-01  0.89242276015E+00  0.88000000000E+00 0.  1.
        -11    1    4    4    0    0 -0.75509263132E-01  0.28933495106E-01  0.12073375378E-01  0.81760769760E-01  0.51100000000E-03 0.  1.
         11    1    4    4    0    0 -0.41999778364E-01  0.13836973547E-01  0.13507200423E-01  0.46240121149E-01  0.51100000000E-03 0. -1.
</event>
<event>
 8    1  0.1126407E+005  0.1043930E+01  0.7957747E-01            NaN
         13   -1    0    0    0    0  0.00000000000E+00  0.00000000000E+00  0.74505805969E-08  0.10566000000E+00  0.10566000000E+00 0. -1.
     999900   -1    0    0    0    0 -0.00000000000E+00 -0.00000000000E+00 -0.74505805969E-08  0.93827000000E+00  0.93827000000E+00 0.  1.
     999902    2    1    2    0    0 -0.24410614938E-01 -0.11888283775E-02  0.43595817093E-02  0.10191046624E+01  0.10188022455E+01 0.  0.
     999903    2    3    3    0    0  0.10455547430E+00 -0.47190406007E-01  0.51247118449E-01  0.12728246127E+00  0.20390590261E-01 0.  0.
         14    1    1    2    0    0  0.24410614938E-01  0.11888283775E-02 -0.43595817093E-02  0.24825337605E-01  0.00000000000E+00 0. -1.
     999901    1    3    3    0    0 -0.12896608924E+00  0.46001577629E-01 -0.46887536740E-01  0.89182220113E+00  0.88000000000E+00 0. -1.
        -11    1    4    4    0    0  0.24843151004E-01 -0.46756153643E-02  0.17910149987E-01  0.30985127471E-01  0.51100000000E-03 0.  1.
         11    1    4    4    0    0  0.79712323301E-01 -0.42514790642E-01  0.33336968463E-01  0.96297333798E-01  0.51100000000E-03 0. -1.
</event>
<event>
 8    1  0.1126407E+005  0.1043930E+01  0.7957747E-01            NaN
         13   -1    0    0    0    0  0.00000000000E+00  0.00000000000E+00  0.74505805969E-08  0.10566000000E+00  0.10566000000E+00 0.  1.
     999900   -1    0    0    0    0 -0.00000000000E+00 -0.00000000000E+00 -0.74505805969E-08  0.93827000000E+00  0.93827000000E+00 0. -1.
     999902    2    1    2    0    0 -0.11777775291E-01  0.87859323584E-03 -0.20334033369E-01  0.10204148808E+01  0.10201438958E+01 0.  0.
     999903    2    3    3    0    0 -0.27596183814E-01 -0.43943543582E-01  0.11598661408E+00  0.12865114254E+00  0.20140443078E-01 0.  0.
         14    1    1    2    0    0  0.11777775291E-01 -0.87859323584E-03  0.20334033369E-01  0.23515119178E-01  0.00000000000E+00 0.  1.
     999901    1    3    3    0    0  0.15818408523E-01  0.44822136817E-01 -0.13632064745E+00  0.89176373828E+00  0.88000000000E+00 0. -1.
        -11    1    4    4    0    0 -0.15682050153E-01 -0.15527180501E-01  0.69128767727E-01  0.72567676549E-01  0.51100000000E-03 0. -1.
         11    1    4    4    0    0 -0.11914133661E-01 -0.28416363081E-01  0.46857846352E-01  0.56083465989E-01  0.51100000000E-03 0.  1.
</event>
<event>
 8    1  0.1126407E+005  0.1043930E+01  0.7957747E-01            NaN
         13   -1    0    0    0    0  0.00000000000E+00  0.00000000000E+00  0.74505805969E-08  0.10566000000E+00  0.10566000000E+00 0.  1.
     999900   -1    0    0    0    0 -0.00000000000E+00 -0.00000000000E+00 -0.74505805969E-08  0.93827000000E+00  0.93827000000E+00 0.  1.
     999902    2    1    2    0    0  0.12412533019E-01  0.21105125820E-02  0.21028972675E-01  0.10194199422E+01  0.10191252503E+01 0.  0.
     999903    2    3    3    0    0  0.32539857915E-01 -0.28270351707E-01 -0.11856598964E+00  0.12767173808E+00  0.19599073112E-01 0.  0.
         14    1    1    2    0    0 -0.12412533019E-01 -0.21105125820E-02 -0.21028972675E-01  0.24510057754E-01  0.00000000000E+00 0. -1.
     999901    1    3    3    0    0 -0.20127324896E-01  0.30380864289E-01  0.13959496232E+00  0.89174820416E+00  0.88000000000E+00 0. -1.
        -11    1    4    4    0    0  0.68227429707E-03 -0.97397581531E-02 -0.16817607789E-01  0.19453057339E-01  0.51100000000E-03 0.  1.
         11    1    4    4    0    0  0.31857583618E-01 -0.18530593554E-01 -0.10174838185E+00  0.10821868074E+00  0.51100000000E-03 0. -1.
</event>
<event>
 8    1  0.1126407E+005  0.1043930E+01  0.7957747E-01            NaN
         13   -1    0    0    0    0  0.00000000000E+00  0.00000000000E+00  0.74505805969E-08  0.10566000000E+00  0.10566000000E+00 0. -1.
     999900   -1    0    0    0    0 -0.00000000000E+00 -0.00000000000E+00 -0.74505805969E-08  0.93827000000E+00  0.93827000000E+00 0. -1.
     999902    2    1    2    0    0 -0.40791109494E-02  0.22631086092E-01 -0.66768579181E-02  0.10199845279E+01  0.10197034135E+01 0.  0.
     999903    2    3    3    0    0  0.11504588484E+00  0.58077783529E-01 -0.14585204745E-01  0.13121584316E+00  0.19906901825E-01 0.  0.
         14    1    1    2    0    0  0.40791109494E-02 -0.22631086092E-01  0.66768579181E-02  0.23945472129E-01  0.00000000000E+00 0.  1.
     999901    1    3    3    0    0 -0.11912499579E+00 -0.35446697438E-01  0.79083468265E-02  0.88876868471E+00  0.88000000000E+00 0.  1.
        -11    1    4    4    0    0  0.69939061030E-01  0.32731015223E-01  0.83026871397E-03  0.77225268419E-01  0.51100000000E-03 0. -1.
         11    1    4    4    0    0  0.45106823806E-01  0.25346768306E-01 -0.15415473459E-01  0.53990574737E-01  0.51100000000E-03 0.  1.
</event>
<event>
 8    1  0.1126407E+005  0.1043930E+01  0.7957747E-01            NaN
         13   -1    0    0    0    0  0.00000000000E+00  0.00000000000E+00  0.74505805969E-08  0.10566000000E+00  0.10566000000E+00 0.  1.
     999900   -1    0    0    0    0 -0.00000000000E+00 -0.00000000000E+00 -0.74505805969E-08  0.93827000000E+00  0.93827000000E+00 0. -1.
     999902    2    1    2    0    0  0.13440139206E-01 -0.18956490581E-01  0.36461655893E-02  0.10204080868E+01  0.10201369434E+01 0.  0.
     999903    2    3    3    0    0  0.99265636738E-01  0.50557516324E-01  0.66653826983E-01  0.13126907710E+00  0.19470717927E-01 0.  0.
         14    1    1    2    0    0 -0.13440139206E-01  0.18956490581E-01 -0.36461655893E-02  0.23521913199E-01  0.00000000000E+00 0. -1.
     999901    1    3    3    0    0 -0.85825497532E-01 -0.69514006905E-01 -0.63007661394E-01  0.88913900970E+00  0.88000000000E+00 0. -1.
        -11    1    4    4    0    0  0.44137678763E-01  0.28885572485E-01  0.22322387292E-01  0.57280547132E-01  0.51100000000E-03 0. -1.
         11    1    4    4    0    0  0.55127957975E-01  0.21671943839E-01  0.44331439691E-01  0.73988529965E-01  0.51100000000E-03 0.  1.
</event>
<event>
 8    1  0.1126407E+005  0.1043930E+01  0.7957747E-01            NaN
         13   -1    0    0    0    0  0.00000000000E+00  0.00000000000E+00  0.74505805969E-08  0.10566000000E+00  0.10566000000E+00 0. -1.
     999900   -1    0    0    0    0 -0.00000000000E+00 -0.00000000000E+00 -0.74505805969E-08  0.93827000000E+00  0.93827000000E+00 0.  1.
     999902    2    1    2    0    0 -0.81790334039E-02  0.22232042108E-01  0.34100362515E-02  0.10199969970E+01  0.10197161788E+01 0.  0.
     999903    2    3    3    0    0 -0.80710237636E-01  0.98888784825E-01  0.32321419550E-01  0.13322030594E+00  0.20244543180E-01 0.  0.
         14    1    1    2    0    0  0.81790334039E-02 -0.22232042108E-01 -0.34100362515E-02  0.23933002966E-01  0.00000000000E+00 0. -1.
     999901    1    3    3    0    0  0.72531204232E-01 -0.76656742717E-01 -0.28911383298E-01  0.88677669110E+00  0.88000000000E+00 0.  1.
        -11    1    4    4    0    0 -0.39236903356E-01  0.52761956279E-01  0.26579111296E-01  0.70922978601E-01  0.51100000000E-03 0. -1.
         11    1    4    4    0    0 -0.41473334280E-01  0.46126828546E-01  0.57423082535E-02  0.62297327335E-01  0.51100000000E-03 0.  1.
</event>
<event>
 8    1  0.1126407E+005  0.1043930E+01  0.7957747E-01            NaN
         13   -1    0    0    0    0  0.00000000000E+00  0.00000000000E+00  0.74505805969E-08  0.10566000000E+00  0.10566000000E+00 0. -1.
     999900   -1    0    0    0    0 -0.00000000000E+00 -0.00000000000E+00 -0.74505805969E-08  0.93827000000E+00  0.93827000000E+00 0.  1.
     999902    2    1    2    0    0 -0.77981987323E-02 -0.72573569085E-02 -0.21317280123E-01  0.10200991888E+01  0.10198207918E+01 0.  0.
     999903    2    3    3    0    0 -0.11320145568E+00  0.50610621907E-01  0.33915257526E-01  0.13020639591E+00  0.20675014488E-01 0.  0.
         14    1    1    2    0    0  0.77981987323E-02  0.72573569085E-02  0.21317280123E-01  0.23830811245E-01  0.00000000000E+00 0. -1.
     999901    1    3    3    0    0  0.10540325695E+00 -0.57867978816E-01 -0.55232537649E-01  0.88989279285E+00  0.88000000000E+00 0.  1.
        -11    1    4    4    0    0 -0.15267470798E-01  0.32528925604E-03  0.73530448591E-02  0.16956705676E-01  0.51100000000E-03 0. -1.
         11    1    4    4    0    0 -0.97933984882E-01  0.50285332651E-01  0.26562212667E-01  0.11324969023E+00  0.51100000000E-03 0.  1.
</event>
<event>
 8    1  0.1126407E+005  0.1043930E+01  0.7957747E-01            NaN
         13   -1    0    0    0    0  0.00000000000E+00  0.00000000000E+00  0.74505805969E-08  0.10566000000E+00  0.10566000000E+00 0.  1.
     999900   -1    0    0    0    0 -0.00000000000E+00 -0.00000000000E+00 -0.74505805969E-08  0.93827000000E+00  0.93827000000E+00 0. -1.
     999902    2    1    2    0    0 -0.21962165408E-01  0.59805984008E-02  0.36716743610E-03  0.10211651350E+01  0.10209113546E+01 0.  0.
     999903    2    3    3    0    0  0.32968918043E-01 -0.36156235440E-01 -0.11918578097E+00  0.13038691110E+00  0.20031806784E-01 0.  0.
         14    1    1    2    0    0  0.21962165408E-01 -0.59805984008E-02 -0.36716743610E-03  0.22764865002E-01  0.00000000000E+00 0.  1.
     999901    1    3    3    0    0 -0.54931083450E-01  0.42136833841E-01  0.11955294841E+00  0.89077822390E+00  0.88000000000E+00 0.  1.
        -11    1    4    4    0    0  0.13234621603E-01 -0.25388944747E-01 -0.82816529486E-01  0.87627577859E-01  0.51100000000E-03 0. -1.
         11    1    4    4    0    0  0.19734296439E-01 -0.10767290693E-01 -0.36369251484E-01  0.42759333242E-01  0.51100000000E-03 0.  1.
</event>
<event>
 8    1  0.1126407E+005  0.1043930E+01  0.7957747E-01            NaN
         13   -1    0    0    0    0  0.00000000000E+00  0.00000000000E+00  0.74505805969E-08  0.10566000000E+00  0.10566000000E+00 0. -1.
     999900   -1    0    0    0    0 -0.00000000000E+00 -0.00000000000E+00 -0.74505805969E-08  0.93827000000E+00  0.93827000000E+00 0. -1.
     999902    2    1    2    0    0  0.88178439678E-02 -0.68731531122E-02  0.20474994092E-01  0.10206014769E+01  0.10203348248E+01 0.  0.
     999903    2    3    3    0    0 -0.73115193216E-01  0.66129748491E-01  0.84782707164E-01  0.13145698462E+00  0.19335362879E-01 0.  0.
         14    1    1    2    0    0 -0.88178439678E-02  0.68731531122E-02 -0.20474994092E-01  0.23328523078E-01  0.00000000000E+00 0.  1.
     999901    1    3    3    0    0  0.81933037184E-01 -0.73002901603E-01 -0.64307713072E-01  0.88914449230E+00  0.88000000000E+00 0.  1.
        -11    1    4    4    0    0 -0.57786066845E-01  0.40412798582E-01  0.59932159272E-01  0.92544846678E-01  0.51100000000E-03 0. -1.
         11    1    4    4    0    0 -0.15329126371E-01  0.25716949909E-01  0.24850547892E-01  0.38912137945E-01  0.51100000000E-03 0.  1.
</event>
<event>
 8    1  0.1126407E+005  0.1043930E+01  0.7957747E-01            NaN
         13   -1    0    0    0    0  0.00000000000E+00  0.00000000000E+00  0.74505805969E-08  0.10566000000E+00  0.10566000000E+00 0.  1.
     999900   -1    0    0    0    0 -0.00000000000E+00 -0.00000000000E+00 -0.74505805969E-08  0.93827000000E+00  0.93827000000E+00 0. -1.
     999902    2    1    2    0    0 -0.19680579387E-01 -0.69751067909E-03  0.13421799976E-01  0.10200981633E+01  0.10198197421E+01 0.  0.
     999903    2    3    3    0    0  0.19131191411E-01  0.11871536525E+00  0.47173049401E-01  0.13054494098E+00  0.18903560378E-01 0.  0.
         14    1    1    2    0    0  0.19680579387E-01  0.69751067909E-03 -0.13421799976E-01  0.23831836705E-01  0.00000000000E+00 0. -1.
     999901    1    3    3    0    0 -0.38811770798E-01 -0.11941287593E+00 -0.33751249424E-01  0.88955322231E+00  0.88000000000E+00 0.  1.
        -11    1    4    4    0    0  0.10853532234E-01  0.92366258369E-01  0.43516754021E-01  0.10268054270E+00  0.51100000000E-03 0. -1.
         11    1    4    4    0    0  0.82776591767E-02  0.26349106880E-01  0.36562953796E-02  0.27864398284E-01  0.51100000000E-03 0.  1.
</event>
<event>
 8    1  0.1126407E+005  0.1043930E+01  0.7957747E-01            NaN
         13   -1    0    0    0    0  0.00000000000E+00  0.00000000000E+00  0.74505805969E-08  0.10566000000E+00  0.10566000000E+00 0. -1.
     999900   -1    0    0    0    0 -0.00000000000E+00 -0.00000000000E+00 -0.74505805969E-08  0.93827000000E+00  0.93827000000E+00 0.  1.
     999902    2    1    2    0    0  0.82520681768E-02 -0.17536652150E-01  0.13676216008E-01  0.10202093406E+01  0.10199335415E+01 0.  0.
     999903    2    3    3    0    0 -0.22846875215E-01 -0.11990002184E+00  0.49148336789E-01  0.13302070503E+00  0.19518043273E-01 0.  0.
         14    1    1    2    0    0 -0.82520681768E-02  0.17536652150E-01 -0.13676216008E-01  0.23720659394E-01  0.00000000000E+00 0.  1.
     999901    1    3    3    0    0  0.31098943392E-01  0.10236336969E+00 -0.35472120781E-01  0.88718863557E+00  0.88000000000E+00 0.  1.
        -11    1    4    4    0    0 -0.26139526134E-02 -0.53640832225E-01  0.14894618408E-01  0.55734032768E-01  0.51100000000E-03 0. -1.
         11    1    4    4    0    0 -0.20232922602E-01 -0.66259189619E-01  0.34253718381E-01  0.77286672265E-01  0.51100000000E-03 0.  1.
</event>
<event>
 8    1  0.1126407E+005  0.1043930E+01  0.7957747E-01            NaN
         13   -1    0    0    0    0  0.00000000000E+00  0.00000000000E+00  0.74505805969E-08  0.10566000000E+00  0.10566000000E+00 0. -1.
     999900   -1    0    0    0    0 -0.00000000000E+00 -0.00000000000E+00 -0.74505805969E-08  0.93827000000E+00  0.93827000000E+00 0. -1.
     999902    2    1    2    0    0  0.45689953092E-02  0.22348337442E-01 -0.53767414856E-02  0.10204942740E+01  0.10202251369E+01 0.  0.
     999903    2    3    3    0    0  0.53529857480E-01  0.11740157167E+00 -0.29385385034E-01  0.13369739853E+00  0.19050429091E-01 0.  0.
         14    1    1    2    0    0 -0.45689953092E-02 -0.22348337442E-01  0.53767414856E-02  0.23435726009E-01  0.00000000000E+00 0. -1.
     999901    1    3    3    0    0 -0.48960862171E-01 -0.95053234225E-01  0.24008643549E-01  0.88679687546E+00  0.88000000000E+00 0.  1.
        -11    1    4    4    0    0  0.24279478674E-01  0.32280188521E-01 -0.79017315100E-02  0.41160686796E-01  0.51100000000E-03 0. -1.
         11    1    4    4    0    0  0.29250378806E-01  0.85121383146E-01 -0.21483653524E-01  0.92536711735E-01  0.51100000000E-03 0.  1.
</event>
<event>
 8    1  0.1126407E+005  0.1043930E+01  0.7957747E-01            NaN
         13   -1    0    0    0    0  0.00000000000E+00  0.00000000000E+00  0.74505805969E-08  0.10566000000E+00  0.10566000000E+00 0.  1.
     999900   -1    0    0    0    0 -0.00000000000E+00 -0.00000000000E+00 -0.74505805969E-08  0.93827000000E+00  0.93827000000E+00 0. -1.
     999902    2    1    2    0    0  0.61422834799E-02 -0.21957000831E-01  0.25590529210E-02  0.10209868903E+01  0.10207290747E+01 0.  0.
     999903    2    3    3    0    0 -0.96805342321E-01  0.61445688022E-01  0.56647397769E-01  0.12942658878E+00  0.19886360400E-01 0.  0.
         14    1    1    2    0    0 -0.61422834799E-02  0.21957000831E-01 -0.25590529210E-02  0.22943109721E-01  0.00000000000E+00 0. -1.
     999901    1    3    3    0    0  0.10294762580E+00 -0.83402688852E-01 -0.54088344848E-01  0.89156030150E+00  0.88000000000E+00 0. -1.
        -11    1    4    4    0    0 -0.31777524669E-01  0.23546848363E-01  0.97287834532E-02  0.40732977922E-01  0.51100000000E-03 0. -1.
         11    1    4    4    0    0 -0.65027817652E-01  0.37898839659E-01  0.46918614316E-01  0.88693610854E-01  0.51100000000E-03 0.  1.
</event>
<event>
 8    1  0.1126407E+005  0.1043930E+01  0.7957747E-01            NaN
         13   -1    0    0    0    0  0.00000000000E+00  0.00000000000E+00  0.74505805969E-08  0.10566000000E+00  0.10566000000E+00 0.  1.
     999900   -1    0    0    0    0 -0.00000000000E+00 -0.00000000000E+00 -0.74505805969E-08  0.93827000000E+00  0.93827000000E+00 0.  1.
     999902    2    1    2    0    0  0.17026051276E-01 -0.27520307740E-02 -0.15870966554E-01  0.10204918329E+01  0.10202226392E+01 0.  0.
     999903    2    3    3    0    0 -0.93033837462E-01 -0.55623454597E-01  0.65565260925E-01  0.12833689925E+00  0.20549760477E-01 0.  0.
         14    1    1    2    0    0 -0.17026051276E-01  0.27520307740E-02  0.15870966554E-01  0.23438167053E-01  0.00000000000E+00 0.  1.
     999901    1    3    3    0    0  0.11005988874E+00  0.52871423823E-01 -0.81436227480E-01  0.89215493369E+00  0.88000000000E+00 0.  1.
        -11    1    4    4    0    0 -0.43450835747E-01 -0.15922761470E-01  0.21509128997E-01  0.51033451883E-01  0.51100000000E-03 0. -1.
         11    1    4    4    0    0 -0.49583001716E-01 -0.39700693127E-01  0.44056131929E-01  0.77303447371E-01  0.51100000000E-03 0.  1.
</event>
<event>
 8    1  0.1126407E+005  0.1043930E+01  0.7957747E-01            NaN
         13   -1    0    0    0    0  0.00000000000E+00  0.00000000000E+00  0.74505805969E-08  0.10566000000E+00  0.10566000000E+00 0. -1.
     999900   -1    0    0    0    0 -0.00000000000E+00 -0.00000000000E+00 -0.74505805969E-08  0.93827000000E+00  0.93827000000E+00 0. -1.
     999902    2    1    2    0    0 -0.72482391016E-02 -0.22436294309E-01  0.78832006532E-04  0.10203518218E+01  0.10200793645E+01 0.  0.
     999903    2    3    3    0    0 -0.38311701715E-01  0.11854702416E+00 -0.22803398647E-01  0.12829530382E+00  0.20457433101E-01 0.  0.
         14    1    1    2    0    0  0.72482391016E-02  0.22436294309E-01 -0.78832006532E-04  0.23578178193E-01  0.00000000000E+00 0. -1.
     999901    1    3    3    0    0  0.31063462614E-01 -0.14098331847E+00  0.22882230654E-01  0.89205651798E+00  0.88000000000E+00 0. -1.
        -11    1    4    4    0    0 -0.83132615018E-02  0.32070459933E-01 -0.15176673856E-01  0.36444715220E-01  0.51100000000E-03 0. -1.
         11    1    4    4    0    0 -0.29998440213E-01  0.86476564223E-01 -0.76267247909E-02  0.91850588605E-01  0.51100000000E-03 0.  1.
</event>
<event>
 8    1  0.1126407E+005  0.1043930E+01  0.7957747E-01            NaN
         13   -1    0    0    0    0  0.00000000000E+00  0.00000000000E+00  0.74505805969E-08  0.10566000000E+00  0.10566000000E+00 0. -1.
     999900   -1    0    0    0    0 -0.00000000000E+00 -0.00000000000E+00 -0.74505805969E-08  0.93827000000E+00  0.93827000000E+00 0. -1.
     999902    2    1    2    0    0 -0.30474388019E-02 -0.25326824986E-02  0.23491156161E-01  0.10201069905E+01  0.10198287779E+01 0.  0.
     999903    2    3    3    0    0 -0.43114524348E-01  0.77992661267E-01  0.96615375336E-01  0.13250524773E+00  0.16774757939E-01 0.  0.
         14    1    1    2    0    0  0.30474388019E-02  0.25326824986E-02 -0.23491156161E-01  0.23823009501E-01  0.00000000000E+00 0.  1.
     999901    1    3    3    0    0  0.40067085546E-01 -0.80525343766E-01 -0.73124219175E-01  0.88760174277E+00  0.88000000000E+00 0. -1.
        -11    1    4    4    0    0 -0.12627582978E-01  0.35966039622E-01  0.48755132638E-01  0.61889707848E-01  0.51100000000E-03 0.  1.
         11    1    4    4    0    0 -0.30486941370E-01  0.42026621646E-01  0.47860242698E-01  0.70615539885E-01  0.51100000000E-03 0. -1.
</event>
<event>
 8    1  0.1126407E+005  0.1043930E+01  0.7957747E-01            NaN
         13   -1    0    0    0    0  0.00000000000E+00  0.00000000000E+00  0.74505805969E-08  0.10566000000E+00  0.10566000000E+00 0. -1.
     999900   -1    0    0    0    0 -0.00000000000E+00 -0.00000000000E+00 -0.74505805969E-08  0.93827000000E+00  0.93827000000E+00 0.  1.
     999902    2    1    2    0    0 -0.11333597933E-01 -0.86609115794E-02  0.20085674319E-01  0.10192947378E+01  0.10189969903E+01 0.  0.
     999903    2    3    3    0    0  0.90161754547E-01  0.45297325644E-01 -0.73907674499E-01  0.12685563759E+00  0.21190062405E-01 0.  0.
         14    1    1    2    0    0  0.11333597933E-01  0.86609115794E-02 -0.20085674319E-01  0.24635262214E-01  0.00000000000E+00 0.  1.
     999901    1    3    3    0    0 -0.10149535248E+00 -0.53958237224E-01  0.93993348817E-01  0.89243910020E+00  0.88000000000E+00 0. -1.
        -11    1    4    4    0    0  0.21988894055E-01  0.88308216901E-02 -0.28968258914E-01  0.37428812685E-01  0.51100000000E-03 0.  1.
         11    1    4    4    0    0  0.68172860492E-01  0.36466503954E-01 -0.44939415585E-01  0.89426824904E-01  0.51100000000E-03 0. -1.
</event>
<event>
 8    1  0.1126407E+005  0.1043930E+01  0.7957747E-01            NaN
         13   -1    0    0    0    0  0.00000000000E+00  0.00000000000E+00  0.74505805969E-08  0.10566000000E+00  0.10566000000E+00 0. -1.
     999900   -1    0    0    0    0 -0.00000000000E+00 -0.00000000000E+00 -0.74505805969E-08  0.93827000000E+00  0.93827000000E+00 0. -1.
     999902    2    1    2    0    0 -0.12266101726E-01  0.20201310497E-01  0.64996316251E-03  0.10202873976E+01  0.10200134318E+01 0.  0.
     999903    2    3    3    0    0  0.54772543244E-01 -0.10894923259E+00  0.32321822432E-01  0.12777568932E+00  0.20296792856E-01 0.  0.
         14    1    1    2    0    0  0.12266101726E-01 -0.20201310497E-01 -0.64996316251E-03  0.23642602426E-01  0.00000000000E+00 0.  1.
     999901    1    3    3    0    0 -0.67038644970E-01  0.12915054309E+00 -0.31671859269E-01  0.89251170825E+00  0.88000000000E+00 0. -1.
        -11    1    4    4    0    0  0.40328443358E-01 -0.79392941290E-01  0.14080051120E-01  0.90156150266E-01  0.51100000000E-03 0. -1.
         11    1    4    4    0    0  0.14444099887E-01 -0.29556291303E-01  0.18241771312E-01  0.37619539055E-01  0.51100000000E-03 0.  1.
</event>
<event>
 8    1  0.1126407E+005  0.1043930E+01  0.7957747E-01            NaN
         13   -1    0    0    0    0  0.00000000000E+00  0.00000000000E+00  0.74505805969E-08  0.10566000000E+00  0.10566000000E+00 0.  1.
     999900   -1    0    0    0    0 -0.00000000000E+00 -0.00000000000E+00 -0.74505805969E-08  0.93827000000E+00  0.93827000000E+00 0.  1.
     999902    2    1    2    0    0  0.30931954099E-02 -0.10890751666E-01  0.20875408756E-01  0.10201821786E+01  0.10199057400E+01 0.  0.
     999903    2    3    3    0    0 -0.97333550089E-01 -0.34336043348E-01  0.80130281619E-01  0.13218085380E+00  0.19953251220E-01 0.  0.
         14    1    1    2    0    0 -0.30931954099E-02  0.10890751666E-01 -0.20875408756E-01  0.23747821382E-01  0.00000000000E+00 0. -1.
     999901    1    3    3    0    0  0.10042674550E+00  0.23445291682E-01 -0.59254872863E-01  0.88800132481E+00  0.88000000000E+00 0. -1.
        -11    1    4    4    0    0 -0.87833369213E-01 -0.25620819740E-01  0.74960692720E-01  0.11828141750E+00  0.51100000000E-03 0. -1.
         11    1    4    4    0    0 -0.95001808755E-02 -0.87152236077E-02  0.51695888989E-02  0.13899436304E-01  0.51100000000E-03 0.  1.
</event>
<event>
 8    1  0.1126407E+005  0.1043930E+01  0.7957747E-01            NaN
         13   -1    0    0    0    0  0.00000000000E+00  0.00000000000E+00  0.74505805969E-08  0.10566000000E+00  0.10566000000E+00 0. -1.
     999900   -1    0    0    0    0 -0.00000000000E+00 -0.00000000000E+00 -0.74505805969E-08  0.93827000000E+00  0.93827000000E+00 0. -1.
     999902    2    1    2    0    0  0.99329952468E-02  0.32636932841E-03  0.21073298852E-01  0.10206307546E+01  0.10203647791E+01 0.  0.
     999903    2    3    3    0    0 -0.61353187843E-02 -0.56304177472E-01 -0.11352348170E+00  0.12845279989E+00  0.20118110346E-01 0.  0.
         14    1    1    2    0    0 -0.99329952468E-02 -0.32636932841E-03 -0.21073298852E-01  0.23299245396E-01  0.00000000000E+00 0.  1.
     999901    1    3    3    0    0  0.16068314031E-01  0.56630546800E-01  0.13459678055E+00  0.89217795472E+00  0.88000000000E+00 0.  1.
        -11    1    4    4    0    0 -0.24996746483E-02 -0.40876010694E-01 -0.98208407276E-01  0.10640605718E+00  0.51100000000E-03 0. -1.
         11    1    4    4    0    0 -0.36356441360E-02 -0.15428166778E-01 -0.15315074426E-01  0.22046742709E-01  0.51100000000E-03 0.  1.
</event>
<event>
 8    1  0.1126407E+005  0.1043930E+01  0.7957747E-01            NaN
         13   -1    0    0    0    0  0.00000000000E+00  0.00000000000E+00  0.74505805969E-08  0.10566000000E+00  0.10566000000E+00 0.  1.
     999900   -1    0    0    0    0 -0.00000000000E+00 -0.00000000000E+00 -0.74505805969E-08  0.93827000000E+00  0.93827000000E+00 0.  1.
     999902    2    1    2    0    0  0.23409263288E-02 -0.11508271425E-01 -0.20309135101E-01  0.10204697951E+01  0.10202000889E+01 0.  0.
     999903    2    3    3    0    0 -0.60225090869E-02 -0.68667683144E-01 -0.11248749854E+00  0.13377142691E+00  0.22132239013E-01 0.  0.
         14    1    1    2    0    0 -0.23409263288E-02  0.11508271425E-01  0.20309135101E-01  0.23460204940E-01  0.00000000000E+00 0.  1.
     999901    1    3    3    0    0  0.83634354157E-02  0.57159411719E-01  0.92178363443E-01  0.88669836815E+00  0.88000000000E+00 0. -1.
        -11    1    4    4    0    0 -0.15369765990E-02 -0.53983108706E-01 -0.68826885144E-01  0.87486796502E-01  0.51100000000E-03 0.  1.
         11    1    4    4    0    0 -0.44855324879E-02 -0.14684574437E-01 -0.43660613400E-01  0.46284630404E-01  0.51100000000E-03 0. -1.
</event>
<event>
 8    1  0.1126407E+005  0.1043930E+01  0.7957747E-01            NaN
         13   -1    0    0    0    0  0.00000000000E+00  0.00000000000E+00  0.74505805969E-08  0.10566000000E+00  0.10566000000E+00 0. -1.
     999900   -1    0    0    0    0 -0.00000000000E+00 -0.00000000000E+00 -0.74505805969E-08  0.93827000000E+00  0.93827000000E+00 0.  1.
     999902    2    1    2    0    0  0.12864411820E-02 -0.23332472302E-01  0.27432273523E-02  0.10204016237E+01  0.10201303295E+01 0.  0.
     999903    2    3    3    0    0  0.78210299633E-01  0.68992912564E-01  0.73779960111E-01  0.12939799067E+00  0.20578739569E-01 0.  0.
         14    1    1    2    0    0 -0.12864411820E-02  0.23332472302E-01 -0.27432273523E-02  0.23528376292E-01  0.00000000000E+00 0. -1.
     999901    1    3    3    0    0 -0.76923858451E-01 -0.92325384866E-01 -0.71036732759E-01  0.89100363304E+00  0.88000000000E+00 0. -1.
        -11    1    4    4    0    0  0.35087548818E-01  0.40710647372E-01  0.46416528276E-01  0.71015829994E-01  0.51100000000E-03 0.  1.
         11    1    4    4    0    0  0.43122750815E-01  0.28282265192E-01  0.27363431836E-01  0.58382160675E-01  0.51100000000E-03 0. -1.
</event>
<event>
 8    1  0.1126407E+005  0.1043930E+01  0.7957747E-01            NaN
         13   -1    0    0    0    0  0.00000000000E+00  0.00000000000E+00  0.74505805969E-08  0.10566000000E+00  0.10566000000E+00 0. -1.
     999900   -1    0    0    0    0 -0.00000000000E+00 -0.00000000000E+00 -0.74505805969E-08  0.93827000000E+00  0.93827000000E+00 0. -1.
     999902    2    1    2    0    0  0.14819334780E-01  0.91662946244E-02  0.17255403584E-01  0.10194068967E+01  0.10191118872E+01 0.  0.
     999903    2    3    3    0    0  0.90790739025E-01  0.58863815221E-01 -0.69971992919E-01  0.13044676461E+00  0.20306934039E-01 0.  0.
         14    1    1    2    0    0 -0.14819334780E-01 -0.91662946244E-02 -0.17255403584E-01  0.24523103256E-01  0.00000000000E+00 0.  1.
     999901    1    3    3    0    0 -0.75971404245E-01 -0.49697520596E-01  0.87227396503E-01  0.88896013213E+00  0.88000000000E+00 0.  1.
        -11    1    4    4    0    0  0.65121277179E-01  0.52409414984E-01 -0.54339070012E-01  0.99702172349E-01  0.51100000000E-03 0. -1.
         11    1    4    4    0    0  0.25669461846E-01  0.64544002364E-02 -0.15632922908E-01  0.30744592265E-01  0.51100000000E-03 0.  1.
</event>
<event>
 8    1  0.1126407E+005  0.1043930E+01  0.7957747E-01            NaN
         13   -1    0    0    0    0  0.00000000000E+00  0.00000000000E+00  0.74505805969E-08  0.10566000000E+00  0.10566000000E+00 0.  1.
     999900   -1    0    0    0    0 -0.00000000000E+00 -0.00000000000E+00 -0.74505805969E-08  0.93827000000E+00  0.93827000000E+00 0. -1.
     999902    2    1    2    0    0  0.62994819656E-02  0.22390238264E-01 -0.43678001042E-02  0.10202639078E+01  0.10199893909E+01 0.  0.
     999903    2    3    3    0    0 -0.61266792176E-01 -0.42480504291E-01 -0.10409451830E+00  0.12969171366E+00  0.20641191439E-01 0.  0.
         14    1    1    2    0    0 -0.62994819656E-02 -0.22390238264E-01  0.43678001042E-02  0.23666092206E-01  0.00000000000E+00 0. -1.
     999901    1    3    3    0    0  0.67566274141E-01  0.64870742555E-01  0.99726718195E-01  0.89057219413E+00  0.88000000000E+00 0.  1.
        -11    1    4    4    0    0 -0.38043271559E-01 -0.15689924547E-01 -0.64792428981E-01  0.76757958658E-01  0.51100000000E-03 0.  1.
         11    1    4    4    0    0 -0.23223520617E-01 -0.26790579744E-01 -0.39302089319E-01  0.52933755003E-01  0.51100000000E-03 0. -1.
</event>
<event>
 8    1  0.1126407E+005  0.1043930E+01  0.7957747E-01            NaN
         13   -1    0    0    0    0  0.00000000000E+00  0.00000000000E+00  0.74505805969E-08  0.10566000000E+00  0.10566000000E+00 0.  1.
     999900   -1    0    0    0    0 -0.00000000000E+00 -0.00000000000E+00 -0.74505805969E-08  0.93827000000E+00  0.93827000000E+00 0.  1.
     999902    2    1    2    0    0 -0.55614837003E-02 -0.18067217188E-01  0.15843392833E-01  0.10192648924E+01  0.10189664142E+01 0.  0.
     999903    2    3    3    0    0  0.10625877055E+00  0.68348448957E-01  0.40567187006E-02  0.12791178484E+00  0.19558398205E-01 0.  0.
         14    1    1    2    0    0  0.55614837003E-02  0.18067217188E-01 -0.15843392833E-01  0.24665107629E-01  0.00000000000E+00 0. -1.
     999901    1    3    3    0    0 -0.11182025425E+00 -0.86415666146E-01  0.11786674133E-01  0.89135310753E+00  0.88000000000E+00 0. -1.
        -11    1    4    4    0    0  0.25761243492E-01  0.84804707702E-02  0.50179991663E-02  0.27586255407E-01  0.51100000000E-03 0.  1.
         11    1    4    4    0    0  0.80497527061E-01  0.59867978187E-01 -0.96128046565E-03  0.10032552943E+00  0.51100000000E-03 0. -1.
</event>
<event>
 8    1  0.1126407E+005  0.1043930E+01  0.7957747E-01            NaN
         13   -1    0    0    0    0  0.00000000000E+00  0.00000000000E+00  0.74505805969E-08  0.10566000000E+00  0.10566000000E+00 0. -1.
     999900   -1    0    0    0    0 -0.00000000000E+00 -0.00000000000E+00 -0.74505805969E-08  0.93827000000E+00  0.93827000000E+00 0. -1.
     999902    2    1    2    0    0  0.15272799775E-01  0.97503956340E-02 -0.15759383242E-01  0.10199156962E+01  0.10196329440E+01 0.  0.
     999903    2    3    3    0    0  0.11873871899E+00  0.52084906514E-01 -0.20572640421E-01  0.13283025796E+00  0.20221845134E-01 0.  0.
         14    1    1    2    0    0 -0.15272799775E-01 -0.97503956340E-02  0.15759383242E-01  0.24014303824E-01  0.00000000000E+00 0. -1.
     999901    1    3    3    0    0 -0.10346591922E+00 -0.42334510880E-01  0.48132571786E-02  0.88708543822E+00  0.88000000000E+00 0. -1.
        -11    1    4    4    0    0  0.67430993614E-01  0.20391028217E-01 -0.54828584790E-02  0.70661558075E-01  0.51100000000E-03 0. -1.
         11    1    4    4    0    0  0.51307725381E-01  0.31693878297E-01 -0.15089781942E-01  0.62168699884E-01  0.51100000000E-03 0.  1.
</event>
<event>
 8    1  0.1126407E+005  0.1043930E+01  0.7957747E-01            NaN
         13   -1    0    0    0    0  0.00000000000E+00  0.00000000000E+00  0.74505805969E-08  0.10566000000E+00  0.10566000000E+00 0. -1.
     999900   -1    0    0    0    0 -0.00000000000E+00 -0.00000000000E+00 -0.74505805969E-08  0.93827000000E+00  0.93827000000E+00 0.  1.
     999902    2    1    2    0    0 -0.15457834243E-01 -0.16747418433E-01 -0.21767252554E-02  0.10210354854E+01  0.10207787732E+01 0.  0.
     999903    2    3    3    0    0 -0.99344690881E-01 -0.16391517727E-01  0.83977228031E-01  0.13285778079E+00  0.21470110151E-01 0.  0.
         14    1    1    2    0    0  0.15457834243E-01  0.16747418433E-01  0.21767252554E-02  0.22894514550E-01  0.00000000000E+00 0.  1.
     999901    1    3    3    0    0  0.83886856638E-01 -0.35590070627E-03 -0.86153953286E-01  0.88817770466E+00  0.88000000000E+00 0.  1.
        -11    1    4    4    0    0 -0.29220884747E-01 -0.28998622057E-02  0.37589878290E-01  0.47702509128E-01  0.51100000000E-03 0. -1.
         11    1    4    4    0    0 -0.70123806135E-01 -0.13491655521E-01  0.46387349740E-01  0.85155271666E-01  0.51100000000E-03 0.  1.
</event>
<event>
 8    1  0.1126407E+005  0.1043930E+01  0.7957747E-01            NaN
         13   -1    0    0    0    0  0.00000000000E+00  0.00000000000E+00  0.74505805969E-08  0.10566000000E+00  0.10566000000E+00 0. -1.
     999900   -1    0    0    0    0 -0.00000000000E+00 -0.00000000000E+00 -0.74505805969E-08  0.93827000000E+00  0.93827000000E+00 0.  1.
     999902    2    1    2    0    0 -0.16022808086E-01 -0.79154003407E-02 -0.15933555518E-01  0.10199871068E+01  0.10197060537E+01 0.  0.
     999903    2    3    3    0    0 -0.24276041751E-01  0.12018091512E+00  0.35340104516E-01  0.12919769844E+00  0.20256942852E-01 0.  0.
         14    1    1    2    0    0  0.16022808086E-01  0.79154003407E-02  0.15933555518E-01  0.23942893162E-01  0.00000000000E+00 0. -1.
     999901    1    3    3    0    0  0.82532336647E-02 -0.12809631546E+00 -0.51273660033E-01  0.89078940840E+00  0.88000000000E+00 0.  1.
        -11    1    4    4    0    0 -0.11285674230E-01  0.75035870230E-01  0.12298300613E-01  0.76871695591E-01  0.51100000000E-03 0. -1.
         11    1    4    4    0    0 -0.12990367520E-01  0.45145044887E-01  0.23041803903E-01  0.52326002850E-01  0.51100000000E-03 0.  1.
</event>
<event>
 8    1  0.1126407E+005  0.1043930E+01  0.7957747E-01            NaN
         13   -1    0    0    0    0  0.00000000000E+00  0.00000000000E+00  0.74505805969E-08  0.10566000000E+00  0.10566000000E+00 0.  1.
     999900   -1    0    0    0    0 -0.00000000000E+00 -0.00000000000E+00 -0.74505805969E-08  0.93827000000E+00  0.93827000000E+00 0.  1.
     999902    2    1    2    0    0 -0.22987404787E-02 -0.22171383665E-01 -0.71325961885E-02  0.10205264022E+01  0.10202580111E+01 0.  0.
     999903    2    3    3    0    0  0.11639716286E-01 -0.35232593794E-01  0.12383749431E+00  0.13062863258E+00  0.18742891770E-01 0.  0.
         14    1    1    2    0    0  0.22987404787E-02  0.22171383665E-01  0.71325961885E-02  0.23403597796E-01  0.00000000000E+00 0.  1.
     999901    1    3    3    0    0 -0.13938456765E-01  0.13061210129E-01 -0.13097009049E+00  0.88989776963E+00  0.88000000000E+00 0.  1.
        -11    1    4    4    0    0  0.87530595496E-02 -0.27010229762E-01  0.62198464155E-01  0.68374546635E-01  0.51100000000E-03 0. -1.
         11    1    4    4    0    0  0.28866567366E-02 -0.82223640324E-02  0.61639030150E-01  0.62254085940E-01  0.51100000000E-03 0.  1.
</event>
<event>
 8    1  0.1126407E+005  0.1043930E+01  0.7957747E-01            NaN
         13   -1    0    0    0    0  0.00000000000E+00  0.00000000000E+00  0.74505805969E-08  0.10566000000E+00  0.10566000000E+00 0.  1.
     999900   -1    0    0    0    0 -0.00000000000E+00 -0.00000000000E+00 -0.74505805969E-08  0.93827000000E+00  0.93827000000E+00 0. -1.
     999902    2    1    2    0    0 -0.36674727282E-02  0.13691578560E-01 -0.11881099890E-01  0.10254348597E+01  0.10252680534E+01 0.  0.
     999903    2    3    3    0    0 -0.10911092809E+00 -0.65268745986E-01  0.38300275871E-01  0.13421590479E+00  0.19539553149E-01 0.  0.
         14    1    1    2    0    0  0.36674727282E-02 -0.13691578560E-01  0.11881099890E-01  0.18495140288E-01  0.00000000000E+00 0.  1.
     999901    1    3    3    0    0  0.10544345536E+00  0.78960324547E-01 -0.50181375761E-01  0.89121895492E+00  0.88000000000E+00 0. -1.
        -11    1    4    4    0    0 -0.28299826852E-01 -0.26876804748E-01  0.14470838394E-01  0.41628225017E-01  0.51100000000E-03 0.  1.
         11    1    4    4    0    0 -0.80811101236E-01 -0.38391941239E-01  0.23829437477E-01  0.92587679777E-01  0.51100000000E-03 0. -1.
</event>
<event>
 8    1  0.1126407E+005  0.1043930E+01  0.7957747E-01            NaN
         13   -1    0    0    0    0  0.00000000000E+00  0.00000000000E+00  0.74505805969E-08  0.10566000000E+00  0.10566000000E+00 0. -1.
     999900   -1    0    0    0    0 -0.00000000000E+00 -0.00000000000E+00 -0.74505805969E-08  0.93827000000E+00  0.93827000000E+00 0.  1.
     999902    2    1    2    0    0 -0.23162268039E-01 -0.52719073437E-02 -0.34999124071E-02  0.10199188973E+01  0.10196362214E+01 0.  0.
     999903    2    3    3    0    0  0.11717915659E+00 -0.36312650421E-01  0.29130698631E-01  0.12766108700E+00  0.19979795064E-01 0.  0.
         14    1    1    2    0    0  0.23162268039E-01  0.52719073437E-02  0.34999124071E-02  0.24011102736E-01  0.00000000000E+00 0. -1.
     999901    1    3    3    0    0 -0.14034142463E+00  0.31040743077E-01 -0.32630611039E-01  0.89225781026E+00  0.88000000000E+00 0. -1.
        -11    1    4    4    0    0  0.50295914678E-01 -0.25871882849E-01  0.11741207707E-01  0.57768074530E-01  0.51100000000E-03 0.  1.
         11    1    4    4    0    0  0.66883241916E-01 -0.10440767572E-01  0.17389490924E-01  0.69893012471E-01  0.51100000000E-03 0. -1.
</event>
<event>
 7    1  0.1126407E+005  0.1043930E+01  0.7957747E-01            NaN
         13   -1    0    0    0    0  0.00000000000E+00  0.00000000000E+00  0.74505805969E-08  0.10566000000E+00  0.10566000000E+00 0. -1.
     999900   -1    0    0    0    0 -0.00000000000E+00 -0.00000000000E+00 -0.74505805969E-08  0.93827000000E+00  0.93827000000E+00 0.  1.
     999903    2    1    2    0    0 -0.48949453822E-01 -0.62226933288E-01  0.64644988822E-01  0.10414718791E+00  0.19985542623E-01 0.  0.
         14    1    1    2    0    0 -0.34200763009E-01 -0.19189935714E-01  0.26686362473E-01  0.47435300833E-01  0.00000000000E+00 0. -1.
     999901    1    1    2    0    0  0.83150216831E-01  0.81416869002E-01 -0.91331351294E-01  0.89234751126E+00  0.88000000000E+00 0.  1.
        -11    1    3    3    0    0 -0.14364926036E-01 -0.27007228583E-01  0.14766311823E-01  0.33971261112E-01  0.51100000000E-03 0.  1.
         11    1    3    3    0    0 -0.34584527787E-01 -0.35219704705E-01  0.49878676999E-01  0.70175926798E-01  0.51100000000E-03 0. -1.
</event>
<event>
 8    1  0.1126407E+005  0.1043930E+01  0.7957747E-01            NaN
         13   -1    0    0    0    0  0.00000000000E+00  0.00000000000E+00  0.74505805969E-08  0.10566000000E+00  0.10566000000E+00 0. -1.
     999900   -1    0    0    0    0 -0.00000000000E+00 -0.00000000000E+00 -0.74505805969E-08  0.93827000000E+00  0.93827000000E+00 0.  1.
     999902    2    1    2    0    0 -0.16253978395E-01  0.11904220515E-01 -0.12345521629E-01  0.10203013271E+01  0.10200276878E+01 0.  0.
     999903    2    3    3    0    0 -0.10663250896E+00 -0.69357891416E-01  0.25261206064E-01  0.13115225319E+00  0.19539086924E-01 0.  0.
         14    1    1    2    0    0  0.16253978395E-01 -0.11904220515E-01  0.12345521629E-01  0.23628672921E-01  0.00000000000E+00 0. -1.
     999901    1    3    3    0    0  0.90378530562E-01  0.81262111931E-01 -0.37606727693E-01  0.88914907388E+00  0.88000000000E+00 0.  1.
        -11    1    4    4    0    0 -0.55168377509E-01 -0.24988813681E-01  0.84579959327E-02  0.61153818379E-01  0.51100000000E-03 0. -1.
         11    1    4    4    0    0 -0.51464131448E-01 -0.44369077735E-01  0.16803210131E-01  0.69998434815E-01  0.51100000000E-03 0.  1.
</event>
<event>
 8    1  0.1126407E+005  0.1043930E+01  0.7957747E-01            NaN
         13   -1    0    0    0    0  0.00000000000E+00  0.00000000000E+00  0.74505805969E-08  0.10566000000E+00  0.10566000000E+00 0.  1.
     999900   -1    0    0    0    0 -0.00000000000E+00 -0.00000000000E+00 -0.74505805969E-08  0.93827000000E+00  0.93827000000E+00 0. -1.
     999902    2    1    2    0    0 -0.18019653457E-01  0.12784376526E-01  0.74483619326E-02  0.10206142052E+01  0.10203478473E+01 0.  0.
     999903    2    3    3    0    0 -0.75420442343E-01 -0.95605557401E-01 -0.43070071967E-01  0.13067300456E+00  0.19792354417E-01 0.  0.
         14    1    1    2    0    0  0.18019653457E-01 -0.12784376526E-01 -0.74483619326E-02  0.23315794847E-01  0.00000000000E+00 0. -1.
     999901    1    3    3    0    0  0.57400788886E-01  0.10838993393E+00  0.50518433899E-01  0.88994120059E+00  0.88000000000E+00 0.  1.
        -11    1    4    4    0    0 -0.23515721121E-01 -0.29490849990E-01 -0.38543488350E-02  0.37918550855E-01  0.51100000000E-03 0.  1.
         11    1    4    4    0    0 -0.51904721222E-01 -0.66114707411E-01 -0.39215723132E-01  0.92754453710E-01  0.51100000000E-03 0. -1.
</event>
<event>
 8    1  0.1126407E+005  0.1043930E+01  0.7957747E-01            NaN
         13   -1    0    0    0    0  0.00000000000E+00  0.00000000000E+00  0.74505805969E-08  0.10566000000E+00  0.10566000000E+00 0.  1.
     999900   -1    0    0    0    0 -0.00000000000E+00 -0.00000000000E+00 -0.74505805969E-08  0.93827000000E+00  0.93827000000E+00 0.  1.
     999902    2    1    2    0    0 -0.44791587725E-02 -0.58513032654E-02  0.22315203582E-01  0.10204295974E+01  0.10201589554E+01 0.  0.
     999903    2    3    3    0    0 -0.62435141236E-01  0.11244222511E+00  0.98074138063E-02  0.13053707601E+00  0.20058464518E-01 0.  0.
         14    1    1    2    0    0  0.44791587725E-02  0.58513032654E-02 -0.22315203582E-01  0.23500402637E-01  0.00000000000E+00 0. -1.
     999901    1    3    3    0    0  0.57955982463E-01 -0.11829352837E+00  0.12507789776E-01  0.88989252135E+00  0.88000000000E+00 0. -1.
        -11    1    4    4    0    0 -0.26989897795E-01  0.64964549817E-01 -0.74105941521E-03  0.70353803066E-01  0.51100000000E-03 0. -1.
         11    1    4    4    0    0 -0.35445243441E-01  0.47477675291E-01  0.10548473221E-01  0.60183272941E-01  0.51100000000E-03 0.  1.
</event>
<event>
 8    1  0.1126407E+005  0.1043930E+01  0.7957747E-01            NaN
         13   -1    0    0    0    0  0.00000000000E+00  0.00000000000E+00  0.74505805969E-08  0.10566000000E+00  0.10566000000E+00 0. -1.
     999900   -1    0    0    0    0 -0.00000000000E+00 -0.00000000000E+00 -0.74505805969E-08  0.93827000000E+00  0.93827000000E+00 0.  1.
     999902    2    1    2    0    0 -0.17648567853E-01 -0.36994737690E-03  0.15804089940E-01  0.10202365818E+01  0.10199614232E+01 0.  0.
     999903    2    3    3    0    0  0.44680008175E-01 -0.56019002216E-01  0.10829668854E+00  0.13145283446E+00  0.20426531742E-01 0.  0.
         14    1    1    2    0    0  0.17648567853E-01  0.36994737690E-03 -0.15804089940E-01  0.23693418225E-01  0.00000000000E+00 0.  1.
     999901    1    3    3    0    0 -0.62328576028E-01  0.55649054839E-01 -0.92492598601E-01  0.88878374731E+00  0.88000000000E+00 0.  1.
        -11    1    4    4    0    0 -0.41135362567E-03 -0.66915995175E-02  0.48327048377E-02  0.82802701017E-02  0.51100000000E-03 0. -1.
         11    1    4    4    0    0  0.45091361801E-01 -0.49327402699E-01  0.10346398370E+00  0.12317256436E+00  0.51100000000E-03 0.  1.
</event>
<event>
 8    1  0.1126407E+005  0.1043930E+01  0.7957747E-01            NaN
         13   -1    0    0    0    0  0.00000000000E+00  0.00000000000E+00  0.74505805969E-08  0.10566000000E+00  0.10566000000E+00 0. -1.
     999900   -1    0    0    0    0 -0.00000000000E+00 -0.00000000000E+00 -0.74505805969E-08  0.93827000000E+00  0.93827000000E+00 0.  1.
     999902    2    1    2    0    0 -0.26297859305E-01  0.25568470286E-01  0.63111210507E-02  0.10067123385E+01  0.10060241440E+01 0.  0.
     999903    2    3    3    0    0  0.75586741979E-01  0.31753042471E-01 -0.80391565140E-01  0.11657972104E+00  0.20159770424E-01 0.  0.
         14    1    1    2    0    0  0.26297859305E-01 -0.25568470286E-01 -0.63111210507E-02  0.37217661476E-01  0.00000000000E+00 0. -1.
     999901    1    3    3    0    0 -0.10188460128E+00 -0.61845721849E-02  0.86702686190E-01  0.89013261748E+00  0.88000000000E+00 0. -1.
        -11    1    4    4    0    0  0.58269681266E-01  0.14849361989E-01 -0.54868005617E-01  0.81404044541E-01  0.51100000000E-03 0.  1.
         11    1    4    4    0    0  0.17317060713E-01  0.16903680483E-01 -0.25523559522E-01  0.35175676501E-01  0.51100000000E-03 0. -1.
</event>
<event>
 8    1  0.1126407E+005  0.1043930E+01  0.7957747E-01            NaN
         13   -1    0    0    0    0  0.00000000000E+00  0.00000000000E+00  0.74505805969E-08  0.10566000000E+00  0.10566000000E+00 0. -1.
     999900   -1    0    0    0    0 -0.00000000000E+00 -0.00000000000E+00 -0.74505805969E-08  0.93827000000E+00  0.93827000000E+00 0.  1.
     999902    2    1    2    0    0  0.21800403844E-01 -0.35230769847E-02  0.13423007562E-01  0.10180872677E+01  0.10177592239E+01 0.  0.
     999903    2    3    3    0    0  0.97713511561E-01 -0.76682018885E-02  0.85972592357E-01  0.13183480695E+00  0.19555000002E-01 0.  0.
         14    1    1    2    0    0 -0.21800403844E-01  0.35230769847E-02 -0.13423007562E-01  0.25842732271E-01  0.00000000000E+00 0. -1.
     999901    1    3    3    0    0 -0.75913107716E-01  0.41451249038E-02 -0.72549584795E-01  0.88625246078E+00  0.88000000000E+00 0.  1.
        -11    1    4    4    0    0  0.68226638530E-01 -0.10359372144E-01  0.49888719272E-01  0.85154778069E-01  0.51100000000E-03 0.  1.
         11    1    4    4    0    0  0.29486873030E-01  0.26911702555E-02  0.36083873086E-01  0.46680028881E-01  0.51100000000E-03 0. -1.
</event>
<event>
 8    1  0.1126407E+005  0.1043930E+01  0.7957747E-01            NaN
         13   -1    0    0    0    0  0.00000000000E+00  0.00000000000E+00  0.74505805969E-08  0.10566000000E+00  0.10566000000E+00 0.  1.
     999900   -1    0    0    0    0 -0.00000000000E+00 -0.00000000000E+00 -0.74505805969E-08  0.93827000000E+00  0.93827000000E+00 0. -1.
     999902    2    1    2    0    0 -0.54810427500E-02  0.10760574494E-01  0.18324539135E-01  0.10219841455E+01  0.10217484882E+01 0.  0.
     999903    2    3    3    0    0 -0.61031438569E-01  0.74081297020E-01  0.92862488992E-01  0.13482504688E+00  0.18479078532E-01 0.  0.
         14    1    1    2    0    0  0.54810427500E-02 -0.10760574494E-01 -0.18324539135E-01  0.21945854451E-01  0.00000000000E+00 0. -1.
     999901    1    3    3    0    0  0.55550395819E-01 -0.63320722525E-01 -0.74537949857E-01  0.88715909867E+00  0.88000000000E+00 0.  1.
        -11    1    4    4    0    0 -0.47108730239E-01  0.66539916699E-01  0.73147350872E-01  0.10953350647E+00  0.51100000000E-03 0.  1.
         11    1    4    4    0    0 -0.13922708330E-01  0.75413803207E-02  0.19715138120E-01  0.25291540413E-01  0.51100000000E-03 0. -1.
</event>
<event>
 8    1  0.1126407E+005  0.1043930E+01  0.7957747E-01            NaN
         13   -1    0    0    0    0  0.00000000000E+00  0.00000000000E+00  0.74505805969E-08  0.10566000000E+00  0.10566000000E+00 0.  1.
     999900   -1    0    0    0    0 -0.00000000000E+00 -0.00000000000E+00 -0.74505805969E-08  0.93827000000E+00  0.93827000000E+00 0. -1.
     999902    2    1    2    0    0 -0.14509016429E-01 -0.10469610681E-01 -0.17569689713E-01  0.10188537502E+01  0.10185451124E+01 0.  0.
     999903    2    3    3    0    0 -0.11598863125E-01  0.11463836004E+00 -0.54586228420E-01  0.12922984236E+00  0.21076256891E-01 0.  0.
         14    1    1    2    0    0  0.14509016429E-01  0.10469610681E-01  0.17569689713E-01  0.25076249763E-01  0.00000000000E+00 0.  1.
     999901    1    3    3    0    0 -0.29101533035E-02 -0.12510797072E+00  0.37016538707E-01  0.88962390788E+00  0.88000000000E+00 0. -1.
        -11    1    4    4    0    0 -0.16477078486E-01  0.80539880620E-01 -0.43691275837E-01  0.93098631520E-01  0.51100000000E-03 0. -1.
         11    1    4    4    0    0  0.48782153609E-02  0.34098479421E-01 -0.10894952583E-01  0.36131210839E-01  0.51100000000E-03 0.  1.
</event>
<event>
 8    1  0.1126407E+005  0.1043930E+01  0.7957747E-01            NaN
         13   -1    0    0    0    0  0.00000000000E+00  0.00000000000E+00  0.74505805969E-08  0.10566000000E+00  0.10566000000E+00 0. -1.
     999900   -1    0    0    0    0 -0.00000000000E+00 -0.00000000000E+00 -0.74505805969E-08  0.93827000000E+00  0.93827000000E+00 0. -1.
     999902    2    1    2    0    0  0.18971534480E-01 -0.10694879462E-01 -0.88440088910E-02  0.10204243398E+01  0.10201535753E+01 0.  0.
     999903    2    3    3    0    0  0.64400168462E-01 -0.47528787758E-01 -0.10474682621E+00  0.13328407585E+00  0.19656548788E-01 0.  0.
         14    1    1    2    0    0 -0.18971534480E-01  0.10694879462E-01  0.88440088910E-02  0.23505660180E-01  0.00000000000E+00 0. -1.
     999901    1    3    3    0    0 -0.45428633983E-01  0.36833908296E-01  0.95902817320E-01  0.88714026397E+00  0.88000000000E+00 0.  1.
        -11    1    4    4    0    0  0.23071538373E-01 -0.81904083377E-02 -0.40768735169E-01  0.47557644600E-01  0.51100000000E-03 0.  1.
         11    1    4    4    0    0  0.41328630089E-01 -0.39338379421E-01 -0.63978091042E-01  0.85726431250E-01  0.51100000000E-03 0. -1.
</event>
<event>
 8    1  0.1126407E+005  0.1043930E+01  0.7957747E-01            NaN
         13   -1    0    0    0    0  0.00000000000E+00  0.00000000000E+00  0.74505805969E-08  0.10566000000E+00  0.10566000000E+00 0.  1.
     999900   -1    0    0    0    0 -0.00000000000E+00 -0.00000000000E+00 -0.74505805969E-08  0.93827000000E+00  0.93827000000E+00 0. -1.
     999902    2    1    2    0    0 -0.14647317243E-01 -0.12893080132E-01  0.13835345548E-01  0.10200094606E+01  0.10197289383E+01 0.  0.
     999903    2    3    3    0    0 -0.44839334268E-01 -0.12258998205E+00 -0.98401508767E-02  0.13236905071E+00  0.19643508344E-01 0.  0.
         14    1    1    2    0    0  0.14647317243E-01  0.12893080132E-01 -0.13835345548E-01  0.23920539378E-01  0.00000000000E+00 0.  1.
     999901    1    3    3    0    0  0.30192017025E-01  0.10969690191E+00  0.23675496424E-01  0.88764040991E+00  0.88000000000E+00 0.  1.
        -11    1    4    4    0    0 -0.13366872897E-01 -0.57662380849E-01 -0.10987575693E-01  0.60204745633E-01  0.51100000000E-03 0.  1.
         11    1    4    4    0    0 -0.31472461371E-01 -0.64927601198E-01  0.11474248159E-02  0.72164305074E-01  0.51100000000E-03 0. -1.
</event>
<event>
 8    1  0.1126407E+005  0.1043930E+01  0.7957747E-01            NaN
         13   -1    0    0    0    0  0.00000000000E+00  0.00000000000E+00  0.74505805969E-08  0.10566000000E+00  0.10566000000E+00 0.  1.
     999900   -1    0    0    0    0 -0.00000000000E+00 -0.00000000000E+00 -0.74505805969E-08  0.93827000000E+00  0.93827000000E+00 0. -1.
     999902    2    1    2    0    0 -0.22438545225E-01 -0.69295950810E-02  0.16072115534E-02  0.10203908681E+01  0.10201193229E+01 0.  0.
     999903    2    3    3    0    0  0.66777740648E-01 -0.92839914219E-01 -0.57875992749E-01  0.12972910282E+00  0.20037296837E-01 0.  0.
         14    1    1    2    0    0  0.22438545225E-01  0.69295950810E-02 -0.16072115534E-02  0.23539131861E-01  0.00000000000E+00 0. -1.
     999901    1    3    3    0    0 -0.89216285873E-01  0.85910319138E-01  0.59483204302E-01  0.89066176531E+00  0.88000000000E+00 0.  1.
        -11    1    4    4    0    0  0.52914176176E-01 -0.83360827752E-01 -0.44739605213E-01  0.10840125017E+00  0.51100000000E-03 0. -1.
         11    1    4    4    0    0  0.13863564473E-01 -0.94790864678E-02 -0.13136387536E-01  0.21327852650E-01  0.51100000000E-03 0.  1.
</event>
<event>
 8    1  0.1126407E+005  0.1043930E+01  0.7957747E-01            NaN
         13   -1    0    0    0    0  0.00000000000E+00  0.00000000000E+00  0.74505805969E-08  0.10566000000E+00  0.10566000000E+00 0. -1.
     999900   -1    0    0    0    0 -0.00000000000E+00 -0.00000000000E+00 -0.74505805969E-08  0.93827000000E+00  0.93827000000E+00 0.  1.
     999902    2    1    2    0    0 -0.53191340401E-02  0.20366597478E-01 -0.91698687760E-02  0.10209696434E+01  0.10207114356E+01 0.  0.
     999903    2    3    3    0    0  0.40988689942E-01 -0.29674785701E-02 -0.12375500314E+00  0.13202721185E+00  0.20664104987E-01 0.  0.
         14    1    1    2    0    0  0.53191340401E-02 -0.20366597478E-01  0.91698687760E-02  0.22960356555E-01  0.00000000000E+00 0. -1.
     999901    1    3    3    0    0 -0.46307823982E-01  0.23334076048E-01  0.11458513437E+00  0.88894243159E+00  0.88000000000E+00 0. -1.
        -11    1    4    4    0    0  0.30343380939E-02  0.37936750502E-02 -0.33895099961E-01  0.34245263912E-01  0.51100000000E-03 0.  1.
         11    1    4    4    0    0  0.37954351848E-01 -0.67611536203E-02 -0.89859903181E-01  0.97781947941E-01  0.51100000000E-03 0. -1.
</event>
<event>
 8    1  0.1126407E+005  0.1043930E+01  0.7957747E-01            NaN
         13   -1    0    0    0    0  0.00000000000E+00  0.00000000000E+00  0.74505805969E-08  0.10566000000E+00  0.10566000000E+00 0. -1.
     999900   -1    0    0    0    0 -0.00000000000E+00 -0.00000000000E+00 -0.74505805969E-08  0.93827000000E+00  0.93827000000E+00 0.  1.
     999902    2    1    2    0    0 -0.22472354209E-01 -0.14874170765E-03 -0.37955552040E-02  0.10211388818E+01  0.10208845091E+01 0.  0.
     999903    2    3    3    0    0  0.67289433537E-01 -0.10614753331E+00  0.25517272713E-01  0.12976232603E+00  0.19798064460E-01 0.  0.
         14    1    1    2    0    0  0.22472354209E-01  0.14874170765E-03  0.37955552040E-02  0.22791118163E-01  0.00000000000E+00 0. -1.
     999901    1    3    3    0    0 -0.89761787746E-01  0.10599879160E+00 -0.29312827917E-01  0.89137655581E+00  0.88000000000E+00 0. -1.
        -11    1    4    4    0    0  0.50197855821E-01 -0.83277344479E-01  0.11388620614E-01  0.97902515969E-01  0.51100000000E-03 0. -1.
         11    1    4    4    0    0  0.17091577716E-01 -0.22870188833E-01  0.14128652099E-01  0.31859810062E-01  0.51100000000E-03 0.  1.
</event>
<event>
 8    1  0.1126407E+005  0.1043930E+01  0.7957747E-01            NaN
         13   -1    0    0    0    0  0.00000000000E+00  0.00000000000E+00  0.74505805969E-08  0.10566000000E+00  0.10566000000E+00 0. -1.
     999900   -1    0    0    0    0 -0.00000000000E+00 -0.00000000000E+00 -0.74505805969E-08  0.93827000000E+00  0.93827000000E+00 0.  1.
     999902    2    1    2    0    0  0.10842331983E-02  0.23599086623E-01  0.36117227557E-02  0.10200315274E+01  0.10197515285E+01 0.  0.
     999903    2    3    3    0    0  0.28636964025E-01  0.12845609741E+00  0.80173840583E-02  0.13336724170E+00  0.20037416078E-01 0.  0.
         14    1    1    2    0    0 -0.10842331983E-02 -0.23599086623E-01 -0.36117227557E-02  0.23898472594E-01  0.00000000000E+00 0.  1.
     999901    1    3    3    0    0 -0.27552730826E-01 -0.10485701079E+00 -0.44056613026E-02  0.88666428570E+00  0.88000000000E+00 0. -1.
        -11    1    4    4    0    0  0.81340043239E-02  0.36807830419E-01  0.11418480198E-01  0.39390623472E-01  0.51100000000E-03 0. -1.
         11    1    4    4    0    0  0.20502959701E-01  0.91648266989E-01 -0.34010961394E-02  0.93976618233E-01  0.51100000000E-03 0.  1.
</event>
<event>
 8    1  0.1126407E+005  0.1043930E+01  0.7957747E-01            NaN
         13   -1    0    0    0    0  0.00000000000E+00  0.00000000000E+00  0.74505805969E-08  0.10566000000E+00  0.10566000000E+00 0. -1.
     999900   -1    0    0    0    0 -0.00000000000E+00 -0.00000000000E+00 -0.74505805969E-08  0.93827000000E+00  0.93827000000E+00 0. -1.
     999902    2    1    2    0    0 -0.75694540889E-02  0.19944542987E-01  0.88223165886E-02  0.10208450547E+01  0.10205840049E+01 0.  0.
     999903    2    3    3    0    0 -0.85157160113E-01  0.85769020221E-01 -0.53856448170E-01  0.13276772614E+00  0.10894280434E-01 0.  0.
         14    1    1    2    0    0  0.75694540889E-02 -0.19944542987E-01 -0.88223165886E-02  0.23084945314E-01  0.00000000000E+00 0. -1.
     999901    1    3    3    0    0  0.77587706024E-01 -0.65824477234E-01  0.62678764759E-01  0.88807732855E+00  0.88000000000E+00 0.  1.
        -11    1    4    4    0    0 -0.25050309068E-01  0.18874346099E-01 -0.15631672298E-01  0.35048098734E-01  0.51100000000E-03 0.  1.
         11    1    4    4    0    0 -0.60106851046E-01  0.66894674122E-01 -0.38224775872E-01  0.97719627404E-01  0.51100000000E-03 0. -1.
</event>
<event>
 8    1  0.1126407E+005  0.1043930E+01  0.7957747E-01            NaN
         13   -1    0    0    0    0  0.00000000000E+00  0.00000000000E+00  0.74505805969E-08  0.10566000000E+00  0.10566000000E+00 0.  1.
     999900   -1    0    0    0    0 -0.00000000000E+00 -0.00000000000E+00 -0.74505805969E-08  0.93827000000E+00  0.93827000000E+00 0.  1.
     999902    2    1    2    0    0  0.92466242954E-02 -0.84050655768E-02 -0.19430027052E-01  0.10208286767E+01  0.10205672521E+01 0.  0.
     999903    2    3    3    0    0  0.38937671483E-01  0.11568465105E+00 -0.45249281192E-01  0.13125212014E+00  0.16749353490E-01 0.  0.
         14    1    1    2    0    0 -0.92466242954E-02  0.84050655768E-02  0.19430027052E-01  0.23101323327E-01  0.00000000000E+00 0. -1.
     999901    1    3    3    0    0 -0.29691047187E-01 -0.12408971663E+00  0.25819254140E-01  0.88957655654E+00  0.88000000000E+00 0. -1.
        -11    1    4    4    0    0  0.29872343549E-01  0.62870494945E-01 -0.24809173935E-01  0.73897308991E-01  0.51100000000E-03 0.  1.
         11    1    4    4    0    0  0.90653279333E-02  0.52814156106E-01 -0.20440107257E-01  0.57354811145E-01  0.51100000000E-03 0. -1.
</event>
<event>
 8    1  0.1126407E+005  0.1043930E+01  0.7957747E-01            NaN
         13   -1    0    0    0    0  0.00000000000E+00  0.00000000000E+00  0.74505805969E-08  0.10566000000E+00  0.10566000000E+00 0. -1.
     999900   -1    0    0    0    0 -0.00000000000E+00 -0.00000000000E+00 -0.74505805969E-08  0.93827000000E+00  0.93827000000E+00 0.  1.
     999902    2    1    2    0    0 -0.15347681507E-01  0.42046490235E-02  0.18637576385E-01  0.10194230693E+01  0.10191284534E+01 0.  0.
     999903    2    3    3    0    0  0.70003402280E-01  0.49042729207E-02 -0.10363729535E+00  0.12687814532E+00  0.20804964559E-01 0.  0.
         14    1    1    2    0    0  0.15347681507E-01 -0.42046490235E-02 -0.18637576385E-01  0.24506930746E-01  0.00000000000E+00 0. -1.
     999901    1    3    3    0    0 -0.85351083787E-01 -0.69962389719E-03  0.12227487173E+00  0.89254492393E+00  0.88000000000E+00 0. -1.
        -11    1    4    4    0    0  0.26108635131E-01  0.23590016063E-02 -0.57213877532E-01  0.62935797606E-01  0.51100000000E-03 0.  1.
         11    1    4    4    0    0  0.43894767148E-01  0.25452713144E-02 -0.46423417815E-01  0.63942347718E-01  0.51100000000E-03 0. -1.
</event>
<event>
 8    1  0.1126407E+005  0.1043930E+01  0.7957747E-01            NaN
         13   -1    0    0    0    0  0.00000000000E+00  0.00000000000E+00  0.74505805969E-08  0.10566000000E+00  0.10566000000E+00 0. -1.
     999900   -1    0    0    0    0 -0.00000000000E+00 -0.00000000000E+00 -0.74505805969E-08  0.93827000000E+00  0.93827000000E+00 0. -1.
     999902    2    1    2    0    0  0.22836972087E-01  0.69140070070E-02 -0.13618433129E-02  0.10200305146E+01  0.10197504917E+01 0.  0.
     999903    2    3    3    0    0 -0.11813490436E+00  0.38724807615E-01 -0.23456030687E-01  0.12796933387E+00  0.19248342361E-01 0.  0.
         14    1    1    2    0    0 -0.22836972087E-01 -0.69140070070E-02  0.13618433129E-02  0.23899485438E-01  0.00000000000E+00 0.  1.
     999901    1    3    3    0    0  0.14097187644E+00 -0.31810800608E-01  0.22094187374E-01  0.89206118069E+00  0.88000000000E+00 0.  1.
        -11    1    4    4    0    0 -0.24019765333E-01  0.10796217601E-01 -0.12599657065E-01  0.29197943768E-01  0.51100000000E-03 0.  1.
         11    1    4    4    0    0 -0.94115139022E-01  0.27928590014E-01 -0.10856373622E-01  0.98771390101E-01  0.51100000000E-03 0. -1.
</event>
<event>
 8    1  0.1126407E+005  0.1043930E+01  0.7957747E-01            NaN
         13   -1    0    0    0    0  0.00000000000E+00  0.00000000000E+00  0.74505805969E-08  0.10566000000E+00  0.10566000000E+00 0. -1.
     999900   -1    0    0    0    0 -0.00000000000E+00 -0.00000000000E+00 -0.74505805969E-08  0.93827000000E+00  0.93827000000E+00 0.  1.
     999902    2    1    2    0    0  0.23413343910E-01 -0.48821475193E-03  0.66273132581E-02  0.10195918754E+01  0.10193013530E+01 0.  0.
     999903    2    3    3    0    0  0.68882661071E-01 -0.10707264837E+00 -0.25511496830E-01  0.13141362563E+00  0.20231942724E-01 0.  0.
         14    1    1    2    0    0 -0.23413343910E-01  0.48821475193E-03 -0.66273132581E-02  0.24338124572E-01  0.00000000000E+00 0. -1.
     999901    1    3    3    0    0 -0.45469317162E-01  0.10658443362E+00  0.32138810089E-01  0.88817824979E+00  0.88000000000E+00 0.  1.
        -11    1    4    4    0    0  0.15185859299E-01 -0.12900959627E-01 -0.85482277658E-02  0.21688208799E-01  0.51100000000E-03 0. -1.
         11    1    4    4    0    0  0.53696801772E-01 -0.94171688743E-01 -0.16963269065E-01  0.10972541684E+00  0.51100000000E-03 0.  1.
</event>
<event>
 8    1  0.1126407E+005  0.1043930E+01  0.7957747E-01            NaN
         13   -1    0    0    0    0  0.00000000000E+00  0.00000000000E+00  0.74505805969E-08  0.10566000000E+00  0.10566000000E+00 0. -1.
     999900   -1    0    0    0    0 -0.00000000000E+00 -0.00000000000E+00 -0.74505805969E-08  0.93827000000E+00  0.93827000000E+00 0. -1.
     999902    2    1    2    0    0  0.39292109002E-02 -0.19871592954E-01  0.12094076070E-01  0.10203379339E+01  0.10200651518E+01 0.  0.
     999903    2    3    3    0    0  0.70751999722E-01 -0.93753149112E-01  0.60020900073E-01  0.13342150614E+00  0.20082116979E-01 0.  0.
         14    1    1    2    0    0 -0.39292109002E-02  0.19871592954E-01 -0.12094076070E-01  0.23592066057E-01  0.00000000000E+00 0.  1.
     999901    1    3    3    0    0 -0.66822788821E-01  0.73881556158E-01 -0.47926824003E-01  0.88691642780E+00  0.88000000000E+00 0. -1.
        -11    1    4    4    0    0  0.25434873955E-01 -0.49424044425E-01  0.24428427494E-01  0.60718021800E-01  0.51100000000E-03 0. -1.
         11    1    4    4    0    0  0.45317125767E-01 -0.44329104687E-01  0.35592472578E-01  0.72703484341E-01  0.51100000000E-03 0.  1.
</event>
<event>
 8    1  0.1126407E+005  0.1043930E+01  0.7957747E-01            NaN
         13   -1    0    0    0    0  0.00000000000E+00  0.00000000000E+00  0.74505805969E-08  0.10566000000E+00  0.10566000000E+00 0.  1.
     999900   -1    0    0    0    0 -0.00000000000E+00 -0.00000000000E+00 -0.74505805969E-08  0.93827000000E+00  0.93827000000E+00 0.  1.
     999902    2    1    2    0    0 -0.18719388559E-01 -0.14210755069E-01  0.62448950233E-02  0.10196121098E+01  0.10193220761E+01 0.  0.
     999903    2    3    3    0    0  0.12454005319E+00 -0.21309081852E-01  0.58209012816E-02  0.12799905831E+00  0.19636043877E-01 0.  0.
         14    1    1    2    0    0  0.18719388559E-01  0.14210755069E-01 -0.62448950233E-02  0.24317890153E-01  0.00000000000E+00 0. -1.
     999901    1    3    3    0    0 -0.14325944175E+00  0.70983267828E-02  0.42399374172E-03  0.89161305153E+00  0.88000000000E+00 0.  1.
        -11    1    4    4    0    0  0.29291574233E-01 -0.21202794745E-02  0.91912332719E-02  0.30777131058E-01  0.51100000000E-03 0. -1.
         11    1    4    4    0    0  0.95248478958E-01 -0.19188802377E-01 -0.33703319903E-02  0.97221927255E-01  0.51100000000E-03 0.  1.
</event>
<event>
 8    1  0.1126407E+005  0.1043930E+01  0.7957747E-01            NaN
         13   -1    0    0    0    0  0.00000000000E+00  0.00000000000E+00  0.74505805969E-08  0.10566000000E+00  0.10566000000E+00 0. -1.
     999900   -1    0    0    0    0 -0.00000000000E+00 -0.00000000000E+00 -0.74505805969E-08  0.93827000000E+00  0.93827000000E+00 0. -1.
     999902    2    1    2    0    0  0.16889259941E-01 -0.14224269076E-01 -0.75337506372E-02  0.10205990264E+01  0.10203323176E+01 0.  0.
     999903    2    3    3    0    0 -0.39168093055E-01  0.11603785803E+00 -0.34376402844E-01  0.12884167340E+00  0.20482082956E-01 0.  0.
         14    1    1    2    0    0 -0.16889259941E-01  0.14224269076E-01  0.75337506372E-02  0.23330973635E-01  0.00000000000E+00 0.  1.
     999901    1    3    3    0    0  0.56057352996E-01 -0.13026212711E+00  0.26842652207E-01  0.89175735296E+00  0.88000000000E+00 0. -1.
        -11    1    4    4    0    0 -0.89852835327E-02  0.54221977068E-01 -0.20505589689E-01  0.58664285957E-01  0.51100000000E-03 0.  1.
         11    1    4    4    0    0 -0.30182809522E-01  0.61815880966E-01 -0.13870813156E-01  0.70177387446E-01  0.51100000000E-03 0. -1.
</event>
<event>
 8    1  0.1126407E+005  0.1043930E+01  0.7957747E-01            NaN
         13   -1    0    0    0    0  0.00000000000E+00  0.00000000000E+00  0.74505805969E-08  0.10566000000E+00  0.10566000000E+00 0.  1.
     999900   -1    0    0    0    0 -0.00000000000E+00 -0.00000000000E+00 -0.74505805969E-08  0.93827000000E+00  0.93827000000E+00 0.  1.
     999902    2    1    2    0    0  0.39879243790E-02 -0.15765838878E-01 -0.17547125136E-01  0.10200058111E+01  0.10197252021E+01 0.  0.
     999903    2    3    3    0    0  0.11848175791E+00  0.47778574089E-01  0.80907361556E-02  0.12994736900E+00  0.22363801111E-01 0.  0.
         14    1    1    2    0    0 -0.39879243790E-02  0.15765838878E-01  0.17547125136E-01  0.23924188950E-01  0.00000000000E+00 0.  1.
     999901    1    3    3    0    0 -0.11449383353E+00 -0.63544412966E-01 -0.25637861291E-01  0.89005844205E+00  0.88000000000E+00 0. -1.
        -11    1    4    4    0    0  0.64731495679E-01  0.25009322399E-01 -0.67209034608E-02  0.69721333923E-01  0.51100000000E-03 0.  1.
         11    1    4    4    0    0  0.53750262226E-01  0.22769251690E-01  0.14811639616E-01  0.60226035076E-01  0.51100000000E-03 0. -1.
</event>
<event>
 8    1  0.1126407E+005  0.1043930E+01  0.7957747E-01            NaN
         13   -1    0    0    0    0  0.00000000000E+00  0.00000000000E+00  0.74505805969E-08  0.10566000000E+00  0.10566000000E+00 0.  1.
     999900   -1    0    0    0    0 -0.00000000000E+00 -0.00000000000E+00 -0.74505805969E-08  0.93827000000E+00  0.93827000000E+00 0. -1.
     999902    2    1    2    0    0 -0.14319682850E-01 -0.17891958089E-01  0.18410362160E-02  0.10209394607E+01  0.10206805659E+01 0.  0.
     999903    2    3    3    0    0 -0.90593729750E-01 -0.77432786559E-01 -0.57106075293E-01  0.13367534987E+00  0.20122997347E-01 0.  0.
         14    1    1    2    0    0  0.14319682850E-01  0.17891958089E-01 -0.18410362160E-02  0.22990539262E-01  0.00000000000E+00 0.  1.
     999901    1    3    3    0    0  0.76274046900E-01  0.59540828470E-01  0.58947111509E-01  0.88726411087E+00  0.88000000000E+00 0.  1.
        -11    1    4    4    0    0 -0.40858553606E-01 -0.42467409666E-01 -0.37240791974E-01  0.69713987079E-01  0.51100000000E-03 0. -1.
         11    1    4    4    0    0 -0.49735176144E-01 -0.34965376893E-01 -0.19865283318E-01  0.63961362788E-01  0.51100000000E-03 0.  1.
</event>
<event>
 8    1  0.1126407E+005  0.1043930E+01  0.7957747E-01            NaN
         13   -1    0    0    0    0  0.00000000000E+00  0.00000000000E+00  0.74505805969E-08  0.10566000000E+00  0.10566000000E+00 0.  1.
     999900   -1    0    0    0    0 -0.00000000000E+00 -0.00000000000E+00 -0.74505805969E-08  0.93827000000E+00  0.93827000000E+00 0. -1.
     999902    2    1    2    0    0  0.23578847233E-01  0.58960511190E-02  0.32503595314E-02  0.10194087787E+01  0.10191138150E+01 0.  0.
     999903    2    3    3    0    0 -0.96487222717E-01 -0.76323429883E-01  0.25201441079E-01  0.12718809179E+00  0.20165514251E-01 0.  0.
         14    1    1    2    0    0 -0.23578847233E-01 -0.58960511190E-02 -0.32503595314E-02  0.24521221273E-01  0.00000000000E+00 0.  1.
     999901    1    3    3    0    0  0.12006606995E+00  0.82219481002E-01 -0.21951081548E-01  0.89222068693E+00  0.88000000000E+00 0. -1.
        -11    1    4    4    0    0 -0.41494274746E-01 -0.28546104697E-01  0.84775998569E-03  0.50374941668E-01  0.51100000000E-03 0. -1.
         11    1    4    4    0    0 -0.54992947972E-01 -0.47777325186E-01  0.24353681094E-01  0.76813150127E-01  0.51100000000E-03 0.  1.
</event>
<event>
 8    1  0.1126407E+005  0.1043930E+01  0.7957747E-01            NaN
         13   -1    0    0    0    0  0.00000000000E+00  0.00000000000E+00  0.74505805969E-08  0.10566000000E+00  0.10566000000E+00 0.  1.
     999900   -1    0    0    0    0 -0.00000000000E+00 -0.00000000000E+00 -0.74505805969E-08  0.93827000000E+00  0.93827000000E+00 0.  1.
     999902    2    1    2    0    0  0.16602729474E-01  0.16607234330E-01  0.43327626513E-02  0.10200506430E+01  0.10197710972E+01 0.  0.
     999903    2    3    3    0    0  0.21299529253E-02 -0.10256494429E+00  0.74976788548E-01  0.12909494949E+00  0.22800935676E-01 0.  0.
         14    1    1    2    0    0 -0.16602729474E-01 -0.16607234330E-01 -0.43327626513E-02  0.23879356990E-01  0.00000000000E+00 0. -1.
     999901    1    3    3    0    0  0.14472776549E-01  0.11917217861E+00 -0.70644025897E-01  0.89095569352E+00  0.88000000000E+00 0. -1.
        -11    1    4    4    0    0  0.65821813060E-02 -0.89602877930E-02  0.53543689799E-02  0.12350799822E-01  0.51100000000E-03 0. -1.
         11    1    4    4    0    0 -0.44522283807E-02 -0.93604656492E-01  0.69622419568E-01  0.11674414967E+00  0.51100000000E-03 0.  1.
</event>
<event>
 8    1  0.1126407E+005  0.1043930E+01  0.7957747E-01            NaN
         13   -1    0    0    0    0  0.00000000000E+00  0.00000000000E+00  0.74505805969E-08  0.10566000000E+00  0.10566000000E+00 0.  1.
     999900   -1    0    0    0    0 -0.00000000000E+00 -0.00000000000E+00 -0.74505805969E-08  0.93827000000E+00  0.93827000000E+00 0.  1.
     999902    2    1    2    0    0  0.23252154687E-01 -0.16003093187E-02  0.56794085512E-02  0.10199408489E+01  0.10196586958E+01 0.  0.
     999903    2    3    3    0    0 -0.11647916382E+00 -0.46861220028E-01  0.10813120346E-01  0.12775267012E+00  0.20986938896E-01 0.  0.
         14    1    1    2    0    0 -0.23252154687E-01  0.16003093187E-02 -0.56794085512E-02  0.23989151069E-01  0.00000000000E+00 0. -1.
     999901    1    3    3    0    0  0.13973131851E+00  0.45260910710E-01 -0.51337117946E-02  0.89218817881E+00  0.88000000000E+00 0. -1.
        -11    1    4    4    0    0 -0.57388421582E-01 -0.19978174910E-01 -0.48740663584E-02  0.60963727316E-01  0.51100000000E-03 0.  1.
         11    1    4    4    0    0 -0.59090742241E-01 -0.26883045118E-01  0.15687186704E-01  0.66788942805E-01  0.51100000000E-03 0. -1.
</event>
<event>
 8    1  0.1126407E+005  0.1043930E+01  0.7957747E-01            NaN
         13   -1    0    0    0    0  0.00000000000E+00  0.00000000000E+00  0.74505805969E-08  0.10566000000E+00  0.10566000000E+00 0. -1.
     999900   -1    0    0    0    0 -0.00000000000E+00 -0.00000000000E+00 -0.74505805969E-08  0.93827000000E+00  0.93827000000E+00 0.  1.
     999902    2    1    2    0    0  0.76559908257E-02 -0.12606912987E-01 -0.18614180524E-01  0.10201805544E+01  0.10199040775E+01 0.  0.
     999903    2    3    3    0    0 -0.93094528444E-01 -0.79084213223E-01  0.40213008450E-01  0.12999487895E+00  0.18991537523E-01 0.  0.
         14    1    1    2    0    0 -0.76559908257E-02  0.12606912987E-01  0.18614180524E-01  0.23749445618E-01  0.00000000000E+00 0. -1.
     999901    1    3    3    0    0  0.10075051927E+00  0.66477300237E-01 -0.58827188974E-01  0.89018567543E+00  0.88000000000E+00 0.  1.
        -11    1    4    4    0    0 -0.58202139346E-01 -0.45825814304E-01  0.14961216782E-01  0.75575084583E-01  0.51100000000E-03 0. -1.
         11    1    4    4    0    0 -0.34892389098E-01 -0.33258398919E-01  0.25251791667E-01  0.54419794368E-01  0.51100000000E-03 0.  1.
</event>
<event>
 8    1  0.1126407E+005  0.1043930E+01  0.7957747E-01            NaN
         13   -1    0    0    0    0  0.00000000000E+00  0.00000000000E+00  0.74505805969E-08  0.10566000000E+00  0.10566000000E+00 0. -1.
     999900   -1    0    0    0    0 -0.00000000000E+00 -0.00000000000E+00 -0.74505805969E-08  0.93827000000E+00  0.93827000000E+00 0. -1.
     999902    2    1    2    0    0  0.14224095041E-01  0.11760125727E-01  0.21049183952E-02  0.10253543138E+01  0.10251860381E+01 0.  0.
     999903    2    3    3    0    0 -0.85334893827E-01  0.10185075390E+00  0.14028361966E-01  0.13509003726E+00  0.19922425918E-01 0.  0.
         14    1    1    2    0    0 -0.14224095041E-01 -0.11760125727E-01 -0.21049183952E-02  0.18575686214E-01  0.00000000000E+00 0.  1.
     999901    1    3    3    0    0  0.99558988869E-01 -0.90090628169E-01 -0.11923443571E-01  0.89026427652E+00  0.88000000000E+00 0. -1.
        -11    1    4    4    0    0 -0.22656596645E-01  0.29662552836E-01  0.12852712855E-01  0.39479637296E-01  0.51100000000E-03 0.  1.
         11    1    4    4    0    0 -0.62678297182E-01  0.72188201060E-01  0.11756491114E-02  0.95610399966E-01  0.51100000000E-03 0. -1.
</event>
<event>
 8    1  0.1126407E+005  0.1043930E+01  0.7957747E-01            NaN
         13   -1    0    0    0    0  0.00000000000E+00  0.00000000000E+00  0.74505805969E-08  0.10566000000E+00  0.10566000000E+00 0.  1.
     999900   -1    0    0    0    0 -0.00000000000E+00 -0.00000000000E+00 -0.74505805969E-08  0.93827000000E+00  0.93827000000E+00 0. -1.
     999902    2    1    2    0    0 -0.11993284096E-01  0.29703331502E-01 -0.10786837811E-02  0.10118786299E+01  0.10113708871E+01 0.  0.
     999903    2    3    3    0    0 -0.70839184586E-01  0.10312113763E+00 -0.14076069315E-01  0.12676736782E+00  0.14821292640E-01 0.  0.
         14    1    1    2    0    0  0.11993284096E-01 -0.29703331502E-01  0.10786837811E-02  0.32051370087E-01  0.00000000000E+00 0. -1.
     999901    1    3    3    0    0  0.58845900490E-01 -0.73417806132E-01  0.12997385534E-01  0.88511126210E+00  0.88000000000E+00 0.  1.
        -11    1    4    4    0    0 -0.27707008765E-01  0.49752403653E-01 -0.12833381544E-02  0.56963919123E-01  0.51100000000E-03 0. -1.
         11    1    4    4    0    0 -0.43132175821E-01  0.53368733982E-01 -0.12792731161E-01  0.69803448693E-01  0.51100000000E-03 0.  1.
</event>
<event>
 8    1  0.1126407E+005  0.1043930E+01  0.7957747E-01            NaN
         13   -1    0    0    0    0  0.00000000000E+00  0.00000000000E+00  0.74505805969E-08  0.10566000000E+00  0.10566000000E+00 0.  1.
     999900   -1    0    0    0    0 -0.00000000000E+00 -0.00000000000E+00 -0.74505805969E-08  0.93827000000E+00  0.93827000000E+00 0.  1.
     999902    2    1    2    0    0  0.12100929416E-01  0.18724644189E-02 -0.19830778509E-01  0.10206233831E+01  0.10203572373E+01 0.  0.
     999903    2    3    3    0    0 -0.26780179399E-01 -0.62142582246E-01  0.10720956252E+00  0.12835161111E+00  0.20034151872E-01 0.  0.
         14    1    1    2    0    0 -0.12100929416E-01 -0.18724644189E-02  0.19830778509E-01  0.23306616915E-01  0.00000000000E+00 0.  1.
     999901    1    3    3    0    0  0.38881108815E-01  0.64015046664E-01 -0.12704034103E+00  0.89227177198E+00  0.88000000000E+00 0.  1.
        -11    1    4    4    0    0 -0.67742847108E-02 -0.19592447151E-01  0.17788266629E-01  0.27321026140E-01  0.51100000000E-03 0.  1.
         11    1    4    4    0    0 -0.20005894688E-01 -0.42550135095E-01  0.89421295890E-01  0.10103058497E+00  0.51100000000E-03 0. -1.
</event>
<event>
 7    1  0.1126407E+005  0.1043930E+01  0.7957747E-01            NaN
         13   -1    0    0    0    0  0.00000000000E+00  0.00000000000E+00  0.74505805969E-08  0.10566000000E+00  0.10566000000E+00 0. -1.
     999900   -1    0    0    0    0 -0.00000000000E+00 -0.00000000000E+00 -0.74505805969E-08  0.93827000000E+00  0.93827000000E+00 0. -1.
     999903    2    1    2    0    0  0.96730114241E-02 -0.11455063591E+00 -0.24390157098E-01  0.11925428855E+00  0.20280291869E-01 0.  0.
         14    1    1    2    0    0 -0.27806623551E-01  0.22110040687E-01 -0.15477041943E-01  0.38750497284E-01  0.00000000000E+00 0.  1.
     999901    1    1    2    0    0  0.18133612127E-01  0.92440595219E-01  0.39867199041E-01  0.88592521416E+00  0.88000000000E+00 0.  1.
        -11    1    3    3    0    0 -0.20678094872E-02 -0.79375994560E-01 -0.20190821613E-01  0.81931402691E-01  0.51100000000E-03 0.  1.
         11    1    3    3    0    0  0.11740820911E-01 -0.35174641345E-01 -0.41993354851E-02  0.37322885860E-01  0.51100000000E-03 0. -1.
</event>
<event>
 8    1  0.1126407E+005  0.1043930E+01  0.7957747E-01            NaN
         13   -1    0    0    0    0  0.00000000000E+00  0.00000000000E+00  0.74505805969E-08  0.10566000000E+00  0.10566000000E+00 0. -1.
     999900   -1    0    0    0    0 -0.00000000000E+00 -0.00000000000E+00 -0.74505805969E-08  0.93827000000E+00  0.93827000000E+00 0.  1.
     999902    2    1    2    0    0  0.13240786229E-01  0.25520924665E-02 -0.19407383257E-01  0.10202978583E+01  0.10200241377E+01 0.  0.
     999903    2    3    3    0    0 -0.43187209350E-01  0.98264548017E-01  0.68660947021E-01  0.12894998928E+00  0.19817104745E-01 0.  0.
         14    1    1    2    0    0 -0.13240786229E-01 -0.25520924665E-02  0.19407383257E-01  0.23632141688E-01  0.00000000000E+00 0. -1.
     999901    1    3    3    0    0  0.56427995579E-01 -0.95712455551E-01 -0.88068330278E-01  0.89134786903E+00  0.88000000000E+00 0.  1.
        -11    1    4    4    0    0 -0.11821231824E-01  0.51468185877E-01  0.32901759012E-01  0.62221399425E-01  0.51100000000E-03 0.  1.
         11    1    4    4    0    0 -0.31365977526E-01  0.46796362140E-01  0.35759188009E-01  0.66728589853E-01  0.51100000000E-03 0. -1.
</event>
<event>
 8    1  0.1126407E+005  0.1043930E+01  0.7957747E-01            NaN
         13   -1    0    0    0    0  0.00000000000E+00  0.00000000000E+00  0.74505805969E-08  0.10566000000E+00  0.10566000000E+00 0.  1.
     999900   -1    0    0    0    0 -0.00000000000E+00 -0.00000000000E+00 -0.74505805969E-08  0.93827000000E+00  0.93827000000E+00 0.  1.
     999902    2    1    2    0    0  0.74697786870E-03  0.15495937313E-01  0.16771815217E-01  0.10210832095E+01  0.10208275785E+01 0.  0.
     999903    2    3    3    0    0  0.11773873690E+00 -0.12832518649E-02  0.57097876415E-01  0.13226669073E+00  0.19241961542E-01 0.  0.
         14    1    1    2    0    0 -0.74697786870E-03 -0.15495937313E-01 -0.16771815217E-01  0.22846790471E-01  0.00000000000E+00 0. -1.
     999901    1    3    3    0    0 -0.11699175903E+00  0.16779189178E-01 -0.40326061199E-01  0.88881651880E+00  0.88000000000E+00 0. -1.
        -11    1    4    4    0    0  0.91844085647E-01 -0.60698105327E-02  0.37295533334E-01  0.99314634349E-01  0.51100000000E-03 0.  1.
         11    1    4    4    0    0  0.25894651255E-01  0.47865586678E-02  0.19802343081E-01  0.32952056385E-01  0.51100000000E-03 0. -1.
</event>
<event>
 8    1  0.1126407E+005  0.1043930E+01  0.7957747E-01            NaN
         13   -1    0    0    0    0  0.00000000000E+00  0.00000000000E+00  0.74505805969E-08  0.10566000000E+00  0.10566000000E+00 0. -1.
     999900   -1    0    0    0    0 -0.00000000000E+00 -0.00000000000E+00 -0.74505805969E-08  0.93827000000E+00  0.93827000000E+00 0. -1.
     999902    2    1    2    0    0  0.15245222767E-01  0.17488305970E-01  0.70505399999E-02  0.10196819531E+01  0.10193936030E+01 0.  0.
     999903    2    3    3    0    0 -0.44940605270E-01 -0.32445911714E-01 -0.11368715930E+00  0.12800188044E+00  0.19680346000E-01 0.  0.
         14    1    1    2    0    0 -0.15245222767E-01 -0.17488305970E-01 -0.70505399999E-02  0.24248046874E-01  0.00000000000E+00 0. -1.
     999901    1    3    3    0    0  0.60185828037E-01  0.49934217684E-01  0.12073769930E+00  0.89168007268E+00  0.88000000000E+00 0.  1.
        -11    1    4    4    0    0 -0.25126053337E-01 -0.15844506838E-01 -0.39411131530E-01  0.49354486754E-01  0.51100000000E-03 0.  1.
         11    1    4    4    0    0 -0.19814551934E-01 -0.16601404876E-01 -0.74276027766E-01  0.78647393688E-01  0.51100000000E-03 0. -1.
</event>
<event>
 8    1  0.1126407E+005  0.1043930E+01  0.7957747E-01            NaN
         13   -1    0    0    0    0  0.00000000000E+00  0.00000000000E+00  0.74505805969E-08  0.10566000000E+00  0.10566000000E+00 0.  1.
     999900   -1    0    0    0    0 -0.00000000000E+00 -0.00000000000E+00 -0.74505805969E-08  0.93827000000E+00  0.93827000000E+00 0.  1.
     999902    2    1    2    0    0  0.12067528957E-01  0.76819366674E-02  0.20970077137E-01  0.10185453286E+01  0.10182289551E+01 0.  0.
     999903    2    3    3    0    0  0.11247644203E+00  0.33356241272E-01  0.56450661705E-01  0.13175336224E+00  0.20215895020E-01 0.  0.
         14    1    1    2    0    0 -0.12067528957E-01 -0.76819366674E-02 -0.20970077137E-01  0.25384671383E-01  0.00000000000E+00 0. -1.
     999901    1    3    3    0    0 -0.10040891308E+00 -0.25674304604E-01 -0.35480584567E-01  0.88679196637E+00  0.88000000000E+00 0.  1.
        -11    1    4    4    0    0  0.76420512041E-01  0.15312325380E-01  0.44247295828E-01  0.89625031538E-01  0.51100000000E-03 0.  1.
         11    1    4    4    0    0  0.36055929993E-01  0.18043915892E-01  0.12203365877E-01  0.42128330706E-01  0.51100000000E-03 0. -1.
</event>
<event>
 8    1  0.1126407E+005  0.1043930E+01  0.7957747E-01            NaN
         13   -1    0    0    0    0  0.00000000000E+00  0.00000000000E+00  0.74505805969E-08  0.10566000000E+00  0.10566000000E+00 0. -1.
     999900   -1    0    0    0    0 -0.00000000000E+00 -0.00000000000E+00 -0.74505805969E-08  0.93827000000E+00  0.93827000000E+00 0.  1.
     999902    2    1    2    0    0  0.16713316538E-01  0.76465031969E-02 -0.15678215871E-02  0.10254838073E+01  0.10253178907E+01 0.  0.
     999903    2    3    3    0    0 -0.66737052890E-01  0.10197829267E+00 -0.54391033222E-01  0.13494871963E+00  0.19984144492E-01 0.  0.
         14    1    1    2    0    0 -0.16713316538E-01 -0.76465031969E-02  0.15678215871E-02  0.18446192707E-01  0.00000000000E+00 0.  1.
     999901    1    3    3    0    0  0.83450369428E-01 -0.94331789477E-01  0.52823211635E-01  0.89053508766E+00  0.88000000000E+00 0. -1.
        -11    1    4    4    0    0 -0.28466884792E-01  0.56626400854E-01 -0.20524460703E-01  0.66621523636E-01  0.51100000000E-03 0. -1.
         11    1    4    4    0    0 -0.38270168099E-01  0.45351891820E-01 -0.33866572519E-01  0.68327195999E-01  0.51100000000E-03 0.  1.
</event>
<event>
 8    1  0.1126407E+005  0.1043930E+01  0.7957747E-01            NaN
         13   -1    0    0    0    0  0.00000000000E+00  0.00000000000E+00  0.74505805969E-08  0.10566000000E+00  0.10566000000E+00 0. -1.
     999900   -1    0    0    0    0 -0.00000000000E+00 -0.00000000000E+00 -0.74505805969E-08  0.93827000000E+00  0.93827000000E+00 0.  1.
     999902    2    1    2    0    0 -0.11512936673E-01 -0.99752855092E-02  0.18789726406E-01  0.10197409973E+01  0.10194540665E+01 0.  0.
     999903    2    3    3    0    0 -0.16173388048E-01 -0.12815168292E+00  0.12872276240E-01  0.13180947017E+00  0.22882495775E-01 0.  0.
         14    1    1    2    0    0  0.11512936673E-01  0.99752855092E-02 -0.18789726406E-01  0.24189002671E-01  0.00000000000E+00 0.  1.
     999901    1    3    3    0    0  0.46604513756E-02  0.11817639741E+00  0.59174501654E-02  0.88793152716E+00  0.88000000000E+00 0.  1.
        -11    1    4    4    0    0 -0.21702276686E-01 -0.11224976395E+00  0.10783497010E-01  0.11483702908E+00  0.51100000000E-03 0. -1.
         11    1    4    4    0    0  0.55288886380E-02 -0.15901918976E-01  0.20887792298E-02  0.16972441084E-01  0.51100000000E-03 0.  1.
</event>
<event>
 8    1  0.1126407E+005  0.1043930E+01  0.7957747E-01            NaN
         13   -1    0    0    0    0  0.00000000000E+00  0.00000000000E+00  0.74505805969E-08  0.10566000000E+00  0.10566000000E+00 0.  1.
     999900   -1    0    0    0    0 -0.00000000000E+00 -0.00000000000E+00 -0.74505805969E-08  0.93827000000E+00  0.93827000000E+00 0. -1.
     999902    2    1    2    0    0  0.50182879644E-02  0.15043997082E-01 -0.18109472062E-01  0.10198580653E+01  0.10195739381E+01 0.  0.
     999903    2    3    3    0    0 -0.10171979447E+00  0.65709395473E-01 -0.47086520537E-01  0.13148895834E+00  0.20188226990E-01 0.  0.
         14    1    1    2    0    0 -0.50182879644E-02 -0.15043997082E-01  0.18109472062E-01  0.24071934710E-01  0.00000000000E+00 0.  1.
     999901    1    3    3    0    0  0.10673808244E+00 -0.50665398391E-01  0.28977048475E-01  0.88836910695E+00  0.88000000000E+00 0.  1.
        -11    1    4    4    0    0 -0.62974041069E-01  0.43296319570E-01 -0.39697868082E-01  0.86119004803E-01  0.51100000000E-03 0. -1.
         11    1    4    4    0    0 -0.38745753405E-01  0.22413075902E-01 -0.73886524555E-02  0.45369953542E-01  0.51100000000E-03 0.  1.
</event>
<event>
 8    1  0.1126407E+005  0.1043930E+01  0.7957747E-01            NaN
         13   -1    0    0    0    0  0.00000000000E+00  0.00000000000E+00  0.74505805969E-08  0.10566000000E+00  0.10566000000E+00 0.  1.
     999900   -1    0    0    0    0 -0.00000000000E+00 -0.00000000000E+00 -0.74505805969E-08  0.93827000000E+00  0.93827000000E+00 0. -1.
     999902    2    1    2    0    0  0.21590837768E-01  0.55011401240E-02 -0.73375981470E-02  0.10204722259E+01  0.10202025763E+01 0.  0.
     999903    2    3    3    0    0  0.42419135254E-01 -0.12221177731E+00  0.11224060586E-02  0.13096900562E+00  0.20408799261E-01 0.  0.
         14    1    1    2    0    0 -0.21590837768E-01 -0.55011401240E-02  0.73375981470E-02  0.23457774079E-01  0.00000000000E+00 0. -1.
     999901    1    3    3    0    0 -0.20828297486E-01  0.12771291744E+00 -0.84600042056E-02  0.88950322030E+00  0.88000000000E+00 0. -1.
        -11    1    4    4    0    0  0.21784477842E-01 -0.85860873104E-01 -0.49843617447E-02  0.88722928198E-01  0.51100000000E-03 0.  1.
         11    1    4    4    0    0  0.20634657411E-01 -0.36350904211E-01  0.61067678033E-02  0.42246077421E-01  0.51100000000E-03 0. -1.
</event>
<event>
 8    1  0.1126407E+005  0.1043930E+01  0.7957747E-01            NaN
         13   -1    0    0    0    0  0.00000000000E+00  0.00000000000E+00  0.74505805969E-08  0.10566000000E+00  0.10566000000E+00 0.  1.
     999900   -1    0    0    0    0 -0.00000000000E+00 -0.00000000000E+00 -0.74505805969E-08  0.93827000000E+00  0.93827000000E+00 0.  1.
     999902    2    1    2    0    0  0.44733637397E-02  0.16928891891E-01  0.15958167839E-01  0.10202390421E+01  0.10199639413E+01 0.  0.
     999903    2    3    3    0    0 -0.16203522116E-01 -0.51279882267E-01 -0.11427257711E+00  0.12780416081E+00  0.19583186288E-01 0.  0.
         14    1    1    2    0    0 -0.44733637397E-02 -0.16928891891E-01 -0.15958167839E-01  0.23690957865E-01  0.00000000000E+00 0.  1.
     999901    1    3    3    0    0  0.20676885856E-01  0.68208774158E-01  0.13023074495E+00  0.89243488133E+00  0.88000000000E+00 0. -1.
        -11    1    4    4    0    0  0.23430341082E-02 -0.14615093252E-01 -0.19337988565E-01  0.24357949059E-01  0.51100000000E-03 0. -1.
         11    1    4    4    0    0 -0.18546556224E-01 -0.36664789015E-01 -0.94934588547E-01  0.10344621175E+00  0.51100000000E-03 0.  1.
</event>
<event>
 8    1  0.1126407E+005  0.1043930E+01  0.7957747E-01            NaN
         13   -1    0    0    0    0  0.00000000000E+00  0.00000000000E+00  0.74505805969E-08  0.10566000000E+00  0.10566000000E+00 0.  1.
     999900   -1    0    0    0    0 -0.00000000000E+00 -0.00000000000E+00 -0.74505805969E-08  0.93827000000E+00  0.93827000000E+00 0. -1.
     999902    2    1    2    0    0  0.76141904845E-02  0.19295258237E-01  0.11405698999E-01  0.10202578041E+01  0.10199831440E+01 0.  0.
     999903    2    3    3    0    0  0.52018413824E-01  0.11117355665E+00 -0.43297072402E-01  0.13267358280E+00  0.25732625577E-01 0.  0.
         14    1    1    2    0    0 -0.76141904845E-02 -0.19295258237E-01 -0.11405698999E-01  0.23672195860E-01  0.00000000000E+00 0. -1.
     999901    1    3    3    0    0 -0.44404223339E-01 -0.91878298416E-01  0.54702771401E-01  0.88758422134E+00  0.88000000000E+00 0.  1.
        -11    1    4    4    0    0  0.45152160168E-01  0.90427332250E-01 -0.24883480205E-01  0.10409259673E+00  0.51100000000E-03 0.  1.
         11    1    4    4    0    0  0.68662536559E-02  0.20746224403E-01 -0.18413592198E-01  0.28580986072E-01  0.51100000000E-03 0. -1.
</event>
<event>
 8    1  0.1126407E+005  0.1043930E+01  0.7957747E-01            NaN
         13   -1    0    0    0    0  0.00000000000E+00  0.00000000000E+00  0.74505805969E-08  0.10566000000E+00  0.10566000000E+00 0.  1.
     999900   -1    0    0    0    0 -0.00000000000E+00 -0.00000000000E+00 -0.74505805969E-08  0.93827000000E+00  0.93827000000E+00 0.  1.
     999902    2    1    2    0    0 -0.97237986085E-02  0.84791550207E-02 -0.19594198579E-01  0.10204698008E+01  0.10202000948E+01 0.  0.
     999903    2    3    3    0    0 -0.10928474645E+00  0.71077378165E-01  0.14442596756E-01  0.13199390167E+00  0.14786885491E-01 0.  0.
         14    1    1    2    0    0  0.97237986085E-02 -0.84791550207E-02  0.19594198579E-01  0.23460199214E-01  0.00000000000E+00 0.  1.
     999901    1    3    3    0    0  0.99560947844E-01 -0.62598223144E-01 -0.34036795335E-01  0.88847589912E+00  0.88000000000E+00 0.  1.
        -11    1    4    4    0    0 -0.83740392241E-01  0.54247002718E-01  0.47087036442E-02  0.99888055380E-01  0.51100000000E-03 0.  1.
         11    1    4    4    0    0 -0.25544354211E-01  0.16830375447E-01  0.97338931118E-02  0.32105846288E-01  0.51100000000E-03 0. -1.
</event>
<event>
 8    1  0.1126407E+005  0.1043930E+01  0.7957747E-01            NaN
         13   -1    0    0    0    0  0.00000000000E+00  0.00000000000E+00  0.74505805969E-08  0.10566000000E+00  0.10566000000E+00 0. -1.
     999900   -1    0    0    0    0 -0.00000000000E+00 -0.00000000000E+00 -0.74505805969E-08  0.93827000000E+00  0.93827000000E+00 0. -1.
     999902    2    1    2    0    0 -0.30452568479E-02 -0.80773442162E-02 -0.18859330246E-01  0.10231889437E+01  0.10229787012E+01 0.  0.
     999903    2    3    3    0    0  0.40964178880E-01 -0.12333309374E+00 -0.27955399416E-01  0.13453633627E+00  0.20722100727E-01 0.  0.
         14    1    1    2    0    0  0.30452568479E-02  0.80773442162E-02  0.18859330246E-01  0.20741056294E-01  0.00000000000E+00 0. -1.
     999901    1    3    3    0    0 -0.44009435728E-01  0.11525574952E+00  0.90960691697E-02  0.88865260744E+00  0.88000000000E+00 0.  1.
        -11    1    4    4    0    0  0.26126966265E-01 -0.48952549315E-01 -0.16006202856E-01  0.57753182609E-01  0.51100000000E-03 0. -1.
         11    1    4    4    0    0  0.14837212614E-01 -0.74380544421E-01 -0.11949196560E-01  0.76783153660E-01  0.51100000000E-03 0.  1.
</event>
<event>
 8    1  0.1126407E+005  0.1043930E+01  0.7957747E-01            NaN
         13   -1    0    0    0    0  0.00000000000E+00  0.00000000000E+00  0.74505805969E-08  0.10566000000E+00  0.10566000000E+00 0. -1.
     999900   -1    0    0    0    0 -0.00000000000E+00 -0.00000000000E+00 -0.74505805969E-08  0.93827000000E+00  0.93827000000E+00 0. -1.
     999902    2    1    2    0    0 -0.24280539118E-01  0.43075187406E-02 -0.37594663193E-03  0.10192674650E+01  0.10189690498E+01 0.  0.
     999903    2    3    3    0    0  0.27019969053E-01  0.84052427599E-01  0.91657152543E-01  0.12940169759E+00  0.23428111643E-01 0.  0.
         14    1    1    2    0    0  0.24280539118E-01 -0.43075187406E-02  0.37594663193E-03  0.24662535016E-01  0.00000000000E+00 0. -1.
     999901    1    3    3    0    0 -0.51300508171E-01 -0.79744908859E-01 -0.92033099175E-01  0.88986576739E+00  0.88000000000E+00 0. -1.
        -11    1    4    4    0    0  0.15581625819E-02  0.35236400860E-01  0.45378967382E-01  0.57476461424E-01  0.51100000000E-03 0. -1.
         11    1    4    4    0    0  0.25461806471E-01  0.48816026740E-01  0.46278185161E-01  0.71925236171E-01  0.51100000000E-03 0.  1.
</event>
<event>
 8    1  0.1126407E+005  0.1043930E+01  0.7957747E-01            NaN
         13   -1    0    0    0    0  0.00000000000E+00  0.00000000000E+00  0.74505805969E-08  0.10566000000E+00  0.10566000000E+00 0.  1.
     999900   -1    0    0    0    0 -0.00000000000E+00 -0.00000000000E+00 -0.74505805969E-08  0.93827000000E+00  0.93827000000E+00 0. -1.
     999902    2    1    2    0    0 -0.12032655286E-01  0.12431158720E-02 -0.19228331295E-01  0.10212130712E+01  0.10209603704E+01 0.  0.
     999903    2    3    3    0    0  0.13426608406E-01  0.10319229242E+00  0.74484596623E-01  0.13002065562E+00  0.22988969637E-01 0.  0.
         14    1    1    2    0    0  0.12032655286E-01 -0.12431158720E-02  0.19228331295E-01  0.22716928813E-01  0.00000000000E+00 0. -1.
     999901    1    3    3    0    0 -0.25459263693E-01 -0.10194917655E+00 -0.93712927918E-01  0.89119241557E+00  0.88000000000E+00 0. -1.
        -11    1    4    4    0    0 -0.19929103023E-02  0.18094296579E-01  0.23125600347E-01  0.29435179167E-01  0.51100000000E-03 0. -1.
         11    1    4    4    0    0  0.15419518709E-01  0.85097995842E-01  0.51358996276E-01  0.10058547645E+00  0.51100000000E-03 0.  1.
</event>
<event>
 8    1  0.1126407E+005  0.1043930E+01  0.7957747E-01            NaN
         13   -1    0    0    0    0  0.00000000000E+00  0.00000000000E+00  0.74505805969E-08  0.10566000000E+00  0.10566000000E+00 0. -1.
     999900   -1    0    0    0    0 -0.00000000000E+00 -0.00000000000E+00 -0.74505805969E-08  0.93827000000E+00  0.93827000000E+00 0. -1.
     999902    2    1    2    0    0  0.13756165058E-01 -0.18089643031E-01 -0.39127324321E-02  0.10208697152E+01  0.10206092291E+01 0.  0.
     999903    2    3    3    0    0  0.31318483407E-01 -0.12715098976E+00 -0.17743090593E-01  0.13385557142E+00  0.21313731170E-01 0.  0.
         14    1    1    2    0    0 -0.13756165058E-01  0.18089643031E-01  0.39127324321E-02  0.23060284846E-01  0.00000000000E+00 0. -1.
     999901    1    3    3    0    0 -0.17562318349E-01  0.10906134673E+00  0.13830358160E-01  0.88701414373E+00  0.88000000000E+00 0.  1.
        -11    1    4    4    0    0  0.16349383263E-02 -0.43098766428E-01 -0.93089287172E-03  0.43142836873E-01  0.51100000000E-03 0. -1.
         11    1    4    4    0    0  0.29683545081E-01 -0.84052223333E-01 -0.16812197721E-01  0.90712734547E-01  0.51100000000E-03 0.  1.
</event>
<event>
 8    1  0.1126407E+005  0.1043930E+01  0.7957747E-01            NaN
         13   -1    0    0    0    0  0.00000000000E+00  0.00000000000E+00  0.74505805969E-08  0.10566000000E+00  0.10566000000E+00 0.  1.
     999900   -1    0    0    0    0 -0.00000000000E+00 -0.00000000000E+00 -0.74505805969E-08  0.93827000000E+00  0.93827000000E+00 0. -1.
     999902    2    1    2    0    0 -0.69473286467E-02 -0.15481360684E-01 -0.16560991045E-01  0.10202191517E+01  0.10199435833E+01 0.  0.
     999903    2    3    3    0    0  0.15326948755E-01  0.75362986675E-01 -0.10408257682E+00  0.13094480320E+00  0.19971569006E-01 0.  0.
         14    1    1    2    0    0  0.69473286467E-02  0.15481360684E-01  0.16560991045E-01  0.23710848326E-01  0.00000000000E+00 0.  1.
     999901    1    3    3    0    0 -0.22274277402E-01 -0.90844347359E-01  0.87521585775E-01  0.88927434848E+00  0.88000000000E+00 0. -1.
        -11    1    4    4    0    0  0.80339003029E-02  0.17885081682E-01 -0.15064397881E-01  0.24730889700E-01  0.51100000000E-03 0. -1.
         11    1    4    4    0    0  0.72930484525E-02  0.57477904993E-01 -0.89018178938E-01  0.10621391350E+00  0.51100000000E-03 0.  1.
</event>
<event>
 8    1  0.1126407E+005  0.1043930E+01  0.7957747E-01            NaN
         13   -1    0    0    0    0  0.00000000000E+00  0.00000000000E+00  0.74505805969E-08  0.10566000000E+00  0.10566000000E+00 0. -1.
     999900   -1    0    0    0    0 -0.00000000000E+00 -0.00000000000E+00 -0.74505805969E-08  0.93827000000E+00  0.93827000000E+00 0.  1.
     999902    2    1    2    0    0 -0.14812503476E-01  0.15613518179E-01  0.13494728140E-01  0.10185272463E+01  0.10182104161E+01 0.  0.
     999903    2    3    3    0    0 -0.92842305732E-01 -0.16536858490E-01 -0.85601758518E-01  0.12895296021E+00  0.20200085731E-01 0.  0.
         14    1    1    2    0    0  0.14812503476E-01 -0.15613518179E-01 -0.13494728140E-01  0.25402753723E-01  0.00000000000E+00 0.  1.
     999901    1    3    3    0    0  0.78029802256E-01  0.32150376669E-01  0.99096486658E-01  0.88957428606E+00  0.88000000000E+00 0. -1.
        -11    1    4    4    0    0 -0.14667830655E-01 -0.83600278078E-03 -0.24195428780E-01  0.28311200109E-01  0.51100000000E-03 0.  1.
         11    1    4    4    0    0 -0.78174475077E-01 -0.15700855710E-01 -0.61406329738E-01  0.10064176010E+00  0.51100000000E-03 0. -1.
</event>
<event>
 8    1  0.1126407E+005  0.1043930E+01  0.7957747E-01            NaN
         13   -1    0    0    0    0  0.00000000000E+00  0.00000000000E+00  0.74505805969E-08  0.10566000000E+00  0.10566000000E+00 0.  1.
     999900   -1    0    0    0    0 -0.00000000000E+00 -0.00000000000E+00 -0.74505805969E-08  0.93827000000E+00  0.93827000000E+00 0.  1.
     999902    2    1    2    0    0  0.19605186446E-02  0.13827226649E-01  0.23882784180E-01  0.10162637171E+01  0.10158870604E+01 0.  0.
     999903    2    3    3    0    0 -0.99186882192E-01 -0.60787476455E-01 -0.41563889992E-01  0.12492684599E+00  0.18601209772E-01 0.  0.
         14    1    1    2    0    0 -0.19605186446E-02 -0.13827226649E-01 -0.23882784180E-01  0.27666282915E-01  0.00000000000E+00 0. -1.
     999901    1    3    3    0    0  0.10114740084E+00  0.74614703103E-01  0.65446674171E-01  0.89133687110E+00  0.88000000000E+00 0. -1.
        -11    1    4    4    0    0 -0.29353424223E-01 -0.11291545746E-01 -0.50074155272E-02  0.31850554944E-01  0.51100000000E-03 0.  1.
         11    1    4    4    0    0 -0.69833457969E-01 -0.49495930708E-01 -0.36556474464E-01  0.93076291046E-01  0.51100000000E-03 0. -1.
</event>
<event>
 8    1  0.1126407E+005  0.1043930E+01  0.7957747E-01            NaN
         13   -1    0    0    0    0  0.00000000000E+00  0.00000000000E+00  0.74505805969E-08  0.10566000000E+00  0.10566000000E+00 0.  1.
     999900   -1    0    0    0    0 -0.00000000000E+00 -0.00000000000E+00 -0.74505805969E-08  0.93827000000E+00  0.93827000000E+00 0. -1.
     999902    2    1    2    0    0  0.15905631380E-01  0.14380475490E-01  0.13385111041E-01  0.10186525717E+01  0.10183388991E+01 0.  0.
     999903    2    3    3    0    0  0.72512702465E-02 -0.11668579892E+00 -0.45650737653E-01  0.12694718441E+00  0.19064133622E-01 0.  0.
         14    1    1    2    0    0 -0.15905631380E-01 -0.14380475490E-01 -0.13385111041E-01  0.25277428320E-01  0.00000000000E+00 0. -1.
     999901    1    3    3    0    0  0.86543611339E-02  0.13106627441E+00  0.59035848694E-01  0.89170538727E+00  0.88000000000E+00 0. -1.
        -11    1    4    4    0    0  0.46398584180E-02 -0.95756035248E-01 -0.29276178715E-01  0.10024022313E+00  0.51100000000E-03 0. -1.
         11    1    4    4    0    0  0.26114118285E-02 -0.20929763676E-01 -0.16374558938E-01  0.26706961277E-01  0.51100000000E-03 0.  1.
</event>
<event>
 8    1  0.1126407E+005  0.1043930E+01  0.7957747E-01            NaN
         13   -1    0    0    0    0  0.00000000000E+00  0.00000000000E+00  0.74505805969E-08  0.10566000000E+00  0.10566000000E+00 0. -1.
     999900   -1    0    0    0    0 -0.00000000000E+00 -0.00000000000E+00 -0.74505805969E-08  0.93827000000E+00  0.93827000000E+00 0. -1.
     999902    2    1    2    0    0  0.11917011502E-01  0.15106061895E-01  0.12944365969E-01  0.10207402419E+01  0.10204767889E+01 0.  0.
     999903    2    3    3    0    0  0.91707098059E-01  0.79123033421E-01 -0.50221981338E-01  0.13256536163E+00  0.19511059501E-01 0.  0.
         14    1    1    2    0    0 -0.11917011502E-01 -0.15106061895E-01 -0.12944365969E-01  0.23189758072E-01  0.00000000000E+00 0.  1.
     999901    1    3    3    0    0 -0.79790086558E-01 -0.64016971527E-01  0.63166347308E-01  0.88817488030E+00  0.88000000000E+00 0.  1.
        -11    1    4    4    0    0  0.60229378007E-01  0.39301223552E-01 -0.29736530202E-01  0.77824716493E-01  0.51100000000E-03 0. -1.
         11    1    4    4    0    0  0.31477720053E-01  0.39821809870E-01 -0.20485451136E-01  0.54740645139E-01  0.51100000000E-03 0.  1.
</event>
<event>
 8    1  0.1126407E+005  0.1043930E+01  0.7957747E-01            NaN
         13   -1    0    0    0    0  0.00000000000E+00  0.00000000000E+00  0.74505805969E-08  0.10566000000E+00  0.10566000000E+00 0.  1.
     999900   -1    0    0    0    0 -0.00000000000E+00 -0.00000000000E+00 -0.74505805969E-08  0.93827000000E+00  0.93827000000E+00 0.  1.
     999902    2    1    2    0    0  0.53753799240E-02 -0.25321628689E-02  0.23167331117E-01  0.10200128139E+01  0.10197323712E+01 0.  0.
     999903    2    3    3    0    0  0.89756541632E-01 -0.14855255417E-01  0.94922412651E-01  0.13298359751E+00  0.19936333792E-01 0.  0.
         14    1    1    2    0    0 -0.53753799240E-02  0.25321628689E-02 -0.23167331117E-01  0.23917186064E-01  0.00000000000E+00 0. -1.
     999901    1    3    3    0    0 -0.84381161708E-01  0.12323092548E-01 -0.71755081533E-01  0.88702921642E+00  0.88000000000E+00 0.  1.
        -11    1    4    4    0    0  0.64754953162E-01 -0.14747928042E-02  0.66300627039E-01  0.92689876683E-01  0.51100000000E-03 0.  1.
         11    1    4    4    0    0  0.25001588470E-01 -0.13380462613E-01  0.28621785612E-01  0.40293720830E-01  0.51100000000E-03 0. -1.
</event>
<event>
 8    1  0.1126407E+005  0.1043930E+01  0.7957747E-01            NaN
         13   -1    0    0    0    0  0.00000000000E+00  0.00000000000E+00  0.74505805969E-08  0.10566000000E+00  0.10566000000E+00 0.  1.
     999900   -1    0    0    0    0 -0.00000000000E+00 -0.00000000000E+00 -0.74505805969E-08  0.93827000000E+00  0.93827000000E+00 0. -1.
     999902    2    1    2    0    0  0.22947838837E-01 -0.11611083939E-01  0.11954679080E-01  0.10155692008E+01  0.10151731216E+01 0.  0.
     999903    2    3    3    0    0  0.79614522927E-01 -0.95724841873E-01  0.29368881386E-01  0.12957287364E+00  0.20612636331E-01 0.  0.
         14    1    1    2    0    0 -0.22947838837E-01  0.11611083939E-01 -0.11954679080E-01  0.28360799168E-01  0.00000000000E+00 0.  1.
     999901    1    3    3    0    0 -0.56666684090E-01  0.84113757934E-01 -0.17414202306E-01  0.88599632719E+00  0.88000000000E+00 0.  1.
        -11    1    4    4    0    0  0.34748466423E-01 -0.53676405180E-01  0.22085087226E-01  0.67650754546E-01  0.51100000000E-03 0.  1.
         11    1    4    4    0    0  0.44866056505E-01 -0.42048436693E-01  0.72837941595E-02  0.61922119093E-01  0.51100000000E-03 0. -1.
</event>
<event>
 8    1  0.1126407E+005  0.1043930E+01  0.7957747E-01            NaN
         13   -1    0    0    0    0  0.00000000000E+00  0.00000000000E+00  0.74505805969E-08  0.10566000000E+00  0.10566000000E+00 0. -1.
     999900   -1    0    0    0    0 -0.00000000000E+00 -0.00000000000E+00 -0.74505805969E-08  0.93827000000E+00  0.93827000000E+00 0. -1.
     999902    2    1    2    0    0 -0.12525254293E-02 -0.29747790244E-01  0.41356848928E-02  0.10138699978E+01  0.10134242787E+01 0.  0.
     999903    2    3    3    0    0 -0.43630999177E-01  0.52640569165E-01 -0.10014341402E+00  0.12288295675E+00  0.19920443683E-01 0.  0.
         14    1    1    2    0    0  0.12525254293E-02  0.29747790244E-01 -0.41356848928E-02  0.30060002227E-01  0.00000000000E+00 0. -1.
     999901    1    3    3    0    0  0.42378473747E-01 -0.82388359409E-01  0.10427909891E+00  0.89098704102E+00  0.88000000000E+00 0.  1.
        -11    1    4    4    0    0 -0.28148040683E-01  0.21842622338E-01 -0.61665566233E-01  0.71220190429E-01  0.51100000000E-03 0.  1.
         11    1    4    4    0    0 -0.15482958494E-01  0.30797946827E-01 -0.38477847786E-01  0.51662766319E-01  0.51100000000E-03 0. -1.
</event>
<event>
 8    1  0.1126407E+005  0.1043930E+01  0.7957747E-01            NaN
         13   -1    0    0    0    0  0.00000000000E+00  0.00000000000E+00  0.74505805969E-08  0.10566000000E+00  0.10566000000E+00 0. -1.
     999900   -1    0    0    0    0 -0.00000000000E+00 -0.00000000000E+00 -0.74505805969E-08  0.93827000000E+00  0.93827000000E+00 0.  1.
     999902    2    1    2    0    0  0.12015149385E-01 -0.15376444492E-01 -0.14376260376E-01  0.10196921015E+01  0.10194039956E+01 0.  0.
     999903    2    3    3    0    0  0.42195587012E-01  0.11516400601E+00 -0.35774591056E-01  0.12929356346E+00  0.19844101005E-01 0.  0.
         14    1    1    2    0    0 -0.12015149385E-01  0.15376444492E-01  0.14376260376E-01  0.24237898472E-01  0.00000000000E+00 0. -1.
     999901    1    3    3    0    0 -0.30180437627E-01 -0.13054045050E+00  0.21398330680E-01  0.89039853806E+00  0.88000000000E+00 0. -1.
        -11    1    4    4    0    0  0.87934186180E-02  0.52381368347E-01 -0.16183941403E-01  0.55527588109E-01  0.51100000000E-03 0.  1.
         11    1    4    4    0    0  0.33402168394E-01  0.62782637661E-01 -0.19590649654E-01  0.73765975354E-01  0.51100000000E-03 0. -1.
</event>
<event>
 8    1  0.1126407E+005  0.1043930E+01  0.7957747E-01            NaN
         13   -1    0    0    0    0  0.00000000000E+00  0.00000000000E+00  0.74505805969E-08  0.10566000000E+00  0.10566000000E+00 0.  1.
     999900   -1    0    0    0    0 -0.00000000000E+00 -0.00000000000E+00 -0.74505805969E-08  0.93827000000E+00  0.93827000000E+00 0. -1.
     999902    2    1    2    0    0 -0.20712936177E-01 -0.97062167679E-02  0.13495166924E-01  0.10173714628E+01  0.10170247477E+01 0.  0.
     999903    2    3    3    0    0 -0.33938943053E-01 -0.82142158532E-01  0.93725658354E-01  0.13065909415E+00  0.19700603734E-01 0.  0.
         14    1    1    2    0    0  0.20712936177E-01  0.97062167679E-02 -0.13495166924E-01  0.26558537221E-01  0.00000000000E+00 0. -1.
     999901    1    3    3    0    0  0.13226006876E-01  0.72435941764E-01 -0.80230491430E-01  0.88671236862E+00  0.88000000000E+00 0. -1.
        -11    1    4    4    0    0 -0.18701936027E-02 -0.13670758841E-01  0.66140731908E-02  0.15309943063E-01  0.51100000000E-03 0. -1.
         11    1    4    4    0    0 -0.32068749450E-01 -0.68471399691E-01  0.87111585163E-01  0.11534915109E+00  0.51100000000E-03 0.  1.
</event>
<event>
 8    1  0.1126407E+005  0.1043930E+01  0.7957747E-01            NaN
         13   -1    0    0    0    0  0.00000000000E+00  0.00000000000E+00  0.74505805969E-08  0.10566000000E+00  0.10566000000E+00 0.  1.
     999900   -1    0    0    0    0 -0.00000000000E+00 -0.00000000000E+00 -0.74505805969E-08  0.93827000000E+00  0.93827000000E+00 0. -1.
     999902    2    1    2    0    0 -0.80393530414E-02 -0.22480072796E-01 -0.15822926586E-02  0.10200032677E+01  0.10197225983E+01 0.  0.
     999903    2    3    3    0    0  0.78253113408E-01  0.72906339637E-01  0.67625375582E-01  0.12796366160E+00  0.19042666571E-01 0.  0.
         14    1    1    2    0    0  0.80393530414E-02  0.22480072796E-01  0.15822926586E-02  0.23926732337E-01  0.00000000000E+00 0.  1.
     999901    1    3    3    0    0 -0.86292466449E-01 -0.95386412433E-01 -0.69207668241E-01  0.89203960606E+00  0.88000000000E+00 0.  1.
        -11    1    4    4    0    0  0.39114173759E-01  0.31942867463E-01  0.21435484125E-01  0.54863525874E-01  0.51100000000E-03 0.  1.
         11    1    4    4    0    0  0.39138939648E-01  0.40963472174E-01  0.46189891457E-01  0.73100135726E-01  0.51100000000E-03 0. -1.
</event>
<event>
 8    1  0.1126407E+005  0.1043930E+01  0.7957747E-01            NaN
         13   -1    0    0    0    0  0.00000000000E+00  0.00000000000E+00  0.74505805969E-08  0.10566000000E+00  0.10566000000E+00 0. -1.
     999900   -1    0    0    0    0 -0.00000000000E+00 -0.00000000000E+00 -0.74505805969E-08  0.93827000000E+00  0.93827000000E+00 0.  1.
     999902    2    1    2    0    0  0.48972584271E-02  0.16913778808E-01 -0.16115025806E-01  0.10200604983E+01  0.10197811859E+01 0.  0.
     999903    2    3    3    0    0 -0.10631453820E+00 -0.69526241060E-01  0.54871813875E-02  0.12859732124E+00  0.19247925625E-01 0.  0.
         14    1    1    2    0    0 -0.48972584271E-02 -0.16913778808E-01  0.16115025806E-01  0.23869501678E-01  0.00000000000E+00 0. -1.
     999901    1    3    3    0    0  0.11121179663E+00  0.86440019868E-01 -0.21602207193E-01  0.89146317709E+00  0.88000000000E+00 0.  1.
        -11    1    4    4    0    0 -0.72242863858E-01 -0.42429787163E-01 -0.45970781309E-02  0.83908953429E-01  0.51100000000E-03 0.  1.
         11    1    4    4    0    0 -0.34071674342E-01 -0.27096453898E-01  0.10084259518E-01  0.44688367808E-01  0.51100000000E-03 0. -1.
</event>
<event>
 8    1  0.1126407E+005  0.1043930E+01  0.7957747E-01            NaN
         13   -1    0    0    0    0  0.00000000000E+00  0.00000000000E+00  0.74505805969E-08  0.10566000000E+00  0.10566000000E+00 0.  1.
     999900   -1    0    0    0    0 -0.00000000000E+00 -0.00000000000E+00 -0.74505805969E-08  0.93827000000E+00  0.93827000000E+00 0.  1.
     999902    2    1    2    0    0 -0.50848545252E-03  0.12648396866E-01 -0.19789797444E-01  0.10204379464E+01  0.10201674989E+01 0.  0.
     999903    2    3    3    0    0 -0.44188873800E-01  0.12310878560E+00 -0.81913820092E-02  0.13238164352E+00  0.18691472442E-01 0.  0.
         14    1    1    2    0    0  0.50848545252E-03 -0.12648396866E-01  0.19789797444E-01  0.23492053627E-01  0.00000000000E+00 0.  1.
     999901    1    3    3    0    0  0.43680388347E-01 -0.11046038873E+00 -0.11598415435E-01  0.88805630286E+00  0.88000000000E+00 0.  1.
        -11    1    4    4    0    0 -0.14492263440E-01  0.41461820619E-01 -0.11609908845E-01  0.45433020734E-01  0.51100000000E-03 0. -1.
         11    1    4    4    0    0 -0.29696610360E-01  0.81646964977E-01  0.34185268359E-02  0.86948622782E-01  0.51100000000E-03 0.  1.
</event>
<event>
 8    1  0.1126407E+005  0.1043930E+01  0.7957747E-01            NaN
         13   -1    0    0    0    0  0.00000000000E+00  0.00000000000E+00  0.74505805969E-08  0.10566000000E+00  0.10566000000E+00 0.  1.
     999900   -1    0    0    0    0 -0.00000000000E+00 -0.00000000000E+00 -0.74505805969E-08  0.93827000000E+00  0.93827000000E+00 0.  1.
     999902    2    1    2    0    0  0.43809634880E-02 -0.14861021147E-01 -0.17976096387E-01  0.10201985266E+01  0.10199224729E+01 0.  0.
     999903    2    3    3    0    0 -0.10428829388E+00  0.68890583345E-01 -0.27398964891E-01  0.12951781541E+00  0.20054937493E-01 0.  0.
         14    1    1    2    0    0 -0.43809634880E-02  0.14861021147E-01  0.17976096387E-01  0.23731473446E-01  0.00000000000E+00 0.  1.
     999901    1    3    3    0    0  0.10866925737E+00 -0.83751604492E-01  0.94228685034E-02  0.89068071114E+00  0.88000000000E+00 0. -1.
        -11    1    4    4    0    0 -0.47048254098E-01  0.20897276422E-01 -0.61132995392E-02  0.51844651873E-01  0.51100000000E-03 0.  1.
         11    1    4    4    0    0 -0.57240039781E-01  0.47993306924E-01 -0.21285665352E-01  0.77673163538E-01  0.51100000000E-03 0. -1.
</event>
<event>
 8    1  0.1126407E+005  0.1043930E+01  0.7957747E-01            NaN
         13   -1    0    0    0    0  0.00000000000E+00  0.00000000000E+00  0.74505805969E-08  0.10566000000E+00  0.10566000000E+00 0.  1.
     999900   -1    0    0    0    0 -0.00000000000E+00 -0.00000000000E+00 -0.74505805969E-08  0.93827000000E+00  0.93827000000E+00 0. -1.
     999902    2    1    2    0    0 -0.21016510402E-02  0.16266721271E-01 -0.16288092564E-01  0.10208145265E+01  0.10205527778E+01 0.  0.
     999903    2    3    3    0    0  0.88457005055E-01  0.55884238580E-01 -0.79694599462E-01  0.13301342092E+00  0.19840642525E-01 0.  0.
         14    1    1    2    0    0  0.21016510402E-02 -0.16266721271E-01  0.16288092564E-01  0.23115473548E-01  0.00000000000E+00 0.  1.
     999901    1    3    3    0    0 -0.90558656095E-01 -0.39617517309E-01  0.63406506898E-01  0.88780110553E+00  0.88000000000E+00 0.  1.
        -11    1    4    4    0    0  0.11753179851E-01  0.33246379723E-02 -0.32785705575E-02  0.12657037574E-01  0.51100000000E-03 0. -1.
         11    1    4    4    0    0  0.76703825204E-01  0.52559600607E-01 -0.76416028904E-01  0.12035638334E+00  0.51100000000E-03 0.  1.
</event>
<event>
 8    1  0.1126407E+005  0.1043930E+01  0.7957747E-01            NaN
         13   -1    0    0    0    0  0.00000000000E+00  0.00000000000E+00  0.74505805969E-08  0.10566000000E+00  0.10566000000E+00 0. -1.
     999900   -1    0    0    0    0 -0.00000000000E+00 -0.00000000000E+00 -0.74505805969E-08  0.93827000000E+00  0.93827000000E+00 0.  1.
     999902    2    1    2    0    0 -0.12026214376E-02 -0.21934192404E-01 -0.79908968957E-02  0.10205545957E+01  0.10202868583E+01 0.  0.
     999903    2    3    3    0    0 -0.82929413534E-01  0.79101921678E-01 -0.57026546933E-01  0.12966062898E+00  0.20626439602E-01 0.  0.
         14    1    1    2    0    0  0.12026214376E-02  0.21934192404E-01  0.79908968957E-02  0.23375404337E-01  0.00000000000E+00 0.  1.
     999901    1    3    3    0    0  0.81726792096E-01 -0.10103611408E+00  0.49035650037E-01  0.89089396668E+00  0.88000000000E+00 0.  1.
        -11    1    4    4    0    0 -0.51261192219E-01  0.48144521350E-01 -0.23626868617E-01  0.74189586907E-01  0.51100000000E-03 0.  1.
         11    1    4    4    0    0 -0.31668221314E-01  0.30957400328E-01 -0.33399678315E-01  0.55471042075E-01  0.51100000000E-03 0. -1.
</event>
<event>
 8    1  0.1126407E+005  0.1043930E+01  0.7957747E-01            NaN
         13   -1    0    0    0    0  0.00000000000E+00  0.00000000000E+00  0.74505805969E-08  0.10566000000E+00  0.10566000000E+00 0.  1.
     999900   -1    0    0    0    0 -0.00000000000E+00 -0.00000000000E+00 -0.74505805969E-08  0.93827000000E+00  0.93827000000E+00 0.  1.
     999902    2    1    2    0    0  0.50624382118E-02  0.18657850316E-01 -0.13839312053E-01  0.10201545880E+01  0.10198774991E+01 0.  0.
     999903    2    3    3    0    0  0.19077484708E-01 -0.12255442068E+00 -0.28056518883E-01  0.12867298077E+00  0.19647678692E-01 0.  0.
         14    1    1    2    0    0 -0.50624382118E-02 -0.18657850316E-01  0.13839312053E-01  0.23775412029E-01  0.00000000000E+00 0.  1.
     999901    1    3    3    0    0 -0.14015046496E-01  0.14121227099E+00  0.14217206830E-01  0.89148160720E+00  0.88000000000E+00 0. -1.
        -11    1    4    4    0    0  0.13415681649E-01 -0.11257760050E+00 -0.21327623667E-01  0.11536388213E+00  0.51100000000E-03 0. -1.
         11    1    4    4    0    0  0.56618030583E-02 -0.99768201807E-02 -0.67288952158E-02  0.13309098640E-01  0.51100000000E-03 0.  1.
</event>
<event>
 8    1  0.1126407E+005  0.1043930E+01  0.7957747E-01            NaN
         13   -1    0    0    0    0  0.00000000000E+00  0.00000000000E+00  0.74505805969E-08  0.10566000000E+00  0.10566000000E+00 0.  1.
     999900   -1    0    0    0    0 -0.00000000000E+00 -0.00000000000E+00 -0.74505805969E-08  0.93827000000E+00  0.93827000000E+00 0.  1.
     999902    2    1    2    0    0  0.16078918659E-01 -0.10986138964E-01  0.14500425715E-01  0.10196506009E+01  0.10193614956E+01 0.  0.
     999903    2    3    3    0    0 -0.50300701310E-01 -0.68365417544E-01 -0.94798270337E-01  0.12855866372E+00  0.18347400085E-01 0.  0.
         14    1    1    2    0    0 -0.16078918659E-01  0.10986138964E-01 -0.14500425715E-01  0.24279399096E-01  0.00000000000E+00 0. -1.
     999901    1    3    3    0    0  0.66379619969E-01  0.57379278580E-01  0.10929869605E+00  0.89109193719E+00  0.88000000000E+00 0. -1.
        -11    1    4    4    0    0 -0.25473998065E-02 -0.88327340888E-02 -0.18375507590E-01  0.20553025019E-01  0.51100000000E-03 0. -1.
         11    1    4    4    0    0 -0.47753301504E-01 -0.59532683456E-01 -0.76422762747E-01  0.10800563870E+00  0.51100000000E-03 0.  1.
</event>
<event>
 8    1  0.1126407E+005  0.1043930E+01  0.7957747E-01            NaN
         13   -1    0    0    0    0  0.00000000000E+00  0.00000000000E+00  0.74505805969E-08  0.10566000000E+00  0.10566000000E+00 0. -1.
     999900   -1    0    0    0    0 -0.00000000000E+00 -0.00000000000E+00 -0.74505805969E-08  0.93827000000E+00  0.93827000000E+00 0. -1.
     999902    2    1    2    0    0 -0.24822018466E-01  0.22385742688E-02 -0.27935370501E-02  0.10188511710E+01  0.10185424689E+01 0.  0.
     999903    2    3    3    0    0 -0.37600763415E-01 -0.75183569991E-01  0.96683210425E-01  0.12977687261E+00  0.20688327154E-01 0.  0.
         14    1    1    2    0    0  0.24822018466E-01 -0.22385742688E-02  0.27935370501E-02  0.25078829014E-01  0.00000000000E+00 0.  1.
     999901    1    3    3    0    0  0.12778744949E-01  0.77422144260E-01 -0.99476747475E-01  0.88907429838E+00  0.88000000000E+00 0. -1.
        -11    1    4    4    0    0 -0.16235320837E-01 -0.30367594639E-01  0.24909109976E-01  0.42502956693E-01  0.51100000000E-03 0.  1.
         11    1    4    4    0    0 -0.21365442578E-01 -0.44815975352E-01  0.71774100448E-01  0.87273915917E-01  0.51100000000E-03 0. -1.
</event>
<event>
 8    1  0.1126407E+005  0.1043930E+01  0.7957747E-01            NaN
         13   -1    0    0    0    0  0.00000000000E+00  0.00000000000E+00  0.74505805969E-08  0.10566000000E+00  0.10566000000E+00 0. -1.
     999900   -1    0    0    0    0 -0.00000000000E+00 -0.00000000000E+00 -0.74505805969E-08  0.93827000000E+00  0.93827000000E+00 0.  1.
     999902    2    1    2    0    0  0.13642685914E-01  0.24671507014E-01 -0.63347223526E-02  0.10150347609E+01  0.10146233936E+01 0.  0.
     999903    2    3    3    0    0  0.13137901175E-01  0.38180352586E-01  0.11786679673E+00  0.12621039067E+00  0.20152845202E-01 0.  0.
         14    1    1    2    0    0 -0.13642685914E-01 -0.24671507014E-01  0.63347223526E-02  0.28895239133E-01  0.00000000000E+00 0. -1.
     999901    1    3    3    0    0  0.50478473900E-03 -0.13508845572E-01 -0.12420151909E+00  0.88882437020E+00  0.88000000000E+00 0.  1.
        -11    1    4    4    0    0 -0.45634794920E-02  0.16371905442E-01  0.46722492870E-01  0.49720389116E-01  0.51100000000E-03 0. -1.
         11    1    4    4    0    0  0.17701380667E-01  0.21808447144E-01  0.71144303863E-01  0.76490001552E-01  0.51100000000E-03 0.  1.
</event>
<event>
 8    1  0.1126407E+005  0.1043930E+01  0.7957747E-01            NaN
         13   -1    0    0    0    0  0.00000000000E+00  0.00000000000E+00  0.74505805969E-08  0.10566000000E+00  0.10566000000E+00 0.  1.
     999900   -1    0    0    0    0 -0.00000000000E+00 -0.00000000000E+00 -0.74505805969E-08  0.93827000000E+00  0.93827000000E+00 0.  1.
     999902    2    1    2    0    0  0.12955862100E-01 -0.17239019659E-01  0.10512356109E-01  0.10199394228E+01  0.10196572358E+01 0.  0.
     999903    2    3    3    0    0 -0.17062053109E-01 -0.10503690435E+00 -0.73738684387E-01  0.13105935128E+00  0.20378789252E-01 0.  0.
         14    1    1    2    0    0 -0.12955862100E-01  0.17239019659E-01 -0.10512356109E-01  0.23990577162E-01  0.00000000000E+00 0.  1.
     999901    1    3    3    0    0  0.30017915209E-01  0.87797884689E-01  0.84251040496E-01  0.88888007156E+00  0.88000000000E+00 0. -1.
        -11    1    4    4    0    0 -0.29085933335E-02 -0.74835890823E-01 -0.48439311298E-01  0.89193601063E-01  0.51100000000E-03 0.  1.
         11    1    4    4    0    0 -0.14153459775E-01 -0.30201013526E-01 -0.25299373088E-01  0.41865750217E-01  0.51100000000E-03 0. -1.
</event>
<event>
 8    1  0.1126407E+005  0.1043930E+01  0.7957747E-01            NaN
         13   -1    0    0    0    0  0.00000000000E+00  0.00000000000E+00  0.74505805969E-08  0.10566000000E+00  0.10566000000E+00 0.  1.
     999900   -1    0    0    0    0 -0.00000000000E+00 -0.00000000000E+00 -0.74505805969E-08  0.93827000000E+00  0.93827000000E+00 0.  1.
     999902    2    1    2    0    0 -0.20015453211E-01  0.91884485414E-02  0.10548186611E-01  0.10195105366E+01  0.10192180453E+01 0.  0.
     999903    2    3    3    0    0  0.23616402533E-01  0.13783124010E-01  0.12634448566E+00  0.13084095075E+00  0.20216734653E-01 0.  0.
         14    1    1    2    0    0  0.20015453211E-01 -0.91884485414E-02 -0.10548186611E-01  0.24419463438E-01  0.00000000000E+00 0. -1.
     999901    1    3    3    0    0 -0.43631855744E-01 -0.45946754687E-02 -0.11579629905E+00  0.88866958581E+00  0.88000000000E+00 0.  1.
        -11    1    4    4    0    0  0.11206075125E-01  0.71893227156E-02  0.23293433388E-01  0.26834821424E-01  0.51100000000E-03 0.  1.
         11    1    4    4    0    0  0.12410327407E-01  0.65938012945E-02  0.10305105227E+00  0.10400612932E+00  0.51100000000E-03 0. -1.
</event>
<event>
 8    1  0.1126407E+005  0.1043930E+01  0.7957747E-01            NaN
         13   -1    0    0    0    0  0.00000000000E+00  0.00000000000E+00  0.74505805969E-08  0.10566000000E+00  0.10566000000E+00 0.  1.
     999900   -1    0    0    0    0 -0.00000000000E+00 -0.00000000000E+00 -0.74505805969E-08  0.93827000000E+00  0.93827000000E+00 0.  1.
     999902    2    1    2    0    0 -0.14134981058E-01  0.16774039767E-01 -0.16018433092E-02  0.10219360917E+01  0.10216993900E+01 0.  0.
     999903    2    3    3    0    0 -0.10456299150E+00  0.60086025867E-01  0.55811903354E-01  0.13438356284E+00  0.20005591963E-01 0.  0.
         14    1    1    2    0    0  0.14134981058E-01 -0.16774039767E-01  0.16018433092E-02  0.21993908283E-01  0.00000000000E+00 0. -1.
     999901    1    3    3    0    0  0.90428010440E-01 -0.43311986100E-01 -0.57413746663E-01  0.88755252888E+00  0.88000000000E+00 0. -1.
        -11    1    4    4    0    0 -0.32704123961E-01  0.24566606834E-01  0.10214130999E-01  0.42162394245E-01  0.51100000000E-03 0. -1.
         11    1    4    4    0    0 -0.71858867536E-01  0.35519419033E-01  0.45597772355E-01  0.92221168593E-01  0.51100000000E-03 0.  1.
</event>
<event>
 8    1  0.1126407E+005  0.1043930E+01  0.7957747E-01            NaN
         13   -1    0    0    0    0  0.00000000000E+00  0.00000000000E+00  0.74505805969E-08  0.10566000000E+00  0.10566000000E+00 0. -1.
     999900   -1    0    0    0    0 -0.00000000000E+00 -0.00000000000E+00 -0.74505805969E-08  0.93827000000E+00  0.93827000000E+00 0.  1.
     999902    2    1    2    0    0 -0.19343675108E-01 -0.22169618641E-01  0.10536794386E-01  0.10126778994E+01  0.10121955513E+01 0.  0.
     999903    2    3    3    0    0  0.11220854881E+00 -0.44637097921E-01  0.72721520277E-02  0.12260968113E+00  0.19925380146E-01 0.  0.
         14    1    1    2    0    0  0.19343675108E-01  0.22169618641E-01 -0.10536794386E-01  0.31252100622E-01  0.00000000000E+00 0. -1.
     999901    1    3    3    0    0 -0.13155222392E+00  0.22467479280E-01  0.32646423587E-02  0.89006821825E+00  0.88000000000E+00 0. -1.
        -11    1    4    4    0    0  0.47173382009E-01 -0.21895895158E-01 -0.62910863462E-02  0.52388902291E-01  0.51100000000E-03 0. -1.
         11    1    4    4    0    0  0.65035166806E-01 -0.22741202763E-01  0.13563238374E-01  0.70220778839E-01  0.51100000000E-03 0.  1.
</event>
<event>
 8    1  0.1126407E+005  0.1043930E+01  0.7957747E-01            NaN
         13   -1    0    0    0    0  0.00000000000E+00  0.00000000000E+00  0.74505805969E-08  0.10566000000E+00  0.10566000000E+00 0. -1.
     999900   -1    0    0    0    0 -0.00000000000E+00 -0.00000000000E+00 -0.74505805969E-08  0.93827000000E+00  0.93827000000E+00 0. -1.
     999902    2    1    2    0    0 -0.10174252393E-01 -0.59555491329E-02  0.19044926543E-01  0.10215314910E+01  0.10212859022E+01 0.  0.
     999903    2    3    3    0    0 -0.65184525581E-02 -0.13079630782E+00  0.46720739187E-02  0.13259664595E+00  0.20245440913E-01 0.  0.
         14    1    1    2    0    0  0.10174252393E-01  0.59555491329E-02 -0.19044926543E-01  0.22398508974E-01  0.00000000000E+00 0.  1.
     999901    1    3    3    0    0 -0.36557998345E-02  0.12484075869E+00  0.14372852625E-01  0.88893484508E+00  0.88000000000E+00 0.  1.
        -11    1    4    4    0    0 -0.33597348290E-02 -0.41425854187E-01 -0.78397822192E-02  0.42297902069E-01  0.51100000000E-03 0.  1.
         11    1    4    4    0    0 -0.31587177291E-02 -0.89370453637E-01  0.12511856138E-01  0.90298743878E-01  0.51100000000E-03 0. -1.
</event>
<event>
 8    1  0.1126407E+005  0.1043930E+01  0.7957747E-01            NaN
         13   -1    0    0    0    0  0.00000000000E+00  0.00000000000E+00  0.74505805969E-08  0.10566000000E+00  0.10566000000E+00 0.  1.
     999900   -1    0    0    0    0 -0.00000000000E+00 -0.00000000000E+00 -0.74505805969E-08  0.93827000000E+00  0.93827000000E+00 0.  1.
     999902    2    1    2    0    0  0.21925673220E-01  0.37968784381E-02 -0.64293698031E-02  0.10207677845E+01  0.10205049640E+01 0.  0.
     999903    2    3    3    0    0 -0.10866478546E+00 -0.13294511350E-01  0.63677265539E-01  0.12820914560E+00  0.19950219003E-01 0.  0.
         14    1    1    2    0    0 -0.21925673220E-01 -0.37968784381E-02  0.64293698031E-02  0.23162215526E-01  0.00000000000E+00 0.  1.
     999901    1    3    3    0    0  0.13059045868E+00  0.17091389788E-01 -0.70106635343E-01  0.89255863887E+00  0.88000000000E+00 0.  1.
        -11    1    4    4    0    0 -0.45351696694E-01 -0.14988948209E-01  0.30928152558E-01  0.56905682520E-01  0.51100000000E-03 0.  1.
         11    1    4    4    0    0 -0.63313088767E-01  0.16944368589E-02  0.32749112981E-01  0.71303463083E-01  0.51100000000E-03 0. -1.
</event>
<event>
 8    1  0.1126407E+005  0.1043930E+01  0.7957747E-01            NaN
         13   -1    0    0    0    0  0.00000000000E+00  0.00000000000E+00  0.74505805969E-08  0.10566000000E+00  0.10566000000E+00 0. -1.
     999900   -1    0    0    0    0 -0.00000000000E+00 -0.00000000000E+00 -0.74505805969E-08  0.93827000000E+00  0.93827000000E+00 0. -1.
     999902    2    1    2    0    0  0.22978493135E-01 -0.62677722716E-02  0.48820278717E-02  0.10196168284E+01  0.10193269085E+01 0.  0.
     999903    2    3    3    0    0 -0.67385160928E-01 -0.16112259547E-01 -0.10549676989E+00  0.12807547610E+00  0.21757626276E-01 0.  0.
         14    1    1    2    0    0 -0.22978493135E-01  0.62677722716E-02 -0.48820278717E-02  0.24313171577E-01  0.00000000000E+00 0. -1.
     999901    1    3    3    0    0  0.90363654063E-01  0.98444872758E-02  0.11037879776E+00  0.89154135232E+00  0.88000000000E+00 0.  1.
        -11    1    4    4    0    0 -0.60130405163E-01 -0.18757393266E-01 -0.10125860146E+00  0.11925213171E+00  0.51100000000E-03 0.  1.
         11    1    4    4    0    0 -0.72547557657E-02  0.26451337190E-02 -0.42381684263E-02  0.88233443898E-02  0.51100000000E-03 0. -1.
</event>
<event>
 8    1  0.1126407E+005  0.1043930E+01  0.7957747E-01            NaN
         13   -1    0    0    0    0  0.00000000000E+00  0.00000000000E+00  0.74505805969E-08  0.10566000000E+00  0.10566000000E+00 0. -1.
     999900   -1    0    0    0    0 -0.00000000000E+00 -0.00000000000E+00 -0.74505805969E-08  0.93827000000E+00  0.93827000000E+00 0.  1.
     999902    2    1    2    0    0  0.13522791019E-01 -0.16734478343E-01 -0.93274862268E-02  0.10204798264E+01  0.10202103535E+01 0.  0.
     999903    2    3    3    0    0 -0.65585157802E-01  0.85674283648E-01  0.65584208170E-01  0.12786715337E+00  0.20179810402E-01 0.  0.
         14    1    1    2    0    0 -0.13522791019E-01  0.16734478343E-01  0.93274862268E-02  0.23450173596E-01  0.00000000000E+00 0. -1.
     999901    1    3    3    0    0  0.79107948822E-01 -0.10240876199E+00 -0.74911694396E-01  0.89261267303E+00  0.88000000000E+00 0. -1.
        -11    1    4    4    0    0 -0.22701617980E-01  0.16256276290E-01  0.13086138140E-01  0.30840527073E-01  0.51100000000E-03 0.  1.
         11    1    4    4    0    0 -0.42883539822E-01  0.69418007358E-01  0.52498070029E-01  0.97026626299E-01  0.51100000000E-03 0. -1.
</event>
<event>
 8    1  0.1126407E+005  0.1043930E+01  0.7957747E-01            NaN
         13   -1    0    0    0    0  0.00000000000E+00  0.00000000000E+00  0.74505805969E-08  0.10566000000E+00  0.10566000000E+00 0.  1.
     999900   -1    0    0    0    0 -0.00000000000E+00 -0.00000000000E+00 -0.74505805969E-08  0.93827000000E+00  0.93827000000E+00 0.  1.
     999902    2    1    2    0    0 -0.15261433414E-01 -0.10933553918E-01 -0.13446818801E-01  0.10208373413E+01  0.10205761150E+01 0.  0.
     999903    2    3    3    0    0  0.10497493038E+00  0.46575021312E-01 -0.56927417050E-01  0.12973993817E+00  0.20068685210E-01 0.  0.
         14    1    1    2    0    0  0.15261433414E-01  0.10933553918E-01  0.13446818801E-01  0.23092658725E-01  0.00000000000E+00 0.  1.
     999901    1    3    3    0    0 -0.12023636379E+00 -0.57508575229E-01  0.43480598249E-01  0.89109740311E+00  0.88000000000E+00 0. -1.
        -11    1    4    4    0    0  0.30278595768E-01  0.16509282955E-01 -0.76253751835E-02  0.35323607588E-01  0.51100000000E-03 0.  1.
         11    1    4    4    0    0  0.74696334608E-01  0.30065738357E-01 -0.49302041866E-01  0.94416330579E-01  0.51100000000E-03 0. -1.
</event>
<event>
 8    1  0.1126407E+005  0.1043930E+01  0.7957747E-01            NaN
         13   -1    0    0    0    0  0.00000000000E+00  0.00000000000E+00  0.74505805969E-08  0.10566000000E+00  0.10566000000E+00 0.  1.
     999900   -1    0    0    0    0 -0.00000000000E+00 -0.00000000000E+00 -0.74505805969E-08  0.93827000000E+00  0.93827000000E+00 0.  1.
     999902    2    1    2    0    0 -0.13316163018E-01  0.11741377647E-01  0.15992216650E-01  0.10200358346E+01  0.10197559378E+01 0.  0.
     999903    2    3    3    0    0  0.69955761035E-01 -0.69629480974E-01 -0.78282880322E-01  0.12737507940E+00  0.18818299036E-01 0.  0.
         14    1    1    2    0    0  0.13316163018E-01 -0.11741377647E-01 -0.15992216650E-01  0.23894165396E-01  0.00000000000E+00 0. -1.
     999901    1    3    3    0    0 -0.83271924054E-01  0.81370858621E-01  0.94275096971E-01  0.89266075520E+00  0.88000000000E+00 0. -1.
        -11    1    4    4    0    0  0.23423916556E-01 -0.36439038363E-01 -0.33672806390E-01  0.54868956568E-01  0.51100000000E-03 0. -1.
         11    1    4    4    0    0  0.46531844479E-01 -0.33190442611E-01 -0.44610073931E-01  0.72506122835E-01  0.51100000000E-03 0.  1.
</event>
<event>
 8    1  0.1126407E+005  0.1043930E+01  0.7957747E-01            NaN
         13   -1    0    0    0    0  0.00000000000E+00  0.00000000000E+00  0.74505805969E-08  0.10566000000E+00  0.10566000000E+00 0.  1.
     999900   -1    0    0    0    0 -0.00000000000E+00 -0.00000000000E+00 -0.74505805969E-08  0.93827000000E+00  0.93827000000E+00 0.  1.
     999902    2    1    2    0    0  0.15713265935E-01 -0.23375351436E-03  0.15282395750E-02  0.10281408619E+01  0.10280196180E+01 0.  0.
     999903    2    3    3    0    0  0.42551627468E-01  0.44773735867E-02 -0.12979480232E+00  0.13797894754E+00  0.18995035686E-01 0.  0.
         14    1    1    2    0    0 -0.15713265935E-01  0.23375351436E-03 -0.15282395750E-02  0.15789138141E-01  0.00000000000E+00 0. -1.
     999901    1    3    3    0    0 -0.26838361533E-01 -0.47111271010E-02  0.13132304190E+00  0.89016191432E+00  0.88000000000E+00 0. -1.
        -11    1    4    4    0    0  0.26567633432E-01  0.54272496769E-02 -0.53059245022E-01  0.59588914981E-01  0.51100000000E-03 0. -1.
         11    1    4    4    0    0  0.15983994035E-01 -0.94987609022E-03 -0.76735557299E-01  0.78390032561E-01  0.51100000000E-03 0.  1.
</event>
<event>
 8    1  0.1126407E+005  0.1043930E+01  0.7957747E-01            NaN
         13   -1    0    0    0    0  0.00000000000E+00  0.00000000000E+00  0.74505805969E-08  0.10566000000E+00  0.10566000000E+00 0. -1.
     999900   -1    0    0    0    0 -0.00000000000E+00 -0.00000000000E+00 -0.74505805969E-08  0.93827000000E+00  0.93827000000E+00 0. -1.
     999902    2    1    2    0    0  0.14214011767E-01 -0.19135096585E-01  0.14184644065E-02  0.10200510952E+01  0.10197715601E+01 0.  0.
     999903    2    3    3    0    0  0.65255053451E-01  0.46363602496E-01 -0.10068951747E+00  0.13026386927E+00  0.20554587569E-01 0.  0.
         14    1    1    2    0    0 -0.14214011767E-01  0.19135096585E-01 -0.14184644065E-02  0.23878904772E-01  0.00000000000E+00 0.  1.
     999901    1    3    3    0    0 -0.51041041684E-01 -0.65498699081E-01  0.10210798188E+00  0.88978722596E+00  0.88000000000E+00 0. -1.
        -11    1    4    4    0    0  0.41810231722E-01  0.19283517049E-01 -0.47670032098E-01  0.66277014021E-01  0.51100000000E-03 0.  1.
         11    1    4    4    0    0  0.23444821729E-01  0.27080085447E-01 -0.53019485377E-01  0.63986855247E-01  0.51100000000E-03 0. -1.
</event>
<event>
 8    1  0.1126407E+005  0.1043930E+01  0.7957747E-01            NaN
         13   -1    0    0    0    0  0.00000000000E+00  0.00000000000E+00  0.74505805969E-08  0.10566000000E+00  0.10566000000E+00 0. -1.
     999900   -1    0    0    0    0 -0.00000000000E+00 -0.00000000000E+00 -0.74505805969E-08  0.93827000000E+00  0.93827000000E+00 0.  1.
     999902    2    1    2    0    0  0.18599289536E-01 -0.26494430419E-02  0.28432243915E-02  0.10249290252E+01  0.10247528822E+01 0.  0.
     999903    2    3    3    0    0 -0.25584487414E-01 -0.75726791518E-01  0.10662832392E+00  0.13472463746E+00  0.19799381968E-01 0.  0.
         14    1    1    2    0    0 -0.18599289536E-01  0.26494430419E-02 -0.28432243915E-02  0.19000974834E-01  0.00000000000E+00 0. -1.
     999901    1    3    3    0    0  0.44183776950E-01  0.73077348477E-01 -0.10378509953E+00  0.89020438771E+00  0.88000000000E+00 0.  1.
        -11    1    4    4    0    0 -0.13244322274E-01 -0.63828425875E-01  0.83657094354E-01  0.10605777001E+00  0.51100000000E-03 0.  1.
         11    1    4    4    0    0 -0.12340165139E-01 -0.11898365643E-01  0.22971229570E-01  0.28666867453E-01  0.51100000000E-03 0. -1.
</event>
<event>
 8    1  0.1126407E+005  0.1043930E+01  0.7957747E-01            NaN
         13   -1    0    0    0    0  0.00000000000E+00  0.00000000000E+00  0.74505805969E-08  0.10566000000E+00  0.10566000000E+00 0. -1.
     999900   -1    0    0    0    0 -0.00000000000E+00 -0.00000000000E+00 -0.74505805969E-08  0.93827000000E+00  0.93827000000E+00 0. -1.
     999902    2    1    2    0    0  0.91937976682E-02  0.14049623935E-01  0.15454019088E-01  0.10211101719E+01  0.10208551507E+01 0.  0.
     999903    2    3    3    0    0 -0.59618099221E-01 -0.11232944944E+00 -0.10853693377E-01  0.12903459042E+00  0.18971027905E-01 0.  0.
         14    1    1    2    0    0 -0.91937976682E-02 -0.14049623935E-01 -0.15454019088E-01  0.22819828095E-01  0.00000000000E+00 0.  1.
     999901    1    3    3    0    0  0.68811896889E-01  0.12637907338E+00  0.26307712465E-01  0.89207558148E+00  0.88000000000E+00 0.  1.
        -11    1    4    4    0    0 -0.34804556130E-01 -0.46129425527E-01 -0.24936240923E-02  0.57842547566E-01  0.51100000000E-03 0. -1.
         11    1    4    4    0    0 -0.24813543091E-01 -0.66200023913E-01 -0.83600692843E-02  0.71192042858E-01  0.51100000000E-03 0.  1.
</event>
<event>
 8    1  0.1126407E+005  0.1043930E+01  0.7957747E-01            NaN
         13   -1    0    0    0    0  0.00000000000E+00  0.00000000000E+00  0.74505805969E-08  0.10566000000E+00  0.10566000000E+00 0. -1.
     999900   -1    0    0    0    0 -0.00000000000E+00 -0.00000000000E+00 -0.74505805969E-08  0.93827000000E+00  0.93827000000E+00 0.  1.
     999902    2    1    2    0    0 -0.15047939583E-01 -0.62713135464E-02 -0.16576672573E-01  0.10206801412E+01  0.10204153050E+01 0.  0.
     999903    2    3    3    0    0  0.10509146746E+00 -0.72168724926E-01  0.11752059049E-01  0.12962544987E+00  0.20300368762E-01 0.  0.
         14    1    1    2    0    0  0.15047939583E-01  0.62713135464E-02  0.16576672573E-01  0.23249858771E-01  0.00000000000E+00 0. -1.
     999901    1    3    3    0    0 -0.12013940705E+00  0.65897411380E-01 -0.28328731622E-01  0.89105469136E+00  0.88000000000E+00 0.  1.
        -11    1    4    4    0    0  0.73211115782E-01 -0.56858817415E-01  0.15762034493E-01  0.94029226543E-01  0.51100000000E-03 0. -1.
         11    1    4    4    0    0  0.31880351680E-01 -0.15309907511E-01 -0.40099754442E-02  0.35596223330E-01  0.51100000000E-03 0.  1.
</event>
<event>
 8    1  0.1126407E+005  0.1043930E+01  0.7957747E-01            NaN
         13   -1    0    0    0    0  0.00000000000E+00  0.00000000000E+00  0.74505805969E-08  0.10566000000E+00  0.10566000000E+00 0.  1.
     999900   -1    0    0    0    0 -0.00000000000E+00 -0.00000000000E+00 -0.74505805969E-08  0.93827000000E+00  0.93827000000E+00 0. -1.
     999902    2    1    2    0    0  0.73223868354E-02  0.19565614294E-01  0.43903099164E-02  0.10225827418E+01  0.10223598967E+01 0.  0.
     999903    2    3    3    0    0 -0.91554142240E-01 -0.46763187163E-01  0.78802342055E-01  0.13145243234E+00  0.22382498069E-01 0.  0.
         14    1    1    2    0    0 -0.73223868354E-02 -0.19565614294E-01 -0.43903099164E-02  0.21347258204E-01  0.00000000000E+00 0.  1.
     999901    1    3    3    0    0  0.98876529075E-01  0.66328801457E-01 -0.74412032138E-01  0.89113030946E+00  0.88000000000E+00 0.  1.
        -11    1    4    4    0    0 -0.41007796730E-01 -0.32695943415E-01  0.44309145362E-01  0.68660218410E-01  0.51100000000E-03 0.  1.
         11    1    4    4    0    0 -0.50546345510E-01 -0.14067243748E-01  0.34493196693E-01  0.62792213929E-01  0.51100000000E-03 0. -1.
</event>
<event>
 8    1  0.1126407E+005  0.1043930E+01  0.7957747E-01            NaN
         13   -1    0    0    0    0  0.00000000000E+00  0.00000000000E+00  0.74505805969E-08  0.10566000000E+00  0.10566000000E+00 0.  1.
     999900   -1    0    0    0    0 -0.00000000000E+00 -0.00000000000E+00 -0.74505805969E-08  0.93827000000E+00  0.93827000000E+00 0.  1.
     999902    2    1    2    0    0 -0.17892399873E-01  0.49311451606E-02 -0.15022949437E-01  0.10200523289E+01  0.10197728230E+01 0.  0.
     999903    2    3    3    0    0  0.43154294316E-01  0.58719461007E-01 -0.10834784479E+00  0.13138511457E+00  0.14578224914E-01 0.  0.
         14    1    1    2    0    0  0.17892399873E-01 -0.49311451606E-02  0.15022949437E-01  0.23877671067E-01  0.00000000000E+00 0.  1.
     999901    1    3    3    0    0 -0.61046694188E-01 -0.53788315846E-01  0.93324895351E-01  0.88866721436E+00  0.88000000000E+00 0. -1.
        -11    1    4    4    0    0  0.19387587003E-01  0.36295340800E-01 -0.67744824407E-01  0.79264447570E-01  0.51100000000E-03 0. -1.
         11    1    4    4    0    0  0.23766707313E-01  0.22424120206E-01 -0.40603020380E-01  0.52120667000E-01  0.51100000000E-03 0.  1.
</event>
<event>
 8    1  0.1126407E+005  0.1043930E+01  0.7957747E-01            NaN
         13   -1    0    0    0    0  0.00000000000E+00  0.00000000000E+00  0.74505805969E-08  0.10566000000E+00  0.10566000000E+00 0. -1.
     999900   -1    0    0    0    0 -0.00000000000E+00 -0.00000000000E+00 -0.74505805969E-08  0.93827000000E+00  0.93827000000E+00 0.  1.
     999902    2    1    2    0    0  0.10532608384E-01  0.12175306933E-01  0.18229847856E-01  0.10196092004E+01  0.10193190964E+01 0.  0.
     999903    2    3    3    0    0  0.11676032425E+00  0.49925466754E-01  0.31410166869E-01  0.13231943774E+00  0.19907523011E-01 0.  0.
         14    1    1    2    0    0 -0.10532608384E-01 -0.12175306933E-01 -0.18229847856E-01  0.24320799558E-01  0.00000000000E+00 0.  1.
     999901    1    3    3    0    0 -0.10622771586E+00 -0.37750159821E-01 -0.13180319013E-01  0.88728976270E+00  0.88000000000E+00 0.  1.
        -11    1    4    4    0    0  0.14022394621E-01  0.36009081885E-02 -0.23402938662E-02  0.14674201411E-01  0.51100000000E-03 0. -1.
         11    1    4    4    0    0  0.10273792963E+00  0.46324558565E-01  0.33750460735E-01  0.11764523633E+00  0.51100000000E-03 0.  1.
</event>
<event>
 8    1  0.1126407E+005  0.1043930E+01  0.7957747E-01            NaN
         13   -1    0    0    0    0  0.00000000000E+00  0.00000000000E+00  0.74505805969E-08  0.10566000000E+00  0.10566000000E+00 0.  1.
     999900   -1    0    0    0    0 -0.00000000000E+00 -0.00000000000E+00 -0.74505805969E-08  0.93827000000E+00  0.93827000000E+00 0. -1.
     999902    2    1    2    0    0 -0.15397333704E-01 -0.17269670245E-01 -0.42815106214E-02  0.10204002161E+01  0.10201288891E+01 0.  0.
     999903    2    3    3    0    0  0.39416938554E-01  0.35261695464E-01  0.11612453676E+00  0.12896218404E+00  0.18688356331E-01 0.  0.
         14    1    1    2    0    0  0.15397333704E-01  0.17269670245E-01  0.42815106214E-02  0.23529783866E-01  0.00000000000E+00 0.  1.
     999901    1    3    3    0    0 -0.54814272258E-01 -0.52531365710E-01 -0.12040604738E+00  0.89143803210E+00  0.88000000000E+00 0. -1.
        -11    1    4    4    0    0  0.22579572727E-01  0.80808024177E-02  0.54107771224E-01  0.59186556752E-01  0.51100000000E-03 0.  1.
         11    1    4    4    0    0  0.16837365827E-01  0.27180893047E-01  0.62016765532E-01  0.69775627284E-01  0.51100000000E-03 0. -1.
</event>
<event>
 8    1  0.1126407E+005  0.1043930E+01  0.7957747E-01            NaN
         13   -1    0    0    0    0  0.00000000000E+00  0.00000000000E+00  0.74505805969E-08  0.10566000000E+00  0.10566000000E+00 0.  1.
     999900   -1    0    0    0    0 -0.00000000000E+00 -0.00000000000E+00 -0.74505805969E-08  0.93827000000E+00  0.93827000000E+00 0.  1.
     999902    2    1    2    0    0  0.19815503572E-01 -0.49863894778E-02 -0.11138926548E-01  0.10206578289E+01  0.10203924783E+01 0.  0.
     999903    2    3    3    0    0 -0.30535681370E-01  0.11235511974E-01 -0.12593545108E+00  0.13162653929E+00  0.20177795710E-01 0.  0.
         14    1    1    2    0    0 -0.19815503572E-01  0.49863894778E-02  0.11138926548E-01  0.23272171073E-01  0.00000000000E+00 0.  1.
     999901    1    3    3    0    0  0.50351184942E-01 -0.16221901452E-01  0.11479652453E+00  0.88903128964E+00  0.88000000000E+00 0. -1.
        -11    1    4    4    0    0 -0.19116649316E-01 -0.27995606371E-02 -0.51093724843E-01  0.54627041474E-01  0.51100000000E-03 0. -1.
         11    1    4    4    0    0 -0.11419032054E-01  0.14035072611E-01 -0.74841726238E-01  0.76999497814E-01  0.51100000000E-03 0.  1.
</event>
<event>
 8    1  0.1126407E+005  0.1043930E+01  0.7957747E-01            NaN
         13   -1    0    0    0    0  0.00000000000E+00  0.00000000000E+00  0.74505805969E-08  0.10566000000E+00  0.10566000000E+00 0. -1.
     999900   -1    0    0    0    0 -0.00000000000E+00 -0.00000000000E+00 -0.74505805969E-08  0.93827000000E+00  0.93827000000E+00 0. -1.
     999902    2    1    2    0    0 -0.24379867834E-02  0.23243206281E-01 -0.37947504625E-02  0.10202532065E+01  0.10199784384E+01 0.  0.
     999903    2    3    3    0    0 -0.86355532152E-02  0.77233817966E-01 -0.10589527641E+00  0.13268466643E+00  0.18755685087E-01 0.  0.
         14    1    1    2    0    0  0.24379867834E-02 -0.23243206281E-01  0.37947504625E-02  0.23676793466E-01  0.00000000000E+00 0. -1.
     999901    1    3    3    0    0  0.61975664319E-02 -0.53990611685E-01  0.10210052595E+00  0.88756854010E+00  0.88000000000E+00 0.  1.
        -11    1    4    4    0    0 -0.96076712448E-02  0.63398849409E-01 -0.74108867496E-01  0.98000544977E-01  0.51100000000E-03 0.  1.
         11    1    4    4    0    0  0.97211802959E-03  0.13834968557E-01 -0.31786408914E-01  0.34684121455E-01  0.51100000000E-03 0. -1.
</event>
<event>
 8    1  0.1126407E+005  0.1043930E+01  0.7957747E-01            NaN
         13   -1    0    0    0    0  0.00000000000E+00  0.00000000000E+00  0.74505805969E-08  0.10566000000E+00  0.10566000000E+00 0.  1.
     999900   -1    0    0    0    0 -0.00000000000E+00 -0.00000000000E+00 -0.74505805969E-08  0.93827000000E+00  0.93827000000E+00 0.  1.
     999902    2    1    2    0    0  0.60350307858E-03  0.22631497741E-01 -0.78881889957E-02  0.10199555880E+01  0.10196737856E+01 0.  0.
     999903    2    3    3    0    0 -0.29766033346E-01 -0.61304777928E-01  0.10667180630E+00  0.12805223019E+00  0.19344427114E-01 0.  0.
         14    1    1    2    0    0 -0.60350307858E-03 -0.22631497741E-01  0.78881889957E-02  0.23974412018E-01  0.00000000000E+00 0.  1.
     999901    1    3    3    0    0  0.30369536425E-01  0.83936275669E-01 -0.11455999529E+00  0.89190335779E+00  0.88000000000E+00 0.  1.
        -11    1    4    4    0    0 -0.48717216207E-02 -0.31946488259E-01  0.46956903372E-01  0.57004593489E-01  0.51100000000E-03 0.  1.
         11    1    4    4    0    0 -0.24894311725E-01 -0.29358289669E-01  0.59714902926E-01  0.71047636702E-01  0.51100000000E-03 0. -1.
</event>
<event>
 8    1  0.1126407E+005  0.1043930E+01  0.7957747E-01            NaN
         13   -1    0    0    0    0  0.00000000000E+00  0.00000000000E+00  0.74505805969E-08  0.10566000000E+00  0.10566000000E+00 0. -1.
     999900   -1    0    0    0    0 -0.00000000000E+00 -0.00000000000E+00 -0.74505805969E-08  0.93827000000E+00  0.93827000000E+00 0. -1.
     999902    2    1    2    0    0  0.18717557119E-01 -0.11789498767E-01  0.75898838528E-02  0.10205431327E+01  0.10202751296E+01 0.  0.
     999903    2    3    3    0    0 -0.24197874688E-01  0.13199466137E-01 -0.12485738801E+00  0.12924718718E+00  0.18860143404E-01 0.  0.
         14    1    1    2    0    0 -0.18717557119E-01  0.11789498767E-01 -0.75898838528E-02  0.23386867310E-01  0.00000000000E+00 0. -1.
     999901    1    3    3    0    0  0.42915431807E-01 -0.24988964904E-01  0.13244727186E+00  0.89129594551E+00  0.88000000000E+00 0.  1.
        -11    1    4    4    0    0 -0.22164111718E-01  0.49889634179E-02 -0.66448587938E-01  0.70226872095E-01  0.51100000000E-03 0.  1.
         11    1    4    4    0    0 -0.20337629705E-02  0.82105027189E-02 -0.58408800068E-01  0.59020315088E-01  0.51100000000E-03 0. -1.
</event>
<event>
 8    1  0.1126407E+005  0.1043930E+01  0.7957747E-01            NaN
         13   -1    0    0    0    0  0.00000000000E+00  0.00000000000E+00  0.74505805969E-08  0.10566000000E+00  0.10566000000E+00 0. -1.
     999900   -1    0    0    0    0 -0.00000000000E+00 -0.00000000000E+00 -0.74505805969E-08  0.93827000000E+00  0.93827000000E+00 0. -1.
     999902    2    1    2    0    0  0.52344441509E-02 -0.18353527057E-01  0.16562759832E-01  0.10186599313E+01  0.10183464436E+01 0.  0.
     999903    2    3    3    0    0  0.74208217830E-01  0.52742545516E-01 -0.86101112935E-01  0.12717134257E+00  0.21691312110E-01 0.  0.
         14    1    1    2    0    0 -0.52344441509E-02  0.18353527057E-01 -0.16562759832E-01  0.25270068742E-01  0.00000000000E+00 0. -1.
     999901    1    3    3    0    0 -0.68973773679E-01 -0.71096072573E-01  0.10266387277E+00  0.89148858869E+00  0.88000000000E+00 0.  1.
        -11    1    4    4    0    0  0.34328390845E-01  0.29614556500E-01 -0.29168001458E-01  0.53911907820E-01  0.51100000000E-03 0.  1.
         11    1    4    4    0    0  0.39879826985E-01  0.23127989016E-01 -0.56933111477E-01  0.73259434749E-01  0.51100000000E-03 0. -1.
</event>
<event>
 8    1  0.1126407E+005  0.1043930E+01  0.7957747E-01            NaN
         13   -1    0    0    0    0  0.00000000000E+00  0.00000000000E+00  0.74505805969E-08  0.10566000000E+00  0.10566000000E+00 0. -1.
     999900   -1    0    0    0    0 -0.00000000000E+00 -0.00000000000E+00 -0.74505805969E-08  0.93827000000E+00  0.93827000000E+00 0. -1.
     999902    2    1    2    0    0  0.19002597047E-02 -0.21506604065E-01  0.67884865919E-02  0.10212975332E+01  0.10210467289E+01 0.  0.
     999903    2    3    3    0    0 -0.10381316473E+00 -0.11951025432E-01  0.78083682759E-01  0.13205648474E+00  0.20539071748E-01 0.  0.
         14    1    1    2    0    0 -0.19002597047E-02  0.21506604065E-01 -0.67884865919E-02  0.22632466847E-01  0.00000000000E+00 0.  1.
     999901    1    3    3    0    0  0.10571342443E+00 -0.95555786328E-02 -0.71295196167E-01  0.88924104841E+00  0.88000000000E+00 0. -1.
        -11    1    4    4    0    0 -0.90791875657E-01 -0.58899876118E-02  0.60127545120E-01  0.10905704674E+00  0.51100000000E-03 0. -1.
         11    1    4    4    0    0 -0.13021289072E-01 -0.60610378204E-02  0.17956137639E-01  0.22999438004E-01  0.51100000000E-03 0.  1.
</event>
<event>
 8    1  0.1126407E+005  0.1043930E+01  0.7957747E-01            NaN
         13   -1    0    0    0    0  0.00000000000E+00  0.00000000000E+00  0.74505805969E-08  0.10566000000E+00  0.10566000000E+00 0. -1.
     999900   -1    0    0    0    0 -0.00000000000E+00 -0.00000000000E+00 -0.74505805969E-08  0.93827000000E+00  0.93827000000E+00 0.  1.
     999902    2    1    2    0    0  0.22961046920E-01 -0.11406543639E-01 -0.27082924199E-02  0.10181491202E+01  0.10178226649E+01 0.  0.
     999903    2    3    3    0    0  0.42775551159E-01 -0.96892235120E-01  0.73528473780E-01  0.13050478688E+00  0.20179443456E-01 0.  0.
         14    1    1    2    0    0 -0.22961046920E-01  0.11406543639E-01  0.27082924199E-02  0.25780879761E-01  0.00000000000E+00 0. -1.
     999901    1    3    3    0    0 -0.19814504239E-01  0.85485691481E-01 -0.76236766200E-01  0.88764433336E+00  0.88000000000E+00 0.  1.
        -11    1    4    4    0    0  0.31195919617E-01 -0.46560036273E-01  0.35150547011E-01  0.66157724074E-01  0.51100000000E-03 0. -1.
         11    1    4    4    0    0  0.11579631542E-01 -0.50332198847E-01  0.38377926769E-01  0.64347062804E-01  0.51100000000E-03 0.  1.
</event>
<event>
 8    1  0.1126407E+005  0.1043930E+01  0.7957747E-01            NaN
         13   -1    0    0    0    0  0.00000000000E+00  0.00000000000E+00  0.74505805969E-08  0.10566000000E+00  0.10566000000E+00 0. -1.
     999900   -1    0    0    0    0 -0.00000000000E+00 -0.00000000000E+00 -0.74505805969E-08  0.93827000000E+00  0.93827000000E+00 0. -1.
     999902    2    1    2    0    0 -0.11501229000E-01  0.31319204813E-01 -0.70381551801E-02  0.10098315178E+01  0.10092556603E+01 0.  0.
     999903    2    3    3    0    0  0.22790589638E-01 -0.97097360171E-01 -0.59842224512E-01  0.11828510135E+00  0.21516622365E-01 0.  0.
         14    1    1    2    0    0  0.11501229000E-01 -0.31319204813E-01  0.70381551801E-02  0.34098482180E-01  0.00000000000E+00 0. -1.
     999901    1    3    3    0    0 -0.34291818638E-01  0.12841656498E+00  0.52804069332E-01  0.89154641647E+00  0.88000000000E+00 0.  1.
        -11    1    4    4    0    0 -0.78247052130E-03 -0.32243698553E-01 -0.25975841084E-01  0.41415864081E-01  0.51100000000E-03 0. -1.
         11    1    4    4    0    0  0.23573060159E-01 -0.64853661617E-01 -0.33866383428E-01  0.76869237266E-01  0.51100000000E-03 0.  1.
</event>
<event>
 8    1  0.1126407E+005  0.1043930E+01  0.7957747E-01            NaN
         13   -1    0    0    0    0  0.00000000000E+00  0.00000000000E+00  0.74505805969E-08  0.10566000000E+00  0.10566000000E+00 0.  1.
     999900   -1    0    0    0    0 -0.00000000000E+00 -0.00000000000E+00 -0.74505805969E-08  0.93827000000E+00  0.93827000000E+00 0.  1.
     999902    2    1    2    0    0 -0.20410824264E-01  0.54457993318E-02 -0.87510211332E-02  0.10210643304E+01  0.10208082718E+01 0.  0.
     999903    2    3    3    0    0 -0.65646633332E-01 -0.14342755930E-01  0.11136791358E+00  0.13153275485E+00  0.19566765369E-01 0.  0.
         14    1    1    2    0    0  0.20410824264E-01 -0.54457993318E-02  0.87510211332E-02  0.22865669646E-01  0.00000000000E+00 0. -1.
     999901    1    3    3    0    0  0.45235809068E-01  0.19788555262E-01 -0.12011893472E+00  0.88953157550E+00  0.88000000000E+00 0.  1.
        -11    1    4    4    0    0 -0.41290965017E-01 -0.13885040656E-02  0.77709524458E-01  0.88010812109E-01  0.51100000000E-03 0.  1.
         11    1    4    4    0    0 -0.24355668315E-01 -0.12954251865E-01  0.33658389126E-01  0.43521942741E-01  0.51100000000E-03 0. -1.
</event>
<event>
 8    1  0.1126407E+005  0.1043930E+01  0.7957747E-01            NaN
         13   -1    0    0    0    0  0.00000000000E+00  0.00000000000E+00  0.74505805969E-08  0.10566000000E+00  0.10566000000E+00 0.  1.
     999900   -1    0    0    0    0 -0.00000000000E+00 -0.00000000000E+00 -0.74505805969E-08  0.93827000000E+00  0.93827000000E+00 0.  1.
     999902    2    1    2    0    0 -0.33122196945E-02 -0.13751205036E-01  0.18706666296E-01  0.10204777975E+01  0.10202082774E+01 0.  0.
     999903    2    3    3    0    0 -0.75934473158E-01  0.10055969432E+00  0.20204710017E-01  0.13011651264E+00  0.25372824392E-01 0.  0.
         14    1    1    2    0    0  0.33122196945E-02  0.13751205036E-01 -0.18706666296E-01  0.23452202523E-01  0.00000000000E+00 0. -1.
     999901    1    3    3    0    0  0.72622253463E-01 -0.11431089936E+00 -0.14980437208E-02  0.89036128484E+00  0.88000000000E+00 0. -1.
        -11    1    4    4    0    0 -0.31728199415E-01  0.29291395343E-01  0.16301155691E-01  0.46158999958E-01  0.51100000000E-03 0. -1.
         11    1    4    4    0    0 -0.44206273743E-01  0.71268298979E-01  0.39035543257E-02  0.83957512677E-01  0.51100000000E-03 0.  1.
</event>
<event>
 7    1  0.1126407E+005  0.1043930E+01  0.7957747E-01            NaN
         13   -1    0    0    0    0  0.00000000000E+00  0.00000000000E+00  0.74505805969E-08  0.10566000000E+00  0.10566000000E+00 0.  1.
     999900   -1    0    0    0    0 -0.00000000000E+00 -0.00000000000E+00 -0.74505805969E-08  0.93827000000E+00  0.93827000000E+00 0.  1.
     999903    2    1    2    0    0 -0.91453331293E-01 -0.52277876640E-01  0.30285334751E-01  0.11141917246E+00  0.20008555677E-01 0.  0.
         14    1    1    2    0    0 -0.15483730020E-01  0.25035120096E-01 -0.34835255714E-01  0.45606996987E-01  0.00000000000E+00 0. -1.
     999901    1    1    2    0    0  0.10693706131E+00  0.27242756544E-01  0.45499209630E-02  0.88690383055E+00  0.88000000000E+00 0. -1.
        -11    1    3    3    0    0 -0.61659269995E-01 -0.28348655808E-01  0.11495158627E-01  0.68832489824E-01  0.51100000000E-03 0.  1.
         11    1    3    3    0    0 -0.29794061298E-01 -0.23929220833E-01  0.18790176124E-01  0.42586682637E-01  0.51100000000E-03 0. -1.
</event>
<event>
 8    1  0.1126407E+005  0.1043930E+01  0.7957747E-01            NaN
         13   -1    0    0    0    0  0.00000000000E+00  0.00000000000E+00  0.74505805969E-08  0.10566000000E+00  0.10566000000E+00 0.  1.
     999900   -1    0    0    0    0 -0.00000000000E+00 -0.00000000000E+00 -0.74505805969E-08  0.93827000000E+00  0.93827000000E+00 0.  1.
     999902    2    1    2    0    0 -0.87860376131E-02  0.64126650935E-02  0.21181768527E-01  0.10201185732E+01  0.10198406342E+01 0.  0.
     999903    2    3    3    0    0  0.11661112167E+00 -0.43212095912E-01 -0.26068665076E-01  0.12859197908E+00  0.19770757561E-01 0.  0.
         14    1    1    2    0    0  0.87860376131E-02 -0.64126650935E-02 -0.21181768527E-01  0.23811426847E-01  0.00000000000E+00 0. -1.
     999901    1    3    3    0    0 -0.12539715928E+00  0.49624761005E-01  0.47250433604E-01  0.89152659407E+00  0.88000000000E+00 0. -1.
        -11    1    4    4    0    0  0.93133329764E-01 -0.40985673159E-01 -0.25917009761E-01  0.10500283345E+00  0.51100000000E-03 0. -1.
         11    1    4    4    0    0  0.23477791908E-01 -0.22264227531E-02 -0.15165531560E-03  0.23589145629E-01  0.51100000000E-03 0.  1.
</event>
<event>
 8    1  0.1126407E+005  0.1043930E+01  0.7957747E-01            NaN
         13   -1    0    0    0    0  0.00000000000E+00  0.00000000000E+00  0.74505805969E-08  0.10566000000E+00  0.10566000000E+00 0.  1.
     999900   -1    0    0    0    0 -0.00000000000E+00 -0.00000000000E+00 -0.74505805969E-08  0.93827000000E+00  0.93827000000E+00 0. -1.
     999902    2    1    2    0    0 -0.77928381138E-02 -0.20004159273E-01 -0.89596774798E-02  0.10206669277E+01  0.10204017869E+01 0.  0.
     999903    2    3    3    0    0 -0.45896419275E-01  0.97807528395E-01  0.67104480610E-01  0.12874920007E+00  0.20013777439E-01 0.  0.
         14    1    1    2    0    0  0.77928381138E-02  0.20004159273E-01  0.89596774798E-02  0.23263072339E-01  0.00000000000E+00 0.  1.
     999901    1    3    3    0    0  0.38103581161E-01 -0.11781168767E+00 -0.76064158090E-01  0.89191772759E+00  0.88000000000E+00 0. -1.
        -11    1    4    4    0    0 -0.34157107627E-01  0.51743441845E-01  0.32962947382E-01  0.70220430050E-01  0.51100000000E-03 0. -1.
         11    1    4    4    0    0 -0.11739311648E-01  0.46064086550E-01  0.34141533227E-01  0.58528770018E-01  0.51100000000E-03 0.  1.
</event>
<event>
 8    1  0.1126407E+005  0.1043930E+01  0.7957747E-01            NaN
         13   -1    0    0    0    0  0.00000000000E+00  0.00000000000E+00  0.74505805969E-08  0.10566000000E+00  0.10566000000E+00 0. -1.
     999900   -1    0    0    0    0 -0.00000000000E+00 -0.00000000000E+00 -0.74505805969E-08  0.93827000000E+00  0.93827000000E+00 0. -1.
     999902    2    1    2    0    0 -0.18680053007E-02  0.93012347944E-03  0.23121585624E-01  0.10207144385E+01  0.10204503921E+01 0.  0.
     999903    2    3    3    0    0 -0.26225266631E-01 -0.97307961549E-02 -0.12354528818E+00  0.12817978750E+00  0.19600170585E-01 0.  0.
         14    1    1    2    0    0  0.18680053007E-02 -0.93012347944E-03 -0.23121585624E-01  0.23215561489E-01  0.00000000000E+00 0.  1.
     999901    1    3    3    0    0  0.24357261331E-01  0.10660919634E-01  0.14666687381E+00  0.89253465101E+00  0.88000000000E+00 0.  1.
        -11    1    4    4    0    0 -0.85684659238E-02  0.11065611113E-02 -0.12416401138E-01  0.15135099075E-01  0.51100000000E-03 0.  1.
         11    1    4    4    0    0 -0.17656800708E-01 -0.10837357266E-01 -0.11112888704E+00  0.11304468842E+00  0.51100000000E-03 0. -1.
</event>
<event>
 8    1  0.1126407E+005  0.1043930E+01  0.7957747E-01            NaN
         13   -1    0    0    0    0  0.00000000000E+00  0.00000000000E+00  0.74505805969E-08  0.10566000000E+00  0.10566000000E+00 0.  1.
     999900   -1    0    0    0    0 -0.00000000000E+00 -0.00000000000E+00 -0.74505805969E-08  0.93827000000E+00  0.93827000000E+00 0.  1.
     999902    2    1    2    0    0  0.16542157533E-01  0.17915771870E-01 -0.17935384986E-02  0.10194793428E+01  0.10191860948E+01 0.  0.
     999903    2    3    3    0    0  0.12641932354E+00 -0.76888489057E-02  0.30164065800E-01  0.13170128681E+00  0.19859363528E-01 0.  0.
         14    1    1    2    0    0 -0.16542157533E-01 -0.17915771870E-01  0.17935384986E-02  0.24450657208E-01  0.00000000000E+00 0.  1.
     999901    1    3    3    0    0 -0.10987716601E+00  0.25604620776E-01 -0.31957604298E-01  0.88777805598E+00  0.88000000000E+00 0.  1.
        -11    1    4    4    0    0  0.39671040090E-01 -0.38732006360E-03  0.33945781754E-03  0.39677673713E-01  0.51100000000E-03 0. -1.
         11    1    4    4    0    0  0.86748283448E-01 -0.73015288422E-02  0.29824607982E-01  0.92023613095E-01  0.51100000000E-03 0.  1.
</event>
<event>
 8    1  0.1126407E+005  0.1043930E+01  0.7957747E-01            NaN
         13   -1    0    0    0    0  0.00000000000E+00  0.00000000000E+00  0.74505805969E-08  0.10566000000E+00  0.10566000000E+00 0. -1.
     999900   -1    0    0    0    0 -0.00000000000E+00 -0.00000000000E+00 -0.74505805969E-08  0.93827000000E+00  0.93827000000E+00 0. -1.
     999902    2    1    2    0    0 -0.98249286812E-02  0.10315194625E-01 -0.19671188010E-01  0.10196423879E+01  0.10193530846E+01 0.  0.
     999903    2    3    3    0    0  0.11957301054E-01 -0.58670151693E-01 -0.11547051854E+00  0.13149208797E+00  0.19276016142E-01 0.  0.
         14    1    1    2    0    0  0.98249286812E-02 -0.10315194625E-01  0.19671188010E-01  0.24287612099E-01  0.00000000000E+00 0. -1.
     999901    1    3    3    0    0 -0.21782229735E-01  0.68985346318E-01  0.95799330530E-01  0.88815029993E+00  0.88000000000E+00 0.  1.
        -11    1    4    4    0    0 -0.11162793915E-03 -0.41626953144E-01 -0.83489105293E-01  0.93292590877E-01  0.51100000000E-03 0. -1.
         11    1    4    4    0    0  0.12068928993E-01 -0.17043198549E-01 -0.31981413247E-01  0.38199497092E-01  0.51100000000E-03 0.  1.
</event>
<event>
 8    1  0.1126407E+005  0.1043930E+01  0.7957747E-01            NaN
         13   -1    0    0    0    0  0.00000000000E+00  0.00000000000E+00  0.74505805969E-08  0.10566000000E+00  0.10566000000E+00 0.  1.
     999900   -1    0    0    0    0 -0.00000000000E+00 -0.00000000000E+00 -0.74505805969E-08  0.93827000000E+00  0.93827000000E+00 0. -1.
     999902    2    1    2    0    0 -0.23778153447E-01  0.10609194437E-01  0.74900744639E-02  0.10168365173E+01  0.10164755020E+01 0.  0.
     999903    2    3    3    0    0  0.54047506484E-01  0.22769954300E-01  0.11107946520E+00  0.12726612703E+00  0.20455212645E-01 0.  0.
         14    1    1    2    0    0  0.23778153447E-01 -0.10609194437E-01 -0.74900744639E-02  0.27093482675E-01  0.00000000000E+00 0. -1.
     999901    1    3    3    0    0 -0.77825659931E-01 -0.12160759863E-01 -0.10358939073E+00  0.88957039030E+00  0.88000000000E+00 0. -1.
        -11    1    4    4    0    0  0.11904017855E-01 -0.35380559021E-02  0.22390172579E-01  0.25608678798E-01  0.51100000000E-03 0.  1.
         11    1    4    4    0    0  0.42143488629E-01  0.26308010202E-01  0.88689292616E-01  0.10165744823E+00  0.51100000000E-03 0. -1.
</event>
<event>
 8    1  0.1126407E+005  0.1043930E+01  0.7957747E-01            NaN
         13   -1    0    0    0    0  0.00000000000E+00  0.00000000000E+00  0.74505805969E-08  0.10566000000E+00  0.10566000000E+00 0. -1.
     999900   -1    0    0    0    0 -0.00000000000E+00 -0.00000000000E+00 -0.74505805969E-08  0.93827000000E+00  0.93827000000E+00 0.  1.
     999902    2    1    2    0    0 -0.15377411416E-01  0.18546948196E-01  0.34663234016E-02  0.10195893043E+01  0.10192987197E+01 0.  0.
     999903    2    3    3    0    0  0.10276764953E+00 -0.38798183678E-01 -0.61529149733E-01  0.12747320698E+00  0.19927202108E-01 0.  0.
         14    1    1    2    0    0  0.15377411416E-01 -0.18546948196E-01 -0.34663234016E-02  0.24340695700E-01  0.00000000000E+00 0.  1.
     999901    1    3    3    0    0 -0.11814506094E+00  0.57345131873E-01  0.64995473134E-01  0.89211609732E+00  0.88000000000E+00 0.  1.
        -11    1    4    4    0    0  0.45673367278E-01 -0.25205574536E-01 -0.36482399354E-01  0.63660066367E-01  0.51100000000E-03 0. -1.
         11    1    4    4    0    0  0.57094282251E-01 -0.13592609141E-01 -0.25046750379E-01  0.63813140610E-01  0.51100000000E-03 0.  1.
</event>
<event>
 8    1  0.1126407E+005  0.1043930E+01  0.7957747E-01            NaN
         13   -1    0    0    0    0  0.00000000000E+00  0.00000000000E+00  0.74505805969E-08  0.10566000000E+00  0.10566000000E+00 0.  1.
     999900   -1    0    0    0    0 -0.00000000000E+00 -0.00000000000E+00 -0.74505805969E-08  0.93827000000E+00  0.93827000000E+00 0.  1.
     999902    2    1    2    0    0  0.22740306860E-01 -0.41257837063E-02 -0.52305507990E-02  0.10202339601E+01  0.10199587398E+01 0.  0.
     999903    2    3    3    0    0  0.22184343202E-01 -0.14845295173E-01 -0.12756416720E+00  0.13170667813E+00  0.19013270081E-01 0.  0.
         14    1    1    2    0    0 -0.22740306860E-01  0.41257837063E-02  0.52305507990E-02  0.23696039942E-01  0.00000000000E+00 0.  1.
     999901    1    3    3    0    0  0.55596365720E-03  0.10719511467E-01  0.12233361640E+00  0.88852728192E+00  0.88000000000E+00 0. -1.
        -11    1    4    4    0    0  0.81166811610E-02 -0.14930036404E-01 -0.48365179554E-01  0.51266345826E-01  0.51100000000E-03 0.  1.
         11    1    4    4    0    0  0.14067662041E-01  0.84741230530E-04 -0.79198987647E-01  0.80440332308E-01  0.51100000000E-03 0. -1.
</event>
<event>
 8    1  0.1126407E+005  0.1043930E+01  0.7957747E-01            NaN
         13   -1    0    0    0    0  0.00000000000E+00  0.00000000000E+00  0.74505805969E-08  0.10566000000E+00  0.10566000000E+00 0.  1.
     999900   -1    0    0    0    0 -0.00000000000E+00 -0.00000000000E+00 -0.74505805969E-08  0.93827000000E+00  0.93827000000E+00 0. -1.
     999902    2    1    2    0    0 -0.11012584330E-01 -0.17570890120E-02 -0.22515121135E-01  0.10188044143E+01  0.10184945457E+01 0.  0.
     999903    2    3    3    0    0  0.91948430712E-01  0.80837865703E-01 -0.35147522152E-01  0.12887044222E+00  0.19569571353E-01 0.  0.
         14    1    1    2    0    0  0.11012584330E-01  0.17570890120E-02  0.22515121135E-01  0.25125585667E-01  0.00000000000E+00 0.  1.
     999901    1    3    3    0    0 -0.10296101504E+00 -0.82594954715E-01  0.12632401017E-01  0.88993397211E+00  0.88000000000E+00 0. -1.
        -11    1    4    4    0    0  0.87813200709E-01  0.69792457999E-01 -0.32237640670E-01  0.11671191888E+00  0.51100000000E-03 0. -1.
         11    1    4    4    0    0  0.41352300033E-02  0.11045407704E-01 -0.29098814820E-02  0.12158523338E-01  0.51100000000E-03 0.  1.
</event>
<event>
 7    1  0.1126407E+005  0.1043930E+01  0.7957747E-01            NaN
         13   -1    0    0    0    0  0.00000000000E+00  0.00000000000E+00  0.74505805969E-08  0.10566000000E+00  0.10566000000E+00 0.  1.
     999900   -1    0    0    0    0 -0.00000000000E+00 -0.00000000000E+00 -0.74505805969E-08  0.93827000000E+00  0.93827000000E+00 0.  1.
     999903    2    1    2    0    0 -0.10907079031E+00  0.44425600669E-01  0.35452601290E-04  0.11961701957E+00  0.20932243553E-01 0.  0.
         14    1    1    2    0    0  0.30633097903E-01 -0.20432417522E-01 -0.16488581597E-01  0.40345305749E-01  0.00000000000E+00 0. -1.
     999901    1    1    2    0    0  0.78437692408E-01 -0.23993183147E-01  0.16453128996E-01  0.88396767468E+00  0.88000000000E+00 0. -1.
        -11    1    3    3    0    0 -0.32476338797E-01  0.12284395977E-01 -0.95087116359E-02  0.36004106490E-01  0.51100000000E-03 0. -1.
         11    1    3    3    0    0 -0.76594451513E-01  0.32141204692E-01  0.95441642372E-02  0.83612913079E-01  0.51100000000E-03 0.  1.
</event>
<event>
 8    1  0.1126407E+005  0.1043930E+01  0.7957747E-01            NaN
         13   -1    0    0    0    0  0.00000000000E+00  0.00000000000E+00  0.74505805969E-08  0.10566000000E+00  0.10566000000E+00 0.  1.
     999900   -1    0    0    0    0 -0.00000000000E+00 -0.00000000000E+00 -0.74505805969E-08  0.93827000000E+00  0.93827000000E+00 0.  1.
     999902    2    1    2    0    0  0.74775683330E-02  0.14153839499E-01  0.17405632991E-01  0.10202825633E+01  0.10200084842E+01 0.  0.
     999903    2    3    3    0    0 -0.11400175556E+00 -0.54386408054E-01 -0.14483984158E-01  0.12872665407E+00  0.20161448850E-01 0.  0.
         14    1    1    2    0    0 -0.74775683330E-02 -0.14153839499E-01 -0.17405632991E-01  0.23647436659E-01  0.00000000000E+00 0. -1.
     999901    1    3    3    0    0  0.12147932389E+00  0.68540247554E-01  0.31889617149E-01  0.89155590927E+00  0.88000000000E+00 0. -1.
        -11    1    4    4    0    0 -0.58729382876E-01 -0.17572696116E-01 -0.34207277462E-02  0.61399532255E-01  0.51100000000E-03 0.  1.
         11    1    4    4    0    0 -0.55272372685E-01 -0.36813711939E-01 -0.11063256412E-01  0.67327121818E-01  0.51100000000E-03 0. -1.
</event>
<event>
 8    1  0.1126407E+005  0.1043930E+01  0.7957747E-01            NaN
         13   -1    0    0    0    0  0.00000000000E+00  0.00000000000E+00  0.74505805969E-08  0.10566000000E+00  0.10566000000E+00 0. -1.
     999900   -1    0    0    0    0 -0.00000000000E+00 -0.00000000000E+00 -0.74505805969E-08  0.93827000000E+00  0.93827000000E+00 0.  1.
     999902    2    1    2    0    0  0.62069865482E-02  0.15354694281E-01  0.18172441793E-01  0.10193427887E+01  0.10190462158E+01 0.  0.
     999903    2    3    3    0    0 -0.65057890350E-01  0.10139720111E+00 -0.44624413255E-01  0.13005912155E+00  0.20251304917E-01 0.  0.
         14    1    1    2    0    0 -0.62069865482E-02 -0.15354694281E-01 -0.18172441793E-01  0.24587211294E-01  0.00000000000E+00 0.  1.
     999901    1    3    3    0    0  0.71264876898E-01 -0.86042506830E-01  0.62796855048E-01  0.88928366715E+00  0.88000000000E+00 0.  1.
        -11    1    4    4    0    0 -0.28143901518E-01  0.57375157047E-01 -0.16050577379E-01  0.65892867550E-01  0.51100000000E-03 0.  1.
         11    1    4    4    0    0 -0.36913988832E-01  0.44022044065E-01 -0.28573835876E-01  0.64166254004E-01  0.51100000000E-03 0. -1.
</event>
<event>
 8    1  0.1126407E+005  0.1043930E+01  0.7957747E-01            NaN
         13   -1    0    0    0    0  0.00000000000E+00  0.00000000000E+00  0.74505805969E-08  0.10566000000E+00  0.10566000000E+00 0. -1.
     999900   -1    0    0    0    0 -0.00000000000E+00 -0.00000000000E+00 -0.74505805969E-08  0.93827000000E+00  0.93827000000E+00 0.  1.
     999902    2    1    2    0    0  0.14005993095E-01  0.10900084071E-01  0.14826635299E-01  0.10208040667E+01  0.10205420784E+01 0.  0.
     999903    2    3    3    0    0 -0.46242154439E-01  0.57997335355E-01  0.10801602896E+00  0.13258548246E+00  0.20234126869E-01 0.  0.
         14    1    1    2    0    0 -0.14005993095E-01 -0.10900084071E-01 -0.14826635299E-01  0.23125933270E-01  0.00000000000E+00 0.  1.
     999901    1    3    3    0    0  0.60248147534E-01 -0.47097251284E-01 -0.93189393661E-01  0.88821858427E+00  0.88000000000E+00 0.  1.
        -11    1    4    4    0    0 -0.28484466020E-01  0.22865914880E-01  0.41455563295E-01  0.55254318536E-01  0.51100000000E-03 0. -1.
         11    1    4    4    0    0 -0.17757688419E-01  0.35131420476E-01  0.66560465665E-01  0.77331163920E-01  0.51100000000E-03 0.  1.
</event>
<event>
 8    1  0.1126407E+005  0.1043930E+01  0.7957747E-01            NaN
         13   -1    0    0    0    0  0.00000000000E+00  0.00000000000E+00  0.74505805969E-08  0.10566000000E+00  0.10566000000E+00 0. -1.
     999900   -1    0    0    0    0 -0.00000000000E+00 -0.00000000000E+00 -0.74505805969E-08  0.93827000000E+00  0.93827000000E+00 0.  1.
     999902    2    1    2    0    0  0.21606839065E-01 -0.18318838959E-02 -0.11803046254E-01  0.10192414765E+01  0.10189424244E+01 0.  0.
     999903    2    3    3    0    0 -0.11225136559E+00  0.39418636890E-01 -0.41849801418E-01  0.12765725055E+00  0.19767896420E-01 0.  0.
         14    1    1    2    0    0 -0.21606839065E-01  0.18318838959E-02  0.11803046254E-01  0.24688523525E-01  0.00000000000E+00 0. -1.
     999901    1    3    3    0    0  0.13385820465E+00 -0.41250520786E-01  0.30046755164E-01  0.89158422592E+00  0.88000000000E+00 0. -1.
        -11    1    4    4    0    0 -0.83649433842E-01  0.20607461623E-01 -0.26491413903E-01  0.90132965047E-01  0.51100000000E-03 0.  1.
         11    1    4    4    0    0 -0.28601931748E-01  0.18811175267E-01 -0.15358387514E-01  0.37524285505E-01  0.51100000000E-03 0. -1.
</event>
<event>
 8    1  0.1126407E+005  0.1043930E+01  0.7957747E-01            NaN
         13   -1    0    0    0    0  0.00000000000E+00  0.00000000000E+00  0.74505805969E-08  0.10566000000E+00  0.10566000000E+00 0.  1.
     999900   -1    0    0    0    0 -0.00000000000E+00 -0.00000000000E+00 -0.74505805969E-08  0.93827000000E+00  0.93827000000E+00 0. -1.
     999902    2    1    2    0    0 -0.66041363052E-02 -0.61361374448E-03 -0.22201830448E-01  0.10207586294E+01  0.10204955988E+01 0.  0.
     999903    2    3    3    0    0  0.92713453543E-01  0.85941054955E-01  0.21834448843E-01  0.12986307540E+00  0.20150081904E-01 0.  0.
         14    1    1    2    0    0  0.66041363052E-02  0.61361374448E-03  0.22201830448E-01  0.23171370555E-01  0.00000000000E+00 0.  1.
     999901    1    3    3    0    0 -0.99317589848E-01 -0.86554668700E-01 -0.44036279291E-01  0.89089555405E+00  0.88000000000E+00 0. -1.
        -11    1    4    4    0    0  0.46981791903E-01  0.32892144819E-01  0.16186855489E-01  0.59594105185E-01  0.51100000000E-03 0.  1.
         11    1    4    4    0    0  0.45731661640E-01  0.53048910136E-01  0.56475933537E-02  0.70268970212E-01  0.51100000000E-03 0. -1.
</event>
<event>
 8    1  0.1126407E+005  0.1043930E+01  0.7957747E-01            NaN
         13   -1    0    0    0    0  0.00000000000E+00  0.00000000000E+00  0.74505805969E-08  0.10566000000E+00  0.10566000000E+00 0.  1.
     999900   -1    0    0    0    0 -0.00000000000E+00 -0.00000000000E+00 -0.74505805969E-08  0.93827000000E+00  0.93827000000E+00 0.  1.
     999902    2    1    2    0    0  0.19268696129E-01 -0.96854900244E-02  0.92468042201E-02  0.10204652444E+01  0.10201954324E+01 0.  0.
     999903    2    3    3    0    0  0.34584110446E-01  0.24490323142E-01  0.12358985748E+00  0.13227783064E+00  0.20667244209E-01 0.  0.
         14    1    1    2    0    0 -0.19268696129E-01  0.96854900244E-02 -0.92468042201E-02  0.23464755609E-01  0.00000000000E+00 0.  1.
     999901    1    3    3    0    0 -0.15315414317E-01 -0.34175813166E-01 -0.11434305326E+00  0.88818741375E+00  0.88000000000E+00 0.  1.
        -11    1    4    4    0    0 -0.27964213557E-02  0.24189237499E-02  0.94201004543E-02  0.10132649114E-01  0.51100000000E-03 0.  1.
         11    1    4    4    0    0  0.37380531801E-01  0.22071399392E-01  0.11416975703E+00  0.12214518152E+00  0.51100000000E-03 0. -1.
</event>
<event>
 8    1  0.1126407E+005  0.1043930E+01  0.7957747E-01            NaN
         13   -1    0    0    0    0  0.00000000000E+00  0.00000000000E+00  0.74505805969E-08  0.10566000000E+00  0.10566000000E+00 0. -1.
     999900   -1    0    0    0    0 -0.00000000000E+00 -0.00000000000E+00 -0.74505805969E-08  0.93827000000E+00  0.93827000000E+00 0.  1.
     999902    2    1    2    0    0  0.21071954510E-01  0.41171246972E-02  0.97748708271E-02  0.10203391950E+01  0.10200664423E+01 0.  0.
     999903    2    3    3    0    0 -0.51405505631E-01  0.48756446832E-01  0.10854153014E+00  0.13073225687E+00  0.17027686436E-01 0.  0.
         14    1    1    2    0    0 -0.21071954510E-01 -0.41171246972E-02 -0.97748708271E-02  0.23590805038E-01  0.00000000000E+00 0.  1.
     999901    1    3    3    0    0  0.72477460141E-01 -0.44639322134E-01 -0.98766659309E-01  0.88960693809E+00  0.88000000000E+00 0.  1.
        -11    1    4    4    0    0 -0.20043293979E-01  0.90921420766E-02  0.38397409845E-01  0.44260850476E-01  0.51100000000E-03 0. -1.
         11    1    4    4    0    0 -0.31362211652E-01  0.39664304755E-01  0.70144120291E-01  0.86471406395E-01  0.51100000000E-03 0.  1.
</event>
<event>
 8    1  0.1126407E+005  0.1043930E+01  0.7957747E-01            NaN
         13   -1    0    0    0    0  0.00000000000E+00  0.00000000000E+00  0.74505805969E-08  0.10566000000E+00  0.10566000000E+00 0.  1.
     999900   -1    0    0    0    0 -0.00000000000E+00 -0.00000000000E+00 -0.74505805969E-08  0.93827000000E+00  0.93827000000E+00 0.  1.
     999902    2    1    2    0    0  0.18594052961E-01  0.56412581737E-02 -0.13334356179E-01  0.10203637603E+01  0.10200915820E+01 0.  0.
     999903    2    3    3    0    0  0.44256940709E-01 -0.34534812745E-02  0.12033838470E+00  0.12985283967E+00  0.20244253591E-01 0.  0.
         14    1    1    2    0    0 -0.18594052961E-01 -0.56412581737E-02  0.13334356179E-01  0.23566239708E-01  0.00000000000E+00 0.  1.
     999901    1    3    3    0    0 -0.25662887748E-01  0.90947394481E-02 -0.13367274088E+00  0.89051092062E+00  0.88000000000E+00 0.  1.
        -11    1    4    4    0    0  0.42726504197E-01 -0.24538942948E-02  0.92191869340E-01  0.10164240085E+00  0.51100000000E-03 0. -1.
         11    1    4    4    0    0  0.15304365124E-02 -0.99958697964E-03  0.28146515363E-01  0.28210438815E-01  0.51100000000E-03 0.  1.
</event>
<event>
 7    1  0.1126407E+005  0.1043930E+01  0.7957747E-01            NaN
         13   -1    0    0    0    0  0.00000000000E+00  0.00000000000E+00  0.74505805969E-08  0.10566000000E+00  0.10566000000E+00 0. -1.
     999900   -1    0    0    0    0 -0.00000000000E+00 -0.00000000000E+00 -0.74505805969E-08  0.93827000000E+00  0.93827000000E+00 0.  1.
     999903    2    1    2    0    0 -0.17033155050E-01  0.80501489061E-01 -0.26931167861E-03  0.84691234217E-01  0.20047805677E-01 0.  0.
         14    1    1    2    0    0 -0.67677095212E-01  0.16512408166E-01 -0.50865295314E-02  0.69847846226E-01  0.00000000000E+00 0.  1.
     999901    1    1    2    0    0  0.84710250262E-01 -0.97013897227E-01  0.53558412100E-02  0.88939091956E+00  0.88000000000E+00 0.  1.
        -11    1    3    3    0    0 -0.97613294383E-02  0.18430993603E-01 -0.65817863831E-02  0.21876153926E-01  0.51100000000E-03 0.  1.
         11    1    3    3    0    0 -0.72718256115E-02  0.62070495458E-01  0.63124747045E-02  0.62815080291E-01  0.51100000000E-03 0. -1.
</event>
<event>
 8    1  0.1126407E+005  0.1043930E+01  0.7957747E-01            NaN
         13   -1    0    0    0    0  0.00000000000E+00  0.00000000000E+00  0.74505805969E-08  0.10566000000E+00  0.10566000000E+00 0.  1.
     999900   -1    0    0    0    0 -0.00000000000E+00 -0.00000000000E+00 -0.74505805969E-08  0.93827000000E+00  0.93827000000E+00 0. -1.
     999902    2    1    2    0    0  0.78999573917E-02  0.13763181766E-01 -0.17439707168E-01  0.10203508167E+01  0.10200783358E+01 0.  0.
     999903    2    3    3    0    0 -0.10570912097E+00  0.55309934643E-01  0.47106329933E-01  0.12973342058E+00  0.19446001343E-01 0.  0.
         14    1    1    2    0    0 -0.78999573917E-02 -0.13763181766E-01  0.17439707168E-01  0.23579183303E-01  0.00000000000E+00 0.  1.
     999901    1    3    3    0    0  0.11360907837E+00 -0.41546752877E-01 -0.64546037102E-01  0.89061739612E+00  0.88000000000E+00 0. -1.
        -11    1    4    4    0    0 -0.31310426044E-01  0.23994100097E-01  0.89764649019E-02  0.40458591939E-01  0.51100000000E-03 0. -1.
         11    1    4    4    0    0 -0.74398694929E-01  0.31315834546E-01  0.38129865031E-01  0.89274828641E-01  0.51100000000E-03 0.  1.
</event>
<event>
 8    1  0.1126407E+005  0.1043930E+01  0.7957747E-01            NaN
         13   -1    0    0    0    0  0.00000000000E+00  0.00000000000E+00  0.74505805969E-08  0.10566000000E+00  0.10566000000E+00 0.  1.
     999900   -1    0    0    0    0 -0.00000000000E+00 -0.00000000000E+00 -0.74505805969E-08  0.93827000000E+00  0.93827000000E+00 0. -1.
     999902    2    1    2    0    0  0.83587235525E-03  0.20897729042E-01  0.10199847159E-01  0.10206609080E+01  0.10203956284E+01 0.  0.
     999903    2    3    3    0    0 -0.67165239961E-02 -0.38984079331E-01  0.12350604755E+00  0.13134591051E+00  0.20811878595E-01 0.  0.
         14    1    1    2    0    0 -0.83587235525E-03 -0.20897729042E-01 -0.10199847159E-01  0.23269092027E-01  0.00000000000E+00 0. -1.
     999901    1    3    3    0    0  0.75523963513E-02  0.59881808372E-01 -0.11330620039E+00  0.88931499746E+00  0.88000000000E+00 0. -1.
        -11    1    4    4    0    0 -0.47802547429E-03 -0.23229546823E-01  0.98015064630E-01  0.10073258842E+00  0.51100000000E-03 0. -1.
         11    1    4    4    0    0 -0.62384985218E-02 -0.15754532507E-01  0.25490982920E-01  0.30613322093E-01  0.51100000000E-03 0.  1.
</event>
<event>
 8    1  0.1454110E+005  0.1043930E+01  0.7957747E-01            NaN
         13   -1    0    0    0    0  0.00000000000E+00  0.00000000000E+00  0.74505805969E-08  0.10566000000E+00  0.10566000000E+00 0. -1.
     999900   -1    0    0    0    0 -0.00000000000E+00 -0.00000000000E+00 -0.74505805969E-08  0.93827000000E+00  0.93827000000E+00 0.  1.
     999902    2    1    2    0    0  0.20310099808E-01  0.21233000677E-02  0.13782051256E-01  0.10192935738E+01  0.10189957979E+01 0.  0.
     999903    2    3    3    0    0  0.15698989391E-01 -0.12032797547E+00  0.43200949053E-01  0.13031604388E+00  0.19765357174E-01 0.  0.
         14    1    1    2    0    0 -0.20310099808E-01 -0.21233000677E-02 -0.13782051256E-01  0.24636426166E-01  0.00000000000E+00 0.  1.
     999901    1    3    3    0    0  0.46111104170E-02  0.12245127554E+00 -0.29418897796E-01  0.88897752996E+00  0.88000000000E+00 0.  1.
        -11    1    4    4    0    0  0.91636377680E-02 -0.56391600597E-01  0.30631419400E-01  0.64826922267E-01  0.51100000000E-03 0. -1.
         11    1    4    4    0    0  0.65353516235E-02 -0.63936374872E-01  0.12569529652E-01  0.65489121611E-01  0.51100000000E-03 0.  1.
</event>
<event>
 8    1  0.1126407E+005  0.1043930E+01  0.7957747E-01            NaN
         13   -1    0    0    0    0  0.00000000000E+00  0.00000000000E+00  0.74505805969E-08  0.10566000000E+00  0.10566000000E+00 0.  1.
     999900   -1    0    0    0    0 -0.00000000000E+00 -0.00000000000E+00 -0.74505805969E-08  0.93827000000E+00  0.93827000000E+00 0. -1.
     999902    2    1    2    0    0 -0.16171052411E-01 -0.16369577512E-01 -0.36918948615E-02  0.10206255779E+01  0.10203594828E+01 0.  0.
     999903    2    3    3    0    0  0.82175945119E-01  0.81866061640E-01 -0.50909586306E-01  0.12846422299E+00  0.21361942932E-01 0.  0.
         14    1    1    2    0    0  0.16171052411E-01  0.16369577512E-01  0.36918948615E-02  0.23304422149E-01  0.00000000000E+00 0.  1.
     999901    1    3    3    0    0 -0.98346997530E-01 -0.98235639153E-01  0.47217691445E-01  0.89216135486E+00  0.88000000000E+00 0.  1.
        -11    1    4    4    0    0  0.21694609786E-01  0.35228985323E-01 -0.21429453428E-01  0.46596352817E-01  0.51100000000E-03 0. -1.
         11    1    4    4    0    0  0.60481335333E-01  0.46637076318E-01 -0.29480132878E-01  0.81867870173E-01  0.51100000000E-03 0.  1.
</event>
<event>
 8    1  0.1126407E+005  0.1043930E+01  0.7957747E-01            NaN
         13   -1    0    0    0    0  0.00000000000E+00  0.00000000000E+00  0.74505805969E-08  0.10566000000E+00  0.10566000000E+00 0. -1.
     999900   -1    0    0    0    0 -0.00000000000E+00 -0.00000000000E+00 -0.74505805969E-08  0.93827000000E+00  0.93827000000E+00 0. -1.
     999902    2    1    2    0    0  0.78388883908E-02  0.36057162074E-02 -0.22456165123E-01  0.10198732190E+01  0.10195894537E+01 0.  0.
     999903    2    3    3    0    0 -0.10816194501E+00  0.74122357920E-02  0.64748071520E-01  0.12797902020E+00  0.20793490762E-01 0.  0.
         14    1    1    2    0    0 -0.78388883908E-02 -0.36057162074E-02  0.22456165123E-01  0.24056781011E-01  0.00000000000E+00 0. -1.
     999901    1    3    3    0    0  0.11600083340E+00 -0.38065195846E-02 -0.87204236643E-01  0.89189419879E+00  0.88000000000E+00 0. -1.
        -11    1    4    4    0    0 -0.33664012926E-01  0.57621023326E-02  0.10260145600E-01  0.35665099163E-01  0.51100000000E-03 0. -1.
         11    1    4    4    0    0 -0.74497932087E-01  0.16501334594E-02  0.54487925920E-01  0.92313921039E-01  0.51100000000E-03 0.  1.
</event>
<event>
 8    1  0.1126407E+005  0.1043930E+01  0.7957747E-01            NaN
         13   -1    0    0    0    0  0.00000000000E+00  0.00000000000E+00  0.74505805969E-08  0.10566000000E+00  0.10566000000E+00 0. -1.
     999900   -1    0    0    0    0 -0.00000000000E+00 -0.00000000000E+00 -0.74505805969E-08  0.93827000000E+00  0.93827000000E+00 0. -1.
     999902    2    1    2    0    0 -0.13302636558E-01  0.17750233924E-01  0.60267544524E-02  0.10209440758E+01  0.10206852860E+01 0.  0.
     999903    2    3    3    0    0  0.11004306709E+00  0.63859468495E-01 -0.21884688748E-01  0.13070856042E+00  0.20451890712E-01 0.  0.
         14    1    1    2    0    0  0.13302636558E-01 -0.17750233924E-01 -0.60267544524E-02  0.22985924236E-01  0.00000000000E+00 0. -1.
     999901    1    3    3    0    0 -0.12334570365E+00 -0.46109234572E-01  0.27911443200E-01  0.89023551535E+00  0.88000000000E+00 0.  1.
        -11    1    4    4    0    0  0.53234419183E-01  0.41921955573E-01 -0.78661623373E-02  0.68216503690E-01  0.51100000000E-03 0.  1.
         11    1    4    4    0    0  0.56808647909E-01  0.21937512923E-01 -0.14018526410E-01  0.62492056728E-01  0.51100000000E-03 0. -1.
</event>
<event>
 8    1  0.1126407E+005  0.1043930E+01  0.7957747E-01            NaN
         13   -1    0    0    0    0  0.00000000000E+00  0.00000000000E+00  0.74505805969E-08  0.10566000000E+00  0.10566000000E+00 0. -1.
     999900   -1    0    0    0    0 -0.00000000000E+00 -0.00000000000E+00 -0.74505805969E-08  0.93827000000E+00  0.93827000000E+00 0. -1.
     999902    2    1    2    0    0  0.19858987768E-01 -0.52881494773E-02  0.11858828374E-01  0.10202028904E+01  0.10199269395E+01 0.  0.
     999903    2    3    3    0    0  0.12464362432E-01  0.12006154062E+00 -0.42722182430E-01  0.12961526863E+00  0.20119620343E-01 0.  0.
         14    1    1    2    0    0 -0.19858987768E-01  0.52881494773E-02 -0.11858828374E-01  0.23727109611E-01  0.00000000000E+00 0.  1.
     999901    1    3    3    0    0  0.73946253359E-02 -0.12534969010E+00  0.54581010804E-01  0.89058762176E+00  0.88000000000E+00 0.  1.
        -11    1    4    4    0    0  0.42901589499E-02  0.69439596236E-02 -0.68371147788E-02  0.10659798242E-01  0.51100000000E-03 0. -1.
         11    1    4    4    0    0  0.81742034825E-02  0.11311758100E+00 -0.35885067652E-01  0.11895547039E+00  0.51100000000E-03 0.  1.
</event>
<event>
 8    1  0.1126407E+005  0.1043930E+01  0.7957747E-01            NaN
         13   -1    0    0    0    0  0.00000000000E+00  0.00000000000E+00  0.74505805969E-08  0.10566000000E+00  0.10566000000E+00 0. -1.
     999900   -1    0    0    0    0 -0.00000000000E+00 -0.00000000000E+00 -0.74505805969E-08  0.93827000000E+00  0.93827000000E+00 0. -1.
     999902    2    1    2    0    0  0.10802207392E-01 -0.31081314909E-02 -0.19995498867E-01  0.10209916448E+01  0.10207339372E+01 0.  0.
     999903    2    3    3    0    0  0.70368371301E-01 -0.29489440022E-01 -0.10876795571E+00  0.13412939480E+00  0.18409008866E-01 0.  0.
         14    1    1    2    0    0 -0.10802207392E-01  0.31081314909E-02  0.19995498867E-01  0.22938355234E-01  0.00000000000E+00 0. -1.
     999901    1    3    3    0    0 -0.59566163908E-01  0.26381308531E-01  0.88772456843E-01  0.88686224997E+00  0.88000000000E+00 0.  1.
        -11    1    4    4    0    0  0.46738130360E-01 -0.15750979142E-01 -0.83066084557E-01  0.96606323282E-01  0.51100000000E-03 0.  1.
         11    1    4    4    0    0  0.23630240941E-01 -0.13738460880E-01 -0.25701871153E-01  0.37523071517E-01  0.51100000000E-03 0. -1.
</event>
<event>
 8    1  0.1126407E+005  0.1043930E+01  0.7957747E-01            NaN
         13   -1    0    0    0    0  0.00000000000E+00  0.00000000000E+00  0.74505805969E-08  0.10566000000E+00  0.10566000000E+00 0. -1.
     999900   -1    0    0    0    0 -0.00000000000E+00 -0.00000000000E+00 -0.74505805969E-08  0.93827000000E+00  0.93827000000E+00 0.  1.
     999902    2    1    2    0    0 -0.39137125881E-02 -0.17880533592E-01  0.15789507067E-01  0.10197568918E+01  0.10194703425E+01 0.  0.
     999903    2    3    3    0    0  0.88173095943E-01 -0.22338820981E-01  0.92864707616E-01  0.13158999126E+00  0.20458594980E-01 0.  0.
         14    1    1    2    0    0  0.39137125881E-02  0.17880533592E-01 -0.15789507067E-01  0.24173108223E-01  0.00000000000E+00 0.  1.
     999901    1    3    3    0    0 -0.92086808531E-01  0.44582873892E-02 -0.77075200549E-01  0.88816690052E+00  0.88000000000E+00 0.  1.
        -11    1    4    4    0    0  0.15176613933E-01 -0.38927294992E-02  0.28537643416E-01  0.32559809062E-01  0.51100000000E-03 0. -1.
         11    1    4    4    0    0  0.72996482010E-01 -0.18446091482E-01  0.64327064199E-01  0.99030182199E-01  0.51100000000E-03 0.  1.
</event>
<event>
 8    1  0.1126407E+005  0.1043930E+01  0.7957747E-01            NaN
         13   -1    0    0    0    0  0.00000000000E+00  0.00000000000E+00  0.74505805969E-08  0.10566000000E+00  0.10566000000E+00 0.  1.
     999900   -1    0    0    0    0 -0.00000000000E+00 -0.00000000000E+00 -0.74505805969E-08  0.93827000000E+00  0.93827000000E+00 0. -1.
     999902    2    1    2    0    0 -0.31829275086E-02 -0.41564625627E-02 -0.22355809454E-01  0.10209693941E+01  0.10207111806E+01 0.  0.
     999903    2    3    3    0    0  0.90168072288E-01 -0.29577402557E-01 -0.91180746473E-01  0.13299557389E+00  0.19203909648E-01 0.  0.
         14    1    1    2    0    0  0.31829275086E-02  0.41564625627E-02  0.22355809454E-01  0.22960605935E-01  0.00000000000E+00 0.  1.
     999901    1    3    3    0    0 -0.93350999797E-01  0.25420939995E-01  0.68824937019E-01  0.88797382017E+00  0.88000000000E+00 0.  1.
        -11    1    4    4    0    0  0.33383917038E-01 -0.25380989200E-02 -0.25775123595E-01  0.42255721272E-01  0.51100000000E-03 0.  1.
         11    1    4    4    0    0  0.56784155250E-01 -0.27039303637E-01 -0.65405622879E-01  0.90739852622E-01  0.51100000000E-03 0. -1.
</event>
<event>
 8    1  0.1126407E+005  0.1043930E+01  0.7957747E-01            NaN
         13   -1    0    0    0    0  0.00000000000E+00  0.00000000000E+00  0.74505805969E-08  0.10566000000E+00  0.10566000000E+00 0.  1.
     999900   -1    0    0    0    0 -0.00000000000E+00 -0.00000000000E+00 -0.74505805969E-08  0.93827000000E+00  0.93827000000E+00 0.  1.
     999902    2    1    2    0    0  0.22952830022E-01  0.57314026336E-02  0.33311087446E-02  0.10200390463E+01  0.10197592257E+01 0.  0.
     999903    2    3    3    0    0 -0.10904218830E+00 -0.44309922998E-01  0.41331670885E-01  0.12797914819E+00  0.28579490007E-01 0.  0.
         14    1    1    2    0    0 -0.22952830022E-01 -0.57314026336E-02 -0.33311087446E-02  0.23890953678E-01  0.00000000000E+00 0.  1.
     999901    1    3    3    0    0  0.13199501832E+00  0.50041325632E-01 -0.38000562140E-01  0.89205989813E+00  0.88000000000E+00 0. -1.
        -11    1    4    4    0    0 -0.26303953535E-01  0.18540156372E-02  0.90751625487E-02  0.27891845436E-01  0.51100000000E-03 0. -1.
         11    1    4    4    0    0 -0.82738234761E-01 -0.46163938635E-01  0.32256508336E-01  0.10008730275E+00  0.51100000000E-03 0.  1.
</event>
<event>
 8    1  0.1126407E+005  0.1043930E+01  0.7957747E-01            NaN
         13   -1    0    0    0    0  0.00000000000E+00  0.00000000000E+00  0.74505805969E-08  0.10566000000E+00  0.10566000000E+00 0.  1.
     999900   -1    0    0    0    0 -0.00000000000E+00 -0.00000000000E+00 -0.74505805969E-08  0.93827000000E+00  0.93827000000E+00 0. -1.
     999902    2    1    2    0    0 -0.11640625445E-01 -0.14612124465E-01 -0.17311379425E-01  0.10184603671E+01  0.10181418453E+01 0.  0.
     999903    2    3    3    0    0 -0.50030538701E-01  0.13795281352E-01 -0.11899742583E+00  0.13131842909E+00  0.19768102454E-01 0.  0.
         14    1    1    2    0    0  0.11640625445E-01  0.14612124465E-01  0.17311379425E-01  0.25469632894E-01  0.00000000000E+00 0.  1.
     999901    1    3    3    0    0  0.38389913257E-01 -0.28407405817E-01  0.10168604641E+00  0.88714193801E+00  0.88000000000E+00 0.  1.
        -11    1    4    4    0    0 -0.41783878874E-01  0.12563377292E-01 -0.77053921802E-01  0.88551109360E-01  0.51100000000E-03 0.  1.
         11    1    4    4    0    0 -0.82466598276E-02  0.12319040599E-02 -0.41943504031E-01  0.42767319735E-01  0.51100000000E-03 0. -1.
</event>
<event>
 8    1  0.1126407E+005  0.1043930E+01  0.7957747E-01            NaN
         13   -1    0    0    0    0  0.00000000000E+00  0.00000000000E+00  0.74505805969E-08  0.10566000000E+00  0.10566000000E+00 0.  1.
     999900   -1    0    0    0    0 -0.00000000000E+00 -0.00000000000E+00 -0.74505805969E-08  0.93827000000E+00  0.93827000000E+00 0.  1.
     999902    2    1    2    0    0 -0.20200618674E-01  0.65408682501E-02 -0.91504019903E-02  0.10208090612E+01  0.10205471874E+01 0.  0.
     999903    2    3    3    0    0  0.11149775247E+00 -0.16863729547E-01 -0.60208338141E-01  0.12923789246E+00  0.19006701066E-01 0.  0.
         14    1    1    2    0    0  0.20200618674E-01 -0.65408682501E-02  0.91504019903E-02  0.23120938754E-01  0.00000000000E+00 0. -1.
     999901    1    3    3    0    0 -0.13169837115E+00  0.23404597797E-01  0.51057936151E-01  0.89157116878E+00  0.88000000000E+00 0. -1.
        -11    1    4    4    0    0  0.85397809011E-01 -0.18957253448E-01 -0.40159423902E-01  0.96255928084E-01  0.51100000000E-03 0. -1.
         11    1    4    4    0    0  0.26099943464E-01  0.20935239010E-02 -0.20048914239E-01  0.32981964379E-01  0.51100000000E-03 0.  1.
</event>
<event>
 8    1  0.1126407E+005  0.1043930E+01  0.7957747E-01            NaN
         13   -1    0    0    0    0  0.00000000000E+00  0.00000000000E+00  0.74505805969E-08  0.10566000000E+00  0.10566000000E+00 0.  1.
     999900   -1    0    0    0    0 -0.00000000000E+00 -0.00000000000E+00 -0.74505805969E-08  0.93827000000E+00  0.93827000000E+00 0. -1.
     999902    2    1    2    0    0 -0.21772374652E-01 -0.88102961817E-02 -0.86456935386E-03  0.10204267003E+01  0.10201559908E+01 0.  0.
     999903    2    3    3    0    0  0.90684433470E-01 -0.97621149540E-03 -0.89099311822E-01  0.12885882495E+00  0.21006902129E-01 0.  0.
         14    1    1    2    0    0  0.21772374652E-01  0.88102961817E-02  0.86456935386E-03  0.23503299703E-01  0.00000000000E+00 0.  1.
     999901    1    3    3    0    0 -0.11245680812E+00 -0.78340846863E-02  0.88234742468E-01  0.89156787535E+00  0.88000000000E+00 0.  1.
        -11    1    4    4    0    0  0.52385696587E-01 -0.75847413256E-02 -0.40628500687E-01  0.66728747156E-01  0.51100000000E-03 0. -1.
         11    1    4    4    0    0  0.38298736883E-01  0.66085298302E-02 -0.48470811135E-01  0.62130077792E-01  0.51100000000E-03 0.  1.
</event>
<event>
 8    1  0.1126407E+005  0.1043930E+01  0.7957747E-01            NaN
         13   -1    0    0    0    0  0.00000000000E+00  0.00000000000E+00  0.74505805969E-08  0.10566000000E+00  0.10566000000E+00 0. -1.
     999900   -1    0    0    0    0 -0.00000000000E+00 -0.00000000000E+00 -0.74505805969E-08  0.93827000000E+00  0.93827000000E+00 0. -1.
     999902    2    1    2    0    0  0.11337744928E-01  0.21579983690E-01  0.32777392858E-02  0.10193335830E+01  0.10190367852E+01 0.  0.
     999903    2    3    3    0    0  0.27407035301E-01 -0.30765585135E-01 -0.12066316431E+00  0.12896308241E+00  0.19344523563E-01 0.  0.
         14    1    1    2    0    0 -0.11337744928E-01 -0.21579983690E-01 -0.32777392858E-02  0.24596417035E-01  0.00000000000E+00 0.  1.
     999901    1    3    3    0    0 -0.16069290373E-01  0.52345568825E-01  0.12394090359E+00  0.89037050055E+00  0.88000000000E+00 0.  1.
        -11    1    4    4    0    0 -0.11073988657E-02  0.16177579312E-02 -0.96062957991E-02  0.98176123855E-02  0.51100000000E-03 0. -1.
         11    1    4    4    0    0  0.28514434167E-01 -0.32383343066E-01 -0.11105686851E+00  0.11914547003E+00  0.51100000000E-03 0.  1.
</event>
<event>
 7    1  0.1126407E+005  0.1043930E+01  0.7957747E-01            NaN
         13   -1    0    0    0    0  0.00000000000E+00  0.00000000000E+00  0.74505805969E-08  0.10566000000E+00  0.10566000000E+00 0. -1.
     999900   -1    0    0    0    0 -0.00000000000E+00 -0.00000000000E+00 -0.74505805969E-08  0.93827000000E+00  0.93827000000E+00 0.  1.
     999903    2    1    2    0    0  0.11492704327E+00 -0.34212565566E-02 -0.53805294149E-02  0.11692171474E+00  0.20537940717E-01 0.  0.
         14    1    1    2    0    0 -0.38688308606E-02  0.38990567462E-01 -0.27435628698E-02  0.39277975260E-01  0.00000000000E+00 0. -1.
     999901    1    1    2    0    0 -0.11105821241E+00 -0.35569310906E-01  0.81240922847E-02  0.88773031000E+00  0.88000000000E+00 0. -1.
        -11    1    3    3    0    0  0.73690430433E-01  0.69843096991E-02 -0.70445734030E-02  0.74356891105E-01  0.51100000000E-03 0.  1.
         11    1    3    3    0    0  0.41236612839E-01 -0.10405566256E-01  0.16640439881E-02  0.42564823633E-01  0.51100000000E-03 0. -1.
</event>
<event>
 8    1  0.1126407E+005  0.1043930E+01  0.7957747E-01            NaN
         13   -1    0    0    0    0  0.00000000000E+00  0.00000000000E+00  0.74505805969E-08  0.10566000000E+00  0.10566000000E+00 0. -1.
     999900   -1    0    0    0    0 -0.00000000000E+00 -0.00000000000E+00 -0.74505805969E-08  0.93827000000E+00  0.93827000000E+00 0. -1.
     999902    2    1    2    0    0 -0.23796285868E-01 -0.23867041020E-02  0.42503546220E-02  0.10196395679E+01  0.10193501966E+01 0.  0.
     999903    2    3    3    0    0  0.80609702957E-01  0.21597451224E-01 -0.94399485587E-01  0.12767115972E+00  0.20598253176E-01 0.  0.
         14    1    1    2    0    0  0.23796285868E-01  0.23867041020E-02 -0.42503546220E-02  0.24290432108E-01  0.00000000000E+00 0.  1.
     999901    1    3    3    0    0 -0.10440598883E+00 -0.23984155326E-01  0.98649840209E-01  0.89196840818E+00  0.88000000000E+00 0.  1.
        -11    1    4    4    0    0  0.73623530689E-01  0.16796986465E-01 -0.74708158036E-01  0.10622679993E+00  0.51100000000E-03 0.  1.
         11    1    4    4    0    0  0.69861722682E-02  0.48004647594E-02 -0.19691327551E-01  0.21444359785E-01  0.51100000000E-03 0. -1.
</event>
<event>
 8    1  0.1126407E+005  0.1043930E+01  0.7957747E-01            NaN
         13   -1    0    0    0    0  0.00000000000E+00  0.00000000000E+00  0.74505805969E-08  0.10566000000E+00  0.10566000000E+00 0. -1.
     999900   -1    0    0    0    0 -0.00000000000E+00 -0.00000000000E+00 -0.74505805969E-08  0.93827000000E+00  0.93827000000E+00 0. -1.
     999902    2    1    2    0    0 -0.11683110019E-01  0.16233452844E-01  0.11516819350E-01  0.10208506330E+01  0.10205897108E+01 0.  0.
     999903    2    3    3    0    0  0.12151911656E+00 -0.40593890717E-02  0.42783498915E-01  0.13004636844E+00  0.17270084941E-01 0.  0.
         14    1    1    2    0    0  0.11683110019E-01 -0.16233452844E-01 -0.11516819350E-01  0.23079366952E-01  0.00000000000E+00 0. -1.
     999901    1    3    3    0    0 -0.13320222658E+00  0.20292841916E-01 -0.31266679565E-01  0.89080426461E+00  0.88000000000E+00 0. -1.
        -11    1    4    4    0    0  0.68790377918E-01  0.27837393731E-02  0.16823040997E-01  0.70874121711E-01  0.51100000000E-03 0. -1.
         11    1    4    4    0    0  0.52728738647E-01 -0.68431284448E-02  0.25960457918E-01  0.59172246725E-01  0.51100000000E-03 0.  1.
</event>
<event>
 8    1  0.1126407E+005  0.1043930E+01  0.7957747E-01            NaN
         13   -1    0    0    0    0  0.00000000000E+00  0.00000000000E+00  0.74505805969E-08  0.10566000000E+00  0.10566000000E+00 0. -1.
     999900   -1    0    0    0    0 -0.00000000000E+00 -0.00000000000E+00 -0.74505805969E-08  0.93827000000E+00  0.93827000000E+00 0. -1.
     999902    2    1    2    0    0  0.83058645938E-02  0.12717926476E-01  0.19094452654E-01  0.10195305909E+01  0.10192385858E+01 0.  0.
     999903    2    3    3    0    0 -0.10235780616E+00  0.13980063217E-01  0.77401271427E-01  0.13068430156E+00  0.20368289245E-01 0.  0.
         14    1    1    2    0    0 -0.83058645938E-02 -0.12717926476E-01 -0.19094452654E-01  0.24399409064E-01  0.00000000000E+00 0.  1.
     999901    1    3    3    0    0  0.11066367076E+00 -0.12621367405E-02 -0.58306818772E-01  0.88884628937E+00  0.88000000000E+00 0. -1.
        -11    1    4    4    0    0 -0.23476552312E-01  0.11496376889E-01  0.23077121346E-01  0.34873053217E-01  0.51100000000E-03 0.  1.
         11    1    4    4    0    0 -0.78881253851E-01  0.24836863272E-02  0.54324150080E-01  0.95811248347E-01  0.51100000000E-03 0. -1.
</event>
<event>
 8    1  0.1126407E+005  0.1043930E+01  0.7957747E-01            NaN
         13   -1    0    0    0    0  0.00000000000E+00  0.00000000000E+00  0.74505805969E-08  0.10566000000E+00  0.10566000000E+00 0. -1.
     999900   -1    0    0    0    0 -0.00000000000E+00 -0.00000000000E+00 -0.74505805969E-08  0.93827000000E+00  0.93827000000E+00 0.  1.
     999902    2    1    2    0    0 -0.34851997699E-02 -0.22121714538E-01 -0.67064906000E-02  0.10205527913E+01  0.10202850121E+01 0.  0.
     999903    2    3    3    0    0 -0.11797968592E-01  0.12371136027E+00 -0.24394466285E-01  0.12833686880E+00  0.20774243345E-01 0.  0.
         14    1    1    2    0    0  0.34851997699E-02  0.22121714538E-01  0.67064906000E-02  0.23377208723E-01  0.00000000000E+00 0. -1.
     999901    1    3    3    0    0  0.83127688223E-02 -0.14583307481E+00  0.17687975685E-01  0.89221592247E+00  0.88000000000E+00 0.  1.
        -11    1    4    4    0    0  0.91588883260E-03  0.53720929978E-01 -0.19013277535E-01  0.56995991207E-01  0.51100000000E-03 0. -1.
         11    1    4    4    0    0 -0.12713857425E-01  0.69990430290E-01 -0.53811887500E-02  0.71340877596E-01  0.51100000000E-03 0.  1.
</event>
<event>
 8    1  0.1126407E+005  0.1043930E+01  0.7957747E-01            NaN
         13   -1    0    0    0    0  0.00000000000E+00  0.00000000000E+00  0.74505805969E-08  0.10566000000E+00  0.10566000000E+00 0.  1.
     999900   -1    0    0    0    0 -0.00000000000E+00 -0.00000000000E+00 -0.74505805969E-08  0.93827000000E+00  0.93827000000E+00 0. -1.
     999902    2    1    2    0    0  0.60555968321E-03 -0.23469860414E-01 -0.40341119855E-02  0.10201082639E+01  0.10198300814E+01 0.  0.
     999903    2    3    3    0    0  0.51834880776E-01 -0.84162574678E-01  0.85313673311E-01  0.13202545492E+00  0.19547481968E-01 0.  0.
         14    1    1    2    0    0 -0.60555968321E-03  0.23469860414E-01  0.40341119855E-02  0.23821736080E-01  0.00000000000E+00 0. -1.
     999901    1    3    3    0    0 -0.51229321093E-01  0.60692714264E-01 -0.89347785297E-01  0.88808280900E+00  0.88000000000E+00 0. -1.
        -11    1    4    4    0    0  0.42609258390E-01 -0.54392300914E-01  0.52604964022E-01  0.86842470370E-01  0.51100000000E-03 0.  1.
         11    1    4    4    0    0  0.92256223865E-02 -0.29770273764E-01  0.32708709289E-01  0.45182984549E-01  0.51100000000E-03 0. -1.
</event>
<event>
 8    1  0.1126407E+005  0.1043930E+01  0.7957747E-01            NaN
         13   -1    0    0    0    0  0.00000000000E+00  0.00000000000E+00  0.74505805969E-08  0.10566000000E+00  0.10566000000E+00 0. -1.
     999900   -1    0    0    0    0 -0.00000000000E+00 -0.00000000000E+00 -0.74505805969E-08  0.93827000000E+00  0.93827000000E+00 0.  1.
     999902    2    1    2    0    0  0.16285601436E-01  0.93014757286E-02 -0.13991512906E-01  0.10205312672E+01  0.10202629889E+01 0.  0.
     999903    2    3    3    0    0  0.95187355372E-01 -0.35782353544E-01 -0.83873766540E-01  0.13309587920E+00  0.18403665373E-01 0.  0.
         14    1    1    2    0    0 -0.16285601436E-01 -0.93014757286E-02  0.13991512906E-01  0.23398732835E-01  0.00000000000E+00 0. -1.
     999901    1    3    3    0    0 -0.78901753936E-01  0.45083829273E-01  0.69882253633E-01  0.88743538796E+00  0.88000000000E+00 0. -1.
        -11    1    4    4    0    0  0.44369697823E-01 -0.18247279175E-01 -0.51288840621E-01  0.70231329016E-01  0.51100000000E-03 0. -1.
         11    1    4    4    0    0  0.50817657550E-01 -0.17535074369E-01 -0.32584925919E-01  0.62864550186E-01  0.51100000000E-03 0.  1.
</event>
<event>
 8    1  0.1126407E+005  0.1043930E+01  0.7957747E-01            NaN
         13   -1    0    0    0    0  0.00000000000E+00  0.00000000000E+00  0.74505805969E-08  0.10566000000E+00  0.10566000000E+00 0. -1.
     999900   -1    0    0    0    0 -0.00000000000E+00 -0.00000000000E+00 -0.74505805969E-08  0.93827000000E+00  0.93827000000E+00 0.  1.
     999902    2    1    2    0    0  0.32852027848E-02  0.26778502817E-02 -0.21995548252E-01  0.10215298308E+01  0.10212842051E+01 0.  0.
     999903    2    3    3    0    0 -0.20018453688E-01 -0.92827609902E-01  0.85623411731E-01  0.12953981182E+00  0.20772350878E-01 0.  0.
         14    1    1    2    0    0 -0.32852027848E-02 -0.26778502817E-02  0.21995548252E-01  0.22400169249E-01  0.00000000000E+00 0. -1.
     999901    1    3    3    0    0  0.23303656472E-01  0.95505460183E-01 -0.10761895998E+00  0.89199001893E+00  0.88000000000E+00 0.  1.
        -11    1    4    4    0    0 -0.15025333636E-01 -0.37182977126E-01  0.25825580362E-01  0.47702789864E-01  0.51100000000E-03 0.  1.
         11    1    4    4    0    0 -0.49931200521E-02 -0.55644632776E-01  0.59797831370E-01  0.81837021953E-01  0.51100000000E-03 0. -1.
</event>
<event>
 8    1  0.1126407E+005  0.1043930E+01  0.7957747E-01            NaN
         13   -1    0    0    0    0  0.00000000000E+00  0.00000000000E+00  0.74505805969E-08  0.10566000000E+00  0.10566000000E+00 0. -1.
     999900   -1    0    0    0    0 -0.00000000000E+00 -0.00000000000E+00 -0.74505805969E-08  0.93827000000E+00  0.93827000000E+00 0.  1.
     999902    2    1    2    0    0 -0.85958286323E-02 -0.19303705688E-01 -0.77080870080E-02  0.10214369804E+01  0.10211892915E+01 0.  0.
     999903    2    3    3    0    0 -0.50283229676E-01 -0.12187626772E+00 -0.16831546525E-01  0.13445208351E+00  0.20293693160E-01 0.  0.
         14    1    1    2    0    0  0.85958286323E-02  0.19303705688E-01  0.77080870080E-02  0.22493019550E-01  0.00000000000E+00 0. -1.
     999901    1    3    3    0    0  0.41687401044E-01  0.10257256203E+00  0.91234595166E-02  0.88698489694E+00  0.88000000000E+00 0. -1.
        -11    1    4    4    0    0 -0.33697983428E-01 -0.10235600311E+00 -0.12858002535E-01  0.10852600983E+00  0.51100000000E-03 0. -1.
         11    1    4    4    0    0 -0.16585246248E-01 -0.19520264605E-01 -0.39735439898E-02  0.25926073675E-01  0.51100000000E-03 0.  1.
</event>
<event>
 8    1  0.1126407E+005  0.1043930E+01  0.7957747E-01            NaN
         13   -1    0    0    0    0  0.00000000000E+00  0.00000000000E+00  0.74505805969E-08  0.10566000000E+00  0.10566000000E+00 0.  1.
     999900   -1    0    0    0    0 -0.00000000000E+00 -0.00000000000E+00 -0.74505805969E-08  0.93827000000E+00  0.93827000000E+00 0.  1.
     999902    2    1    2    0    0 -0.17170003696E-01 -0.15328307493E-01  0.38336139144E-02  0.10205962769E+01  0.10203295045E+01 0.  0.
     999903    2    3    3    0    0  0.23391000431E-01 -0.11880514337E+00 -0.48708155226E-01  0.13205067419E+00  0.20077230247E-01 0.  0.
         14    1    1    2    0    0  0.17170003696E-01  0.15328307493E-01 -0.38336139144E-02  0.23333723088E-01  0.00000000000E+00 0. -1.
     999901    1    3    3    0    0 -0.40561004126E-01  0.10347683588E+00  0.52541769140E-01  0.88854560273E+00  0.88000000000E+00 0.  1.
        -11    1    4    4    0    0  0.51300946734E-02 -0.74220760163E-01 -0.32818294396E-01  0.81316300202E-01  0.51100000000E-03 0. -1.
         11    1    4    4    0    0  0.18260905758E-01 -0.44584383210E-01 -0.15889860830E-01  0.50734373984E-01  0.51100000000E-03 0.  1.
</event>
<event>
 8    1  0.1126407E+005  0.1043930E+01  0.7957747E-01            NaN
         13   -1    0    0    0    0  0.00000000000E+00  0.00000000000E+00  0.74505805969E-08  0.10566000000E+00  0.10566000000E+00 0. -1.
     999900   -1    0    0    0    0 -0.00000000000E+00 -0.00000000000E+00 -0.74505805969E-08  0.93827000000E+00  0.93827000000E+00 0. -1.
     999902    2    1    2    0    0  0.17541501789E-01  0.15518819748E-01 -0.13179327107E-02  0.10204720590E+01  0.10202024055E+01 0.  0.
     999903    2    3    3    0    0 -0.11156880493E+00 -0.16493193644E-01  0.58937548224E-01  0.12843788737E+00  0.17407832982E-01 0.  0.
         14    1    1    2    0    0 -0.17541501789E-01 -0.15518819748E-01  0.13179327107E-02  0.23457941043E-01  0.00000000000E+00 0.  1.
     999901    1    3    3    0    0  0.12911030672E+00  0.32012013392E-01 -0.60255480934E-01  0.89203417159E+00  0.88000000000E+00 0. -1.
        -11    1    4    4    0    0 -0.82089549547E-01 -0.67471857583E-02  0.36313049365E-01  0.90017316866E-01  0.51100000000E-03 0.  1.
         11    1    4    4    0    0 -0.29479255387E-01 -0.97460078858E-02  0.22624498859E-01  0.38420570500E-01  0.51100000000E-03 0. -1.
</event>
<event>
 8    1  0.1126407E+005  0.1043930E+01  0.7957747E-01            NaN
         13   -1    0    0    0    0  0.00000000000E+00  0.00000000000E+00  0.74505805969E-08  0.10566000000E+00  0.10566000000E+00 0. -1.
     999900   -1    0    0    0    0 -0.00000000000E+00 -0.00000000000E+00 -0.74505805969E-08  0.93827000000E+00  0.93827000000E+00 0.  1.
     999902    2    1    2    0    0 -0.46696177639E-02  0.22112460167E-01 -0.77652975707E-02  0.10200330113E+01  0.10197530475E+01 0.  0.
     999903    2    3    3    0    0  0.70221832208E-01  0.20586431184E-01  0.10512415918E+00  0.12966506064E+00  0.20175040013E-01 0.  0.
         14    1    1    2    0    0  0.46696177639E-02 -0.22112460167E-01  0.77652975707E-02  0.23896988745E-01  0.00000000000E+00 0. -1.
     999901    1    3    3    0    0 -0.74891449972E-01  0.15260289831E-02 -0.11288945675E+00  0.89036795062E+00  0.88000000000E+00 0.  1.
        -11    1    4    4    0    0  0.36553749510E-01  0.15029803464E-01  0.40548536939E-01  0.56626112036E-01  0.51100000000E-03 0. -1.
         11    1    4    4    0    0  0.33668082698E-01  0.55566277198E-02  0.64575622238E-01  0.73038948600E-01  0.51100000000E-03 0.  1.
</event>
<event>
 8    1  0.1126407E+005  0.1043930E+01  0.7957747E-01            NaN
         13   -1    0    0    0    0  0.00000000000E+00  0.00000000000E+00  0.74505805969E-08  0.10566000000E+00  0.10566000000E+00 0.  1.
     999900   -1    0    0    0    0 -0.00000000000E+00 -0.00000000000E+00 -0.74505805969E-08  0.93827000000E+00  0.93827000000E+00 0. -1.
     999902    2    1    2    0    0  0.17580114811E-01  0.11564034500E-01 -0.12318590460E-01  0.10195469116E+01  0.10192553016E+01 0.  0.
     999903    2    3    3    0    0 -0.10543191182E+00  0.35588275534E-01  0.59607921025E-01  0.12776075676E+00  0.19679769636E-01 0.  0.
         14    1    1    2    0    0 -0.17580114811E-01 -0.11564034500E-01  0.12318590460E-01  0.24383088435E-01  0.00000000000E+00 0.  1.
     999901    1    3    3    0    0  0.12301202663E+00 -0.24024241034E-01 -0.71926511485E-01  0.89178615481E+00  0.88000000000E+00 0. -1.
        -11    1    4    4    0    0 -0.50066681283E-01  0.16698370444E-01  0.39411620535E-01  0.65871428589E-01  0.51100000000E-03 0. -1.
         11    1    4    4    0    0 -0.55365230536E-01  0.18889905089E-01  0.20196300491E-01  0.61889328168E-01  0.51100000000E-03 0.  1.
</event>
<event>
 8    1  0.1126407E+005  0.1043930E+01  0.7957747E-01            NaN
         13   -1    0    0    0    0  0.00000000000E+00  0.00000000000E+00  0.74505805969E-08  0.10566000000E+00  0.10566000000E+00 0. -1.
     999900   -1    0    0    0    0 -0.00000000000E+00 -0.00000000000E+00 -0.74505805969E-08  0.93827000000E+00  0.93827000000E+00 0. -1.
     999902    2    1    2    0    0 -0.20589632982E-01 -0.83116730726E-02 -0.67097870500E-02  0.10207343509E+01  0.10204707624E+01 0.  0.
     999903    2    3    3    0    0 -0.83818563096E-01  0.15094699803E-01  0.98188754266E-01  0.13194334066E+00  0.22685065514E-01 0.  0.
         14    1    1    2    0    0  0.20589632982E-01  0.83116730726E-02  0.67097870500E-02  0.23195649115E-01  0.00000000000E+00 0. -1.
     999901    1    3    3    0    0  0.63228930114E-01 -0.23406372876E-01 -0.10489854132E+00  0.88879101023E+00  0.88000000000E+00 0.  1.
        -11    1    4    4    0    0 -0.36433703028E-01  0.90322555013E-02  0.27126912804E-01  0.46315514410E-01  0.51100000000E-03 0. -1.
         11    1    4    4    0    0 -0.47384860069E-01  0.60624443021E-02  0.71061841462E-01  0.85627826246E-01  0.51100000000E-03 0.  1.
</event>
<event>
 8    1  0.1126407E+005  0.1043930E+01  0.7957747E-01            NaN
         13   -1    0    0    0    0  0.00000000000E+00  0.00000000000E+00  0.74505805969E-08  0.10566000000E+00  0.10566000000E+00 0.  1.
     999900   -1    0    0    0    0 -0.00000000000E+00 -0.00000000000E+00 -0.74505805969E-08  0.93827000000E+00  0.93827000000E+00 0. -1.
     999902    2    1    2    0    0  0.49367608139E-02 -0.20483955111E-01  0.10720351833E-01  0.10202891462E+01  0.10200152214E+01 0.  0.
     999903    2    3    3    0    0  0.27739007990E-01 -0.10943193958E+00 -0.63706218458E-01  0.13238656103E+00  0.26887121540E-01 0.  0.
         14    1    1    2    0    0 -0.49367608139E-02  0.20483955111E-01 -0.10720351833E-01  0.23640853787E-01  0.00000000000E+00 0. -1.
     999901    1    3    3    0    0 -0.22802247176E-01  0.88947984471E-01  0.74426570292E-01  0.88790258519E+00  0.88000000000E+00 0.  1.
        -11    1    4    4    0    0  0.19764303798E-01 -0.63968048138E-01 -0.51971491121E-01  0.84757512337E-01  0.51100000000E-03 0. -1.
         11    1    4    4    0    0  0.79747041919E-02 -0.45463891445E-01 -0.11734727337E-01  0.47629048688E-01  0.51100000000E-03 0.  1.
</event>
<event>
 8    1  0.1126407E+005  0.1043930E+01  0.7957747E-01            NaN
         13   -1    0    0    0    0  0.00000000000E+00  0.00000000000E+00  0.74505805969E-08  0.10566000000E+00  0.10566000000E+00 0. -1.
     999900   -1    0    0    0    0 -0.00000000000E+00 -0.00000000000E+00 -0.74505805969E-08  0.93827000000E+00  0.93827000000E+00 0.  1.
     999902    2    1    2    0    0  0.19301249854E-01  0.13488981894E-01  0.59846806270E-02  0.10196337599E+01  0.10193442486E+01 0.  0.
     999903    2    3    3    0    0 -0.98123667427E-01  0.33006857957E-01  0.74136982490E-01  0.12900797156E+00  0.20713709778E-01 0.  0.
         14    1    1    2    0    0 -0.19301249854E-01 -0.13488981894E-01 -0.59846806270E-02  0.24296240053E-01  0.00000000000E+00 0. -1.
     999901    1    3    3    0    0  0.11742491728E+00 -0.19517876063E-01 -0.68152301863E-01  0.89062578838E+00  0.88000000000E+00 0.  1.
        -11    1    4    4    0    0 -0.78812622870E-01  0.34444462003E-01  0.63460311570E-01  0.10688930139E+00  0.51100000000E-03 0. -1.
         11    1    4    4    0    0 -0.19311044557E-01 -0.14376040455E-02  0.10676670920E-01  0.22118670173E-01  0.51100000000E-03 0.  1.
</event>
<event>
 8    1  0.1126407E+005  0.1043930E+01  0.7957747E-01            NaN
         13   -1    0    0    0    0  0.00000000000E+00  0.00000000000E+00  0.74505805969E-08  0.10566000000E+00  0.10566000000E+00 0.  1.
     999900   -1    0    0    0    0 -0.00000000000E+00 -0.00000000000E+00 -0.74505805969E-08  0.93827000000E+00  0.93827000000E+00 0.  1.
     999902    2    1    2    0    0 -0.12136851360E-01 -0.67794634794E-02  0.18999156892E-01  0.10203878623E+01  0.10201162469E+01 0.  0.
     999903    2    3    3    0    0  0.12295883284E+00 -0.15312101680E-01 -0.28760591291E-01  0.12875753341E+00  0.19949831280E-01 0.  0.
         14    1    1    2    0    0  0.12136851360E-01  0.67794634794E-02 -0.18999156892E-01  0.23542137723E-01  0.00000000000E+00 0. -1.
     999901    1    3    3    0    0 -0.13509568420E+00  0.85326382002E-02  0.47759748182E-01  0.89163032886E+00  0.88000000000E+00 0. -1.
        -11    1    4    4    0    0  0.83590939537E-01 -0.79823265707E-02 -0.10107549818E-01  0.84578876763E-01  0.51100000000E-03 0. -1.
         11    1    4    4    0    0  0.39367893302E-01 -0.73297751089E-02 -0.18653041472E-01  0.44178656649E-01  0.51100000000E-03 0.  1.
</event>
<event>
 8    1  0.1126407E+005  0.1043930E+01  0.7957747E-01            NaN
         13   -1    0    0    0    0  0.00000000000E+00  0.00000000000E+00  0.74505805969E-08  0.10566000000E+00  0.10566000000E+00 0. -1.
     999900   -1    0    0    0    0 -0.00000000000E+00 -0.00000000000E+00 -0.74505805969E-08  0.93827000000E+00  0.93827000000E+00 0.  1.
     999902    2    1    2    0    0 -0.11040059408E-01  0.18771824677E-01 -0.91964867920E-02  0.10202902098E+01  0.10200163099E+01 0.  0.
     999903    2    3    3    0    0  0.94889026501E-01 -0.39578219501E-01  0.73544780701E-01  0.12817372844E+00  0.21196864949E-01 0.  0.
         14    1    1    2    0    0  0.11040059408E-01 -0.18771824677E-01  0.91964867920E-02  0.23639790243E-01  0.00000000000E+00 0. -1.
     999901    1    3    3    0    0 -0.10592908591E+00  0.58350044178E-01 -0.82741267493E-01  0.89211648132E+00  0.88000000000E+00 0. -1.
        -11    1    4    4    0    0  0.37610100670E-01 -0.14813439002E-01  0.41830016002E-01  0.58171891900E-01  0.51100000000E-03 0.  1.
         11    1    4    4    0    0  0.57278925831E-01 -0.24764780500E-01  0.31714764699E-01  0.70001836537E-01  0.51100000000E-03 0. -1.
</event>
<event>
 8    1  0.1126407E+005  0.1043930E+01  0.7957747E-01            NaN
         13   -1    0    0    0    0  0.00000000000E+00  0.00000000000E+00  0.74505805969E-08  0.10566000000E+00  0.10566000000E+00 0.  1.
     999900   -1    0    0    0    0 -0.00000000000E+00 -0.00000000000E+00 -0.74505805969E-08  0.93827000000E+00  0.93827000000E+00 0.  1.
     999902    2    1    2    0    0 -0.19193801166E-01 -0.59096184538E-02  0.12508430122E-01  0.10202701941E+01  0.10199958247E+01 0.  0.
     999903    2    3    3    0    0 -0.74404185566E-01  0.34022272350E-02 -0.10525404057E+00  0.13066191142E+00  0.21132062391E-01 0.  0.
         14    1    1    2    0    0  0.19193801166E-01  0.59096184538E-02 -0.12508430122E-01  0.23659805950E-01  0.00000000000E+00 0. -1.
     999901    1    3    3    0    0  0.55210384400E-01 -0.93118456888E-02  0.11776247069E+00  0.88960828263E+00  0.88000000000E+00 0. -1.
        -11    1    4    4    0    0 -0.13191967265E-01 -0.63882456907E-02 -0.28016030244E-01  0.31622725293E-01  0.51100000000E-03 0. -1.
         11    1    4    4    0    0 -0.61212218301E-01  0.97904729257E-02 -0.77238010324E-01  0.99039186130E-01  0.51100000000E-03 0.  1.
</event>
<event>
 8    1  0.1126407E+005  0.1043930E+01  0.7957747E-01            NaN
         13   -1    0    0    0    0  0.00000000000E+00  0.00000000000E+00  0.74505805969E-08  0.10566000000E+00  0.10566000000E+00 0.  1.
     999900   -1    0    0    0    0 -0.00000000000E+00 -0.00000000000E+00 -0.74505805969E-08  0.93827000000E+00  0.93827000000E+00 0.  1.
     999902    2    1    2    0    0 -0.23537455209E-01  0.36860077053E-03  0.59734562317E-02  0.10196435873E+01  0.10193543129E+01 0.  0.
     999903    2    3    3    0    0  0.10054801879E+00  0.76080676283E-01  0.46590881342E-02  0.12771800135E+00  0.19799176290E-01 0.  0.
         14    1    1    2    0    0  0.23537455209E-01 -0.36860077053E-03 -0.59734562317E-02  0.24286412737E-01  0.00000000000E+00 0.  1.
     999901    1    3    3    0    0 -0.12408547400E+00 -0.75712075513E-01  0.13143680974E-02  0.89192558591E+00  0.88000000000E+00 0. -1.
        -11    1    4    4    0    0  0.28904208908E-01  0.15143844823E-01  0.80075515244E-02  0.33603144660E-01  0.51100000000E-03 0.  1.
         11    1    4    4    0    0  0.71643809880E-01  0.60936831460E-01 -0.33484633901E-02  0.94114856694E-01  0.51100000000E-03 0. -1.
</event>
<event>
 8    1  0.1126407E+005  0.1043930E+01  0.7957747E-01            NaN
         13   -1    0    0    0    0  0.00000000000E+00  0.00000000000E+00  0.74505805969E-08  0.10566000000E+00  0.10566000000E+00 0. -1.
     999900   -1    0    0    0    0 -0.00000000000E+00 -0.00000000000E+00 -0.74505805969E-08  0.93827000000E+00  0.93827000000E+00 0.  1.
     999902    2    1    2    0    0 -0.53162875748E-04 -0.83827072838E-02 -0.11953698390E-01  0.10293298797E+01  0.10292263297E+01 0.  0.
     999903    2    3    3    0    0  0.97201995042E-01 -0.56054860631E-01 -0.81245966682E-01  0.13998595388E+00  0.20119267877E-01 0.  0.
         14    1    1    2    0    0  0.53162875748E-04  0.83827072838E-02  0.11953698390E-01  0.14600120304E-01  0.00000000000E+00 0. -1.
     999901    1    3    3    0    0 -0.97255157918E-01  0.47672153348E-01  0.69292268292E-01  0.88934392582E+00  0.88000000000E+00 0.  1.
        -11    1    4    4    0    0  0.57706162275E-01 -0.26429013120E-01 -0.55432686090E-01  0.84270621851E-01  0.51100000000E-03 0.  1.
         11    1    4    4    0    0  0.39495832767E-01 -0.29625847511E-01 -0.25813280593E-01  0.55715332025E-01  0.51100000000E-03 0. -1.
</event>
<event>
 8    1  0.1126407E+005  0.1043930E+01  0.7957747E-01            NaN
         13   -1    0    0    0    0  0.00000000000E+00  0.00000000000E+00  0.74505805969E-08  0.10566000000E+00  0.10566000000E+00 0.  1.
     999900   -1    0    0    0    0 -0.00000000000E+00 -0.00000000000E+00 -0.74505805969E-08  0.93827000000E+00  0.93827000000E+00 0.  1.
     999902    2    1    2    0    0  0.18005832961E-01  0.15141167470E-01  0.12421858141E-01  0.10173260993E+01  0.10169781830E+01 0.  0.
     999903    2    3    3    0    0  0.29310277891E-02 -0.91238152952E-01  0.87244093613E-01  0.12763953849E+00  0.18636749630E-01 0.  0.
         14    1    1    2    0    0 -0.18005832961E-01 -0.15141167470E-01 -0.12421858141E-01  0.26603900704E-01  0.00000000000E+00 0. -1.
     999901    1    3    3    0    0  0.15074805172E-01  0.10637932042E+00 -0.74822235472E-01  0.88968656081E+00  0.88000000000E+00 0.  1.
        -11    1    4    4    0    0  0.25418037035E-02 -0.47187639569E-01  0.32430532836E-01  0.57316094382E-01  0.51100000000E-03 0.  1.
         11    1    4    4    0    0  0.38922408564E-03 -0.44050513382E-01  0.54813560778E-01  0.70323444105E-01  0.51100000000E-03 0. -1.
</event>
<event>
 8    1  0.1126407E+005  0.1043930E+01  0.7957747E-01            NaN
         13   -1    0    0    0    0  0.00000000000E+00  0.00000000000E+00  0.74505805969E-08  0.10566000000E+00  0.10566000000E+00 0. -1.
     999900   -1    0    0    0    0 -0.00000000000E+00 -0.00000000000E+00 -0.74505805969E-08  0.93827000000E+00  0.93827000000E+00 0.  1.
     999902    2    1    2    0    0 -0.18154986764E-03 -0.65095564279E-03  0.23384434366E-01  0.10205358026E+01  0.10202676295E+01 0.  0.
     999903    2    3    3    0    0 -0.89217531516E-02 -0.94638860229E-01 -0.84770845982E-01  0.12890376969E+00  0.19848777456E-01 0.  0.
         14    1    1    2    0    0  0.18154986764E-03  0.65095564279E-03 -0.23384434366E-01  0.23394197448E-01  0.00000000000E+00 0.  1.
     999901    1    3    3    0    0  0.87402032839E-02  0.93987904586E-01  0.10815528035E+00  0.89163203286E+00  0.88000000000E+00 0.  1.
        -11    1    4    4    0    0 -0.11214594027E-01 -0.70551242342E-01 -0.52937204800E-01  0.88914867644E-01  0.51100000000E-03 0. -1.
         11    1    4    4    0    0  0.22928408751E-02 -0.24087617887E-01 -0.31833641182E-01  0.39988902044E-01  0.51100000000E-03 0.  1.
</event>
<event>
 8    1  0.1126407E+005  0.1043930E+01  0.7957747E-01            NaN
         13   -1    0    0    0    0  0.00000000000E+00  0.00000000000E+00  0.74505805969E-08  0.10566000000E+00  0.10566000000E+00 0. -1.
     999900   -1    0    0    0    0 -0.00000000000E+00 -0.00000000000E+00 -0.74505805969E-08  0.93827000000E+00  0.93827000000E+00 0. -1.
     999902    2    1    2    0    0 -0.14346344391E-01 -0.87228219586E-02 -0.20100777251E-01  0.10177394203E+01  0.10174023693E+01 0.  0.
     999903    2    3    3    0    0 -0.66841328016E-01  0.10572039229E+00 -0.23102852960E-01  0.12877261265E+00  0.20101728203E-01 0.  0.
         14    1    1    2    0    0  0.14346344391E-01  0.87228219586E-02  0.20100777251E-01  0.26190579726E-01  0.00000000000E+00 0.  1.
     999901    1    3    3    0    0  0.52494983625E-01 -0.11444321425E+00  0.30020757090E-02  0.88896680762E+00  0.88000000000E+00 0.  1.
        -11    1    4    4    0    0 -0.18111395919E-01  0.41931144114E-01 -0.17714558192E-02  0.45712609699E-01  0.51100000000E-03 0. -1.
         11    1    4    4    0    0 -0.48729932097E-01  0.63789248180E-01 -0.21331397141E-01  0.83060002953E-01  0.51100000000E-03 0.  1.
</event>
<event>
 8    1  0.1126407E+005  0.1043930E+01  0.7957747E-01            NaN
         13   -1    0    0    0    0  0.00000000000E+00  0.00000000000E+00  0.74505805969E-08  0.10566000000E+00  0.10566000000E+00 0. -1.
     999900   -1    0    0    0    0 -0.00000000000E+00 -0.00000000000E+00 -0.74505805969E-08  0.93827000000E+00  0.93827000000E+00 0. -1.
     999902    2    1    2    0    0 -0.21895156153E-01 -0.16043593229E-01 -0.92814841148E-02  0.10152430571E+01  0.10148376837E+01 0.  0.
     999903    2    3    3    0    0  0.68060160871E-01 -0.60013623513E-01  0.83391089739E-01  0.12472998667E+00  0.19226940019E-01 0.  0.
         14    1    1    2    0    0  0.21895156153E-01  0.16043593229E-01  0.92814841148E-02  0.28686942919E-01  0.00000000000E+00 0. -1.
     999901    1    3    3    0    0 -0.89955317024E-01  0.43970030284E-01 -0.92672573854E-01  0.89051307041E+00  0.88000000000E+00 0. -1.
        -11    1    4    4    0    0  0.54865234429E-01 -0.37247702557E-01  0.62518761983E-01  0.91139684088E-01  0.51100000000E-03 0.  1.
         11    1    4    4    0    0  0.13194926442E-01 -0.22765920956E-01  0.20872327757E-01  0.33590302585E-01  0.51100000000E-03 0. -1.
</event>
<event>
 8    1  0.1126407E+005  0.1043930E+01  0.7957747E-01            NaN
         13   -1    0    0    0    0  0.00000000000E+00  0.00000000000E+00  0.74505805969E-08  0.10566000000E+00  0.10566000000E+00 0. -1.
     999900   -1    0    0    0    0 -0.00000000000E+00 -0.00000000000E+00 -0.74505805969E-08  0.93827000000E+00  0.93827000000E+00 0. -1.
     999902    2    1    2    0    0 -0.19503082251E-01 -0.74026924201E-02 -0.79428791645E-02  0.10216082751E+01  0.10213643857E+01 0.  0.
     999903    2    3    3    0    0 -0.39543309452E-01 -0.50466826613E-01 -0.11565731013E+00  0.13376902784E+00  0.20173386242E-01 0.  0.
         14    1    1    2    0    0  0.19503082251E-01  0.74026924201E-02  0.79428791645E-02  0.22321724884E-01  0.00000000000E+00 0.  1.
     999901    1    3    3    0    0  0.20040227201E-01  0.43064134192E-01  0.10771443097E+00  0.88783924727E+00  0.88000000000E+00 0.  1.
        -11    1    4    4    0    0 -0.38469750375E-01 -0.36483700570E-01 -0.87561768925E-01  0.10236359997E+00  0.51100000000E-03 0.  1.
         11    1    4    4    0    0 -0.10735590774E-02 -0.13983126043E-01 -0.28095541207E-01  0.31405427870E-01  0.51100000000E-03 0. -1.
</event>
<event>
 8    1  0.1126407E+005  0.1043930E+01  0.7957747E-01            NaN
         13   -1    0    0    0    0  0.00000000000E+00  0.00000000000E+00  0.74505805969E-08  0.10566000000E+00  0.10566000000E+00 0.  1.
     999900   -1    0    0    0    0 -0.00000000000E+00 -0.00000000000E+00 -0.74505805969E-08  0.93827000000E+00  0.93827000000E+00 0. -1.
     999902    2    1    2    0    0  0.19243992054E-01 -0.12214334878E-01 -0.33453444888E-02  0.10208928010E+01  0.10206328422E+01 0.  0.
     999903    2    3    3    0    0  0.14321045588E-01 -0.10946203123E+00  0.70567055606E-01  0.13244224375E+00  0.19344507304E-01 0.  0.
         14    1    1    2    0    0 -0.19243992054E-01  0.12214334878E-01  0.33453444888E-02  0.23037198972E-01  0.00000000000E+00 0. -1.
     999901    1    3    3    0    0  0.49229464668E-02  0.97247696356E-01 -0.73912400095E-01  0.88845055728E+00  0.88000000000E+00 0. -1.
        -11    1    4    4    0    0  0.18324067634E-01 -0.93589833967E-01  0.56466576512E-01  0.11083124045E+00  0.51100000000E-03 0.  1.
         11    1    4    4    0    0 -0.40030220459E-02 -0.15872197268E-01  0.14100479094E-01  0.21611003292E-01  0.51100000000E-03 0. -1.
</event>
<event>
 8    1  0.1126407E+005  0.1043930E+01  0.7957747E-01            NaN
         13   -1    0    0    0    0  0.00000000000E+00  0.00000000000E+00  0.74505805969E-08  0.10566000000E+00  0.10566000000E+00 0. -1.
     999900   -1    0    0    0    0 -0.00000000000E+00 -0.00000000000E+00 -0.74505805969E-08  0.93827000000E+00  0.93827000000E+00 0. -1.
     999902    2    1    2    0    0 -0.18186943184E-01  0.14529049836E-01 -0.25796442743E-02  0.10205096508E+01  0.10202408709E+01 0.  0.
     999903    2    3    3    0    0 -0.73554039141E-01 -0.84633428432E-01 -0.65107359262E-01  0.13101067524E+00  0.18756729813E-01 0.  0.
         14    1    1    2    0    0  0.18186943184E-01 -0.14529049836E-01  0.25796442743E-02  0.23420349188E-01  0.00000000000E+00 0.  1.
     999901    1    3    3    0    0  0.55367095957E-01  0.99162478268E-01  0.62527714988E-01  0.88949897558E+00  0.88000000000E+00 0. -1.
        -11    1    4    4    0    0 -0.27532698078E-01 -0.45830093534E-01 -0.29354820605E-01  0.60995192847E-01  0.51100000000E-03 0. -1.
         11    1    4    4    0    0 -0.46021341064E-01 -0.38803334898E-01 -0.35752538657E-01  0.70015482388E-01  0.51100000000E-03 0.  1.
</event>
<event>
 8    1  0.1126407E+005  0.1043930E+01  0.7957747E-01            NaN
         13   -1    0    0    0    0  0.00000000000E+00  0.00000000000E+00  0.74505805969E-08  0.10566000000E+00  0.10566000000E+00 0.  1.
     999900   -1    0    0    0    0 -0.00000000000E+00 -0.00000000000E+00 -0.74505805969E-08  0.93827000000E+00  0.93827000000E+00 0. -1.
     999902    2    1    2    0    0 -0.27894976177E-02  0.49482439512E-02 -0.23645287048E-01  0.10196119817E+01  0.10193219448E+01 0.  0.
     999903    2    3    3    0    0  0.90927962487E-01 -0.83587564352E-01 -0.36473737515E-01  0.13012554513E+00  0.18642657807E-01 0.  0.
         14    1    1    2    0    0  0.27894976177E-02 -0.49482439512E-02  0.23645287048E-01  0.24318018314E-01  0.00000000000E+00 0.  1.
     999901    1    3    3    0    0 -0.93717460105E-01  0.88535808303E-01  0.12828450467E-01  0.88948643656E+00  0.88000000000E+00 0.  1.
        -11    1    4    4    0    0  0.46033069679E-01 -0.31182698622E-01 -0.11813712149E-01  0.56843901284E-01  0.51100000000E-03 0.  1.
         11    1    4    4    0    0  0.44894892809E-01 -0.52404865729E-01 -0.24660025366E-01  0.73281643844E-01  0.51100000000E-03 0. -1.
</event>
<event>
 8    1  0.1126407E+005  0.1043930E+01  0.7957747E-01            NaN
         13   -1    0    0    0    0  0.00000000000E+00  0.00000000000E+00  0.74505805969E-08  0.10566000000E+00  0.10566000000E+00 0.  1.
     999900   -1    0    0    0    0 -0.00000000000E+00 -0.00000000000E+00 -0.74505805969E-08  0.93827000000E+00  0.93827000000E+00 0. -1.
     999902    2    1    2    0    0  0.27352215233E-02  0.22729455891E-01  0.57501431432E-02  0.10203254719E+01  0.10200523981E+01 0.  0.
     999903    2    3    3    0    0 -0.10485123847E+00  0.66638276166E-02 -0.73541141227E-01  0.13008951520E+00  0.21835606301E-01 0.  0.
         14    1    1    2    0    0 -0.27352215233E-02 -0.22729455891E-01 -0.57501431432E-02  0.23604528126E-01  0.00000000000E+00 0.  1.
     999901    1    3    3    0    0  0.10758646000E+00  0.16065628274E-01  0.79291284370E-01  0.89023595668E+00  0.88000000000E+00 0.  1.
        -11    1    4    4    0    0 -0.43840772774E-01  0.12678647635E-01 -0.36681505606E-01  0.58553867830E-01  0.51100000000E-03 0.  1.
         11    1    4    4    0    0 -0.61010465701E-01 -0.60148200187E-02 -0.36859635621E-01  0.71535647366E-01  0.51100000000E-03 0. -1.
</event>
<event>
 8    1  0.1126407E+005  0.1043930E+01  0.7957747E-01            NaN
         13   -1    0    0    0    0  0.00000000000E+00  0.00000000000E+00  0.74505805969E-08  0.10566000000E+00  0.10566000000E+00 0.  1.
     999900   -1    0    0    0    0 -0.00000000000E+00 -0.00000000000E+00 -0.74505805969E-08  0.93827000000E+00  0.93827000000E+00 0. -1.
     999902    2    1    2    0    0  0.32050472566E-02 -0.79480067741E-02 -0.19971565329E-01  0.10221973848E+01  0.10219663336E+01 0.  0.
     999903    2    3    3    0    0 -0.68925073151E-03  0.91986205558E-01 -0.94509446638E-01  0.13340162198E+00  0.20050440457E-01 0.  0.
         14    1    1    2    0    0 -0.32050472566E-02  0.79480067741E-02  0.19971565329E-01  0.21732615150E-01  0.00000000000E+00 0.  1.
     999901    1    3    3    0    0  0.38942979881E-02 -0.99934212332E-01  0.74537881310E-01  0.88879576287E+00  0.88000000000E+00 0.  1.
        -11    1    4    4    0    0 -0.78827836600E-02  0.25734759041E-01 -0.20704758976E-01  0.33961217092E-01  0.51100000000E-03 0. -1.
         11    1    4    4    0    0  0.71935329285E-02  0.66251446517E-01 -0.73804687662E-01  0.99440404884E-01  0.51100000000E-03 0.  1.
</event>
<event>
 8    1  0.1126407E+005  0.1043930E+01  0.7957747E-01            NaN
         13   -1    0    0    0    0  0.00000000000E+00  0.00000000000E+00  0.74505805969E-08  0.10566000000E+00  0.10566000000E+00 0. -1.
     999900   -1    0    0    0    0 -0.00000000000E+00 -0.00000000000E+00 -0.74505805969E-08  0.93827000000E+00  0.93827000000E+00 0.  1.
     999902    2    1    2    0    0 -0.90242660838E-02 -0.44244370686E-02  0.20603184084E-01  0.10210061213E+01  0.10207487426E+01 0.  0.
     999903    2    3    3    0    0  0.83514542523E-01 -0.84359908365E-01  0.54683071498E-01  0.13189727000E+00  0.17758901258E-01 0.  0.
         14    1    1    2    0    0  0.90242660838E-02  0.44244370686E-02 -0.20603184084E-01  0.22923878732E-01  0.00000000000E+00 0.  1.
     999901    1    3    3    0    0 -0.92538808607E-01  0.79935471297E-01 -0.34079887414E-01  0.88910885126E+00  0.88000000000E+00 0.  1.
        -11    1    4    4    0    0  0.48032864076E-01 -0.55592685938E-01  0.41361669407E-01  0.84313412802E-01  0.51100000000E-03 0.  1.
         11    1    4    4    0    0  0.35481678447E-01 -0.28767222427E-01  0.13321402091E-01  0.47583857203E-01  0.51100000000E-03 0. -1.
</event>
<event>
 8    1  0.1126407E+005  0.1043930E+01  0.7957747E-01            NaN
         13   -1    0    0    0    0  0.00000000000E+00  0.00000000000E+00  0.74505805969E-08  0.10566000000E+00  0.10566000000E+00 0. -1.
     999900   -1    0    0    0    0 -0.00000000000E+00 -0.00000000000E+00 -0.74505805969E-08  0.93827000000E+00  0.93827000000E+00 0. -1.
     999902    2    1    2    0    0 -0.50194974887E-02 -0.22839174408E-01  0.28844667349E-02  0.10203685189E+01  0.10200964518E+01 0.  0.
     999903    2    3    3    0    0 -0.10323143614E+00 -0.79754898100E-01 -0.14731470083E-01  0.13290285438E+00  0.20702157186E-01 0.  0.
         14    1    1    2    0    0  0.50194974887E-02  0.22839174408E-01 -0.28844667349E-02  0.23561481087E-01  0.00000000000E+00 0. -1.
     999901    1    3    3    0    0  0.98211938654E-01  0.56915723692E-01  0.17615936818E-01  0.88746566453E+00  0.88000000000E+00 0. -1.
        -11    1    4    4    0    0 -0.59885307993E-01 -0.48076278272E-01  0.15010310896E-02  0.76812061952E-01  0.51100000000E-03 0.  1.
         11    1    4    4    0    0 -0.43346128150E-01 -0.31678619828E-01 -0.16232501173E-01  0.56090792427E-01  0.51100000000E-03 0. -1.
</event>
<event>
 8    1  0.1126407E+005  0.1043930E+01  0.7957747E-01            NaN
         13   -1    0    0    0    0  0.00000000000E+00  0.00000000000E+00  0.74505805969E-08  0.10566000000E+00  0.10566000000E+00 0.  1.
     999900   -1    0    0    0    0 -0.00000000000E+00 -0.00000000000E+00 -0.74505805969E-08  0.93827000000E+00  0.93827000000E+00 0.  1.
     999902    2    1    2    0    0 -0.17987284308E-01  0.14915419919E-01  0.32868417915E-02  0.10203330621E+01  0.10200601660E+01 0.  0.
     999903    2    3    3    0    0  0.60932790404E-01  0.31192966190E-01 -0.10742025114E+00  0.12974370831E+00  0.24668064481E-01 0.  0.
         14    1    1    2    0    0  0.17987284308E-01 -0.14915419919E-01 -0.32868417915E-02  0.23596937875E-01  0.00000000000E+00 0. -1.
     999901    1    3    3    0    0 -0.78920074712E-01 -0.16277546271E-01  0.11070709293E+00  0.89058935382E+00  0.88000000000E+00 0. -1.
        -11    1    4    4    0    0  0.11373533781E-01 -0.18439640838E-02 -0.29432860038E-01  0.31611894047E-01  0.51100000000E-03 0. -1.
         11    1    4    4    0    0  0.49559256623E-01  0.33036930273E-01 -0.77987391099E-01  0.98131814262E-01  0.51100000000E-03 0.  1.
</event>
<event>
 8    1  0.1126407E+005  0.1043930E+01  0.7957747E-01            NaN
         13   -1    0    0    0    0  0.00000000000E+00  0.00000000000E+00  0.74505805969E-08  0.10566000000E+00  0.10566000000E+00 0. -1.
     999900   -1    0    0    0    0 -0.00000000000E+00 -0.00000000000E+00 -0.74505805969E-08  0.93827000000E+00  0.93827000000E+00 0.  1.
     999902    2    1    2    0    0 -0.53493602120E-02 -0.11598662996E-01 -0.13572314051E-01  0.10252926089E+01  0.10251232031E+01 0.  0.
     999903    2    3    3    0    0  0.12316246868E+00 -0.34920084282E-01  0.35666132490E-01  0.13429114793E+00  0.19329599799E-01 0.  0.
         14    1    1    2    0    0  0.53493602120E-02  0.11598662996E-01  0.13572314051E-01  0.18637391090E-01  0.00000000000E+00 0. -1.
     999901    1    3    3    0    0 -0.12851182889E+00  0.23321421286E-01 -0.49238446540E-01  0.89100146098E+00  0.88000000000E+00 0. -1.
        -11    1    4    4    0    0  0.88852933764E-01 -0.31105064433E-01  0.19369974369E-01  0.96113609338E-01  0.51100000000E-03 0. -1.
         11    1    4    4    0    0  0.34309534911E-01 -0.38150198489E-02  0.16296158120E-01  0.38177538590E-01  0.51100000000E-03 0.  1.
</event>
<event>
 8    1  0.1197581E+005  0.1043930E+01  0.7957747E-01            NaN
         13   -1    0    0    0    0  0.00000000000E+00  0.00000000000E+00  0.74505805969E-08  0.10566000000E+00  0.10566000000E+00 0. -1.
     999900   -1    0    0    0    0 -0.00000000000E+00 -0.00000000000E+00 -0.74505805969E-08  0.93827000000E+00  0.93827000000E+00 0.  1.
     999902    2    1    2    0    0  0.15027656210E-01 -0.13201035603E-01 -0.12635981000E-01  0.10202706296E+01  0.10199962705E+01 0.  0.
     999903    2    3    3    0    0  0.11510342473E+00 -0.30257916323E-01  0.52912091029E-01  0.13201242030E+00  0.21523239811E-01 0.  0.
         14    1    1    2    0    0 -0.15027656210E-01  0.13201035603E-01  0.12635981000E-01  0.23659370405E-01  0.00000000000E+00 0.  1.
     999901    1    3    3    0    0 -0.10007576852E+00  0.17056880720E-01 -0.65548072029E-01  0.88825820929E+00  0.88000000000E+00 0.  1.
        -11    1    4    4    0    0  0.78278849977E-01 -0.17959245258E-01  0.46061513517E-01  0.92585295768E-01  0.51100000000E-03 0. -1.
         11    1    4    4    0    0  0.36824574756E-01 -0.12298671065E-01  0.68505775119E-02  0.39427124536E-01  0.51100000000E-03 0.  1.
</event>
<event>
 8    1  0.1126407E+005  0.1043930E+01  0.7957747E-01            NaN
         13   -1    0    0    0    0  0.00000000000E+00  0.00000000000E+00  0.74505805969E-08  0.10566000000E+00  0.10566000000E+00 0.  1.
     999900   -1    0    0    0    0 -0.00000000000E+00 -0.00000000000E+00 -0.74505805969E-08  0.93827000000E+00  0.93827000000E+00 0.  1.
     999902    2    1    2    0    0 -0.18884677080E-01 -0.14391278384E-01 -0.23318945478E-02  0.10200725556E+01  0.10197935286E+01 0.  0.
     999903    2    3    3    0    0 -0.41107531674E-01 -0.39259344462E-01 -0.11747955758E+00  0.13194460293E+00  0.19411504465E-01 0.  0.
         14    1    1    2    0    0  0.18884677080E-01  0.14391278384E-01  0.23318945478E-02  0.23857444417E-01  0.00000000000E+00 0.  1.
     999901    1    3    3    0    0  0.22222854594E-01  0.24868066078E-01  0.11514766303E+00  0.88812795265E+00  0.88000000000E+00 0. -1.
        -11    1    4    4    0    0 -0.80069300976E-02 -0.55378986821E-02 -0.40174411439E-01  0.41340339946E-01  0.51100000000E-03 0. -1.
         11    1    4    4    0    0 -0.33100601577E-01 -0.33721445780E-01 -0.77305146143E-01  0.90604262987E-01  0.51100000000E-03 0.  1.
</event>
<event>
 8    1  0.1126407E+005  0.1043930E+01  0.7957747E-01            NaN
         13   -1    0    0    0    0  0.00000000000E+00  0.00000000000E+00  0.74505805969E-08  0.10566000000E+00  0.10566000000E+00 0. -1.
     999900   -1    0    0    0    0 -0.00000000000E+00 -0.00000000000E+00 -0.74505805969E-08  0.93827000000E+00  0.93827000000E+00 0. -1.
     999902    2    1    2    0    0  0.20230979590E-02  0.53720758277E-02 -0.22965432926E-01  0.10202580074E+01  0.10199833520E+01 0.  0.
     999903    2    3    3    0    0  0.72824129230E-01  0.74863239348E-01 -0.79782582439E-01  0.13286294526E+00  0.19479305915E-01 0.  0.
         14    1    1    2    0    0 -0.20230979590E-02 -0.53720758277E-02  0.22965432926E-01  0.23671992597E-01  0.00000000000E+00 0. -1.
     999901    1    3    3    0    0 -0.70801031271E-01 -0.69491163520E-01  0.56817149513E-01  0.88739506214E+00  0.88000000000E+00 0.  1.
        -11    1    4    4    0    0  0.24675213368E-01  0.13233174361E-01 -0.22367174633E-01  0.35840405697E-01  0.51100000000E-03 0. -1.
         11    1    4    4    0    0  0.48148915862E-01  0.61630064987E-01 -0.57415407805E-01  0.97022539564E-01  0.51100000000E-03 0.  1.
</event>
<event>
 8    1  0.1126407E+005  0.1043930E+01  0.7957747E-01            NaN
         13   -1    0    0    0    0  0.00000000000E+00  0.00000000000E+00  0.74505805969E-08  0.10566000000E+00  0.10566000000E+00 0.  1.
     999900   -1    0    0    0    0 -0.00000000000E+00 -0.00000000000E+00 -0.74505805969E-08  0.93827000000E+00  0.93827000000E+00 0.  1.
     999902    2    1    2    0    0 -0.14282197581E-01 -0.99690158544E-02 -0.11508625791E-01  0.10230539153E+01  0.10228408980E+01 0.  0.
     999903    2    3    3    0    0  0.28948793020E-01 -0.49786056948E-01  0.11677348229E+00  0.13181286229E+00  0.20540214609E-01 0.  0.
         14    1    1    2    0    0  0.14282197581E-01  0.99690158544E-02  0.11508625791E-01  0.20876084701E-01  0.00000000000E+00 0.  1.
     999901    1    3    3    0    0 -0.43230990600E-01  0.39817041093E-01 -0.12828210808E+00  0.89124105301E+00  0.88000000000E+00 0.  1.
        -11    1    4    4    0    0  0.61029629070E-02 -0.16760837477E-01  0.57578550288E-01  0.60280364991E-01  0.51100000000E-03 0. -1.
         11    1    4    4    0    0  0.22845830113E-01 -0.33025219470E-01  0.59194932001E-01  0.71532497302E-01  0.51100000000E-03 0.  1.
</event>
<event>
 8    1  0.1126407E+005  0.1043930E+01  0.7957747E-01            NaN
         13   -1    0    0    0    0  0.00000000000E+00  0.00000000000E+00  0.74505805969E-08  0.10566000000E+00  0.10566000000E+00 0. -1.
     999900   -1    0    0    0    0 -0.00000000000E+00 -0.00000000000E+00 -0.74505805969E-08  0.93827000000E+00  0.93827000000E+00 0.  1.
     999902    2    1    2    0    0 -0.16997247367E-01  0.67370796959E-02 -0.13870885563E-01  0.10209801388E+01  0.10207221697E+01 0.  0.
     999903    2    3    3    0    0  0.12561866567E+00  0.17184673774E-01 -0.16525946157E-01  0.12943344897E+00  0.20113394519E-01 0.  0.
         14    1    1    2    0    0  0.16997247367E-01 -0.67370796959E-02  0.13870885563E-01  0.22949861158E-01  0.00000000000E+00 0.  1.
     999901    1    3    3    0    0 -0.14261591304E+00 -0.10447594078E-01  0.26550605940E-02  0.89154668987E+00  0.88000000000E+00 0. -1.
        -11    1    4    4    0    0  0.70252481931E-01  0.19473351940E-01 -0.75109921036E-02  0.73289145012E-01  0.51100000000E-03 0.  1.
         11    1    4    4    0    0  0.55366183737E-01 -0.22886781663E-02 -0.90149540539E-02  0.56144303959E-01  0.51100000000E-03 0. -1.
</event>
<event>
 8    1  0.1126407E+005  0.1043930E+01  0.7957747E-01            NaN
         13   -1    0    0    0    0  0.00000000000E+00  0.00000000000E+00  0.74505805969E-08  0.10566000000E+00  0.10566000000E+00 0.  1.
     999900   -1    0    0    0    0 -0.00000000000E+00 -0.00000000000E+00 -0.74505805969E-08  0.93827000000E+00  0.93827000000E+00 0. -1.
     999902    2    1    2    0    0 -0.14112053532E-01 -0.15069297567E-01 -0.10906348205E-01  0.10205808626E+01  0.10203137336E+01 0.  0.
     999903    2    3    3    0    0  0.22468394207E-01 -0.11869243251E+00  0.48379537969E-01  0.13176665284E+00  0.20715907709E-01 0.  0.
         14    1    1    2    0    0  0.14112053532E-01  0.15069297567E-01  0.10906348205E-01  0.23349137355E-01  0.00000000000E+00 0.  1.
     999901    1    3    3    0    0 -0.36580447739E-01  0.10362313495E+00 -0.59285886174E-01  0.88881420981E+00  0.88000000000E+00 0.  1.
        -11    1    4    4    0    0  0.21583478385E-01 -0.11567354094E+00  0.42559485514E-01  0.12513107344E+00  0.51100000000E-03 0.  1.
         11    1    4    4    0    0  0.88491582204E-03 -0.30188915740E-02  0.58200524557E-02  0.66355793971E-02  0.51100000000E-03 0. -1.
</event>
<event>
 8    1  0.1126407E+005  0.1043930E+01  0.7957747E-01            NaN
         13   -1    0    0    0    0  0.00000000000E+00  0.00000000000E+00  0.74505805969E-08  0.10566000000E+00  0.10566000000E+00 0. -1.
     999900   -1    0    0    0    0 -0.00000000000E+00 -0.00000000000E+00 -0.74505805969E-08  0.93827000000E+00  0.93827000000E+00 0. -1.
     999902    2    1    2    0    0 -0.22455130064E-01 -0.71311080640E-02 -0.36576159462E-02  0.10200875227E+01  0.10198088499E+01 0.  0.
     999903    2    3    3    0    0 -0.68522505537E-01 -0.67091938206E-01  0.88590016655E-01  0.13204071655E+00  0.19745830905E-01 0.  0.
         14    1    1    2    0    0  0.22455130064E-01  0.71311080640E-02  0.36576159462E-02  0.23842477279E-01  0.00000000000E+00 0. -1.
     999901    1    3    3    0    0  0.46067375474E-01  0.59960830142E-01 -0.92247632601E-01  0.88804680617E+00  0.88000000000E+00 0. -1.
        -11    1    4    4    0    0 -0.52829660431E-01 -0.46612262367E-01  0.53413106316E-01  0.88413217743E-01  0.51100000000E-03 0. -1.
         11    1    4    4    0    0 -0.15692845106E-01 -0.20479675838E-01  0.35176910339E-01  0.43627498805E-01  0.51100000000E-03 0.  1.
</event>
<event>
 8    1  0.1126407E+005  0.1043930E+01  0.7957747E-01            NaN
         13   -1    0    0    0    0  0.00000000000E+00  0.00000000000E+00  0.74505805969E-08  0.10566000000E+00  0.10566000000E+00 0. -1.
     999900   -1    0    0    0    0 -0.00000000000E+00 -0.00000000000E+00 -0.74505805969E-08  0.93827000000E+00  0.93827000000E+00 0.  1.
     999902    2    1    2    0    0  0.59440352649E-03  0.14017076372E-01  0.17355790491E-01  0.10216128494E+01  0.10213690611E+01 0.  0.
     999903    2    3    3    0    0 -0.49616112431E-01  0.11399552177E+00 -0.41519359333E-01  0.13257794083E+00  0.19907676873E-01 0.  0.
         14    1    1    2    0    0 -0.59440352649E-03 -0.14017076372E-01 -0.17355790491E-01  0.22317150561E-01  0.00000000000E+00 0.  1.
     999901    1    3    3    0    0  0.50210515957E-01 -0.99978445401E-01  0.58875149825E-01  0.88903490861E+00  0.88000000000E+00 0. -1.
        -11    1    4    4    0    0 -0.29986026994E-01  0.46045210596E-01 -0.14212069677E-01  0.56758851990E-01  0.51100000000E-03 0.  1.
         11    1    4    4    0    0 -0.19630085437E-01  0.67950311177E-01 -0.27307289656E-01  0.75819088841E-01  0.51100000000E-03 0. -1.
</event>
<event>
 8    1  0.1126407E+005  0.1043930E+01  0.7957747E-01            NaN
         13   -1    0    0    0    0  0.00000000000E+00  0.00000000000E+00  0.74505805969E-08  0.10566000000E+00  0.10566000000E+00 0.  1.
     999900   -1    0    0    0    0 -0.00000000000E+00 -0.00000000000E+00 -0.74505805969E-08  0.93827000000E+00  0.93827000000E+00 0. -1.
     999902    2    1    2    0    0 -0.18357670728E-01 -0.11028396194E-01 -0.96707956921E-02  0.10204320451E+01  0.10201614601E+01 0.  0.
     999903    2    3    3    0    0  0.46063878425E-01  0.60888341282E-01  0.10122494462E+00  0.12823250552E+00  0.19178505144E-01 0.  0.
         14    1    1    2    0    0  0.18357670728E-01  0.11028396194E-01  0.96707956921E-02  0.23497954942E-01  0.00000000000E+00 0. -1.
     999901    1    3    3    0    0 -0.64421549153E-01 -0.71916737476E-01 -0.11089574031E+00  0.89219953953E+00  0.88000000000E+00 0. -1.
        -11    1    4    4    0    0  0.44070671564E-01  0.46442131291E-01  0.79797642192E-01  0.10230845748E+00  0.51100000000E-03 0.  1.
         11    1    4    4    0    0  0.19932068608E-02  0.14446209991E-01  0.21427302430E-01  0.25924048047E-01  0.51100000000E-03 0. -1.
</event>
<event>
 8    1  0.1126407E+005  0.1043930E+01  0.7957747E-01            NaN
         13   -1    0    0    0    0  0.00000000000E+00  0.00000000000E+00  0.74505805969E-08  0.10566000000E+00  0.10566000000E+00 0.  1.
     999900   -1    0    0    0    0 -0.00000000000E+00 -0.00000000000E+00 -0.74505805969E-08  0.93827000000E+00  0.93827000000E+00 0.  1.
     999902    2    1    2    0    0  0.12971736847E-01  0.20051319978E-01  0.24612089072E-03  0.10200473292E+01  0.10197677048E+01 0.  0.
     999903    2    3    3    0    0  0.37932913750E-01  0.11183582361E+00  0.58289745066E-01  0.13302054393E+00  0.18724671945E-01 0.  0.
         14    1    1    2    0    0 -0.12971736847E-01 -0.20051319978E-01 -0.24612089072E-03  0.23882670813E-01  0.00000000000E+00 0.  1.
     999901    1    3    3    0    0 -0.24961176904E-01 -0.91784503630E-01 -0.58043624175E-01  0.88702678526E+00  0.88000000000E+00 0.  1.
        -11    1    4    4    0    0  0.21725441767E-01  0.88204856816E-01  0.46197205016E-01  0.10191434864E+00  0.51100000000E-03 0. -1.
         11    1    4    4    0    0  0.16207471983E-01  0.23630966792E-01  0.12092540050E-01  0.31106195291E-01  0.51100000000E-03 0.  1.
</event>
<event>
 8    1  0.1126407E+005  0.1043930E+01  0.7957747E-01            NaN
         13   -1    0    0    0    0  0.00000000000E+00  0.00000000000E+00  0.74505805969E-08  0.10566000000E+00  0.10566000000E+00 0.  1.
     999900   -1    0    0    0    0 -0.00000000000E+00 -0.00000000000E+00 -0.74505805969E-08  0.93827000000E+00  0.93827000000E+00 0. -1.
     999902    2    1    2    0    0  0.19735564184E-01  0.11530596468E-01 -0.47662999862E-02  0.10205812363E+01  0.10203141160E+01 0.  0.
     999903    2    3    3    0    0 -0.10176352992E+00 -0.50893800309E-01 -0.56072119324E-01  0.12856603341E+00  0.20955845208E-01 0.  0.
         14    1    1    2    0    0 -0.19735564184E-01 -0.11530596468E-01  0.47662999862E-02  0.23348763653E-01  0.00000000000E+00 0.  1.
     999901    1    3    3    0    0  0.12149909410E+00  0.62424396777E-01  0.51305819338E-01  0.89201520294E+00  0.88000000000E+00 0. -1.
        -11    1    4    4    0    0 -0.38932649738E-01 -0.10011226096E-01 -0.25509459177E-01  0.47612703054E-01  0.51100000000E-03 0.  1.
         11    1    4    4    0    0 -0.62830880182E-01 -0.40882574214E-01 -0.30562660147E-01  0.80953330351E-01  0.51100000000E-03 0. -1.
</event>
<event>
 8    1  0.1126407E+005  0.1043930E+01  0.7957747E-01            NaN
         13   -1    0    0    0    0  0.00000000000E+00  0.00000000000E+00  0.74505805969E-08  0.10566000000E+00  0.10566000000E+00 0.  1.
     999900   -1    0    0    0    0 -0.00000000000E+00 -0.00000000000E+00 -0.74505805969E-08  0.93827000000E+00  0.93827000000E+00 0.  1.
     999902    2    1    2    0    0 -0.13302321353E-01  0.91731921735E-02  0.16381118874E-01  0.10209204310E+01  0.10206611025E+01 0.  0.
     999903    2    3    3    0    0 -0.90740589688E-01  0.13073453753E-02 -0.92866682827E-01  0.13075548053E+00  0.15401660301E-01 0.  0.
         14    1    1    2    0    0  0.13302321353E-01 -0.91731921735E-02 -0.16381118874E-01  0.23009568957E-01  0.00000000000E+00 0.  1.
     999901    1    3    3    0    0  0.77438268335E-01  0.78658467982E-02  0.10924780170E+00  0.89016495051E+00  0.88000000000E+00 0. -1.
        -11    1    4    4    0    0 -0.23977203796E-01 -0.63851936543E-02 -0.26339687433E-01  0.36190015957E-01  0.51100000000E-03 0.  1.
         11    1    4    4    0    0 -0.66763385892E-01  0.76925390296E-02 -0.66526995394E-01  0.94565464572E-01  0.51100000000E-03 0. -1.
</event>
<event>
 8    1  0.1126407E+005  0.1043930E+01  0.7957747E-01            NaN
         13   -1    0    0    0    0  0.00000000000E+00  0.00000000000E+00  0.74505805969E-08  0.10566000000E+00  0.10566000000E+00 0. -1.
     999900   -1    0    0    0    0 -0.00000000000E+00 -0.00000000000E+00 -0.74505805969E-08  0.93827000000E+00  0.93827000000E+00 0. -1.
     999902    2    1    2    0    0 -0.57732222020E-02  0.15780596653E-01  0.16907493283E-01  0.10200926206E+01  0.10198140684E+01 0.  0.
     999903    2    3    3    0    0  0.11693140052E+00  0.50405317930E-01 -0.18327048381E-01  0.13020680287E+00  0.20106772678E-01 0.  0.
         14    1    1    2    0    0  0.57732222020E-02 -0.15780596653E-01 -0.16907493283E-01  0.23837379353E-01  0.00000000000E+00 0.  1.
     999901    1    3    3    0    0 -0.12270462272E+00 -0.34624721277E-01  0.35234541664E-01  0.88988581778E+00  0.88000000000E+00 0. -1.
        -11    1    4    4    0    0  0.34911403245E-01  0.24655736930E-01 -0.26892648931E-02  0.42827616170E-01  0.51100000000E-03 0.  1.
         11    1    4    4    0    0  0.82019997273E-01  0.25749580999E-01 -0.15637783488E-01  0.87379186696E-01  0.51100000000E-03 0. -1.
</event>
<event>
 8    1  0.1126407E+005  0.1043930E+01  0.7957747E-01            NaN
         13   -1    0    0    0    0  0.00000000000E+00  0.00000000000E+00  0.74505805969E-08  0.10566000000E+00  0.10566000000E+00 0. -1.
     999900   -1    0    0    0    0 -0.00000000000E+00 -0.00000000000E+00 -0.74505805969E-08  0.93827000000E+00  0.93827000000E+00 0. -1.
     999902    2    1    2    0    0  0.25650550296E-01 -0.49253622152E-02  0.45357742531E-02  0.10174199421E+01  0.10170745083E+01 0.  0.
     999903    2    3    3    0    0 -0.23988403519E-01  0.11773021631E+00  0.36219509123E-01  0.12696372432E+00  0.19289559756E-01 0.  0.
         14    1    1    2    0    0 -0.25650550296E-01  0.49253622152E-02 -0.45357742531E-02  0.26510057931E-01  0.00000000000E+00 0.  1.
     999901    1    3    3    0    0  0.49638953815E-01 -0.12265557852E+00 -0.31683734870E-01  0.89045621775E+00  0.88000000000E+00 0. -1.
        -11    1    4    4    0    0 -0.85498521764E-02  0.58985302859E-01  0.85405237782E-02  0.60212686313E-01  0.51100000000E-03 0. -1.
         11    1    4    4    0    0 -0.15438551343E-01  0.58744913450E-01  0.27678985345E-01  0.66751038003E-01  0.51100000000E-03 0.  1.
</event>
<event>
 8    1  0.1126407E+005  0.1043930E+01  0.7957747E-01            NaN
         13   -1    0    0    0    0  0.00000000000E+00  0.00000000000E+00  0.74505805969E-08  0.10566000000E+00  0.10566000000E+00 0.  1.
     999900   -1    0    0    0    0 -0.00000000000E+00 -0.00000000000E+00 -0.74505805969E-08  0.93827000000E+00  0.93827000000E+00 0.  1.
     999902    2    1    2    0    0 -0.97754880700E-02 -0.17955020435E-01  0.11675350255E-01  0.10203873423E+01  0.10201157149E+01 0.  0.
     999903    2    3    3    0    0  0.11409559464E+00 -0.57862617569E-01  0.18439605847E-01  0.13079057044E+00  0.20006674458E-01 0.  0.
         14    1    1    2    0    0  0.97754880700E-02  0.17955020435E-01 -0.11675350255E-01  0.23542657654E-01  0.00000000000E+00 0. -1.
     999901    1    3    3    0    0 -0.12387108271E+00  0.39907597134E-01 -0.67642555921E-02  0.88959677191E+00  0.88000000000E+00 0.  1.
        -11    1    4    4    0    0  0.26772453290E-01 -0.78672469112E-02  0.10627503016E-01  0.29864071566E-01  0.51100000000E-03 0. -1.
         11    1    4    4    0    0  0.87323141349E-01 -0.49995370658E-01  0.78121028305E-02  0.10092649887E+00  0.51100000000E-03 0.  1.
</event>
<event>
 8    1  0.1126407E+005  0.1043930E+01  0.7957747E-01            NaN
         13   -1    0    0    0    0  0.00000000000E+00  0.00000000000E+00  0.74505805969E-08  0.10566000000E+00  0.10566000000E+00 0. -1.
     999900   -1    0    0    0    0 -0.00000000000E+00 -0.00000000000E+00 -0.74505805969E-08  0.93827000000E+00  0.93827000000E+00 0. -1.
     999902    2    1    2    0    0 -0.17902699151E-02 -0.21822515873E-01 -0.56162568313E-02  0.10213253632E+01  0.10210751823E+01 0.  0.
     999903    2    3    3    0    0 -0.10418785068E+00  0.68175216801E-01 -0.29072848124E-01  0.13051950996E+00  0.26213423426E-01 0.  0.
         14    1    1    2    0    0  0.17902699151E-02  0.21822515873E-01  0.56162568313E-02  0.22604636829E-01  0.00000000000E+00 0. -1.
     999901    1    3    3    0    0  0.10239758077E+00 -0.89997732673E-01  0.23456591293E-01  0.89080585321E+00  0.88000000000E+00 0. -1.
        -11    1    4    4    0    0 -0.83749701420E-01  0.58176776047E-01 -0.33496487238E-01  0.10733510860E+00  0.51100000000E-03 0. -1.
         11    1    4    4    0    0 -0.20438149261E-01  0.99984407537E-02  0.44236391141E-02  0.23184401367E-01  0.51100000000E-03 0.  1.
</event>
<event>
 8    1  0.1126407E+005  0.1043930E+01  0.7957747E-01            NaN
         13   -1    0    0    0    0  0.00000000000E+00  0.00000000000E+00  0.74505805969E-08  0.10566000000E+00  0.10566000000E+00 0.  1.
     999900   -1    0    0    0    0 -0.00000000000E+00 -0.00000000000E+00 -0.74505805969E-08  0.93827000000E+00  0.93827000000E+00 0.  1.
     999902    2    1    2    0    0 -0.19110845641E-01  0.88244543010E-03  0.14368721301E-01  0.10200037951E+01  0.10197231382E+01 0.  0.
     999903    2    3    3    0    0  0.33283613202E-01  0.10380136942E-01 -0.12161608041E+00  0.12796834074E+00  0.19232240274E-01 0.  0.
         14    1    1    2    0    0  0.19110845641E-01 -0.88244543010E-03 -0.14368721301E-01  0.23926204941E-01  0.00000000000E+00 0. -1.
     999901    1    3    3    0    0 -0.52394458843E-01 -0.94976915121E-02  0.13598480172E+00  0.89203545432E+00  0.88000000000E+00 0. -1.
        -11    1    4    4    0    0  0.31461841037E-01  0.42746878814E-02 -0.83780093762E-01  0.89596236694E-01  0.51100000000E-03 0.  1.
         11    1    4    4    0    0  0.18217721651E-02  0.61054490608E-02 -0.37835986653E-01  0.38372104048E-01  0.51100000000E-03 0. -1.
</event>
<event>
 8    1  0.1126407E+005  0.1043930E+01  0.7957747E-01            NaN
         13   -1    0    0    0    0  0.00000000000E+00  0.00000000000E+00  0.74505805969E-08  0.10566000000E+00  0.10566000000E+00 0. -1.
     999900   -1    0    0    0    0 -0.00000000000E+00 -0.00000000000E+00 -0.74505805969E-08  0.93827000000E+00  0.93827000000E+00 0. -1.
     999902    2    1    2    0    0 -0.23255480332E-01 -0.28208257314E-02  0.43546450916E-02  0.10201027602E+01  0.10198244476E+01 0.  0.
     999903    2    3    3    0    0  0.41201042663E-01 -0.25340432863E-02  0.12146521603E+00  0.13000747797E+00  0.21076013180E-01 0.  0.
         14    1    1    2    0    0  0.23255480332E-01  0.28208257314E-02 -0.43546450916E-02  0.23827239814E-01  0.00000000000E+00 0. -1.
     999901    1    3    3    0    0 -0.64456522995E-01 -0.28678244509E-03 -0.11711057093E+00  0.89009528222E+00  0.88000000000E+00 0. -1.
        -11    1    4    4    0    0  0.22041990175E-01  0.27549494579E-02  0.90661127744E-01  0.93344203260E-01  0.51100000000E-03 0. -1.
         11    1    4    4    0    0  0.19159052487E-01 -0.52889927441E-02  0.30804088282E-01  0.36663274709E-01  0.51100000000E-03 0.  1.
</event>
<event>
 8    1  0.1126407E+005  0.1043930E+01  0.7957747E-01            NaN
         13   -1    0    0    0    0  0.00000000000E+00  0.00000000000E+00  0.74505805969E-08  0.10566000000E+00  0.10566000000E+00 0. -1.
     999900   -1    0    0    0    0 -0.00000000000E+00 -0.00000000000E+00 -0.74505805969E-08  0.93827000000E+00  0.93827000000E+00 0. -1.
     999902    2    1    2    0    0 -0.44116954045E-02 -0.20726232358E-01 -0.10018773843E-01  0.10204903841E+01  0.10202211566E+01 0.  0.
     999903    2    3    3    0    0  0.12802654928E+00 -0.11106346811E-01  0.90051489085E-02  0.13032503963E+00  0.19732586959E-01 0.  0.
         14    1    1    2    0    0  0.44116954045E-02  0.20726232358E-01  0.10018773843E-01  0.23439615898E-01  0.00000000000E+00 0. -1.
     999901    1    3    3    0    0 -0.13243824469E+00 -0.96198855473E-02 -0.19023922752E-01  0.89016534447E+00  0.88000000000E+00 0. -1.
        -11    1    4    4    0    0  0.88438857139E-01 -0.91885178518E-02 -0.28207008976E-02  0.88961102662E-01  0.51100000000E-03 0. -1.
         11    1    4    4    0    0  0.39587692145E-01 -0.19178289590E-02  0.11825849806E-01  0.41363936973E-01  0.51100000000E-03 0.  1.
</event>
<event>
 8    1  0.1126407E+005  0.1043930E+01  0.7957747E-01            NaN
         13   -1    0    0    0    0  0.00000000000E+00  0.00000000000E+00  0.74505805969E-08  0.10566000000E+00  0.10566000000E+00 0.  1.
     999900   -1    0    0    0    0 -0.00000000000E+00 -0.00000000000E+00 -0.74505805969E-08  0.93827000000E+00  0.93827000000E+00 0. -1.
     999902    2    1    2    0    0 -0.82869695762E-02  0.21498708252E-01  0.83856731825E-02  0.10194108680E+01  0.10191159551E+01 0.  0.
     999903    2    3    3    0    0 -0.48103816887E-01 -0.94297833883E-01 -0.68537662330E-01  0.12760852436E+00  0.19505528913E-01 0.  0.
         14    1    1    2    0    0  0.82869695762E-02 -0.21498708252E-01 -0.83856731825E-02  0.24519132039E-01  0.00000000000E+00 0. -1.
     999901    1    3    3    0    0  0.39816847311E-01  0.11579654214E+00  0.76923335512E-01  0.89180234360E+00  0.88000000000E+00 0.  1.
        -11    1    4    4    0    0 -0.16896978745E-01 -0.38351336764E-01 -0.16384651322E-01  0.45000564910E-01  0.51100000000E-03 0. -1.
         11    1    4    4    0    0 -0.31206838142E-01 -0.55946497120E-01 -0.52153011007E-01  0.82607959453E-01  0.51100000000E-03 0.  1.
</event>
<event>
 8    1  0.1126407E+005  0.1043930E+01  0.7957747E-01            NaN
         13   -1    0    0    0    0  0.00000000000E+00  0.00000000000E+00  0.74505805969E-08  0.10566000000E+00  0.10566000000E+00 0.  1.
     999900   -1    0    0    0    0 -0.00000000000E+00 -0.00000000000E+00 -0.74505805969E-08  0.93827000000E+00  0.93827000000E+00 0. -1.
     999902    2    1    2    0    0  0.17499036648E-01  0.77685020673E-02 -0.10871181363E-01  0.10219129954E+01  0.10216757909E+01 0.  0.
     999903    2    3    3    0    0 -0.50140421803E-01  0.47956390008E-01 -0.11124248998E+00  0.13271978676E+00  0.20634267089E-01 0.  0.
         14    1    1    2    0    0 -0.17499036648E-01 -0.77685020673E-02  0.10871181363E-01  0.22017004615E-01  0.00000000000E+00 0.  1.
     999901    1    3    3    0    0  0.67639458451E-01 -0.40187887941E-01  0.10037130862E+00  0.88919320863E+00  0.88000000000E+00 0.  1.
        -11    1    4    4    0    0 -0.40161228576E-02  0.10901174867E-01 -0.30322644246E-01  0.32475971599E-01  0.51100000000E-03 0. -1.
         11    1    4    4    0    0 -0.46124298945E-01  0.37055215142E-01 -0.80919845736E-01  0.10024381516E+00  0.51100000000E-03 0.  1.
</event>
<event>
 8    1  0.1126407E+005  0.1043930E+01  0.7957747E-01            NaN
         13   -1    0    0    0    0  0.00000000000E+00  0.00000000000E+00  0.74505805969E-08  0.10566000000E+00  0.10566000000E+00 0. -1.
     999900   -1    0    0    0    0 -0.00000000000E+00 -0.00000000000E+00 -0.74505805969E-08  0.93827000000E+00  0.93827000000E+00 0. -1.
     999902    2    1    2    0    0  0.17341280472E-01  0.15056503498E-01 -0.69693143085E-03  0.10209538380E+01  0.10206952706E+01 0.  0.
     999903    2    3    3    0    0  0.11717567879E-01  0.76892886037E-01 -0.10555866746E+00  0.13255564575E+00  0.19456351737E-01 0.  0.
         14    1    1    2    0    0 -0.17341280472E-01 -0.15056503498E-01  0.69693143085E-03  0.22976161982E-01  0.00000000000E+00 0.  1.
     999901    1    3    3    0    0  0.56237125933E-02 -0.61836382540E-01  0.10486173603E+00  0.88839819227E+00  0.88000000000E+00 0.  1.
        -11    1    4    4    0    0  0.14075013440E-01  0.38758120396E-01 -0.63660320514E-01  0.75849821548E-01  0.51100000000E-03 0. -1.
         11    1    4    4    0    0 -0.23574455604E-02  0.38134765642E-01 -0.41898346947E-01  0.56705824198E-01  0.51100000000E-03 0.  1.
</event>
<event>
 8    1  0.1126407E+005  0.1043930E+01  0.7957747E-01            NaN
         13   -1    0    0    0    0  0.00000000000E+00  0.00000000000E+00  0.74505805969E-08  0.10566000000E+00  0.10566000000E+00 0.  1.
     999900   -1    0    0    0    0 -0.00000000000E+00 -0.00000000000E+00 -0.74505805969E-08  0.93827000000E+00  0.93827000000E+00 0.  1.
     999902    2    1    2    0    0  0.71179616461E-02 -0.10515027174E-01  0.19880182869E-01  0.10203407472E+01  0.10200680309E+01 0.  0.
     999903    2    3    3    0    0  0.98285495139E-01  0.78119516865E-01  0.31120547879E-01  0.13113101531E+00  0.21544308000E-01 0.  0.
         14    1    1    2    0    0 -0.71179616461E-02  0.10515027174E-01 -0.19880182869E-01  0.23589252752E-01  0.00000000000E+00 0. -1.
     999901    1    3    3    0    0 -0.91167533493E-01 -0.88634544039E-01 -0.11240365010E-01  0.88920973193E+00  0.88000000000E+00 0.  1.
        -11    1    4    4    0    0  0.57268422527E-01  0.37325077858E-01  0.79862088620E-02  0.68824954115E-01  0.51100000000E-03 0. -1.
         11    1    4    4    0    0  0.41017072612E-01  0.40794439007E-01  0.23134339017E-01  0.62306061200E-01  0.51100000000E-03 0.  1.
</event>
<event>
 8    1  0.1126407E+005  0.1043930E+01  0.7957747E-01            NaN
         13   -1    0    0    0    0  0.00000000000E+00  0.00000000000E+00  0.74505805969E-08  0.10566000000E+00  0.10566000000E+00 0.  1.
     999900   -1    0    0    0    0 -0.00000000000E+00 -0.00000000000E+00 -0.74505805969E-08  0.93827000000E+00  0.93827000000E+00 0. -1.
     999902    2    1    2    0    0  0.50301770960E-02  0.21033696745E-01 -0.10481096602E-01  0.10198972626E+01  0.10196140710E+01 0.  0.
     999903    2    3    3    0    0 -0.40058224438E-04 -0.10829703271E-01  0.12653562266E+00  0.12871009658E+00  0.20922262804E-01 0.  0.
         14    1    1    2    0    0 -0.50301770960E-02 -0.21033696745E-01  0.10481096602E-01  0.24032737388E-01  0.00000000000E+00 0.  1.
     999901    1    3    3    0    0  0.50702353205E-02  0.31863400015E-01 -0.13701671926E+00  0.89118716603E+00  0.88000000000E+00 0. -1.
        -11    1    4    4    0    0 -0.34456088761E-02 -0.10020488028E-01  0.25581061414E-01  0.27693577323E-01  0.51100000000E-03 0.  1.
         11    1    4    4    0    0  0.34055506517E-02 -0.80921524240E-03  0.10095456125E+00  0.10101651925E+00  0.51100000000E-03 0. -1.
</event>
<event>
 8    1  0.1126407E+005  0.1043930E+01  0.7957747E-01            NaN
         13   -1    0    0    0    0  0.00000000000E+00  0.00000000000E+00  0.74505805969E-08  0.10566000000E+00  0.10566000000E+00 0.  1.
     999900   -1    0    0    0    0 -0.00000000000E+00 -0.00000000000E+00 -0.74505805969E-08  0.93827000000E+00  0.93827000000E+00 0.  1.
     999902    2    1    2    0    0  0.21212577205E-01 -0.10951075870E-01 -0.17106548401E-04  0.10200574260E+01  0.10197780409E+01 0.  0.
     999903    2    3    3    0    0 -0.95910042116E-02  0.18616465710E-02 -0.12820273724E+00  0.13014474359E+00  0.20155876518E-01 0.  0.
         14    1    1    2    0    0 -0.21212577205E-01  0.10951075870E-01  0.17106548401E-04  0.23872573951E-01  0.00000000000E+00 0.  1.
     999901    1    3    3    0    0  0.30803581417E-01 -0.12812722441E-01  0.12818563069E+00  0.88991268246E+00  0.88000000000E+00 0. -1.
        -11    1    4    4    0    0 -0.15810772346E-01  0.44344659103E-03 -0.83525039780E-01  0.85011002572E-01  0.51100000000E-03 0. -1.
         11    1    4    4    0    0  0.62197681344E-02  0.14181999800E-02 -0.44677697462E-01  0.45133741019E-01  0.51100000000E-03 0.  1.
</event>
<event>
 8    1  0.1126407E+005  0.1043930E+01  0.7957747E-01            NaN
         13   -1    0    0    0    0  0.00000000000E+00  0.00000000000E+00  0.74505805969E-08  0.10566000000E+00  0.10566000000E+00 0.  1.
     999900   -1    0    0    0    0 -0.00000000000E+00 -0.00000000000E+00 -0.74505805969E-08  0.93827000000E+00  0.93827000000E+00 0. -1.
     999902    2    1    2    0    0 -0.24483353043E-01 -0.86998430573E-02 -0.48607564357E-02  0.10174961429E+01  0.10171527182E+01 0.  0.
     999903    2    3    3    0    0  0.10245157898E+00 -0.41655627111E-01  0.56159658729E-01  0.12568783858E+00  0.20297984970E-01 0.  0.
         14    1    1    2    0    0  0.24483353043E-01  0.86998430573E-02  0.48607564357E-02  0.26433857050E-01  0.00000000000E+00 0.  1.
     999901    1    3    3    0    0 -0.12693493202E+00  0.32955784054E-01 -0.61020415164E-01  0.89180830437E+00  0.88000000000E+00 0.  1.
        -11    1    4    4    0    0  0.37999308047E-01 -0.23169833390E-01  0.30188930384E-01  0.53781234925E-01  0.51100000000E-03 0. -1.
         11    1    4    4    0    0  0.64452270933E-01 -0.18485793721E-01  0.25970728345E-01  0.71906603658E-01  0.51100000000E-03 0.  1.
</event>
<event>
 8    1  0.1126407E+005  0.1043930E+01  0.7957747E-01            NaN
         13   -1    0    0    0    0  0.00000000000E+00  0.00000000000E+00  0.74505805969E-08  0.10566000000E+00  0.10566000000E+00 0.  1.
     999900   -1    0    0    0    0 -0.00000000000E+00 -0.00000000000E+00 -0.74505805969E-08  0.93827000000E+00  0.93827000000E+00 0.  1.
     999902    2    1    2    0    0 -0.86468202829E-02 -0.14187894446E-01  0.16786974362E-01  0.10203108053E+01  0.10200373881E+01 0.  0.
     999903    2    3    3    0    0 -0.34267508086E-01 -0.19185927353E-01  0.12552109695E+00  0.13323442224E+00  0.21295623311E-01 0.  0.
         14    1    1    2    0    0  0.86468202829E-02  0.14187894446E-01 -0.16786974362E-01  0.23619194695E-01  0.00000000000E+00 0. -1.
     999901    1    3    3    0    0  0.25620687803E-01  0.49980329068E-02 -0.10873412259E+00  0.88707638306E+00  0.88000000000E+00 0.  1.
        -11    1    4    4    0    0 -0.39950061496E-02 -0.86490062519E-02  0.54287825446E-01  0.55119819447E-01  0.51100000000E-03 0. -1.
         11    1    4    4    0    0 -0.30272501937E-01 -0.10536921101E-01  0.71233271501E-01  0.78114602793E-01  0.51100000000E-03 0.  1.
</event>
<event>
 8    1  0.1126407E+005  0.1043930E+01  0.7957747E-01            NaN
         13   -1    0    0    0    0  0.00000000000E+00  0.00000000000E+00  0.74505805969E-08  0.10566000000E+00  0.10566000000E+00 0. -1.
     999900   -1    0    0    0    0 -0.00000000000E+00 -0.00000000000E+00 -0.74505805969E-08  0.93827000000E+00  0.93827000000E+00 0.  1.
     999902    2    1    2    0    0 -0.76422366423E-02 -0.18771189043E-01 -0.12999855492E-01  0.10198518447E+01  0.10195675689E+01 0.  0.
     999903    2    3    3    0    0 -0.10798432816E+00  0.28010198934E-01 -0.65483829616E-01  0.13136346487E+00  0.22870102498E-01 0.  0.
         14    1    1    2    0    0  0.76422366423E-02  0.18771189043E-01  0.12999855492E-01  0.24078155282E-01  0.00000000000E+00 0. -1.
     999901    1    3    3    0    0  0.10034209152E+00 -0.46781387977E-01  0.52483974124E-01  0.88848837985E+00  0.88000000000E+00 0. -1.
        -11    1    4    4    0    0 -0.50740230130E-01  0.13789831386E-01 -0.17800221682E-01  0.55514317218E-01  0.51100000000E-03 0.  1.
         11    1    4    4    0    0 -0.57244098029E-01  0.14220367548E-01 -0.47683607934E-01  0.75849147648E-01  0.51100000000E-03 0. -1.
</event>
<event>
 8    1  0.1126407E+005  0.1043930E+01  0.7957747E-01            NaN
         13   -1    0    0    0    0  0.00000000000E+00  0.00000000000E+00  0.74505805969E-08  0.10566000000E+00  0.10566000000E+00 0.  1.
     999900   -1    0    0    0    0 -0.00000000000E+00 -0.00000000000E+00 -0.74505805969E-08  0.93827000000E+00  0.93827000000E+00 0. -1.
     999902    2    1    2    0    0  0.60332518850E-02  0.14015085044E-01  0.18133878641E-01  0.10202306268E+01  0.10199553282E+01 0.  0.
     999903    2    3    3    0    0  0.70926034548E-02  0.10132585748E+00 -0.79503135167E-01  0.13053557807E+00  0.20038817921E-01 0.  0.
         14    1    1    2    0    0 -0.60332518850E-02 -0.14015085044E-01 -0.18133878641E-01  0.23699373234E-01  0.00000000000E+00 0. -1.
     999901    1    3    3    0    0 -0.10593515698E-02 -0.87310772433E-01  0.97637013808E-01  0.88969504870E+00  0.88000000000E+00 0.  1.
        -11    1    4    4    0    0  0.13426997023E-01  0.66850006564E-01 -0.47828508887E-01  0.83288864862E-01  0.51100000000E-03 0.  1.
         11    1    4    4    0    0 -0.63343935680E-02  0.34475850913E-01 -0.31674626280E-01  0.47246713209E-01  0.51100000000E-03 0. -1.
</event>
<event>
 8    1  0.1126407E+005  0.1043930E+01  0.7957747E-01            NaN
         13   -1    0    0    0    0  0.00000000000E+00  0.00000000000E+00  0.74505805969E-08  0.10566000000E+00  0.10566000000E+00 0. -1.
     999900   -1    0    0    0    0 -0.00000000000E+00 -0.00000000000E+00 -0.74505805969E-08  0.93827000000E+00  0.93827000000E+00 0.  1.
     999902    2    1    2    0    0 -0.14272997670E-01 -0.83047152794E-02 -0.16181984608E-01  0.10208098057E+01  0.10205479489E+01 0.  0.
     999903    2    3    3    0    0 -0.60341617879E-01  0.74115779773E-01  0.85750094972E-01  0.12990823728E+00  0.19718307904E-01 0.  0.
         14    1    1    2    0    0  0.14272997670E-01  0.83047152794E-02  0.16181984608E-01  0.23120194294E-01  0.00000000000E+00 0. -1.
     999901    1    3    3    0    0  0.46068620209E-01 -0.82420495052E-01 -0.10193207958E+00  0.89090156842E+00  0.88000000000E+00 0.  1.
        -11    1    4    4    0    0 -0.25682858742E-01  0.38557074263E-01  0.53135903437E-01  0.70497819569E-01  0.51100000000E-03 0. -1.
         11    1    4    4    0    0 -0.34658759137E-01  0.35558705510E-01  0.32614191534E-01  0.59410417714E-01  0.51100000000E-03 0.  1.
</event>
<event>
 8    1  0.1126407E+005  0.1043930E+01  0.7957747E-01            NaN
         13   -1    0    0    0    0  0.00000000000E+00  0.00000000000E+00  0.74505805969E-08  0.10566000000E+00  0.10566000000E+00 0.  1.
     999900   -1    0    0    0    0 -0.00000000000E+00 -0.00000000000E+00 -0.74505805969E-08  0.93827000000E+00  0.93827000000E+00 0. -1.
     999902    2    1    2    0    0  0.16931121200E-02 -0.16409871051E-01 -0.32296766809E-02  0.10271198451E+01  0.10269822758E+01 0.  0.
     999903    2    3    3    0    0 -0.82398532515E-01  0.28376070376E-01  0.10209552152E+00  0.13573295792E+00  0.20130097401E-01 0.  0.
         14    1    1    2    0    0 -0.16931121200E-02  0.16409871051E-01  0.32296766809E-02  0.16810154908E-01  0.00000000000E+00 0.  1.
     999901    1    3    3    0    0  0.84091644635E-01 -0.44785941427E-01 -0.10532519820E+00  0.89138688717E+00  0.88000000000E+00 0. -1.
        -11    1    4    4    0    0 -0.27544788508E-01  0.31165071564E-02  0.21846296897E-01  0.35298014108E-01  0.51100000000E-03 0. -1.
         11    1    4    4    0    0 -0.54853744007E-01  0.25259563220E-01  0.80249224620E-01  0.10043494381E+00  0.51100000000E-03 0.  1.
</event>
<event>
 7    1  0.1126407E+005  0.1043930E+01  0.7957747E-01            NaN
         13   -1    0    0    0    0  0.00000000000E+00  0.00000000000E+00  0.74505805969E-08  0.10566000000E+00  0.10566000000E+00 0.  1.
     999900   -1    0    0    0    0 -0.00000000000E+00 -0.00000000000E+00 -0.74505805969E-08  0.93827000000E+00  0.93827000000E+00 0.  1.
     999902    2    1    2    0    0 -0.98019561050E-02 -0.15001837317E-01  0.16823910483E-01  0.10193499790E+01  0.10190535817E+01 0.  0.
         14    1    1    2    0    0  0.98019561050E-02  0.15001837317E-01 -0.16823910483E-01  0.24580020958E-01  0.00000000000E+00 0. -1.
     999901    1    3    3    0    0  0.15588321934E-01 -0.28933332043E-01  0.14092358549E+00  0.89181813753E+00  0.88000000000E+00 0. -1.
        -11    1    3    3    0    0 -0.61953064887E-02  0.37464137459E-02 -0.22834950411E-01  0.23960666095E-01  0.51100000000E-03 0.  1.
         11    1    3    3    0    0 -0.19194971550E-01  0.10185080980E-01 -0.10126472460E+00  0.10357117541E+00  0.51100000000E-03 0. -1.
</event>
<event>
 8    1  0.1126407E+005  0.1043930E+01  0.7957747E-01            NaN
         13   -1    0    0    0    0  0.00000000000E+00  0.00000000000E+00  0.74505805969E-08  0.10566000000E+00  0.10566000000E+00 0.  1.
     999900   -1    0    0    0    0 -0.00000000000E+00 -0.00000000000E+00 -0.74505805969E-08  0.93827000000E+00  0.93827000000E+00 0. -1.
     999902    2    1    2    0    0 -0.11029370001E-01  0.19370162235E-01 -0.88485501773E-02  0.10199477768E+01  0.10196657886E+01 0.  0.
     999903    2    3    3    0    0 -0.34920564978E-01 -0.13131301798E-01  0.12129291036E+00  0.12946255286E+00  0.25626266720E-01 0.  0.
         14    1    1    2    0    0  0.11029370001E-01 -0.19370162235E-01  0.88485501773E-02  0.23982223164E-01  0.00000000000E+00 0. -1.
     999901    1    3    3    0    0  0.23891194977E-01  0.32501464034E-01 -0.13014146053E+00  0.89048522397E+00  0.88000000000E+00 0.  1.
        -11    1    4    4    0    0  0.24458820410E-02  0.33732363757E-02  0.15424585492E-01  0.15985619200E-01  0.51100000000E-03 0.  1.
         11    1    4    4    0    0 -0.37366447019E-01 -0.16504538174E-01  0.10586832487E+00  0.11347693366E+00  0.51100000000E-03 0. -1.
</event>
<event>
 8    1  0.1126407E+005  0.1043930E+01  0.7957747E-01            NaN
         13   -1    0    0    0    0  0.00000000000E+00  0.00000000000E+00  0.74505805969E-08  0.10566000000E+00  0.10566000000E+00 0. -1.
     999900   -1    0    0    0    0 -0.00000000000E+00 -0.00000000000E+00 -0.74505805969E-08  0.93827000000E+00  0.93827000000E+00 0.  1.
     999902    2    1    2    0    0  0.21912055160E-01  0.37055524289E-02  0.12059331223E-01  0.10186456817E+01  0.10183318360E+01 0.  0.
     999903    2    3    3    0    0 -0.89069612374E-01 -0.85082145217E-01  0.25162041337E-01  0.12714589667E+00  0.18989034508E-01 0.  0.
         14    1    1    2    0    0 -0.21912055160E-01 -0.37055524289E-02 -0.12059331223E-01  0.25284318256E-01  0.00000000000E+00 0.  1.
     999901    1    3    3    0    0  0.11098166753E+00  0.88787697646E-01 -0.13102710114E-01  0.89149978508E+00  0.88000000000E+00 0. -1.
        -11    1    4    4    0    0 -0.45795313157E-01 -0.43506488621E-01  0.22563283075E-01  0.67077478511E-01  0.51100000000E-03 0. -1.
         11    1    4    4    0    0 -0.43274299217E-01 -0.41575656596E-01  0.25987582617E-02  0.60068418155E-01  0.51100000000E-03 0.  1.
</event>
<event>
 8    1  0.1126407E+005  0.1043930E+01  0.7957747E-01            NaN
         13   -1    0    0    0    0  0.00000000000E+00  0.00000000000E+00  0.74505805969E-08  0.10566000000E+00  0.10566000000E+00 0.  1.
     999900   -1    0    0    0    0 -0.00000000000E+00 -0.00000000000E+00 -0.74505805969E-08  0.93827000000E+00  0.93827000000E+00 0.  1.
     999902    2    1    2    0    0 -0.17996594484E-03  0.19111235932E-01 -0.20990073175E-01  0.10155424165E+01  0.10151455781E+01 0.  0.
     999903    2    3    3    0    0 -0.30215817999E-01  0.11670074121E+00 -0.43695215576E-01  0.12934752400E+00  0.17013272611E-01 0.  0.
         14    1    1    2    0    0  0.17996594484E-03 -0.19111235932E-01  0.20990073175E-01  0.28387583527E-01  0.00000000000E+00 0.  1.
     999901    1    3    3    0    0  0.30035852054E-01 -0.97589505278E-01  0.22705142401E-01  0.88619489247E+00  0.88000000000E+00 0.  1.
        -11    1    4    4    0    0 -0.30414844538E-01  0.11037539014E+00 -0.44723739943E-01  0.12291567660E+00  0.51100000000E-03 0.  1.
         11    1    4    4    0    0  0.19902653895E-03  0.63253510678E-02  0.10285243672E-02  0.64318474071E-02  0.51100000000E-03 0. -1.
</event>
<event>
 8    1  0.1126407E+005  0.1043930E+01  0.7957747E-01            NaN
         13   -1    0    0    0    0  0.00000000000E+00  0.00000000000E+00  0.74505805969E-08  0.10566000000E+00  0.10566000000E+00 0.  1.
     999900   -1    0    0    0    0 -0.00000000000E+00 -0.00000000000E+00 -0.74505805969E-08  0.93827000000E+00  0.93827000000E+00 0. -1.
     999902    2    1    2    0    0  0.14808026536E-01 -0.31259019483E-02  0.19004692624E-01  0.10196354069E+01  0.10193459353E+01 0.  0.
     999903    2    3    3    0    0  0.41879777394E-01 -0.78666790878E-02  0.12422785840E+00  0.13294083192E+00  0.20613189786E-01 0.  0.
         14    1    1    2    0    0 -0.14808026536E-01  0.31259019483E-02 -0.19004692624E-01  0.24294593115E-01  0.00000000000E+00 0. -1.
     999901    1    3    3    0    0 -0.27071750858E-01  0.47407771396E-02 -0.10522316578E+00  0.88669457497E+00  0.88000000000E+00 0. -1.
        -11    1    4    4    0    0  0.28314606052E-01 -0.39791370792E-03  0.53482451482E-01  0.60518666449E-01  0.51100000000E-03 0.  1.
         11    1    4    4    0    0  0.13565171342E-01 -0.74687653799E-02  0.70745406919E-01  0.72422165468E-01  0.51100000000E-03 0. -1.
</event>
<event>
 8    1  0.1126407E+005  0.1043930E+01  0.7957747E-01            NaN
         13   -1    0    0    0    0  0.00000000000E+00  0.00000000000E+00  0.74505805969E-08  0.10566000000E+00  0.10566000000E+00 0.  1.
     999900   -1    0    0    0    0 -0.00000000000E+00 -0.00000000000E+00 -0.74505805969E-08  0.93827000000E+00  0.93827000000E+00 0.  1.
     999902    2    1    2    0    0  0.10484423223E-01 -0.93592312821E-02 -0.20186989636E-01  0.10193325837E+01  0.10190357615E+01 0.  0.
     999903    2    3    3    0    0 -0.62473577415E-01 -0.10731251407E+00  0.31126679731E-01  0.12941640326E+00  0.18995043818E-01 0.  0.
         14    1    1    2    0    0 -0.10484423223E-01  0.93592312821E-02  0.20186989636E-01  0.24597416349E-01  0.00000000000E+00 0.  1.
     999901    1    3    3    0    0  0.72958000639E-01  0.97953282787E-01 -0.51313669367E-01  0.88991618040E+00  0.88000000000E+00 0.  1.
        -11    1    4    4    0    0 -0.51432246730E-02 -0.13498764352E-01 -0.19916508595E-02  0.14590996992E-01  0.51100000000E-03 0.  1.
         11    1    4    4    0    0 -0.57330352742E-01 -0.93813749716E-01  0.33118330590E-01  0.11482540626E+00  0.51100000000E-03 0. -1.
</event>
<event>
 8    1  0.1126407E+005  0.1043930E+01  0.7957747E-01            NaN
         13   -1    0    0    0    0  0.00000000000E+00  0.00000000000E+00  0.74505805969E-08  0.10566000000E+00  0.10566000000E+00 0.  1.
     999900   -1    0    0    0    0 -0.00000000000E+00 -0.00000000000E+00 -0.74505805969E-08  0.93827000000E+00  0.93827000000E+00 0. -1.
     999902    2    1    2    0    0 -0.18295615634E-01 -0.12450723906E-01 -0.70818705842E-02  0.10206941878E+01  0.10204296752E+01 0.  0.
     999903    2    3    3    0    0  0.30582055312E-01 -0.10382090364E+00  0.71599903114E-01  0.13112780019E+00  0.18812541521E-01 0.  0.
         14    1    1    2    0    0  0.18295615634E-01  0.12450723906E-01  0.70818705842E-02  0.23235812191E-01  0.00000000000E+00 0.  1.
     999901    1    3    3    0    0 -0.48877670946E-01  0.91370179733E-01 -0.78681773698E-01  0.88956638761E+00  0.88000000000E+00 0.  1.
        -11    1    4    4    0    0  0.11701679226E-02 -0.31208894320E-01  0.16298076401E-01  0.35231417698E-01  0.51100000000E-03 0. -1.
         11    1    4    4    0    0  0.29411887390E-01 -0.72612009319E-01  0.55301826713E-01  0.95896382497E-01  0.51100000000E-03 0.  1.
</event>
<event>
 8    1  0.1126407E+005  0.1043930E+01  0.7957747E-01            NaN
         13   -1    0    0    0    0  0.00000000000E+00  0.00000000000E+00  0.74505805969E-08  0.10566000000E+00  0.10566000000E+00 0.  1.
     999900   -1    0    0    0    0 -0.00000000000E+00 -0.00000000000E+00 -0.74505805969E-08  0.93827000000E+00  0.93827000000E+00 0.  1.
     999902    2    1    2    0    0 -0.15672563851E-01 -0.56933547055E-02  0.16874475661E-01  0.10202067735E+01  0.10199309140E+01 0.  0.
     999903    2    3    3    0    0 -0.71446969733E-01  0.99003467544E-01  0.45261515588E-01  0.13179356281E+00  0.20361295027E-01 0.  0.
         14    1    1    2    0    0  0.15672563851E-01  0.56933547055E-02 -0.16874475661E-01  0.23723226473E-01  0.00000000000E+00 0. -1.
     999901    1    3    3    0    0  0.55774405882E-01 -0.10469682225E+00 -0.28387039927E-01  0.88841321072E+00  0.88000000000E+00 0.  1.
        -11    1    4    4    0    0 -0.31634158471E-01  0.48619468978E-01  0.11116055038E-01  0.59062683197E-01  0.51100000000E-03 0.  1.
         11    1    4    4    0    0 -0.39812811262E-01  0.50383998566E-01  0.34145460550E-01  0.72730879613E-01  0.51100000000E-03 0. -1.
</event>
<event>
 8    1  0.1126407E+005  0.1043930E+01  0.7957747E-01            NaN
         13   -1    0    0    0    0  0.00000000000E+00  0.00000000000E+00  0.74505805969E-08  0.10566000000E+00  0.10566000000E+00 0.  1.
     999900   -1    0    0    0    0 -0.00000000000E+00 -0.00000000000E+00 -0.74505805969E-08  0.93827000000E+00  0.93827000000E+00 0. -1.
     999902    2    1    2    0    0  0.90796423051E-02  0.34181481055E-02 -0.22610910929E-01  0.10193255912E+01  0.10190285982E+01 0.  0.
     999903    2    3    3    0    0  0.57602222926E-01  0.10299904703E+00  0.49387953685E-01  0.12946344861E+00  0.19869443376E-01 0.  0.
         14    1    1    2    0    0 -0.90796423051E-02 -0.34181481055E-02  0.22610910929E-01  0.24604408831E-01  0.00000000000E+00 0.  1.
     999901    1    3    3    0    0 -0.48522580620E-01 -0.99580898928E-01 -0.71998864614E-01  0.88986214256E+00  0.88000000000E+00 0. -1.
        -11    1    4    4    0    0  0.21849694481E-01  0.22967580727E-01  0.90458612682E-02  0.32969798914E-01  0.51100000000E-03 0. -1.
         11    1    4    4    0    0  0.35752528445E-01  0.80031466306E-01  0.40342092417E-01  0.96493649692E-01  0.51100000000E-03 0.  1.
</event>
<event>
 8    1  0.1126407E+005  0.1043930E+01  0.7957747E-01            NaN
         13   -1    0    0    0    0  0.00000000000E+00  0.00000000000E+00  0.74505805969E-08  0.10566000000E+00  0.10566000000E+00 0. -1.
     999900   -1    0    0    0    0 -0.00000000000E+00 -0.00000000000E+00 -0.74505805969E-08  0.93827000000E+00  0.93827000000E+00 0. -1.
     999902    2    1    2    0    0  0.10224427457E-01 -0.20292785100E-01 -0.58491904762E-02  0.10204662178E+01  0.10201964285E+01 0.  0.
     999903    2    3    3    0    0 -0.71790844667E-02 -0.49231566243E-01  0.11922273439E+00  0.13098135475E+00  0.21604826520E-01 0.  0.
         14    1    1    2    0    0 -0.10224427457E-01  0.20292785100E-01  0.58491904762E-02  0.23463782158E-01  0.00000000000E+00 0. -1.
     999901    1    3    3    0    0  0.17403511924E-01  0.28938781143E-01 -0.12507192486E+00  0.88948486309E+00  0.88000000000E+00 0. -1.
        -11    1    4    4    0    0 -0.74608285246E-02 -0.68146258683E-02  0.38300090859E-01  0.39613901206E-01  0.51100000000E-03 0.  1.
         11    1    4    4    0    0  0.28174405785E-03 -0.42416940375E-01  0.80922643527E-01  0.91367453543E-01  0.51100000000E-03 0. -1.
</event>
<event>
 8    1  0.1126407E+005  0.1043930E+01  0.7957747E-01            NaN
         13   -1    0    0    0    0  0.00000000000E+00  0.00000000000E+00  0.74505805969E-08  0.10566000000E+00  0.10566000000E+00 0.  1.
     999900   -1    0    0    0    0 -0.00000000000E+00 -0.00000000000E+00 -0.74505805969E-08  0.93827000000E+00  0.93827000000E+00 0. -1.
     999902    2    1    2    0    0  0.37476399011E-02  0.95443226163E-02 -0.65203340374E-02  0.10317787180E+01  0.10317071625E+01 0.  0.
     999903    2    3    3    0    0 -0.31191182251E-01 -0.44223647453E-01  0.12661322579E+00  0.13945800172E+00  0.22113445085E-01 0.  0.
         14    1    1    2    0    0 -0.37476399011E-02 -0.95443226163E-02  0.65203340374E-02  0.12151282031E-01  0.00000000000E+00 0. -1.
     999901    1    3    3    0    0  0.34938822152E-01  0.53767970069E-01 -0.13313355983E+00  0.89232071625E+00  0.88000000000E+00 0. -1.
        -11    1    4    4    0    0 -0.23144872639E-01 -0.42916929828E-01  0.11752043535E+00  0.12723545827E+00  0.51100000000E-03 0.  1.
         11    1    4    4    0    0 -0.80463096111E-02 -0.13067176247E-02  0.90927904404E-02  0.12222543447E-01  0.51100000000E-03 0. -1.
</event>
<event>
 8    1  0.1126407E+005  0.1043930E+01  0.7957747E-01            NaN
         13   -1    0    0    0    0  0.00000000000E+00  0.00000000000E+00  0.74505805969E-08  0.10566000000E+00  0.10566000000E+00 0.  1.
     999900   -1    0    0    0    0 -0.00000000000E+00 -0.00000000000E+00 -0.74505805969E-08  0.93827000000E+00  0.93827000000E+00 0.  1.
     999902    2    1    2    0    0  0.99823993331E-02 -0.14093357615E-01  0.17640415208E-01  0.10192428520E+01  0.10189438337E+01 0.  0.
     999903    2    3    3    0    0  0.90894598755E-01 -0.69966092377E-01  0.63196759364E-01  0.13259527437E+00  0.20750764477E-01 0.  0.
         14    1    1    2    0    0 -0.99823993331E-02  0.14093357615E-01 -0.17640415208E-01  0.24687147953E-01  0.00000000000E+00 0. -1.
     999901    1    3    3    0    0 -0.80912199422E-01  0.55872734762E-01 -0.45556344155E-01  0.88664757768E+00  0.88000000000E+00 0. -1.
        -11    1    4    4    0    0  0.38373653443E-01 -0.27933075000E-01  0.14788382976E-01  0.49716710969E-01  0.51100000000E-03 0. -1.
         11    1    4    4    0    0  0.52520945312E-01 -0.42033017377E-01  0.48408376387E-01  0.82878563403E-01  0.51100000000E-03 0.  1.
</event>
<event>
 8    1  0.1126407E+005  0.1043930E+01  0.7957747E-01            NaN
         13   -1    0    0    0    0  0.00000000000E+00  0.00000000000E+00  0.74505805969E-08  0.10566000000E+00  0.10566000000E+00 0.  1.
     999900   -1    0    0    0    0 -0.00000000000E+00 -0.00000000000E+00 -0.74505805969E-08  0.93827000000E+00  0.93827000000E+00 0.  1.
     999902    2    1    2    0    0  0.67556838091E-02  0.20932490150E-01 -0.81729094762E-02  0.10204650292E+01  0.10201952121E+01 0.  0.
     999903    2    3    3    0    0  0.11894100985E+00  0.15582566654E-01 -0.49448529109E-01  0.13236714838E+00  0.26193982701E-01 0.  0.
         14    1    1    2    0    0 -0.67556838091E-02 -0.20932490150E-01  0.81729094762E-02  0.23464970848E-01  0.00000000000E+00 0.  1.
     999901    1    3    3    0    0 -0.11218532605E+00  0.53499234959E-02  0.41275619633E-01  0.88809788078E+00  0.88000000000E+00 0. -1.
        -11    1    4    4    0    0  0.57774515464E-01 -0.55041643880E-02 -0.25159491847E-01  0.63257028176E-01  0.51100000000E-03 0.  1.
         11    1    4    4    0    0  0.61166494390E-01  0.21086731042E-01 -0.24289037262E-01  0.69110120200E-01  0.51100000000E-03 0. -1.
</event>
<event>
 8    1  0.1126407E+005  0.1043930E+01  0.7957747E-01            NaN
         13   -1    0    0    0    0  0.00000000000E+00  0.00000000000E+00  0.74505805969E-08  0.10566000000E+00  0.10566000000E+00 0. -1.
     999900   -1    0    0    0    0 -0.00000000000E+00 -0.00000000000E+00 -0.74505805969E-08  0.93827000000E+00  0.93827000000E+00 0.  1.
     999902    2    1    2    0    0  0.79314823494E-02  0.13937329800E-01 -0.93816233560E-02  0.10253511833E+01  0.10251828503E+01 0.  0.
     999903    2    3    3    0    0  0.81302575274E-01 -0.66115164651E-01 -0.84194812659E-01  0.13552606987E+00  0.17240226017E-01 0.  0.
         14    1    1    2    0    0 -0.79314823494E-02 -0.13937329800E-01  0.93816233560E-02  0.18578816728E-01  0.00000000000E+00 0. -1.
     999901    1    3    3    0    0 -0.73371092925E-01  0.80052494451E-01  0.74813189303E-01  0.88982511340E+00  0.88000000000E+00 0. -1.
        -11    1    4    4    0    0  0.33310696135E-01 -0.34329761772E-01 -0.46525471880E-01  0.66730919932E-01  0.51100000000E-03 0. -1.
         11    1    4    4    0    0  0.47991879139E-01 -0.31785402879E-01 -0.37669340779E-01  0.68795149939E-01  0.51100000000E-03 0.  1.
</event>
<event>
 8    1  0.1126407E+005  0.1043930E+01  0.7957747E-01            NaN
         13   -1    0    0    0    0  0.00000000000E+00  0.00000000000E+00  0.74505805969E-08  0.10566000000E+00  0.10566000000E+00 0. -1.
     999900   -1    0    0    0    0 -0.00000000000E+00 -0.00000000000E+00 -0.74505805969E-08  0.93827000000E+00  0.93827000000E+00 0.  1.
     999902    2    1    2    0    0  0.22530083459E-01 -0.19871036577E-02 -0.42264958982E-02  0.10209209472E+01  0.10206616305E+01 0.  0.
     999903    2    3    3    0    0 -0.66539841542E-01  0.10495361510E+00  0.29751130531E-01  0.12933570287E+00  0.19994560145E-01 0.  0.
         14    1    1    2    0    0 -0.22530083459E-01  0.19871036577E-02  0.42264958982E-02  0.23009052766E-01  0.00000000000E+00 0. -1.
     999901    1    3    3    0    0  0.89069925000E-01 -0.10694071875E+00 -0.33977626429E-01  0.89158524436E+00  0.88000000000E+00 0. -1.
        -11    1    4    4    0    0 -0.39539691092E-01  0.63280634719E-01  0.77459944974E-02  0.75020580202E-01  0.51100000000E-03 0.  1.
         11    1    4    4    0    0 -0.27000150450E-01  0.41672980377E-01  0.22005136033E-01  0.54315122670E-01  0.51100000000E-03 0. -1.
</event>
<event>
 8    1  0.1126407E+005  0.1043930E+01  0.7957747E-01            NaN
         13   -1    0    0    0    0  0.00000000000E+00  0.00000000000E+00  0.74505805969E-08  0.10566000000E+00  0.10566000000E+00 0.  1.
     999900   -1    0    0    0    0 -0.00000000000E+00 -0.00000000000E+00 -0.74505805969E-08  0.93827000000E+00  0.93827000000E+00 0. -1.
     999902    2    1    2    0    0  0.10779829477E-02  0.14551297711E-01 -0.17713456320E-01  0.10209807332E+01  0.10207227776E+01 0.  0.
     999903    2    3    3    0    0  0.12082108437E-01 -0.74751925474E-01  0.10108699183E+00  0.12845078807E+00  0.23392249419E-01 0.  0.
         14    1    1    2    0    0 -0.10779829477E-02 -0.14551297711E-01  0.17713456320E-01  0.22949266809E-01  0.00000000000E+00 0.  1.
     999901    1    3    3    0    0 -0.11004125489E-01  0.89303223185E-01 -0.11880044815E+00  0.89252994512E+00  0.88000000000E+00 0. -1.
        -11    1    4    4    0    0  0.11484014380E-01 -0.50078009823E-01  0.49909325871E-01  0.71630242105E-01  0.51100000000E-03 0.  1.
         11    1    4    4    0    0  0.59809405702E-03 -0.24673915651E-01  0.51177665960E-01  0.56820545969E-01  0.51100000000E-03 0. -1.
</event>
<event>
 8    1  0.1126407E+005  0.1043930E+01  0.7957747E-01            NaN
         13   -1    0    0    0    0  0.00000000000E+00  0.00000000000E+00  0.74505805969E-08  0.10566000000E+00  0.10566000000E+00 0.  1.
     999900   -1    0    0    0    0 -0.00000000000E+00 -0.00000000000E+00 -0.74505805969E-08  0.93827000000E+00  0.93827000000E+00 0. -1.
     999902    2    1    2    0    0  0.18239656407E-01 -0.69575205552E-02  0.13463118787E-01  0.10202161280E+01  0.10199404885E+01 0.  0.
     999903    2    3    3    0    0  0.72075502658E-01  0.80437613882E-01 -0.69706325313E-01  0.13035469816E+00  0.21639956894E-01 0.  0.
         14    1    1    2    0    0 -0.18239656407E-01  0.69575205552E-02 -0.13463118787E-01  0.23713872007E-01  0.00000000000E+00 0. -1.
     999901    1    3    3    0    0 -0.53835846251E-01 -0.87395134438E-01  0.83169444100E-01  0.88986142983E+00  0.88000000000E+00 0.  1.
        -11    1    4    4    0    0  0.33537312711E-01  0.22405406153E-01 -0.22303090089E-01  0.46091675141E-01  0.51100000000E-03 0.  1.
         11    1    4    4    0    0  0.38538189946E-01  0.58032207730E-01 -0.47403235224E-01  0.84263023023E-01  0.51100000000E-03 0. -1.
</event>
<event>
 8    1  0.1126407E+005  0.1043930E+01  0.7957747E-01            NaN
         13   -1    0    0    0    0  0.00000000000E+00  0.00000000000E+00  0.74505805969E-08  0.10566000000E+00  0.10566000000E+00 0.  1.
     999900   -1    0    0    0    0 -0.00000000000E+00 -0.00000000000E+00 -0.74505805969E-08  0.93827000000E+00  0.93827000000E+00 0. -1.
     999902    2    1    2    0    0  0.11186040990E-01 -0.19251965928E-01  0.73035729280E-02  0.10204969489E+01  0.10202278740E+01 0.  0.
     999903    2    3    3    0    0  0.86874812901E-01  0.84234731273E-01 -0.43047712230E-01  0.12978176515E+00  0.18640760932E-01 0.  0.
         14    1    1    2    0    0 -0.11186040990E-01  0.19251965928E-01 -0.73035729280E-02  0.23433051074E-01  0.00000000000E+00 0. -1.
     999901    1    3    3    0    0 -0.75688771911E-01 -0.10348669720E+00  0.50351285158E-01  0.89071518378E+00  0.88000000000E+00 0. -1.
        -11    1    4    4    0    0  0.21117648892E-01  0.19215366492E-01 -0.20621246473E-02  0.28630383916E-01  0.51100000000E-03 0.  1.
         11    1    4    4    0    0  0.65757164009E-01  0.65019364781E-01 -0.40985587583E-01  0.10115138123E+00  0.51100000000E-03 0. -1.
</event>
<event>
 8    1  0.1126407E+005  0.1043930E+01  0.7957747E-01            NaN
         13   -1    0    0    0    0  0.00000000000E+00  0.00000000000E+00  0.74505805969E-08  0.10566000000E+00  0.10566000000E+00 0.  1.
     999900   -1    0    0    0    0 -0.00000000000E+00 -0.00000000000E+00 -0.74505805969E-08  0.93827000000E+00  0.93827000000E+00 0.  1.
     999902    2    1    2    0    0  0.12873497469E-02 -0.17657439499E-01  0.15665376162E-01  0.10202900666E+01  0.10200161634E+01 0.  0.
     999903    2    3    3    0    0 -0.66435179674E-01  0.10108778645E+00  0.41543945290E-01  0.12935995152E+00  0.19383601345E-01 0.  0.
         14    1    1    2    0    0 -0.12873497469E-02  0.17657439499E-01 -0.15665376162E-01  0.23639933362E-01  0.00000000000E+00 0. -1.
     999901    1    3    3    0    0  0.67722529421E-01 -0.11874522595E+00 -0.25878569127E-01  0.89093011511E+00  0.88000000000E+00 0.  1.
        -11    1    4    4    0    0 -0.21314497177E-01  0.32562237868E-01  0.23114595636E-01  0.45267568714E-01  0.51100000000E-03 0. -1.
         11    1    4    4    0    0 -0.45120682497E-01  0.68525548579E-01  0.18429349654E-01  0.84092382810E-01  0.51100000000E-03 0.  1.
</event>
<event>
 8    1  0.1126407E+005  0.1043930E+01  0.7957747E-01            NaN
         13   -1    0    0    0    0  0.00000000000E+00  0.00000000000E+00  0.74505805969E-08  0.10566000000E+00  0.10566000000E+00 0.  1.
     999900   -1    0    0    0    0 -0.00000000000E+00 -0.00000000000E+00 -0.74505805969E-08  0.93827000000E+00  0.93827000000E+00 0.  1.
     999902    2    1    2    0    0  0.48032744319E-02  0.23274865133E-01 -0.28251064907E-02  0.10199973441E+01  0.10197165341E+01 0.  0.
     999903    2    3    3    0    0 -0.89905321690E-01  0.58198028034E-01  0.72704806659E-01  0.13101246612E+00  0.20206435390E-01 0.  0.
         14    1    1    2    0    0 -0.48032744319E-02 -0.23274865133E-01  0.28251064907E-02  0.23932655910E-01  0.00000000000E+00 0.  1.
     999901    1    3    3    0    0  0.94708596122E-01 -0.34923162902E-01 -0.75529913150E-01  0.88898487797E+00  0.88000000000E+00 0.  1.
        -11    1    4    4    0    0 -0.16776466844E-01  0.17597638103E-01  0.92349635048E-02  0.26012927142E-01  0.51100000000E-03 0. -1.
         11    1    4    4    0    0 -0.73128854846E-01  0.40600389932E-01  0.63469843154E-01  0.10499953897E+00  0.51100000000E-03 0.  1.
</event>
<event>
 8    1  0.1126407E+005  0.1043930E+01  0.7957747E-01            NaN
         13   -1    0    0    0    0  0.00000000000E+00  0.00000000000E+00  0.74505805969E-08  0.10566000000E+00  0.10566000000E+00 0.  1.
     999900   -1    0    0    0    0 -0.00000000000E+00 -0.00000000000E+00 -0.74505805969E-08  0.93827000000E+00  0.93827000000E+00 0. -1.
     999902    2    1    2    0    0 -0.87878020885E-02  0.13349158074E-01 -0.15362371899E-01  0.10217618256E+01  0.10215213166E+01 0.  0.
     999903    2    3    3    0    0  0.10730197796E+00  0.65029586254E-01  0.33162071861E-01  0.13131119509E+00  0.20008632749E-01 0.  0.
         14    1    1    2    0    0  0.87878020885E-02 -0.13349158074E-01  0.15362371899E-01  0.22168174422E-01  0.00000000000E+00 0.  1.
     999901    1    3    3    0    0 -0.11608978005E+00 -0.51680428180E-01 -0.48524443760E-01  0.89045063048E+00  0.88000000000E+00 0. -1.
        -11    1    4    4    0    0  0.30962680550E-01  0.28764409383E-01  0.15133431525E-01  0.44892768958E-01  0.51100000000E-03 0.  1.
         11    1    4    4    0    0  0.76339297408E-01  0.36265176871E-01  0.18028640336E-01  0.86418426135E-01  0.51100000000E-03 0. -1.
</event>
<event>
 8    1  0.1126407E+005  0.1043930E+01  0.7957747E-01            NaN
         13   -1    0    0    0    0  0.00000000000E+00  0.00000000000E+00  0.74505805969E-08  0.10566000000E+00  0.10566000000E+00 0.  1.
     999900   -1    0    0    0    0 -0.00000000000E+00 -0.00000000000E+00 -0.74505805969E-08  0.93827000000E+00  0.93827000000E+00 0. -1.
     999902    2    1    2    0    0 -0.38252109001E-02  0.16500337265E-01  0.14565560012E-01  0.10215905974E+01  0.10213463173E+01 0.  0.
     999903    2    3    3    0    0 -0.81182574055E-01  0.73484728276E-01  0.75266900422E-01  0.13428228846E+00  0.19391005015E-01 0.  0.
         14    1    1    2    0    0  0.38252109001E-02 -0.16500337265E-01 -0.14565560012E-01  0.22339402561E-01  0.00000000000E+00 0. -1.
     999901    1    3    3    0    0  0.77357363155E-01 -0.56984391010E-01 -0.60701340410E-01  0.88730830898E+00  0.88000000000E+00 0.  1.
        -11    1    4    4    0    0 -0.61387337099E-02  0.14072271933E-02  0.87218408196E-02  0.10770142442E-01  0.51100000000E-03 0. -1.
         11    1    4    4    0    0 -0.75043840345E-01  0.72077501082E-01  0.66545059602E-01  0.12351214602E+00  0.51100000000E-03 0.  1.
</event>
<event>
 8    1  0.1126407E+005  0.1043930E+01  0.7957747E-01            NaN
         13   -1    0    0    0    0  0.00000000000E+00  0.00000000000E+00  0.74505805969E-08  0.10566000000E+00  0.10566000000E+00 0.  1.
     999900   -1    0    0    0    0 -0.00000000000E+00 -0.00000000000E+00 -0.74505805969E-08  0.93827000000E+00  0.93827000000E+00 0.  1.
     999902    2    1    2    0    0  0.17453952798E-01  0.15017914946E-01  0.11301446862E-01  0.10182804203E+01  0.10179573240E+01 0.  0.
     999903    2    3    3    0    0  0.12491545700E+00 -0.23600671968E-01 -0.20426613557E-01  0.13033557969E+00  0.20230019201E-01 0.  0.
         14    1    1    2    0    0 -0.17453952798E-01 -0.15017914946E-01 -0.11301446862E-01  0.25649579700E-01  0.00000000000E+00 0. -1.
     999901    1    3    3    0    0 -0.10746150421E+00  0.38618586914E-01  0.31728060420E-01  0.88794484061E+00  0.88000000000E+00 0.  1.
        -11    1    4    4    0    0  0.90207710936E-01 -0.17011569709E-01 -0.54492149601E-02  0.91960750764E-01  0.51100000000E-03 0.  1.
         11    1    4    4    0    0  0.34707746068E-01 -0.65891022592E-02 -0.14977398597E-01  0.38374828930E-01  0.51100000000E-03 0. -1.
</event>
<event>
 8    1  0.1126407E+005  0.1043930E+01  0.7957747E-01            NaN
         13   -1    0    0    0    0  0.00000000000E+00  0.00000000000E+00  0.74505805969E-08  0.10566000000E+00  0.10566000000E+00 0. -1.
     999900   -1    0    0    0    0 -0.00000000000E+00 -0.00000000000E+00 -0.74505805969E-08  0.93827000000E+00  0.93827000000E+00 0. -1.
     999902    2    1    2    0    0  0.18016732416E-01  0.13054373654E-01  0.78425373259E-02  0.10203392240E+01  0.10200664721E+01 0.  0.
     999903    2    3    3    0    0  0.72197399782E-01  0.89257739261E-01 -0.63079360504E-01  0.13254847548E+00  0.20265341779E-01 0.  0.
         14    1    1    2    0    0 -0.18016732416E-01 -0.13054373654E-01 -0.78425373259E-02  0.23590775954E-01  0.00000000000E+00 0.  1.
     999901    1    3    3    0    0 -0.54180667366E-01 -0.76203365607E-01  0.70921897829E-01  0.88779074857E+00  0.88000000000E+00 0.  1.
        -11    1    4    4    0    0  0.57589998378E-01  0.59513263210E-01 -0.38744677943E-01  0.91432202210E-01  0.51100000000E-03 0. -1.
         11    1    4    4    0    0  0.14607401404E-01  0.29744476051E-01 -0.24334682561E-01  0.41116273271E-01  0.51100000000E-03 0.  1.
</event>
<event>
 8    1  0.1126407E+005  0.1043930E+01  0.7957747E-01            NaN
         13   -1    0    0    0    0  0.00000000000E+00  0.00000000000E+00  0.74505805969E-08  0.10566000000E+00  0.10566000000E+00 0. -1.
     999900   -1    0    0    0    0 -0.00000000000E+00 -0.00000000000E+00 -0.74505805969E-08  0.93827000000E+00  0.93827000000E+00 0. -1.
     999902    2    1    2    0    0  0.11657245581E-01 -0.15687303004E-01  0.13158276589E-01  0.10203689497E+01  0.10200968926E+01 0.  0.
     999903    2    3    3    0    0 -0.58965329131E-01 -0.50561989514E-01  0.10489475448E+00  0.13210132491E+00  0.20357448332E-01 0.  0.
         14    1    1    2    0    0 -0.11657245581E-01  0.15687303004E-01 -0.13158276589E-01  0.23561050334E-01  0.00000000000E+00 0.  1.
     999901    1    3    3    0    0  0.70622574712E-01  0.34874686510E-01 -0.91736477888E-01  0.88826762476E+00  0.88000000000E+00 0. -1.
        -11    1    4    4    0    0 -0.43698266910E-01 -0.31107759080E-01  0.84276350467E-01  0.99899927802E-01  0.51100000000E-03 0.  1.
         11    1    4    4    0    0 -0.15267062221E-01 -0.19454230434E-01  0.20618404009E-01  0.32201397105E-01  0.51100000000E-03 0. -1.
</event>
<event>
 8    1  0.1126407E+005  0.1043930E+01  0.7957747E-01            NaN
         13   -1    0    0    0    0  0.00000000000E+00  0.00000000000E+00  0.74505805969E-08  0.10566000000E+00  0.10566000000E+00 0. -1.
     999900   -1    0    0    0    0 -0.00000000000E+00 -0.00000000000E+00 -0.74505805969E-08  0.93827000000E+00  0.93827000000E+00 0. -1.
     999902    2    1    2    0    0  0.19754217332E-03 -0.10362743377E-01 -0.12305025030E-01  0.10278415223E+01  0.10277156007E+01 0.  0.
     999903    2    3    3    0    0 -0.94413136184E-01  0.95602275914E-01 -0.98036473800E-02  0.13644597450E+00  0.21627690859E-01 0.  0.
         14    1    1    2    0    0 -0.19754217332E-03  0.10362743377E-01  0.12305025030E-01  0.16088477684E-01  0.00000000000E+00 0. -1.
     999901    1    3    3    0    0  0.94610678357E-01 -0.10596501929E+00 -0.25013776497E-02  0.89139554781E+00  0.88000000000E+00 0. -1.
        -11    1    4    4    0    0 -0.75125533582E-01  0.63044926179E-01 -0.39858895571E-02  0.98156288384E-01  0.51100000000E-03 0.  1.
         11    1    4    4    0    0 -0.19287602602E-01  0.32557349735E-01 -0.58177578228E-02  0.38289686118E-01  0.51100000000E-03 0. -1.
</event>
<event>
 8    1  0.1126407E+005  0.1043930E+01  0.7957747E-01            NaN
         13   -1    0    0    0    0  0.00000000000E+00  0.00000000000E+00  0.74505805969E-08  0.10566000000E+00  0.10566000000E+00 0.  1.
     999900   -1    0    0    0    0 -0.00000000000E+00 -0.00000000000E+00 -0.74505805969E-08  0.93827000000E+00  0.93827000000E+00 0.  1.
     999902    2    1    2    0    0 -0.31793544970E-02 -0.17865538945E-01  0.15858709897E-01  0.10198305300E+01  0.10195457446E+01 0.  0.
     999903    2    3    3    0    0 -0.10461112190E+00 -0.21330711643E-01  0.74924002477E-01  0.13203037246E+00  0.20492120918E-01 0.  0.
         14    1    1    2    0    0  0.31793544970E-02  0.17865538945E-01 -0.15858709897E-01  0.24099470044E-01  0.00000000000E+00 0. -1.
     999901    1    3    3    0    0  0.10143176741E+00  0.34651726979E-02 -0.59065292580E-01  0.88780015750E+00  0.88000000000E+00 0.  1.
        -11    1    4    4    0    0 -0.65471642400E-01 -0.23295529471E-01  0.49287466675E-01  0.85198199183E-01  0.51100000000E-03 0.  1.
         11    1    4    4    0    0 -0.39139479504E-01  0.19648178276E-02  0.25636535802E-01  0.46832173278E-01  0.51100000000E-03 0. -1.
</event>
<event>
 8    1  0.1126407E+005  0.1043930E+01  0.7957747E-01            NaN
         13   -1    0    0    0    0  0.00000000000E+00  0.00000000000E+00  0.74505805969E-08  0.10566000000E+00  0.10566000000E+00 0.  1.
     999900   -1    0    0    0    0 -0.00000000000E+00 -0.00000000000E+00 -0.74505805969E-08  0.93827000000E+00  0.93827000000E+00 0. -1.
     999902    2    1    2    0    0 -0.58384516237E-02 -0.21090217504E-02 -0.23663977503E-01  0.10194653455E+01  0.10191717575E+01 0.  0.
     999903    2    3    3    0    0 -0.79180676318E-01 -0.10129825393E+00  0.71158643425E-02  0.13032813200E+00  0.20096534877E-01 0.  0.
         14    1    1    2    0    0  0.58384516237E-02  0.21090217504E-02  0.23663977503E-01  0.24464654532E-01  0.00000000000E+00 0.  1.
     999901    1    3    3    0    0  0.73342224694E-01  0.99189232183E-01 -0.30779841845E-01  0.88913721346E+00  0.88000000000E+00 0. -1.
        -11    1    4    4    0    0 -0.34799082849E-01 -0.47777178019E-01  0.13090586799E-01  0.60541386591E-01  0.51100000000E-03 0. -1.
         11    1    4    4    0    0 -0.44381593469E-01 -0.53521075914E-01 -0.59747224563E-02  0.69786745413E-01  0.51100000000E-03 0.  1.
</event>
<event>
 8    1  0.1126407E+005  0.1043930E+01  0.7957747E-01            NaN
         13   -1    0    0    0    0  0.00000000000E+00  0.00000000000E+00  0.74505805969E-08  0.10566000000E+00  0.10566000000E+00 0.  1.
     999900   -1    0    0    0    0 -0.00000000000E+00 -0.00000000000E+00 -0.74505805969E-08  0.93827000000E+00  0.93827000000E+00 0. -1.
     999902    2    1    2    0    0 -0.95666047865E-02 -0.81855270359E-02 -0.18836030615E-01  0.10212734595E+01  0.10210221154E+01 0.  0.
     999903    2    3    3    0    0  0.35389550646E-01 -0.48222078051E-01  0.11402775567E+00  0.12926630308E+00  0.11386788067E-01 0.  0.
         14    1    1    2    0    0  0.95666047865E-02  0.81855270359E-02  0.18836030615E-01  0.22656540542E-01  0.00000000000E+00 0.  1.
     999901    1    3    3    0    0 -0.44956155432E-01  0.40036551015E-01 -0.13286378628E+00  0.89200715638E+00  0.88000000000E+00 0. -1.
        -11    1    4    4    0    0  0.13186049602E-01 -0.27247759098E-01  0.53752717761E-01  0.61692204270E-01  0.51100000000E-03 0. -1.
         11    1    4    4    0    0  0.22203501043E-01 -0.20974318953E-01  0.60275037907E-01  0.67574098808E-01  0.51100000000E-03 0.  1.
</event>
<event>
 8    1  0.1126407E+005  0.1043930E+01  0.7957747E-01            NaN
         13   -1    0    0    0    0  0.00000000000E+00  0.00000000000E+00  0.74505805969E-08  0.10566000000E+00  0.10566000000E+00 0.  1.
     999900   -1    0    0    0    0 -0.00000000000E+00 -0.00000000000E+00 -0.74505805969E-08  0.93827000000E+00  0.93827000000E+00 0.  1.
     999902    2    1    2    0    0 -0.63686787469E-02 -0.61466269468E-02  0.22913829088E-01  0.10193661107E+01  0.10190701070E+01 0.  0.
     999903    2    3    3    0    0 -0.29064595164E-01 -0.12553122229E+00  0.13914845040E-01  0.13096937058E+00  0.18881595698E-01 0.  0.
         14    1    1    2    0    0  0.63686787469E-02  0.61466269468E-02 -0.22913829088E-01  0.24563889254E-01  0.00000000000E+00 0. -1.
     999901    1    3    3    0    0  0.22695916418E-01  0.11938459534E+00  0.89989840486E-02  0.88839674017E+00  0.88000000000E+00 0. -1.
        -11    1    4    4    0    0  0.25772658157E-02 -0.73678349266E-02  0.19239492241E-02  0.80554324655E-02  0.51100000000E-03 0.  1.
         11    1    4    4    0    0 -0.31641860980E-01 -0.11816338736E+00  0.11990895816E-01  0.12291393811E+00  0.51100000000E-03 0. -1.
</event>
<event>
 8    1  0.1126407E+005  0.1043930E+01  0.7957747E-01            NaN
         13   -1    0    0    0    0  0.00000000000E+00  0.00000000000E+00  0.74505805969E-08  0.10566000000E+00  0.10566000000E+00 0. -1.
     999900   -1    0    0    0    0 -0.00000000000E+00 -0.00000000000E+00 -0.74505805969E-08  0.93827000000E+00  0.93827000000E+00 0. -1.
     999902    2    1    2    0    0  0.19144840004E-01 -0.11053083796E-01 -0.12381387578E-01  0.10185923932E+01  0.10182772064E+01 0.  0.
     999903    2    3    3    0    0 -0.91742108394E-01  0.61705678836E-01 -0.59988820609E-01  0.12738185660E+00  0.20081671718E-01 0.  0.
         14    1    1    2    0    0 -0.19144840004E-01  0.11053083796E-01  0.12381387578E-01  0.25337606804E-01  0.00000000000E+00 0. -1.
     999901    1    3    3    0    0  0.11088694840E+00 -0.72758762632E-01  0.47607433031E-01  0.89121053660E+00  0.88000000000E+00 0.  1.
        -11    1    4    4    0    0 -0.42244299643E-01  0.16595441557E-01 -0.25077627010E-01  0.51856899543E-01  0.51100000000E-03 0. -1.
         11    1    4    4    0    0 -0.49497808751E-01  0.45110237279E-01 -0.34911193600E-01  0.75524957055E-01  0.51100000000E-03 0.  1.
</event>
<event>
 8    1  0.1126407E+005  0.1043930E+01  0.7957747E-01            NaN
         13   -1    0    0    0    0  0.00000000000E+00  0.00000000000E+00  0.74505805969E-08  0.10566000000E+00  0.10566000000E+00 0.  1.
     999900   -1    0    0    0    0 -0.00000000000E+00 -0.00000000000E+00 -0.74505805969E-08  0.93827000000E+00  0.93827000000E+00 0.  1.
     999902    2    1    2    0    0 -0.20395287856E-01 -0.80634457486E-02  0.89056409607E-02  0.10202593987E+01  0.10199847760E+01 0.  0.
     999903    2    3    3    0    0  0.17832897415E-01  0.63084489995E-02  0.12825041898E+00  0.13126495467E+00  0.20603630698E-01 0.  0.
         14    1    1    2    0    0  0.20395287856E-01  0.80634457486E-02 -0.89056409607E-02  0.23670601281E-01  0.00000000000E+00 0. -1.
     999901    1    3    3    0    0 -0.38228185270E-01 -0.14371894748E-01 -0.11934477802E+00  0.88899444405E+00  0.88000000000E+00 0.  1.
        -11    1    4    4    0    0  0.42341497282E-02 -0.74714655680E-02  0.39262412185E-01  0.40193891990E-01  0.51100000000E-03 0. -1.
         11    1    4    4    0    0  0.13598747686E-01  0.13779914567E-01  0.88988006793E-01  0.91071062682E-01  0.51100000000E-03 0.  1.
</event>
<event>
 8    1  0.1126407E+005  0.1043930E+01  0.7957747E-01            NaN
         13   -1    0    0    0    0  0.00000000000E+00  0.00000000000E+00  0.74505805969E-08  0.10566000000E+00  0.10566000000E+00 0. -1.
     999900   -1    0    0    0    0 -0.00000000000E+00 -0.00000000000E+00 -0.74505805969E-08  0.93827000000E+00  0.93827000000E+00 0.  1.
     999902    2    1    2    0    0  0.37793554524E-02 -0.18355546413E-01  0.12794051766E-01  0.10212386498E+01  0.10209865242E+01 0.  0.
     999903    2    3    3    0    0 -0.70849593557E-01  0.75397743951E-01  0.77495636493E-01  0.13076380204E+00  0.19725961296E-01 0.  0.
         14    1    1    2    0    0 -0.37793554524E-02  0.18355546413E-01 -0.12794051766E-01  0.22691350166E-01  0.00000000000E+00 0.  1.
     999901    1    3    3    0    0  0.74628949009E-01 -0.93753290364E-01 -0.64701584727E-01  0.89047484779E+00  0.88000000000E+00 0.  1.
        -11    1    4    4    0    0 -0.50013573998E-01  0.39654459243E-01  0.50064297836E-01  0.81120458337E-01  0.51100000000E-03 0. -1.
         11    1    4    4    0    0 -0.20836019558E-01  0.35743284708E-01  0.27431338656E-01  0.49643343705E-01  0.51100000000E-03 0.  1.
</event>
<event>
 8    1  0.1126407E+005  0.1043930E+01  0.7957747E-01            NaN
         13   -1    0    0    0    0  0.00000000000E+00  0.00000000000E+00  0.74505805969E-08  0.10566000000E+00  0.10566000000E+00 0. -1.
     999900   -1    0    0    0    0 -0.00000000000E+00 -0.00000000000E+00 -0.74505805969E-08  0.93827000000E+00  0.93827000000E+00 0.  1.
     999902    2    1    2    0    0 -0.19496173127E-01  0.49104631793E-03  0.14197232797E-01  0.10198073278E+01  0.10195219873E+01 0.  0.
     999903    2    3    3    0    0 -0.12753506810E+00 -0.13500720702E-01 -0.24838828765E-01  0.13223085988E+00  0.20507799419E-01 0.  0.
         14    1    1    2    0    0  0.19496173127E-01 -0.49104631793E-03 -0.14197232797E-01  0.24122672161E-01  0.00000000000E+00 0.  1.
     999901    1    3    3    0    0  0.10803889497E+00  0.13991767020E-01  0.39036061562E-01  0.88757646796E+00  0.88000000000E+00 0. -1.
        -11    1    4    4    0    0 -0.81770263709E-01 -0.14225193107E-01 -0.24188900621E-01  0.86452855246E-01  0.51100000000E-03 0. -1.
         11    1    4    4    0    0 -0.45764804387E-01  0.72447240492E-03 -0.64992814384E-03  0.45778004635E-01  0.51100000000E-03 0.  1.
</event>
<event>
 8    1  0.1126407E+005  0.1043930E+01  0.7957747E-01            NaN
         13   -1    0    0    0    0  0.00000000000E+00  0.00000000000E+00  0.74505805969E-08  0.10566000000E+00  0.10566000000E+00 0. -1.
     999900   -1    0    0    0    0 -0.00000000000E+00 -0.00000000000E+00 -0.74505805969E-08  0.93827000000E+00  0.93827000000E+00 0.  1.
     999902    2    1    2    0    0  0.12579981675E-01  0.17487583627E-01  0.95321805981E-02  0.10203729631E+01  0.10201009998E+01 0.  0.
     999903    2    3    3    0    0  0.66789732086E-01  0.11287476474E+00  0.13642081931E-01  0.13355037508E+00  0.21166375596E-01 0.  0.
         14    1    1    2    0    0 -0.12579981675E-01 -0.17487583627E-01 -0.95321805981E-02  0.23557036890E-01  0.00000000000E+00 0.  1.
     999901    1    3    3    0    0 -0.54209750411E-01 -0.95387181114E-01 -0.41099013332E-02  0.88682258804E+00  0.88000000000E+00 0.  1.
        -11    1    4    4    0    0  0.46557865832E-01  0.59876924008E-01  0.12024793220E-01  0.76796729569E-01  0.51100000000E-03 0.  1.
         11    1    4    4    0    0  0.20231866254E-01  0.52997840733E-01  0.16172887112E-02  0.56753645506E-01  0.51100000000E-03 0. -1.
</event>
<event>
 8    1  0.1126407E+005  0.1043930E+01  0.7957747E-01            NaN
         13   -1    0    0    0    0  0.00000000000E+00  0.00000000000E+00  0.74505805969E-08  0.10566000000E+00  0.10566000000E+00 0. -1.
     999900   -1    0    0    0    0 -0.00000000000E+00 -0.00000000000E+00 -0.74505805969E-08  0.93827000000E+00  0.93827000000E+00 0. -1.
     999902    2    1    2    0    0 -0.15227572829E-01 -0.11116895802E-01  0.14167582070E-01  0.10203464310E+01  0.10200738476E+01 0.  0.
     999903    2    3    3    0    0 -0.21690520450E-01  0.26157110708E-02  0.12913603859E+00  0.13273835294E+00  0.21587803443E-01 0.  0.
         14    1    1    2    0    0  0.15227572829E-01  0.11116895802E-01 -0.14167582070E-01  0.23583569031E-01  0.00000000000E+00 0. -1.
     999901    1    3    3    0    0  0.64629476207E-02 -0.13732606873E-01 -0.11496845652E+00  0.88760807803E+00  0.88000000000E+00 0. -1.
        -11    1    4    4    0    0 -0.15979646907E-01  0.11542559500E-01  0.93487337634E-01  0.95544352078E-01  0.51100000000E-03 0. -1.
         11    1    4    4    0    0 -0.57108735425E-02 -0.89268484292E-02  0.35648700955E-01  0.37194000864E-01  0.51100000000E-03 0.  1.
</event>
<event>
 8    1  0.1126407E+005  0.1043930E+01  0.7957747E-01            NaN
         13   -1    0    0    0    0  0.00000000000E+00  0.00000000000E+00  0.74505805969E-08  0.10566000000E+00  0.10566000000E+00 0.  1.
     999900   -1    0    0    0    0 -0.00000000000E+00 -0.00000000000E+00 -0.74505805969E-08  0.93827000000E+00  0.93827000000E+00 0.  1.
     999902    2    1    2    0    0 -0.41422546846E-02  0.23493971196E-01 -0.85417502886E-02  0.10185905751E+01  0.10182753425E+01 0.  0.
     999903    2    3    3    0    0 -0.18373985398E-01  0.12892462305E+00 -0.10210127209E-01  0.13218155665E+00  0.20212754712E-01 0.  0.
         14    1    1    2    0    0  0.41422546846E-02 -0.23493971196E-01  0.85417502886E-02  0.25339424903E-01  0.00000000000E+00 0.  1.
     999901    1    3    3    0    0  0.14231730713E-01 -0.10543065185E+00  0.16683769200E-02  0.88640901845E+00  0.88000000000E+00 0.  1.
        -11    1    4    4    0    0 -0.18206951748E-01  0.59883079632E-01 -0.80162650126E-02  0.63103073966E-01  0.51100000000E-03 0.  1.
         11    1    4    4    0    0 -0.16703365000E-03  0.69041543413E-01 -0.21938621960E-02  0.69078482681E-01  0.51100000000E-03 0. -1.
</event>
<event>
 8    1  0.1126407E+005  0.1043930E+01  0.7957747E-01            NaN
         13   -1    0    0    0    0  0.00000000000E+00  0.00000000000E+00  0.74505805969E-08  0.10566000000E+00  0.10566000000E+00 0. -1.
     999900   -1    0    0    0    0 -0.00000000000E+00 -0.00000000000E+00 -0.74505805969E-08  0.93827000000E+00  0.93827000000E+00 0. -1.
     999902    2    1    2    0    0  0.12973798514E-01  0.33634247018E-02 -0.19498691585E-01  0.10202692509E+01  0.10199948595E+01 0.  0.
     999903    2    3    3    0    0 -0.10487161811E+00  0.47037003193E-01 -0.58436632708E-01  0.13048776823E+00  0.20041997416E-01 0.  0.
         14    1    1    2    0    0 -0.12973798514E-01 -0.33634247018E-02  0.19498691585E-01  0.23660749082E-01  0.00000000000E+00 0. -1.
     999901    1    3    3    0    0  0.11784541662E+00 -0.43673578491E-01  0.38937941123E-01  0.88978148269E+00  0.88000000000E+00 0.  1.
        -11    1    4    4    0    0 -0.80588265446E-01  0.28739746170E-01 -0.36654519554E-01  0.93081987851E-01  0.51100000000E-03 0. -1.
         11    1    4    4    0    0 -0.24283352665E-01  0.18297257023E-01 -0.21782113154E-01  0.37405780378E-01  0.51100000000E-03 0.  1.
</event>
<event>
 8    1  0.1126407E+005  0.1043930E+01  0.7957747E-01            NaN
         13   -1    0    0    0    0  0.00000000000E+00  0.00000000000E+00  0.74505805969E-08  0.10566000000E+00  0.10566000000E+00 0. -1.
     999900   -1    0    0    0    0 -0.00000000000E+00 -0.00000000000E+00 -0.74505805969E-08  0.93827000000E+00  0.93827000000E+00 0.  1.
     999902    2    1    2    0    0 -0.61576440517E-02 -0.15136221485E-01  0.18255255410E-01  0.10194294667E+01  0.10191350065E+01 0.  0.
     999903    2    3    3    0    0 -0.12329875855E+00  0.34500922077E-02 -0.35333294817E-01  0.12985697137E+00  0.19997607233E-01 0.  0.
         14    1    1    2    0    0  0.61576440517E-02  0.15136221485E-01 -0.18255255410E-01  0.24500533284E-01  0.00000000000E+00 0.  1.
     999901    1    3    3    0    0  0.11714111450E+00 -0.18586313693E-01  0.53588550227E-01  0.88957249535E+00  0.88000000000E+00 0. -1.
        -11    1    4    4    0    0 -0.44010880264E-01  0.26090394384E-02 -0.22604437199E-01  0.49547819028E-01  0.51100000000E-03 0. -1.
         11    1    4    4    0    0 -0.79287878284E-01  0.84105276930E-03 -0.12728857618E-01  0.80309152341E-01  0.51100000000E-03 0.  1.
</event>
<event>
 8    1  0.1126407E+005  0.1043930E+01  0.7957747E-01            NaN
         13   -1    0    0    0    0  0.00000000000E+00  0.00000000000E+00  0.74505805969E-08  0.10566000000E+00  0.10566000000E+00 0.  1.
     999900   -1    0    0    0    0 -0.00000000000E+00 -0.00000000000E+00 -0.74505805969E-08  0.93827000000E+00  0.93827000000E+00 0.  1.
     999902    2    1    2    0    0  0.11852407156E-01  0.18219617367E-01  0.93420467678E-02  0.10202718545E+01  0.10199975241E+01 0.  0.
     999903    2    3    3    0    0 -0.80361888696E-01  0.17747768514E-01 -0.97680318369E-01  0.12900450645E+00  0.18102531454E-01 0.  0.
         14    1    1    2    0    0 -0.11852407156E-01 -0.18219617367E-01 -0.93420467678E-02  0.23658145536E-01  0.00000000000E+00 0. -1.
     999901    1    3    3    0    0  0.92214295852E-01  0.47184885304E-03  0.10702236514E+00  0.89126734802E+00  0.88000000000E+00 0. -1.
        -11    1    4    4    0    0 -0.12450583069E-01 -0.37758057392E-02 -0.14711615835E-01  0.19646029859E-01  0.51100000000E-03 0. -1.
         11    1    4    4    0    0 -0.67911305627E-01  0.21523574254E-01 -0.82968702533E-01  0.10935847659E+00  0.51100000000E-03 0.  1.
</event>
<event>
 8    1  0.1126407E+005  0.1043930E+01  0.7957747E-01            NaN
         13   -1    0    0    0    0  0.00000000000E+00  0.00000000000E+00  0.74505805969E-08  0.10566000000E+00  0.10566000000E+00 0. -1.
     999900   -1    0    0    0    0 -0.00000000000E+00 -0.00000000000E+00 -0.74505805969E-08  0.93827000000E+00  0.93827000000E+00 0. -1.
     999902    2    1    2    0    0  0.30924253564E-02  0.14556038713E-01  0.17551205261E-01  0.10209194337E+01  0.10206600824E+01 0.  0.
     999903    2    3    3    0    0 -0.10463162940E+00 -0.70475099361E-01  0.25697567779E-01  0.13024489734E+00  0.19719299954E-01 0.  0.
         14    1    1    2    0    0 -0.30924253564E-02 -0.14556038713E-01 -0.17551205261E-01  0.23010566349E-01  0.00000000000E+00 0.  1.
     999901    1    3    3    0    0  0.10772405476E+00  0.85031138075E-01 -0.81463625183E-02  0.89067453631E+00  0.88000000000E+00 0.  1.
        -11    1    4    4    0    0 -0.21830653448E-01 -0.12646471018E-01 -0.25745178897E-02  0.25365329143E-01  0.51100000000E-03 0.  1.
         11    1    4    4    0    0 -0.82800975956E-01 -0.57828628344E-01  0.28272085669E-01  0.10487956819E+00  0.51100000000E-03 0. -1.
</event>
<event>
 8    1  0.1126407E+005  0.1043930E+01  0.7957747E-01            NaN
         13   -1    0    0    0    0  0.00000000000E+00  0.00000000000E+00  0.74505805969E-08  0.10566000000E+00  0.10566000000E+00 0. -1.
     999900   -1    0    0    0    0 -0.00000000000E+00 -0.00000000000E+00 -0.74505805969E-08  0.93827000000E+00  0.93827000000E+00 0.  1.
     999902    2    1    2    0    0  0.65509503456E-02  0.13184749981E-01 -0.18466459316E-01  0.10203129997E+01  0.10200396339E+01 0.  0.
     999903    2    3    3    0    0 -0.12540612825E+00  0.29329855399E-01  0.58331537765E-04  0.13013520686E+00  0.18660955060E-01 0.  0.
         14    1    1    2    0    0 -0.65509503456E-02 -0.13184749981E-01  0.18466459316E-01  0.23617000279E-01  0.00000000000E+00 0. -1.
     999901    1    3    3    0    0  0.13195707859E+00 -0.16145105418E-01 -0.18524790854E-01  0.89017779286E+00  0.88000000000E+00 0.  1.
        -11    1    4    4    0    0 -0.38038533391E-01  0.73995823729E-02  0.84511427578E-02  0.39665687650E-01  0.51100000000E-03 0.  1.
         11    1    4    4    0    0 -0.87367594855E-01  0.21930273026E-01 -0.83928112200E-02  0.90469519215E-01  0.51100000000E-03 0. -1.
</event>
<event>
 8    1  0.1126407E+005  0.1043930E+01  0.7957747E-01            NaN
         13   -1    0    0    0    0  0.00000000000E+00  0.00000000000E+00  0.74505805969E-08  0.10566000000E+00  0.10566000000E+00 0.  1.
     999900   -1    0    0    0    0 -0.00000000000E+00 -0.00000000000E+00 -0.74505805969E-08  0.93827000000E+00  0.93827000000E+00 0. -1.
     999902    2    1    2    0    0 -0.11008857698E-01  0.20121541771E-01  0.38996662210E-02  0.10206646011E+01  0.10203994066E+01 0.  0.
     999903    2    3    3    0    0 -0.50859552938E-01  0.49562707185E-01 -0.10941473204E+00  0.13201674449E+00  0.20339153657E-01 0.  0.
         14    1    1    2    0    0  0.11008857698E-01 -0.20121541771E-01 -0.38996662210E-02  0.23265398937E-01  0.00000000000E+00 0. -1.
     999901    1    3    3    0    0  0.39850695240E-01 -0.29441165414E-01  0.11331439826E+00  0.88864785657E+00  0.88000000000E+00 0.  1.
        -11    1    4    4    0    0 -0.35610461368E-01  0.31130354232E-01 -0.54806688612E-01  0.72396395981E-01  0.51100000000E-03 0.  1.
         11    1    4    4    0    0 -0.15249091571E-01  0.18432352953E-01 -0.54608043425E-01  0.59620348513E-01  0.51100000000E-03 0. -1.
</event>
<event>
 8    1  0.1126407E+005  0.1043930E+01  0.7957747E-01            NaN
         13   -1    0    0    0    0  0.00000000000E+00  0.00000000000E+00  0.74505805969E-08  0.10566000000E+00  0.10566000000E+00 0. -1.
     999900   -1    0    0    0    0 -0.00000000000E+00 -0.00000000000E+00 -0.74505805969E-08  0.93827000000E+00  0.93827000000E+00 0. -1.
     999902    2    1    2    0    0 -0.13097397907E-01 -0.10901181479E-01 -0.16454278318E-01  0.10202420101E+01  0.10199669790E+01 0.  0.
     999903    2    3    3    0    0 -0.46964561107E-02 -0.12742929586E+00 -0.29731867835E-01  0.13242126715E+00  0.19776902801E-01 0.  0.
         14    1    1    2    0    0  0.13097397907E-01  0.10901181479E-01  0.16454278318E-01  0.23687989880E-01  0.00000000000E+00 0.  1.
     999901    1    3    3    0    0 -0.84009417967E-02  0.11652811438E+00  0.13277589516E-01  0.88782074297E+00  0.88000000000E+00 0. -1.
        -11    1    4    4    0    0  0.73619191440E-02 -0.65225310776E-01 -0.16666586916E-01  0.67724259019E-01  0.51100000000E-03 0. -1.
         11    1    4    4    0    0 -0.12058375255E-01 -0.62203985087E-01 -0.13065280919E-01  0.64697008130E-01  0.51100000000E-03 0.  1.
</event>
<event>
 8    1  0.1126407E+005  0.1043930E+01  0.7957747E-01            NaN
         13   -1    0    0    0    0  0.00000000000E+00  0.00000000000E+00  0.74505805969E-08  0.10566000000E+00  0.10566000000E+00 0.  1.
     999900   -1    0    0    0    0 -0.00000000000E+00 -0.00000000000E+00 -0.74505805969E-08  0.93827000000E+00  0.93827000000E+00 0. -1.
     999902    2    1    2    0    0  0.32692866544E-02 -0.96481438207E-02 -0.20811821202E-01  0.10207587502E+01  0.10204957224E+01 0.  0.
     999903    2    3    3    0    0  0.11685288795E+00 -0.48027386507E-01 -0.33957331877E-01  0.13253186187E+00  0.21221845920E-01 0.  0.
         14    1    1    2    0    0 -0.32692866544E-02  0.96481438207E-02  0.20811821202E-01  0.23171249776E-01  0.00000000000E+00 0.  1.
     999901    1    3    3    0    0 -0.11358360130E+00  0.38379242686E-01  0.13145510674E-01  0.88822688836E+00  0.88000000000E+00 0.  1.
        -11    1    4    4    0    0  0.98360860342E-01 -0.38345306542E-01 -0.36026517905E-01  0.11154995515E+00  0.51100000000E-03 0. -1.
         11    1    4    4    0    0  0.18492027609E-01 -0.96820799643E-02  0.20691860283E-02  0.20981906713E-01  0.51100000000E-03 0.  1.
</event>
<event>
 8    1  0.1126407E+005  0.1043930E+01  0.7957747E-01            NaN
         13   -1    0    0    0    0  0.00000000000E+00  0.00000000000E+00  0.74505805969E-08  0.10566000000E+00  0.10566000000E+00 0.  1.
     999900   -1    0    0    0    0 -0.00000000000E+00 -0.00000000000E+00 -0.74505805969E-08  0.93827000000E+00  0.93827000000E+00 0.  1.
     999902    2    1    2    0    0 -0.11704127827E-01  0.15139809104E-01 -0.15953683271E-01  0.10190157383E+01  0.10187111241E+01 0.  0.
     999903    2    3    3    0    0 -0.47747435268E-01 -0.11102796718E+00 -0.40385136998E-01  0.12895151378E+00  0.19761238398E-01 0.  0.
         14    1    1    2    0    0  0.11704127827E-01 -0.15139809104E-01  0.15953683271E-01  0.24914261735E-01  0.00000000000E+00 0.  1.
     999901    1    3    3    0    0  0.36043307440E-01  0.12616777629E+00  0.24431453727E-01  0.89006422449E+00  0.88000000000E+00 0.  1.
        -11    1    4    4    0    0 -0.23517030932E-01 -0.38875951685E-01 -0.75672890251E-02  0.46064252381E-01  0.51100000000E-03 0. -1.
         11    1    4    4    0    0 -0.24230404335E-01 -0.72152015499E-01 -0.32817847973E-01  0.82887261394E-01  0.51100000000E-03 0.  1.
</event>
<event>
 8    1  0.1126407E+005  0.1043930E+01  0.7957747E-01            NaN
         13   -1    0    0    0    0  0.00000000000E+00  0.00000000000E+00  0.74505805969E-08  0.10566000000E+00  0.10566000000E+00 0. -1.
     999900   -1    0    0    0    0 -0.00000000000E+00 -0.00000000000E+00 -0.74505805969E-08  0.93827000000E+00  0.93827000000E+00 0.  1.
     999902    2    1    2    0    0 -0.12811532350E-01  0.17734049188E-01  0.78784655658E-02  0.10206769984E+01  0.10204120898E+01 0.  0.
     999903    2    3    3    0    0  0.63854649160E-01  0.11134959550E+00  0.24486373509E-01  0.13224163416E+00  0.20300706381E-01 0.  0.
         14    1    1    2    0    0  0.12811532350E-01 -0.17734049188E-01 -0.78784655658E-02  0.23253001558E-01  0.00000000000E+00 0.  1.
     999901    1    3    3    0    0 -0.76666181510E-01 -0.93615546316E-01 -0.16607907943E-01  0.88843536428E+00  0.88000000000E+00 0. -1.
        -11    1    4    4    0    0  0.48409749531E-01  0.95046369749E-01  0.14456831965E-01  0.10764096508E+00  0.51100000000E-03 0. -1.
         11    1    4    4    0    0  0.15444899629E-01  0.16303225755E-01  0.10029541544E-01  0.24600669080E-01  0.51100000000E-03 0.  1.
</event>
<event>
 8    1  0.1126407E+005  0.1043930E+01  0.7957747E-01            NaN
         13   -1    0    0    0    0  0.00000000000E+00  0.00000000000E+00  0.74505805969E-08  0.10566000000E+00  0.10566000000E+00 0. -1.
     999900   -1    0    0    0    0 -0.00000000000E+00 -0.00000000000E+00 -0.74505805969E-08  0.93827000000E+00  0.93827000000E+00 0.  1.
     999902    2    1    2    0    0  0.15332870481E-01  0.20346094630E-01 -0.93972733644E-02  0.10167754565E+01  0.10164127901E+01 0.  0.
     999903    2    3    3    0    0 -0.58725061481E-01 -0.55937049152E-01  0.92356647842E-01  0.12455488079E+00  0.20163869016E-01 0.  0.
         14    1    1    2    0    0 -0.15332870481E-01 -0.20346094630E-01  0.93972733644E-02  0.27154543461E-01  0.00000000000E+00 0. -1.
     999901    1    3    3    0    0  0.74057931963E-01  0.76283143783E-01 -0.10175392121E+00  0.89222057575E+00  0.88000000000E+00 0.  1.
        -11    1    4    4    0    0 -0.47434195477E-01 -0.39233606066E-01  0.57242162268E-01  0.84060722145E-01  0.51100000000E-03 0.  1.
         11    1    4    4    0    0 -0.11290866004E-01 -0.16703443086E-01  0.35114485574E-01  0.40494158643E-01  0.51100000000E-03 0. -1.
</event>
<event>
 8    1  0.1126407E+005  0.1043930E+01  0.7957747E-01            NaN
         13   -1    0    0    0    0  0.00000000000E+00  0.00000000000E+00  0.74505805969E-08  0.10566000000E+00  0.10566000000E+00 0.  1.
     999900   -1    0    0    0    0 -0.00000000000E+00 -0.00000000000E+00 -0.74505805969E-08  0.93827000000E+00  0.93827000000E+00 0.  1.
     999902    2    1    2    0    0  0.16770249275E-01  0.45070044311E-03 -0.15990578669E-01  0.10207536543E+01  0.10204905094E+01 0.  0.
     999903    2    3    3    0    0 -0.13125794048E-01  0.64885650579E-01  0.10894830295E+00  0.12909488534E+00  0.20330336581E-01 0.  0.
         14    1    1    2    0    0 -0.16770249275E-01 -0.45070044311E-03  0.15990578669E-01  0.23176345652E-01  0.00000000000E+00 0.  1.
     999901    1    3    3    0    0  0.29896043323E-01 -0.64434950136E-01 -0.12493888162E+00  0.89165876901E+00  0.88000000000E+00 0.  1.
        -11    1    4    4    0    0 -0.53444153963E-03  0.28938677558E-01  0.31471297505E-01  0.42760219530E-01  0.51100000000E-03 0.  1.
         11    1    4    4    0    0 -0.12591352508E-01  0.35946973021E-01  0.77477005444E-01  0.86334665812E-01  0.51100000000E-03 0. -1.
</event>
<event>
 8    1  0.1126407E+005  0.1043930E+01  0.7957747E-01            NaN
         13   -1    0    0    0    0  0.00000000000E+00  0.00000000000E+00  0.74505805969E-08  0.10566000000E+00  0.10566000000E+00 0. -1.
     999900   -1    0    0    0    0 -0.00000000000E+00 -0.00000000000E+00 -0.74505805969E-08  0.93827000000E+00  0.93827000000E+00 0.  1.
     999902    2    1    2    0    0  0.20428518734E-01  0.42831980129E-03 -0.12853348290E-01  0.10197904806E+01  0.10195047366E+01 0.  0.
     999903    2    3    3    0    0  0.10138868834E+00 -0.52315259898E-02 -0.83807115578E-01  0.13321221556E+00  0.20367296471E-01 0.  0.
         14    1    1    2    0    0 -0.20428518734E-01 -0.42831980129E-03  0.12853348290E-01  0.24139519419E-01  0.00000000000E+00 0. -1.
     999901    1    3    3    0    0 -0.80960169605E-01  0.56598457911E-02  0.70953767288E-01  0.88657826502E+00  0.88000000000E+00 0.  1.
        -11    1    4    4    0    0  0.31805971824E-01  0.73712052615E-02 -0.22907728242E-01  0.39887086193E-01  0.51100000000E-03 0. -1.
         11    1    4    4    0    0  0.69582716514E-01 -0.12602731251E-01 -0.60899387336E-01  0.93325129367E-01  0.51100000000E-03 0.  1.
</event>
<event>
 8    1  0.1126407E+005  0.1043930E+01  0.7957747E-01            NaN
         13   -1    0    0    0    0  0.00000000000E+00  0.00000000000E+00  0.74505805969E-08  0.10566000000E+00  0.10566000000E+00 0.  1.
     999900   -1    0    0    0    0 -0.00000000000E+00 -0.00000000000E+00 -0.74505805969E-08  0.93827000000E+00  0.93827000000E+00 0. -1.
     999902    2    1    2    0    0  0.22216493987E-01  0.25055412062E-02 -0.84260727407E-02  0.10200375526E+01  0.10197576965E+01 0.  0.
     999903    2    3    3    0    0  0.58198847608E-01  0.82642864959E-01  0.80952580117E-01  0.13115889719E+00  0.20793919589E-01 0.  0.
         14    1    1    2    0    0 -0.22216493987E-01 -0.25055412062E-02  0.84260727407E-02  0.23892447419E-01  0.00000000000E+00 0.  1.
     999901    1    3    3    0    0 -0.35982353621E-01 -0.80137323753E-01 -0.89378652858E-01  0.88887865540E+00  0.88000000000E+00 0. -1.
        -11    1    4    4    0    0  0.15573776349E-01  0.30137729173E-01  0.38463066773E-01  0.51288340352E-01  0.51100000000E-03 0.  1.
         11    1    4    4    0    0  0.42625071259E-01  0.52505135786E-01  0.42489513345E-01  0.79870556834E-01  0.51100000000E-03 0. -1.
</event>
<event>
 8    1  0.1126407E+005  0.1043930E+01  0.7957747E-01            NaN
         13   -1    0    0    0    0  0.00000000000E+00  0.00000000000E+00  0.74505805969E-08  0.10566000000E+00  0.10566000000E+00 0.  1.
     999900   -1    0    0    0    0 -0.00000000000E+00 -0.00000000000E+00 -0.74505805969E-08  0.93827000000E+00  0.93827000000E+00 0. -1.
     999902    2    1    2    0    0  0.18553857087E-01  0.56531559675E-02 -0.12830071963E-01  0.10206745806E+01  0.10204096163E+01 0.  0.
     999903    2    3    3    0    0 -0.11646009878E+00  0.43334079528E-01  0.27416543420E-01  0.12867210844E+00  0.19080030925E-01 0.  0.
         14    1    1    2    0    0 -0.18553857087E-01 -0.56531559675E-02  0.12830071963E-01  0.23255419407E-01  0.00000000000E+00 0.  1.
     999901    1    3    3    0    0  0.13501395587E+00 -0.37680923560E-01 -0.40246615383E-01  0.89200247215E+00  0.88000000000E+00 0. -1.
        -11    1    4    4    0    0 -0.10743829494E+00  0.43224298403E-01  0.29263238177E-01  0.11944842160E+00  0.51100000000E-03 0. -1.
         11    1    4    4    0    0 -0.90218038418E-02  0.10978112519E-03 -0.18466947568E-02  0.92236868431E-02  0.51100000000E-03 0.  1.
</event>
<event>
 8    1  0.1126407E+005  0.1043930E+01  0.7957747E-01            NaN
         13   -1    0    0    0    0  0.00000000000E+00  0.00000000000E+00  0.74505805969E-08  0.10566000000E+00  0.10566000000E+00 0. -1.
     999900   -1    0    0    0    0 -0.00000000000E+00 -0.00000000000E+00 -0.74505805969E-08  0.93827000000E+00  0.93827000000E+00 0. -1.
     999902    2    1    2    0    0  0.81151606760E-02 -0.14742869423E-01  0.19303178269E-01  0.10183210031E+01  0.10179989414E+01 0.  0.
     999903    2    3    3    0    0 -0.25702467064E-01  0.11975626259E+00  0.28803789047E-01  0.12740916117E+00  0.20031396447E-01 0.  0.
         14    1    1    2    0    0 -0.81151606760E-02  0.14742869423E-01 -0.19303178269E-01  0.25608996914E-01  0.00000000000E+00 0.  1.
     999901    1    3    3    0    0  0.33817627740E-01 -0.13449913202E+00 -0.95006107774E-02  0.89091184191E+00  0.88000000000E+00 0. -1.
        -11    1    4    4    0    0 -0.24531480893E-01  0.73694722692E-01  0.22740708347E-01  0.80932729131E-01  0.51100000000E-03 0. -1.
         11    1    4    4    0    0 -0.11709861703E-02  0.46061539901E-01  0.60630807002E-02  0.46476432040E-01  0.51100000000E-03 0.  1.
</event>
<event>
 8    1  0.1126407E+005  0.1043930E+01  0.7957747E-01            NaN
         13   -1    0    0    0    0  0.00000000000E+00  0.00000000000E+00  0.74505805969E-08  0.10566000000E+00  0.10566000000E+00 0.  1.
     999900   -1    0    0    0    0 -0.00000000000E+00 -0.00000000000E+00 -0.74505805969E-08  0.93827000000E+00  0.93827000000E+00 0. -1.
     999902    2    1    2    0    0 -0.13592174381E-02  0.19416293289E-01  0.13097327870E-01  0.10204698228E+01  0.10202001173E+01 0.  0.
     999903    2    3    3    0    0  0.68509995963E-02  0.29202501602E-01 -0.12454210564E+00  0.12967927997E+00  0.20155825005E-01 0.  0.
         14    1    1    2    0    0  0.13592174381E-02 -0.19416293289E-01 -0.13097327870E-01  0.23460177204E-01  0.00000000000E+00 0. -1.
     999901    1    3    3    0    0 -0.82102170344E-02 -0.97862083129E-02  0.13763943350E+00  0.89079054283E+00  0.88000000000E+00 0.  1.
        -11    1    4    4    0    0  0.78126528920E-02  0.41521932124E-02 -0.55958007886E-01  0.56655432407E-01  0.51100000000E-03 0. -1.
         11    1    4    4    0    0 -0.96165329576E-03  0.25050308389E-01 -0.68584097750E-01  0.73023847561E-01  0.51100000000E-03 0.  1.
</event>
<event>
 8    1  0.1126407E+005  0.1043930E+01  0.7957747E-01            NaN
         13   -1    0    0    0    0  0.00000000000E+00  0.00000000000E+00  0.74505805969E-08  0.10566000000E+00  0.10566000000E+00 0. -1.
     999900   -1    0    0    0    0 -0.00000000000E+00 -0.00000000000E+00 -0.74505805969E-08  0.93827000000E+00  0.93827000000E+00 0. -1.
     999902    2    1    2    0    0 -0.23379769950E-01  0.19697040025E-02 -0.30112361606E-02  0.10202749599E+01  0.10200007024E+01 0.  0.
     999903    2    3    3    0    0  0.78878207119E-02 -0.12843520503E+00  0.19458872657E-02  0.13010212527E+00  0.19103845579E-01 0.  0.
         14    1    1    2    0    0  0.23379769950E-01 -0.19697040025E-02  0.30112361606E-02  0.23655040055E-01  0.00000000000E+00 0.  1.
     999901    1    3    3    0    0 -0.31267590662E-01  0.13040490903E+00 -0.49571234263E-02  0.89017283468E+00  0.88000000000E+00 0. -1.
        -11    1    4    4    0    0  0.69089959201E-02 -0.53132150034E-01 -0.78597650108E-02  0.54155300931E-01  0.51100000000E-03 0. -1.
         11    1    4    4    0    0  0.97882479173E-03 -0.75303054993E-01  0.98056522765E-02  0.75946824337E-01  0.51100000000E-03 0.  1.
</event>
<event>
 8    1  0.1126407E+005  0.1043930E+01  0.7957747E-01            NaN
         13   -1    0    0    0    0  0.00000000000E+00  0.00000000000E+00  0.74505805969E-08  0.10566000000E+00  0.10566000000E+00 0. -1.
     999900   -1    0    0    0    0 -0.00000000000E+00 -0.00000000000E+00 -0.74505805969E-08  0.93827000000E+00  0.93827000000E+00 0. -1.
     999902    2    1    2    0    0 -0.18096776763E-01 -0.78993471908E-02  0.93376315592E-02  0.10220877387E+01  0.10218543249E+01 0.  0.
     999903    2    3    3    0    0  0.39799535885E-01 -0.12310667408E+00  0.20954464800E-01  0.13261617536E+00  0.20216431735E-01 0.  0.
         14    1    1    2    0    0  0.18096776763E-01  0.78993471908E-02 -0.93376315592E-02  0.21842261293E-01  0.00000000000E+00 0.  1.
     999901    1    3    3    0    0 -0.57896312648E-01  0.11520732689E+00 -0.11616833241E-01  0.88947156335E+00  0.88000000000E+00 0.  1.
        -11    1    4    4    0    0  0.31550707640E-01 -0.68958532499E-01  0.16868956234E-01  0.77688796891E-01  0.51100000000E-03 0.  1.
         11    1    4    4    0    0  0.82488282454E-02 -0.54148141583E-01  0.40855085666E-02  0.54927378469E-01  0.51100000000E-03 0. -1.
</event>
<event>
 7    1  0.1126407E+005  0.1043930E+01  0.7957747E-01            NaN
         13   -1    0    0    0    0  0.00000000000E+00  0.00000000000E+00  0.74505805969E-08  0.10566000000E+00  0.10566000000E+00 0.  1.
     999900   -1    0    0    0    0 -0.00000000000E+00 -0.00000000000E+00 -0.74505805969E-08  0.93827000000E+00  0.93827000000E+00 0.  1.
     999903    2    1    2    0    0  0.39879222037E-02  0.88813374207E-01 -0.66921159976E-02  0.91647665598E-01  0.21231844749E-01 0.  0.
         14    1    1    2    0    0  0.57744780123E-01  0.94749022657E-02 -0.26059024222E-01  0.64057053849E-01  0.00000000000E+00 0.  1.
     999901    1    1    2    0    0 -0.61732702327E-01 -0.98288276473E-01  0.32751140219E-01  0.88822528055E+00  0.88000000000E+00 0. -1.
        -11    1    3    3    0    0  0.68054934840E-02  0.84510797013E-01 -0.10205921056E-01  0.85397959571E-01  0.51100000000E-03 0. -1.
         11    1    3    3    0    0 -0.28175712803E-02  0.43025771941E-02  0.35138050583E-02  0.62497060265E-02  0.51100000000E-03 0.  1.
</event>
<event>
 8    1  0.1126407E+005  0.1043930E+01  0.7957747E-01            NaN
         13   -1    0    0    0    0  0.00000000000E+00  0.00000000000E+00  0.74505805969E-08  0.10566000000E+00  0.10566000000E+00 0.  1.
     999900   -1    0    0    0    0 -0.00000000000E+00 -0.00000000000E+00 -0.74505805969E-08  0.93827000000E+00  0.93827000000E+00 0. -1.
     999902    2    1    2    0    0 -0.20102146425E-01 -0.10086810973E-01  0.10563384446E-01  0.10190819591E+01  0.10187789820E+01 0.  0.
     999903    2    3    3    0    0  0.98668769912E-01  0.62505018962E-01 -0.44074933711E-01  0.12646700842E+00  0.20221297798E-01 0.  0.
         14    1    1    2    0    0  0.20102146425E-01  0.10086810973E-01 -0.10563384446E-01  0.24848040918E-01  0.00000000000E+00 0. -1.
     999901    1    3    3    0    0 -0.11877091634E+00 -0.72591829935E-01  0.54638318157E-01  0.89261495067E+00  0.88000000000E+00 0.  1.
        -11    1    4    4    0    0  0.28477217044E-01  0.12083632797E-01 -0.39816994681E-02  0.31194248249E-01  0.51100000000E-03 0.  1.
         11    1    4    4    0    0  0.70191552868E-01  0.50421386165E-01 -0.40093234243E-01  0.95272760168E-01  0.51100000000E-03 0. -1.
</event>
<event>
 8    1  0.1126407E+005  0.1043930E+01  0.7957747E-01            NaN
         13   -1    0    0    0    0  0.00000000000E+00  0.00000000000E+00  0.74505805969E-08  0.10566000000E+00  0.10566000000E+00 0. -1.
     999900   -1    0    0    0    0 -0.00000000000E+00 -0.00000000000E+00 -0.74505805969E-08  0.93827000000E+00  0.93827000000E+00 0.  1.
     999902    2    1    2    0    0 -0.16960662798E-02  0.10939646004E-01 -0.20714545007E-01  0.10204428786E+01  0.10201725460E+01 0.  0.
     999903    2    3    3    0    0  0.98027286946E-01  0.83788441333E-01 -0.18056692971E-01  0.13181542106E+00  0.20479481982E-01 0.  0.
         14    1    1    2    0    0  0.16960662798E-02 -0.10939646004E-01  0.20714545007E-01  0.23487121372E-01  0.00000000000E+00 0. -1.
     999901    1    3    3    0    0 -0.99723353225E-01 -0.72848795329E-01 -0.26578520364E-02  0.88862745756E+00  0.88000000000E+00 0.  1.
        -11    1    4    4    0    0  0.84580510154E-02  0.16077855374E-01 -0.60967864959E-03  0.18184303381E-01  0.51100000000E-03 0. -1.
         11    1    4    4    0    0  0.89569235930E-01  0.67710585959E-01 -0.17447014321E-01  0.11363111768E+00  0.51100000000E-03 0.  1.
</event>
<event>
 8    1  0.1126407E+005  0.1043930E+01  0.7957747E-01            NaN
         13   -1    0    0    0    0  0.00000000000E+00  0.00000000000E+00  0.74505805969E-08  0.10566000000E+00  0.10566000000E+00 0. -1.
     999900   -1    0    0    0    0 -0.00000000000E+00 -0.00000000000E+00 -0.74505805969E-08  0.93827000000E+00  0.93827000000E+00 0.  1.
     999902    2    1    2    0    0 -0.18956143426E-01  0.16208789144E-01 -0.13338334965E-02  0.10189532242E+01  0.10186470604E+01 0.  0.
     999903    2    3    3    0    0 -0.95854001447E-01  0.48119642958E-01 -0.74685086115E-01  0.13198536149E+00  0.18406084017E-01 0.  0.
         14    1    1    2    0    0  0.18956143426E-01 -0.16208789144E-01  0.13338334965E-02  0.24976775830E-01  0.00000000000E+00 0.  1.
     999901    1    3    3    0    0  0.76897858021E-01 -0.31910853814E-01  0.73351252618E-01  0.88696786268E+00  0.88000000000E+00 0. -1.
        -11    1    4    4    0    0 -0.21910569034E-01  0.20061157017E-01 -0.21553836193E-01  0.36706294173E-01  0.51100000000E-03 0. -1.
         11    1    4    4    0    0 -0.73943432413E-01  0.28058485941E-01 -0.53131249922E-01  0.95279067321E-01  0.51100000000E-03 0.  1.
</event>
<event>
 8    1  0.1126407E+005  0.1043930E+01  0.7957747E-01            NaN
         13   -1    0    0    0    0  0.00000000000E+00  0.00000000000E+00  0.74505805969E-08  0.10566000000E+00  0.10566000000E+00 0.  1.
     999900   -1    0    0    0    0 -0.00000000000E+00 -0.00000000000E+00 -0.74505805969E-08  0.93827000000E+00  0.93827000000E+00 0.  1.
     999902    2    1    2    0    0 -0.12902636443E-01 -0.87512561730E-02  0.18488079350E-01  0.10197458815E+01  0.10194590679E+01 0.  0.
     999903    2    3    3    0    0 -0.68259699187E-01  0.38092828476E-01  0.10511610203E+00  0.13252370693E+00  0.20067084416E-01 0.  0.
         14    1    1    2    0    0  0.12902636443E-01  0.87512561730E-02 -0.18488079350E-01  0.24184118546E-01  0.00000000000E+00 0. -1.
     999901    1    3    3    0    0  0.55357062743E-01 -0.46844084649E-01 -0.86628022680E-01  0.88722217453E+00  0.88000000000E+00 0.  1.
        -11    1    4    4    0    0 -0.62681226245E-01  0.33060867221E-01  0.82880391578E-01  0.10904759279E+00  0.51100000000E-03 0. -1.
         11    1    4    4    0    0 -0.55784729419E-02  0.50319612547E-02  0.22235710452E-01  0.23476114132E-01  0.51100000000E-03 0.  1.
</event>
<event>
 8    1  0.1126407E+005  0.1043930E+01  0.7957747E-01            NaN
         13   -1    0    0    0    0  0.00000000000E+00  0.00000000000E+00  0.74505805969E-08  0.10566000000E+00  0.10566000000E+00 0.  1.
     999900   -1    0    0    0    0 -0.00000000000E+00 -0.00000000000E+00 -0.74505805969E-08  0.93827000000E+00  0.93827000000E+00 0.  1.
     999902    2    1    2    0    0  0.45967701907E-02 -0.21920402252E-01  0.82969423496E-02  0.10200454112E+01  0.10197657414E+01 0.  0.
     999903    2    3    3    0    0  0.19341435701E-01 -0.41532675369E-02 -0.12639668122E+00  0.12949757503E+00  0.20053930989E-01 0.  0.
         14    1    1    2    0    0 -0.45967701907E-02  0.21920402252E-01 -0.82969423496E-02  0.23884588827E-01  0.00000000000E+00 0. -1.
     999901    1    3    3    0    0 -0.14744665510E-01 -0.17767134715E-01  0.13469362357E+00  0.89054783615E+00  0.88000000000E+00 0. -1.
        -11    1    4    4    0    0  0.11960211226E-01 -0.65781283350E-02 -0.11428957226E+00  0.11510293599E+00  0.51100000000E-03 0.  1.
         11    1    4    4    0    0  0.73812244745E-02  0.24248607980E-02 -0.12107108957E-01  0.14394639034E-01  0.51100000000E-03 0. -1.
</event>
<event>
 8    1  0.1126407E+005  0.1043930E+01  0.7957747E-01            NaN
         13   -1    0    0    0    0  0.00000000000E+00  0.00000000000E+00  0.74505805969E-08  0.10566000000E+00  0.10566000000E+00 0. -1.
     999900   -1    0    0    0    0 -0.00000000000E+00 -0.00000000000E+00 -0.74505805969E-08  0.93827000000E+00  0.93827000000E+00 0.  1.
     999902    2    1    2    0    0  0.19665497422E-01 -0.11634676452E-01  0.78928625448E-02  0.10197557417E+01  0.10194691648E+01 0.  0.
     999903    2    3    3    0    0  0.11695236808E-01 -0.75220966208E-01  0.10589833017E+00  0.13199912360E+00  0.20355342742E-01 0.  0.
         14    1    1    2    0    0 -0.19665497422E-01  0.11634676452E-01 -0.78928625448E-02  0.24174258296E-01  0.00000000000E+00 0. -1.
     999901    1    3    3    0    0  0.79702606142E-02  0.63586289755E-01 -0.98005467623E-01  0.88775661810E+00  0.88000000000E+00 0.  1.
        -11    1    4    4    0    0  0.67352084821E-02 -0.25143349505E-01  0.21632015271E-01  0.33849021600E-01  0.51100000000E-03 0. -1.
         11    1    4    4    0    0  0.49600283261E-02 -0.50077616703E-01  0.84266314897E-01  0.98150102002E-01  0.51100000000E-03 0.  1.
</event>
<event>
 8    1  0.1187473E+005  0.1043930E+01  0.7957747E-01            NaN
         13   -1    0    0    0    0  0.00000000000E+00  0.00000000000E+00  0.74505805969E-08  0.10566000000E+00  0.10566000000E+00 0. -1.
     999900   -1    0    0    0    0 -0.00000000000E+00 -0.00000000000E+00 -0.74505805969E-08  0.93827000000E+00  0.93827000000E+00 0. -1.
     999902    2    1    2    0    0  0.79907353034E-02  0.29784545382E-02 -0.21541165786E-01  0.10207622451E+01  0.10204992975E+01 0.  0.
     999903    2    3    3    0    0 -0.98981441650E-02  0.24986181854E-01 -0.12944349314E+00  0.13371812880E+00  0.20065829484E-01 0.  0.
         14    1    1    2    0    0 -0.79907353034E-02 -0.29784545382E-02  0.21541165786E-01  0.23167754866E-01  0.00000000000E+00 0. -1.
     999901    1    3    3    0    0  0.17888879468E-01 -0.22007727316E-01  0.10790232735E+00  0.88704411633E+00  0.88000000000E+00 0.  1.
        -11    1    4    4    0    0 -0.13616618575E-01  0.23014371777E-01 -0.85869372624E-01  0.89938222606E-01  0.51100000000E-03 0.  1.
         11    1    4    4    0    0  0.37184744104E-02  0.19718100775E-02 -0.43574120514E-01  0.43779906196E-01  0.51100000000E-03 0. -1.
</event>
<event>
 8    1  0.1126407E+005  0.1043930E+01  0.7957747E-01            NaN
         13   -1    0    0    0    0  0.00000000000E+00  0.00000000000E+00  0.74505805969E-08  0.10566000000E+00  0.10566000000E+00 0.  1.
     999900   -1    0    0    0    0 -0.00000000000E+00 -0.00000000000E+00 -0.74505805969E-08  0.93827000000E+00  0.93827000000E+00 0. -1.
     999902    2    1    2    0    0  0.17169600574E-01  0.11065121833E-01  0.12368964609E-01  0.10200506493E+01  0.10197711036E+01 0.  0.
     999903    2    3    3    0    0  0.74993084260E-01 -0.29616752793E-01  0.10303566496E+00  0.13257162376E+00  0.21395617345E-01 0.  0.
         14    1    1    2    0    0 -0.17169600574E-01 -0.11065121833E-01 -0.12368964609E-01  0.23879350714E-01  0.00000000000E+00 0. -1.
     999901    1    3    3    0    0 -0.57823483687E-01  0.40681874626E-01 -0.90666700347E-01  0.88747902552E+00  0.88000000000E+00 0. -1.
        -11    1    4    4    0    0  0.30523809680E-01 -0.40321492999E-02  0.27664052499E-01  0.41394711100E-01  0.51100000000E-03 0. -1.
         11    1    4    4    0    0  0.44469274580E-01 -0.25584603493E-01  0.75371612457E-01  0.91176912664E-01  0.51100000000E-03 0.  1.
</event>
<event>
 8    1  0.1126407E+005  0.1043930E+01  0.7957747E-01            NaN
         13   -1    0    0    0    0  0.00000000000E+00  0.00000000000E+00  0.74505805969E-08  0.10566000000E+00  0.10566000000E+00 0. -1.
     999900   -1    0    0    0    0 -0.00000000000E+00 -0.00000000000E+00 -0.74505805969E-08  0.93827000000E+00  0.93827000000E+00 0. -1.
     999902    2    1    2    0    0  0.13529385766E-01 -0.10775330287E-01 -0.15336707499E-01  0.10208136288E+01  0.10205518596E+01 0.  0.
     999903    2    3    3    0    0  0.45663852419E-01  0.11966935585E+00 -0.15956721907E-01  0.13061768151E+00  0.20010487300E-01 0.  0.
         14    1    1    2    0    0 -0.13529385766E-01  0.10775330287E-01  0.15336707499E-01  0.23116371232E-01  0.00000000000E+00 0. -1.
     999901    1    3    3    0    0 -0.32134466653E-01 -0.13044468614E+00  0.62001440807E-03  0.89019594725E+00  0.88000000000E+00 0.  1.
        -11    1    4    4    0    0  0.44737257772E-02  0.69424219596E-02  0.35875632181E-02  0.90190451734E-02  0.51100000000E-03 0. -1.
         11    1    4    4    0    0  0.41190126642E-01  0.11272693389E+00 -0.19544285125E-01  0.12159863634E+00  0.51100000000E-03 0.  1.
</event>
<event>
 8    1  0.1126407E+005  0.1043930E+01  0.7957747E-01            NaN
         13   -1    0    0    0    0  0.00000000000E+00  0.00000000000E+00  0.74505805969E-08  0.10566000000E+00  0.10566000000E+00 0.  1.
     999900   -1    0    0    0    0 -0.00000000000E+00 -0.00000000000E+00 -0.74505805969E-08  0.93827000000E+00  0.93827000000E+00 0.  1.
     999902    2    1    2    0    0 -0.15368602262E-01  0.16851009722E-01 -0.52612759927E-02  0.10205241997E+01  0.10202557575E+01 0.  0.
     999903    2    3    3    0    0 -0.29626376777E-01 -0.88585189716E-01 -0.88542818507E-01  0.13021195578E+00  0.19755117868E-01 0.  0.
         14    1    1    2    0    0  0.15368602262E-01 -0.16851009722E-01  0.52612759927E-02  0.23405800333E-01  0.00000000000E+00 0.  1.
     999901    1    3    3    0    0  0.14257774515E-01  0.10543619944E+00  0.83281542514E-01  0.89031224388E+00  0.88000000000E+00 0. -1.
        -11    1    4    4    0    0 -0.17076104636E-01 -0.22861682578E-01 -0.27748506206E-01  0.39805660370E-01  0.51100000000E-03 0.  1.
         11    1    4    4    0    0 -0.12550272142E-01 -0.65723507138E-01 -0.60794312301E-01  0.90406295414E-01  0.51100000000E-03 0. -1.
</event>
<event>
 8    1  0.1126407E+005  0.1043930E+01  0.7957747E-01            NaN
         13   -1    0    0    0    0  0.00000000000E+00  0.00000000000E+00  0.74505805969E-08  0.10566000000E+00  0.10566000000E+00 0.  1.
     999900   -1    0    0    0    0 -0.00000000000E+00 -0.00000000000E+00 -0.74505805969E-08  0.93827000000E+00  0.93827000000E+00 0.  1.
     999902    2    1    2    0    0 -0.28289620893E-02  0.19020994734E-01 -0.13399871895E-01  0.10204916162E+01  0.10202224174E+01 0.  0.
     999903    2    3    3    0    0  0.50899044219E-01 -0.11382658476E+00  0.22068488044E-01  0.12819503851E+00  0.19993639866E-01 0.  0.
         14    1    1    2    0    0  0.28289620893E-02 -0.19020994734E-01  0.13399871895E-01  0.23438383775E-01  0.00000000000E+00 0.  1.
     999901    1    3    3    0    0 -0.53728006308E-01  0.13284757949E+00 -0.35468359939E-01  0.89229657771E+00  0.88000000000E+00 0. -1.
        -11    1    4    4    0    0  0.32539493072E-01 -0.51305186629E-01  0.15495944889E-01  0.62701086222E-01  0.51100000000E-03 0.  1.
         11    1    4    4    0    0  0.18359551146E-01 -0.62521398129E-01  0.65725431544E-02  0.65493952292E-01  0.51100000000E-03 0. -1.
</event>
<event>
 8    1  0.1126407E+005  0.1043930E+01  0.7957747E-01            NaN
         13   -1    0    0    0    0  0.00000000000E+00  0.00000000000E+00  0.74505805969E-08  0.10566000000E+00  0.10566000000E+00 0. -1.
     999900   -1    0    0    0    0 -0.00000000000E+00 -0.00000000000E+00 -0.74505805969E-08  0.93827000000E+00  0.93827000000E+00 0.  1.
     999902    2    1    2    0    0 -0.16872649249E-01  0.14358008685E-01  0.95228008933E-02  0.10198152236E+01  0.10195300720E+01 0.  0.
     999903    2    3    3    0    0 -0.45618488738E-01  0.17184118532E-01 -0.11881668097E+00  0.13003697433E+00  0.20392904933E-01 0.  0.
         14    1    1    2    0    0  0.16872649249E-01 -0.14358008685E-01 -0.95228008933E-02  0.24114776443E-01  0.00000000000E+00 0.  1.
     999901    1    3    3    0    0  0.28745839490E-01 -0.28261098474E-02  0.12833948187E+00  0.88977824922E+00  0.88000000000E+00 0. -1.
        -11    1    4    4    0    0 -0.27153488622E-03  0.56252355787E-02 -0.85620328797E-02  0.10260922695E-01  0.51100000000E-03 0. -1.
         11    1    4    4    0    0 -0.45346953852E-01  0.11558882953E-01 -0.11025464809E+00  0.11977605164E+00  0.51100000000E-03 0.  1.
</event>
<event>
 8    1  0.1126407E+005  0.1043930E+01  0.7957747E-01            NaN
         13   -1    0    0    0    0  0.00000000000E+00  0.00000000000E+00  0.74505805969E-08  0.10566000000E+00  0.10566000000E+00 0. -1.
     999900   -1    0    0    0    0 -0.00000000000E+00 -0.00000000000E+00 -0.74505805969E-08  0.93827000000E+00  0.93827000000E+00 0. -1.
     999902    2    1    2    0    0  0.16718949005E-01 -0.40300932919E-02  0.15701518263E-01  0.10206426089E+01  0.10203769071E+01 0.  0.
     999903    2    3    3    0    0  0.72860598758E-01 -0.10885963838E+00  0.37295399572E-02  0.13256353213E+00  0.20002321423E-01 0.  0.
         14    1    1    2    0    0 -0.16718949005E-01  0.40300932919E-02 -0.15701518263E-01  0.23287391085E-01  0.00000000000E+00 0. -1.
     999901    1    3    3    0    0 -0.56141649753E-01  0.10482954509E+00  0.11971978306E-01  0.88807907679E+00  0.88000000000E+00 0. -1.
        -11    1    4    4    0    0  0.10256654005E-01 -0.96415849140E-02  0.57818641432E-02  0.15226627499E-01  0.51100000000E-03 0.  1.
         11    1    4    4    0    0  0.62603944753E-01 -0.99218053468E-01 -0.20523241860E-02  0.11733690463E+00  0.51100000000E-03 0. -1.
</event>
<event>
 8    1  0.1126407E+005  0.1043930E+01  0.7957747E-01            NaN
         13   -1    0    0    0    0  0.00000000000E+00  0.00000000000E+00  0.74505805969E-08  0.10566000000E+00  0.10566000000E+00 0. -1.
     999900   -1    0    0    0    0 -0.00000000000E+00 -0.00000000000E+00 -0.74505805969E-08  0.93827000000E+00  0.93827000000E+00 0. -1.
     999902    2    1    2    0    0  0.20977916936E-01 -0.76509585586E-02  0.10570154035E-02  0.10215754155E+01  0.10213307996E+01 0.  0.
     999903    2    3    3    0    0 -0.10679111492E+00 -0.13121251848E-01 -0.69380417004E-01  0.12954611023E+00  0.19800074156E-01 0.  0.
         14    1    1    2    0    0 -0.20977916936E-01  0.76509585586E-02 -0.10570154035E-02  0.22354584483E-01  0.00000000000E+00 0.  1.
     999901    1    3    3    0    0  0.12776903185E+00  0.54702932896E-02  0.70437432407E-01  0.89202930529E+00  0.88000000000E+00 0.  1.
        -11    1    4    4    0    0 -0.47079029299E-01  0.29631522895E-02 -0.24686625739E-01  0.53243834222E-01  0.51100000000E-03 0.  1.
         11    1    4    4    0    0 -0.59712085618E-01 -0.16084404138E-01 -0.44693791264E-01  0.76302276007E-01  0.51100000000E-03 0. -1.
</event>
<event>
 8    1  0.1126407E+005  0.1043930E+01  0.7957747E-01            NaN
         13   -1    0    0    0    0  0.00000000000E+00  0.00000000000E+00  0.74505805969E-08  0.10566000000E+00  0.10566000000E+00 0.  1.
     999900   -1    0    0    0    0 -0.00000000000E+00 -0.00000000000E+00 -0.74505805969E-08  0.93827000000E+00  0.93827000000E+00 0.  1.
     999902    2    1    2    0    0 -0.15301359321E-01  0.17667799210E-01  0.79788223087E-02  0.10192329489E+01  0.10189336877E+01 0.  0.
     999903    2    3    3    0    0  0.56268958700E-01  0.64390352974E-01 -0.92106189743E-01  0.12944515564E+00  0.30986849807E-01 0.  0.
         14    1    1    2    0    0  0.15301359321E-01 -0.17667799210E-01 -0.79788223087E-02  0.24697051067E-01  0.00000000000E+00 0. -1.
     999901    1    3    3    0    0 -0.71570318020E-01 -0.46722553764E-01  0.10008501205E+00  0.88978779329E+00  0.88000000000E+00 0. -1.
        -11    1    4    4    0    0  0.22499603205E-01  0.28757657721E-01 -0.61701373110E-01  0.71697667930E-01  0.51100000000E-03 0. -1.
         11    1    4    4    0    0  0.33769355494E-01  0.35632695254E-01 -0.30404816633E-01  0.57747487712E-01  0.51100000000E-03 0.  1.
</event>
<event>
 8    1  0.1126407E+005  0.1043930E+01  0.7957747E-01            NaN
         13   -1    0    0    0    0  0.00000000000E+00  0.00000000000E+00  0.74505805969E-08  0.10566000000E+00  0.10566000000E+00 0.  1.
     999900   -1    0    0    0    0 -0.00000000000E+00 -0.00000000000E+00 -0.74505805969E-08  0.93827000000E+00  0.93827000000E+00 0. -1.
     999902    2    1    2    0    0 -0.20766117773E-01  0.26238831846E-02 -0.12110530020E-01  0.10197477473E+01  0.10194609785E+01 0.  0.
     999903    2    3    3    0    0 -0.10505914376E+00  0.10637770081E-01 -0.79070572971E-01  0.13315134304E+00  0.18070384720E-01 0.  0.
         14    1    1    2    0    0  0.20766117773E-01 -0.26238831846E-02  0.12110530020E-01  0.24182252742E-01  0.00000000000E+00 0.  1.
     999901    1    3    3    0    0  0.84293025989E-01 -0.80138868964E-02  0.66960042951E-01  0.88659640421E+00  0.88000000000E+00 0.  1.
        -11    1    4    4    0    0 -0.70024589415E-01  0.15335740453E-01 -0.55547780696E-01  0.90688726528E-01  0.51100000000E-03 0.  1.
         11    1    4    4    0    0 -0.35034554347E-01 -0.46979703722E-02 -0.23522792274E-01  0.42462616515E-01  0.51100000000E-03 0. -1.
</event>
<event>
 8    1  0.1126407E+005  0.1043930E+01  0.7957747E-01            NaN
         13   -1    0    0    0    0  0.00000000000E+00  0.00000000000E+00  0.74505805969E-08  0.10566000000E+00  0.10566000000E+00 0.  1.
     999900   -1    0    0    0    0 -0.00000000000E+00 -0.00000000000E+00 -0.74505805969E-08  0.93827000000E+00  0.93827000000E+00 0.  1.
     999902    2    1    2    0    0  0.19257711564E-01  0.11357677300E-01  0.76979820507E-02  0.10202843827E+01  0.10200103462E+01 0.  0.
     999903    2    3    3    0    0  0.93366525280E-01  0.88265264237E-02 -0.90336914974E-01  0.13174098816E+00  0.19992852316E-01 0.  0.
         14    1    1    2    0    0 -0.19257711564E-01 -0.11357677300E-01 -0.76979820507E-02  0.23645617268E-01  0.00000000000E+00 0. -1.
     999901    1    3    3    0    0 -0.74108813716E-01  0.25311508767E-02  0.98034897025E-01  0.88854339457E+00  0.88000000000E+00 0.  1.
        -11    1    4    4    0    0  0.60846104324E-01  0.64305834768E-02 -0.45276966088E-01  0.76117446058E-01  0.51100000000E-03 0. -1.
         11    1    4    4    0    0  0.32520420956E-01  0.23959429469E-02 -0.45059948886E-01  0.55623542106E-01  0.51100000000E-03 0.  1.
</event>
<event>
 8    1  0.1126407E+005  0.1043930E+01  0.7957747E-01            NaN
         13   -1    0    0    0    0  0.00000000000E+00  0.00000000000E+00  0.74505805969E-08  0.10566000000E+00  0.10566000000E+00 0. -1.
     999900   -1    0    0    0    0 -0.00000000000E+00 -0.00000000000E+00 -0.74505805969E-08  0.93827000000E+00  0.93827000000E+00 0. -1.
     999902    2    1    2    0    0 -0.15951630374E-01  0.18260744527E-01  0.19715214199E-01  0.10126794164E+01  0.10121971159E+01 0.  0.
     999903    2    3    3    0    0  0.78785543542E-01  0.75253708963E-01  0.59373301843E-01  0.12487533105E+00  0.14084628089E-01 0.  0.
         14    1    1    2    0    0  0.15951630374E-01 -0.18260744527E-01 -0.19715214199E-01  0.31250583566E-01  0.00000000000E+00 0.  1.
     999901    1    3    3    0    0 -0.94737173915E-01 -0.56992964435E-01 -0.39658087643E-01  0.88780408539E+00  0.88000000000E+00 0. -1.
        -11    1    4    4    0    0  0.36542817357E-02  0.86985251953E-02  0.42205655425E-02  0.10348546278E-01  0.51100000000E-03 0. -1.
         11    1    4    4    0    0  0.75131261806E-01  0.66555183767E-01  0.55152736300E-01  0.11452678477E+00  0.51100000000E-03 0.  1.
</event>
<event>
 8    1  0.1126407E+005  0.1043930E+01  0.7957747E-01            NaN
         13   -1    0    0    0    0  0.00000000000E+00  0.00000000000E+00  0.74505805969E-08  0.10566000000E+00  0.10566000000E+00 0. -1.
     999900   -1    0    0    0    0 -0.00000000000E+00 -0.00000000000E+00 -0.74505805969E-08  0.93827000000E+00  0.93827000000E+00 0.  1.
     999902    2    1    2    0    0 -0.13963074846E-01 -0.70702511565E-02 -0.16925355259E-01  0.10208773741E+01  0.10206170630E+01 0.  0.
     999903    2    3    3    0    0 -0.12565133198E-01  0.12309399853E+00  0.33417475622E-01  0.12987844774E+00  0.21015909816E-01 0.  0.
         14    1    1    2    0    0  0.13963074846E-01  0.70702511565E-02  0.16925355259E-01  0.23052625908E-01  0.00000000000E+00 0. -1.
     999901    1    3    3    0    0 -0.13979416485E-02 -0.13016424968E+00 -0.50342830881E-01  0.89099892635E+00  0.88000000000E+00 0.  1.
        -11    1    4    4    0    0 -0.10827511568E-01  0.51204905356E-01  0.50835869592E-02  0.52585942196E-01  0.51100000000E-03 0. -1.
         11    1    4    4    0    0 -0.17376216297E-02  0.71889093171E-01  0.28333888663E-01  0.77292505546E-01  0.51100000000E-03 0.  1.
</event>
<event>
 8    1  0.1126407E+005  0.1043930E+01  0.7957747E-01            NaN
         13   -1    0    0    0    0  0.00000000000E+00  0.00000000000E+00  0.74505805969E-08  0.10566000000E+00  0.10566000000E+00 0. -1.
     999900   -1    0    0    0    0 -0.00000000000E+00 -0.00000000000E+00 -0.74505805969E-08  0.93827000000E+00  0.93827000000E+00 0.  1.
     999902    2    1    2    0    0 -0.49551711201E-03 -0.21362722729E-01 -0.10215275371E-01  0.10202453360E+01  0.10199703830E+01 0.  0.
     999903    2    3    3    0    0  0.77586350498E-01 -0.64508783820E-01 -0.83650423199E-01  0.13269191133E+00  0.20705676958E-01 0.  0.
         14    1    1    2    0    0  0.49551711201E-03  0.21362722729E-01  0.10215275371E-01  0.23684664036E-01  0.00000000000E+00 0. -1.
     999901    1    3    3    0    0 -0.78081867610E-01  0.43146061091E-01  0.73435147828E-01  0.88755342463E+00  0.88000000000E+00 0. -1.
        -11    1    4    4    0    0  0.63623108514E-01 -0.56447449084E-01 -0.60099867603E-01  0.10414638569E+00  0.51100000000E-03 0.  1.
         11    1    4    4    0    0  0.13963241984E-01 -0.80613347362E-02 -0.23550555597E-01  0.28545525645E-01  0.51100000000E-03 0. -1.
</event>
<event>
 8    1  0.1126407E+005  0.1043930E+01  0.7957747E-01            NaN
         13   -1    0    0    0    0  0.00000000000E+00  0.00000000000E+00  0.74505805969E-08  0.10566000000E+00  0.10566000000E+00 0. -1.
     999900   -1    0    0    0    0 -0.00000000000E+00 -0.00000000000E+00 -0.74505805969E-08  0.93827000000E+00  0.93827000000E+00 0.  1.
     999902    2    1    2    0    0 -0.10289692922E-01 -0.26054582082E-01 -0.12529011769E-01  0.10132429479E+01  0.10127781477E+01 0.  0.
     999903    2    3    3    0    0  0.56554423680E-01 -0.11138846183E+00 -0.53488148679E-02  0.12656286912E+00  0.19589735927E-01 0.  0.
         14    1    1    2    0    0  0.10289692922E-01  0.26054582082E-01  0.12529011769E-01  0.30687052054E-01  0.00000000000E+00 0. -1.
     999901    1    3    3    0    0 -0.66844116602E-01  0.85333879746E-01 -0.71801969008E-02  0.88668007882E+00  0.88000000000E+00 0. -1.
        -11    1    4    4    0    0  0.23430947899E-01 -0.37481192698E-01 -0.10404277480E-01  0.45413205529E-01  0.51100000000E-03 0. -1.
         11    1    4    4    0    0  0.33123475781E-01 -0.73907269129E-01  0.50554626123E-02  0.81149663592E-01  0.51100000000E-03 0.  1.
</event>
<event>
 8    1  0.1126407E+005  0.1043930E+01  0.7957747E-01            NaN
         13   -1    0    0    0    0  0.00000000000E+00  0.00000000000E+00  0.74505805969E-08  0.10566000000E+00  0.10566000000E+00 0. -1.
     999900   -1    0    0    0    0 -0.00000000000E+00 -0.00000000000E+00 -0.74505805969E-08  0.93827000000E+00  0.93827000000E+00 0. -1.
     999902    2    1    2    0    0 -0.12315341430E-01  0.15036390595E-01 -0.13800138943E-01  0.10200929593E+01  0.10198144150E+01 0.  0.
     999903    2    3    3    0    0 -0.20850048342E-01 -0.12351187399E+00 -0.24194216666E-01  0.12915160333E+00  0.20121356613E-01 0.  0.
         14    1    1    2    0    0  0.12315341430E-01 -0.15036390595E-01  0.13800138943E-01  0.23837040746E-01  0.00000000000E+00 0.  1.
     999901    1    3    3    0    0  0.85347069115E-02  0.13854826458E+00  0.10394077722E-01  0.89094135592E+00  0.88000000000E+00 0. -1.
        -11    1    4    4    0    0 -0.22273028437E-02 -0.70465147094E-01 -0.10443308915E-01  0.71271464521E-01  0.51100000000E-03 0.  1.
         11    1    4    4    0    0 -0.18622745498E-01 -0.53046726892E-01 -0.13750907750E-01  0.57880138811E-01  0.51100000000E-03 0. -1.
</event>
<event>
 8    1  0.1126407E+005  0.1043930E+01  0.7957747E-01            NaN
         13   -1    0    0    0    0  0.00000000000E+00  0.00000000000E+00  0.74505805969E-08  0.10566000000E+00  0.10566000000E+00 0.  1.
     999900   -1    0    0    0    0 -0.00000000000E+00 -0.00000000000E+00 -0.74505805969E-08  0.93827000000E+00  0.93827000000E+00 0. -1.
     999902    2    1    2    0    0 -0.18223571023E-01  0.14344518805E-01 -0.33749608257E-02  0.10204938288E+01  0.10202246814E+01 0.  0.
     999903    2    3    3    0    0  0.48565223757E-01  0.38041172178E-01  0.11276124038E+00  0.13003894968E+00  0.19731177448E-01 0.  0.
         14    1    1    2    0    0  0.18223571023E-01 -0.14344518805E-01  0.33749608257E-02  0.23436171214E-01  0.00000000000E+00 0.  1.
     999901    1    3    3    0    0 -0.66788794780E-01 -0.23696653373E-01 -0.11613620120E+00  0.89045487910E+00  0.88000000000E+00 0. -1.
        -11    1    4    4    0    0  0.48329027830E-01  0.35587056178E-01  0.96924501765E-01  0.11400330549E+00  0.51100000000E-03 0. -1.
         11    1    4    4    0    0  0.23619592701E-03  0.24541159997E-02  0.15836738614E-01  0.16035644196E-01  0.51100000000E-03 0.  1.
</event>
<event>
 8    1  0.1126407E+005  0.1043930E+01  0.7957747E-01            NaN
         13   -1    0    0    0    0  0.00000000000E+00  0.00000000000E+00  0.74505805969E-08  0.10566000000E+00  0.10566000000E+00 0.  1.
     999900   -1    0    0    0    0 -0.00000000000E+00 -0.00000000000E+00 -0.74505805969E-08  0.93827000000E+00  0.93827000000E+00 0. -1.
     999902    2    1    2    0    0  0.17909531562E-01  0.13424255902E-01  0.70942790945E-02  0.10204504182E+01  0.10201802611E+01 0.  0.
     999903    2    3    3    0    0  0.60828034962E-01 -0.11327418705E+00  0.81986533402E-02  0.13034047382E+00  0.19756768702E-01 0.  0.
         14    1    1    2    0    0 -0.17909531562E-01 -0.13424255902E-01 -0.70942790945E-02  0.23479581835E-01  0.00000000000E+00 0.  1.
     999901    1    3    3    0    0 -0.42918503400E-01  0.12669844295E+00 -0.11043742457E-02  0.89010994435E+00  0.88000000000E+00 0. -1.
        -11    1    4    4    0    0  0.67123647775E-02 -0.34049872179E-02 -0.47749449178E-03  0.75590277715E-02  0.51100000000E-03 0.  1.
         11    1    4    4    0    0  0.54115670184E-01 -0.10986919983E+00  0.86761478320E-02  0.12278144605E+00  0.51100000000E-03 0. -1.
</event>
<event>
 8    1  0.1126407E+005  0.1043930E+01  0.7957747E-01            NaN
         13   -1    0    0    0    0  0.00000000000E+00  0.00000000000E+00  0.74505805969E-08  0.10566000000E+00  0.10566000000E+00 0. -1.
     999900   -1    0    0    0    0 -0.00000000000E+00 -0.00000000000E+00 -0.74505805969E-08  0.93827000000E+00  0.93827000000E+00 0. -1.
     999902    2    1    2    0    0  0.42564069345E-03  0.14520578075E-01 -0.19127351737E-01  0.10199115916E+01  0.10196287416E+01 0.  0.
     999903    2    3    3    0    0  0.34303881156E-01  0.74738178678E-01  0.98062285775E-01  0.12945816455E+00  0.19510327101E-01 0.  0.
         14    1    1    2    0    0 -0.42564069345E-03 -0.14520578075E-01  0.19127351737E-01  0.24018408400E-01  0.00000000000E+00 0. -1.
     999901    1    3    3    0    0 -0.33878240462E-01 -0.60217600603E-01 -0.11718963751E+00  0.89045342705E+00  0.88000000000E+00 0. -1.
        -11    1    4    4    0    0  0.17341717152E-01  0.41958492843E-01  0.39225118560E-01  0.60001011013E-01  0.51100000000E-03 0. -1.
         11    1    4    4    0    0  0.16962164003E-01  0.32779685834E-01  0.58837167215E-01  0.69457153540E-01  0.51100000000E-03 0.  1.
</event>
<event>
 8    1  0.1126407E+005  0.1043930E+01  0.7957747E-01            NaN
         13   -1    0    0    0    0  0.00000000000E+00  0.00000000000E+00  0.74505805969E-08  0.10566000000E+00  0.10566000000E+00 0.  1.
     999900   -1    0    0    0    0 -0.00000000000E+00 -0.00000000000E+00 -0.74505805969E-08  0.93827000000E+00  0.93827000000E+00 0. -1.
     999902    2    1    2    0    0 -0.17748536287E-01 -0.14891934075E-01 -0.44604620141E-02  0.10203360185E+01  0.10200631915E+01 0.  0.
     999903    2    3    3    0    0 -0.20446966122E-01 -0.20262063140E-01 -0.12731074176E+00  0.13178196217E+00  0.18161248846E-01 0.  0.
         14    1    1    2    0    0  0.17748536287E-01  0.14891934075E-01  0.44604620141E-02  0.23593981483E-01  0.00000000000E+00 0.  1.
     999901    1    3    3    0    0  0.26984298346E-02  0.53701290645E-02  0.12285027975E+00  0.88855405634E+00  0.88000000000E+00 0.  1.
        -11    1    4    4    0    0 -0.51643791211E-02 -0.12955965469E-01 -0.31072843542E-01  0.34063331894E-01  0.51100000000E-03 0.  1.
         11    1    4    4    0    0 -0.15282587001E-01 -0.73060976711E-02 -0.96237898221E-01  0.97718630279E-01  0.51100000000E-03 0. -1.
</event>
<event>
 8    1  0.1126407E+005  0.1043930E+01  0.7957747E-01            NaN
         13   -1    0    0    0    0  0.00000000000E+00  0.00000000000E+00  0.74505805969E-08  0.10566000000E+00  0.10566000000E+00 0.  1.
     999900   -1    0    0    0    0 -0.00000000000E+00 -0.00000000000E+00 -0.74505805969E-08  0.93827000000E+00  0.93827000000E+00 0. -1.
     999902    2    1    2    0    0  0.23885318905E-01 -0.16018418923E-02  0.20134284554E-02  0.10199065063E+01  0.10196235351E+01 0.  0.
     999903    2    3    3    0    0  0.48962231606E-01 -0.10886593887E+00  0.52031111372E-01  0.13162940612E+00  0.19234636357E-01 0.  0.
         14    1    1    2    0    0 -0.23885318905E-01  0.16018418923E-02 -0.20134284554E-02  0.24023493726E-01  0.00000000000E+00 0. -1.
     999901    1    3    3    0    0 -0.25076912701E-01  0.10726409698E+00 -0.50017682917E-01  0.88827710015E+00  0.88000000000E+00 0. -1.
        -11    1    4    4    0    0  0.45668281620E-01 -0.10330835753E+00  0.43788248911E-01  0.12114404874E+00  0.51100000000E-03 0. -1.
         11    1    4    4    0    0  0.32939499865E-02 -0.55575813380E-02  0.82428624615E-02  0.10485357381E-01  0.51100000000E-03 0.  1.
</event>
<event>
 8    1  0.1126407E+005  0.1043930E+01  0.7957747E-01            NaN
         13   -1    0    0    0    0  0.00000000000E+00  0.00000000000E+00  0.74505805969E-08  0.10566000000E+00  0.10566000000E+00 0. -1.
     999900   -1    0    0    0    0 -0.00000000000E+00 -0.00000000000E+00 -0.74505805969E-08  0.93827000000E+00  0.93827000000E+00 0.  1.
     999902    2    1    2    0    0 -0.28043376937E-02  0.19395708548E-01  0.13525206297E-01  0.10201184686E+01  0.10198405273E+01 0.  0.
     999903    2    3    3    0    0 -0.11008424747E+00  0.69927117803E-01 -0.92826612737E-02  0.13187154285E+00  0.17192808630E-01 0.  0.
         14    1    1    2    0    0  0.28043376937E-02 -0.19395708548E-01 -0.13525206297E-01  0.23811531353E-01  0.00000000000E+00 0.  1.
     999901    1    3    3    0    0  0.10727990978E+00 -0.50531409255E-01  0.22807867570E-01  0.88824692580E+00  0.88000000000E+00 0. -1.
        -11    1    4    4    0    0 -0.59471484151E-01  0.40811652871E-01 -0.13283092280E-01  0.73342689470E-01  0.51100000000E-03 0.  1.
         11    1    4    4    0    0 -0.50612763318E-01  0.29115464933E-01  0.40004310061E-02  0.58528853381E-01  0.51100000000E-03 0. -1.
</event>
<event>
 8    1  0.1126407E+005  0.1043930E+01  0.7957747E-01            NaN
         13   -1    0    0    0    0  0.00000000000E+00  0.00000000000E+00  0.74505805969E-08  0.10566000000E+00  0.10566000000E+00 0. -1.
     999900   -1    0    0    0    0 -0.00000000000E+00 -0.00000000000E+00 -0.74505805969E-08  0.93827000000E+00  0.93827000000E+00 0.  1.
     999902    2    1    2    0    0 -0.15338477668E-01  0.84521618613E-02 -0.15451858308E-01  0.10205747466E+01  0.10203074760E+01 0.  0.
     999903    2    3    3    0    0  0.65013700175E-01 -0.73331408283E-01  0.75576411659E-01  0.12848104591E+00  0.34515337294E-01 0.  0.
         14    1    1    2    0    0  0.15338477668E-01 -0.84521618613E-02  0.15451858308E-01  0.23355253424E-01  0.00000000000E+00 0. -1.
     999901    1    3    3    0    0 -0.80352177843E-01  0.81783570144E-01 -0.91028269967E-01  0.89209370066E+00  0.88000000000E+00 0.  1.
        -11    1    4    4    0    0  0.16359402052E-01 -0.58006080740E-03  0.12141895854E-01  0.20387576168E-01  0.51100000000E-03 0. -1.
         11    1    4    4    0    0  0.48654298123E-01 -0.72751347476E-01  0.63434515805E-01  0.10809346975E+00  0.51100000000E-03 0.  1.
</event>
<event>
 8    1  0.1126407E+005  0.1043930E+01  0.7957747E-01            NaN
         13   -1    0    0    0    0  0.00000000000E+00  0.00000000000E+00  0.74505805969E-08  0.10566000000E+00  0.10566000000E+00 0.  1.
     999900   -1    0    0    0    0 -0.00000000000E+00 -0.00000000000E+00 -0.74505805969E-08  0.93827000000E+00  0.93827000000E+00 0.  1.
     999902    2    1    2    0    0 -0.16575707820E-01  0.16278738692E-01  0.24005086367E-02  0.10205737618E+01  0.10203064683E+01 0.  0.
     999903    2    3    3    0    0  0.73846432939E-01 -0.10192887149E+00 -0.11633686796E-01  0.12796737522E+00  0.19937802104E-01 0.  0.
         14    1    1    2    0    0  0.16575707820E-01 -0.16278738692E-01 -0.24005086367E-02  0.23356238242E-01  0.00000000000E+00 0. -1.
     999901    1    3    3    0    0 -0.90422140758E-01  0.11820761018E+00  0.14034195432E-01  0.89260638654E+00  0.88000000000E+00 0.  1.
        -11    1    4    4    0    0  0.68814850629E-01 -0.84508654113E-01 -0.13102250994E-01  0.10976851274E+00  0.51100000000E-03 0.  1.
         11    1    4    4    0    0  0.50315823099E-02 -0.17420217372E-01  0.14685641986E-02  0.18198862482E-01  0.51100000000E-03 0. -1.
</event>
<event>
 8    1  0.1126407E+005  0.1043930E+01  0.7957747E-01            NaN
         13   -1    0    0    0    0  0.00000000000E+00  0.00000000000E+00  0.74505805969E-08  0.10566000000E+00  0.10566000000E+00 0. -1.
     999900   -1    0    0    0    0 -0.00000000000E+00 -0.00000000000E+00 -0.74505805969E-08  0.93827000000E+00  0.93827000000E+00 0.  1.
     999902    2    1    2    0    0 -0.76023451487E-02 -0.22271877704E-01 -0.12439858620E-02  0.10203635049E+01  0.10200913207E+01 0.  0.
     999903    2    3    3    0    0 -0.12313064562E+00  0.27555988070E-01 -0.27978585102E-01  0.13101298731E+00  0.21473547695E-01 0.  0.
         14    1    1    2    0    0  0.76023451487E-02  0.22271877704E-01  0.12439858620E-02  0.23566495052E-01  0.00000000000E+00 0. -1.
     999901    1    3    3    0    0  0.11552830047E+00 -0.49827865774E-01  0.26734599240E-01  0.88935051763E+00  0.88000000000E+00 0. -1.
        -11    1    4    4    0    0 -0.29703597429E-01  0.16241547195E-01 -0.84700327153E-02  0.34901205290E-01  0.51100000000E-03 0.  1.
         11    1    4    4    0    0 -0.93427048195E-01  0.11314440875E-01 -0.19508552386E-01  0.96111782025E-01  0.51100000000E-03 0. -1.
</event>
<event>
 8    1  0.1126407E+005  0.1043930E+01  0.7957747E-01            NaN
         13   -1    0    0    0    0  0.00000000000E+00  0.00000000000E+00  0.74505805969E-08  0.10566000000E+00  0.10566000000E+00 0. -1.
     999900   -1    0    0    0    0 -0.00000000000E+00 -0.00000000000E+00 -0.74505805969E-08  0.93827000000E+00  0.93827000000E+00 0. -1.
     999902    2    1    2    0    0  0.92311844742E-02  0.14845750289E-01  0.16140679345E-01  0.10201364589E+01  0.10198589423E+01 0.  0.
     999903    2    3    3    0    0  0.25948114661E-01  0.12828615359E+00 -0.73092900468E-02  0.13238757440E+00  0.18504115163E-01 0.  0.
         14    1    1    2    0    0 -0.92311844742E-02 -0.14845750289E-01 -0.16140679345E-01  0.23793541101E-01  0.00000000000E+00 0.  1.
     999901    1    3    3    0    0 -0.16716930187E-01 -0.11344040330E+00  0.23449969392E-01  0.88774888449E+00  0.88000000000E+00 0.  1.
        -11    1    4    4    0    0  0.16459510474E-01  0.10013286159E+00  0.11807097580E-02  0.10148478039E+00  0.51100000000E-03 0. -1.
         11    1    4    4    0    0  0.94886041871E-02  0.28153292004E-01 -0.84899998048E-02  0.30902794013E-01  0.51100000000E-03 0.  1.
</event>
<event>
 8    1  0.1126407E+005  0.1043930E+01  0.7957747E-01            NaN
         13   -1    0    0    0    0  0.00000000000E+00  0.00000000000E+00  0.74505805969E-08  0.10566000000E+00  0.10566000000E+00 0. -1.
     999900   -1    0    0    0    0 -0.00000000000E+00 -0.00000000000E+00 -0.74505805969E-08  0.93827000000E+00  0.93827000000E+00 0. -1.
     999902    2    1    2    0    0 -0.22083059366E-01  0.95403542747E-02  0.19147283878E-02  0.10197981527E+01  0.10195125924E+01 0.  0.
     999903    2    3    3    0    0  0.37158023004E-01  0.11658770781E+00 -0.40056413546E-01  0.13034314060E+00  0.20283139537E-01 0.  0.
         14    1    1    2    0    0  0.22083059366E-01 -0.95403542747E-02 -0.19147283878E-02  0.24131847327E-01  0.00000000000E+00 0. -1.
     999901    1    3    3    0    0 -0.59241082369E-01 -0.10704735354E+00  0.41971141933E-01  0.88945501207E+00  0.88000000000E+00 0.  1.
        -11    1    4    4    0    0  0.60321258038E-03  0.17639653691E-01 -0.43786934142E-03  0.17662788520E-01  0.51100000000E-03 0.  1.
         11    1    4    4    0    0  0.36554810423E-01  0.98948054122E-01 -0.39618544204E-01  0.11268035208E+00  0.51100000000E-03 0. -1.
</event>
<event>
 8    1  0.1126407E+005  0.1043930E+01  0.7957747E-01            NaN
         13   -1    0    0    0    0  0.00000000000E+00  0.00000000000E+00  0.74505805969E-08  0.10566000000E+00  0.10566000000E+00 0. -1.
     999900   -1    0    0    0    0 -0.00000000000E+00 -0.00000000000E+00 -0.74505805969E-08  0.93827000000E+00  0.93827000000E+00 0. -1.
     999902    2    1    2    0    0  0.22648016515E-01 -0.63579822067E-02 -0.41451348223E-02  0.10200440474E+01  0.10197643453E+01 0.  0.
     999903    2    3    3    0    0  0.39860632809E-01  0.73064125827E-01  0.97817325499E-01  0.13043711805E+00  0.22767873554E-01 0.  0.
         14    1    1    2    0    0 -0.22648016515E-01  0.63579822067E-02  0.41451348223E-02  0.23885952618E-01  0.00000000000E+00 0. -1.
     999901    1    3    3    0    0 -0.17212616294E-01 -0.79422108033E-01 -0.10196246032E+00  0.88960692933E+00  0.88000000000E+00 0. -1.
        -11    1    4    4    0    0 -0.12012342130E-03  0.14261628148E-01  0.99319756074E-02  0.17387171350E-01  0.51100000000E-03 0. -1.
         11    1    4    4    0    0  0.39980756230E-01  0.58802497678E-01  0.87885349891E-01  0.11304994670E+00  0.51100000000E-03 0.  1.
</event>
<event>
 8    1  0.1126407E+005  0.1043930E+01  0.7957747E-01            NaN
         13   -1    0    0    0    0  0.00000000000E+00  0.00000000000E+00  0.74505805969E-08  0.10566000000E+00  0.10566000000E+00 0. -1.
     999900   -1    0    0    0    0 -0.00000000000E+00 -0.00000000000E+00 -0.74505805969E-08  0.93827000000E+00  0.93827000000E+00 0. -1.
     999902    2    1    2    0    0  0.18432671636E-01 -0.85977250381E-02 -0.10362967666E-01  0.10211029249E+01  0.10208477398E+01 0.  0.
     999903    2    3    3    0    0  0.10190218995E+00 -0.19678983497E-01 -0.82666734389E-01  0.13413179263E+00  0.19652738022E-01 0.  0.
         14    1    1    2    0    0 -0.18432671636E-01  0.85977250381E-02  0.10362967666E-01  0.22827075115E-01  0.00000000000E+00 0. -1.
     999901    1    3    3    0    0 -0.83469518309E-01  0.11081258459E-01  0.72303766722E-01  0.88697113226E+00  0.88000000000E+00 0.  1.
        -11    1    4    4    0    0  0.64909211651E-01 -0.33980368214E-02 -0.55031314255E-01  0.85167241831E-01  0.51100000000E-03 0.  1.
         11    1    4    4    0    0  0.36992978294E-01 -0.16280946676E-01 -0.27635420134E-01  0.48964550796E-01  0.51100000000E-03 0. -1.
</event>
<event>
 8    1  0.1126407E+005  0.1043930E+01  0.7957747E-01            NaN
         13   -1    0    0    0    0  0.00000000000E+00  0.00000000000E+00  0.74505805969E-08  0.10566000000E+00  0.10566000000E+00 0.  1.
     999900   -1    0    0    0    0 -0.00000000000E+00 -0.00000000000E+00 -0.74505805969E-08  0.93827000000E+00  0.93827000000E+00 0. -1.
     999902    2    1    2    0    0 -0.11727229146E-02  0.23706367538E-01  0.37462101928E-04  0.10201946141E+01  0.10199184683E+01 0.  0.
     999903    2    3    3    0    0 -0.37620546910E-01  0.67756122256E-01 -0.10504663691E+00  0.13210031018E+00  0.20236066086E-01 0.  0.
         14    1    1    2    0    0  0.11727229146E-02 -0.23706367538E-01 -0.37462101928E-04  0.23735385909E-01  0.00000000000E+00 0.  1.
     999901    1    3    3    0    0  0.36447823995E-01 -0.44049754719E-01  0.10508409902E+00  0.88809430391E+00  0.88000000000E+00 0.  1.
        -11    1    4    4    0    0 -0.57427319691E-02  0.20419778047E-01 -0.17064433693E-01  0.27228704050E-01  0.51100000000E-03 0.  1.
         11    1    4    4    0    0 -0.31877814941E-01  0.47336344209E-01 -0.87982203221E-01  0.10487160613E+00  0.51100000000E-03 0. -1.
</event>
<event>
 8    1  0.1126407E+005  0.1043930E+01  0.7957747E-01            NaN
         13   -1    0    0    0    0  0.00000000000E+00  0.00000000000E+00  0.74505805969E-08  0.10566000000E+00  0.10566000000E+00 0. -1.
     999900   -1    0    0    0    0 -0.00000000000E+00 -0.00000000000E+00 -0.74505805969E-08  0.93827000000E+00  0.93827000000E+00 0.  1.
     999902    2    1    2    0    0  0.15274692499E-01 -0.14019954270E-01  0.10888108386E-01  0.10205114976E+01  0.10202427606E+01 0.  0.
     999903    2    3    3    0    0 -0.80310860090E-01 -0.75934599261E-01  0.67942762617E-01  0.13134039223E+00  0.20449499382E-01 0.  0.
         14    1    1    2    0    0 -0.15274692499E-01  0.14019954270E-01 -0.10888108386E-01  0.23418502362E-01  0.00000000000E+00 0. -1.
     999901    1    3    3    0    0  0.95585552589E-01  0.61914644991E-01 -0.57054654231E-01  0.88917110541E+00  0.88000000000E+00 0.  1.
        -11    1    4    4    0    0 -0.50967117324E-01 -0.43397859304E-01  0.29914692762E-01  0.73322378607E-01  0.51100000000E-03 0. -1.
         11    1    4    4    0    0 -0.29343742766E-01 -0.32536739957E-01  0.38028069855E-01  0.58018013620E-01  0.51100000000E-03 0.  1.
</event>
<event>
 8    1  0.1126407E+005  0.1043930E+01  0.7957747E-01            NaN
         13   -1    0    0    0    0  0.00000000000E+00  0.00000000000E+00  0.74505805969E-08  0.10566000000E+00  0.10566000000E+00 0.  1.
     999900   -1    0    0    0    0 -0.00000000000E+00 -0.00000000000E+00 -0.74505805969E-08  0.93827000000E+00  0.93827000000E+00 0. -1.
     999902    2    1    2    0    0  0.15597172724E-01 -0.14217809340E-01  0.11315375682E-01  0.10199830665E+01  0.10197019173E+01 0.  0.
     999903    2    3    3    0    0 -0.11360751316E+00  0.52141833257E-01  0.19051019149E-01  0.12804288169E+00  0.20164334792E-01 0.  0.
         14    1    1    2    0    0 -0.15597172724E-01  0.14217809340E-01 -0.11315375682E-01  0.23946933546E-01  0.00000000000E+00 0. -1.
     999901    1    3    3    0    0  0.12920468589E+00 -0.66359642597E-01 -0.77356434662E-02  0.89194018477E+00  0.88000000000E+00 0. -1.
        -11    1    4    4    0    0 -0.69510034283E-01  0.26693087419E-01  0.24962827493E-02  0.74502740423E-01  0.51100000000E-03 0.  1.
         11    1    4    4    0    0 -0.44097478880E-01  0.25448745838E-01  0.16554736399E-01  0.53540141264E-01  0.51100000000E-03 0. -1.
</event>
<event>
 8    1  0.1126407E+005  0.1043930E+01  0.7957747E-01            NaN
         13   -1    0    0    0    0  0.00000000000E+00  0.00000000000E+00  0.74505805969E-08  0.10566000000E+00  0.10566000000E+00 0. -1.
     999900   -1    0    0    0    0 -0.00000000000E+00 -0.00000000000E+00 -0.74505805969E-08  0.93827000000E+00  0.93827000000E+00 0. -1.
     999902    2    1    2    0    0  0.22949877137E-01 -0.42943914268E-02 -0.34938524432E-02  0.10203218306E+01  0.10200486715E+01 0.  0.
     999903    2    3    3    0    0 -0.38778775004E-01  0.22248530109E-01 -0.12039912770E+00  0.13005119950E+00  0.20459082529E-01 0.  0.
         14    1    1    2    0    0 -0.22949877137E-01  0.42943914268E-02  0.34938524432E-02  0.23608169417E-01  0.00000000000E+00 0. -1.
     999901    1    3    3    0    0  0.61728652141E-01 -0.26542921536E-01  0.11690527526E+00  0.89027063108E+00  0.88000000000E+00 0.  1.
        -11    1    4    4    0    0 -0.21742554626E-01  0.53743230336E-02 -0.79917102724E-01  0.82997749720E-01  0.51100000000E-03 0.  1.
         11    1    4    4    0    0 -0.17036220378E-01  0.16874207075E-01 -0.40482024978E-01  0.47053449784E-01  0.51100000000E-03 0. -1.
</event>
<event>
 8    1  0.1126407E+005  0.1043930E+01  0.7957747E-01            NaN
         13   -1    0    0    0    0  0.00000000000E+00  0.00000000000E+00  0.74505805969E-08  0.10566000000E+00  0.10566000000E+00 0. -1.
     999900   -1    0    0    0    0 -0.00000000000E+00 -0.00000000000E+00 -0.74505805969E-08  0.93827000000E+00  0.93827000000E+00 0. -1.
     999902    2    1    2    0    0 -0.20984137166E-01  0.27893948554E-02 -0.86062971057E-02  0.10210786743E+01  0.10208229406E+01 0.  0.
     999903    2    3    3    0    0 -0.13984009809E-01  0.12727581959E+00  0.23445526515E-01  0.13171193829E+00  0.20091172017E-01 0.  0.
         14    1    1    2    0    0  0.20984137166E-01 -0.27893948554E-02  0.86062971057E-02  0.22851325698E-01  0.00000000000E+00 0. -1.
     999901    1    3    3    0    0 -0.70001273575E-02 -0.12448642473E+00 -0.32051823621E-01  0.88936673601E+00  0.88000000000E+00 0. -1.
        -11    1    4    4    0    0 -0.16415555231E-01  0.75928690081E-01  0.19842096651E-01  0.80178590356E-01  0.51100000000E-03 0.  1.
         11    1    4    4    0    0  0.24315454221E-02  0.51347129506E-01  0.36034298641E-02  0.51533347935E-01  0.51100000000E-03 0. -1.
</event>
<event>
 8    1  0.1193829E+005  0.1043930E+01  0.7957747E-01            NaN
         13   -1    0    0    0    0  0.00000000000E+00  0.00000000000E+00  0.74505805969E-08  0.10566000000E+00  0.10566000000E+00 0.  1.
     999900   -1    0    0    0    0 -0.00000000000E+00 -0.00000000000E+00 -0.74505805969E-08  0.93827000000E+00  0.93827000000E+00 0.  1.
     999902    2    1    2    0    0 -0.26588320201E-02  0.13041338917E-01  0.19355912669E-01  0.10204396347E+01  0.10201692265E+01 0.  0.
     999903    2    3    3    0    0  0.12008776965E-01 -0.87381406708E-01  0.95302495298E-01  0.13135710193E+00  0.19809130614E-01 0.  0.
         14    1    1    2    0    0  0.26588320201E-02 -0.13041338917E-01 -0.19355912669E-01  0.23490365337E-01  0.00000000000E+00 0. -1.
     999901    1    3    3    0    0 -0.14667608985E-01  0.10042274562E+00 -0.75946582629E-01  0.88908253273E+00  0.88000000000E+00 0.  1.
        -11    1    4    4    0    0 -0.41152055121E-02 -0.29683734974E-01  0.38580939937E-01  0.48854980154E-01  0.51100000000E-03 0. -1.
         11    1    4    4    0    0  0.16123982477E-01 -0.57697671734E-01  0.56721555361E-01  0.82502121779E-01  0.51100000000E-03 0.  1.
</event>
<event>
 8    1  0.1126407E+005  0.1043930E+01  0.7957747E-01            NaN
         13   -1    0    0    0    0  0.00000000000E+00  0.00000000000E+00  0.74505805969E-08  0.10566000000E+00  0.10566000000E+00 0. -1.
     999900   -1    0    0    0    0 -0.00000000000E+00 -0.00000000000E+00 -0.74505805969E-08  0.93827000000E+00  0.93827000000E+00 0. -1.
     999902    2    1    2    0    0 -0.19741846726E-02  0.25560152878E-01 -0.52546741929E-02  0.10177607352E+01  0.10174242398E+01 0.  0.
     999903    2    3    3    0    0  0.28632962615E-01 -0.12016599546E+00  0.57984410517E-02  0.12518296315E+00  0.19427797855E-01 0.  0.
         14    1    1    2    0    0  0.19741846726E-02 -0.25560152878E-01  0.52546741929E-02  0.26169264818E-01  0.00000000000E+00 0. -1.
     999901    1    3    3    0    0 -0.30607147288E-01  0.14572614834E+00 -0.11053115245E-01  0.89257777204E+00  0.88000000000E+00 0. -1.
        -11    1    4    4    0    0  0.12773234919E-01 -0.78456031718E-01  0.11024958750E-01  0.80251574936E-01  0.51100000000E-03 0.  1.
         11    1    4    4    0    0  0.15859727696E-01 -0.41709963746E-01 -0.52265176978E-02  0.44931388210E-01  0.51100000000E-03 0. -1.
</event>
<event>
 8    1  0.1126407E+005  0.1043930E+01  0.7957747E-01            NaN
         13   -1    0    0    0    0  0.00000000000E+00  0.00000000000E+00  0.74505805969E-08  0.10566000000E+00  0.10566000000E+00 0. -1.
     999900   -1    0    0    0    0 -0.00000000000E+00 -0.00000000000E+00 -0.74505805969E-08  0.93827000000E+00  0.93827000000E+00 0.  1.
     999902    2    1    2    0    0  0.10347845635E-01  0.70306671954E-02 -0.18237652806E-01  0.10218139386E+01  0.10215745714E+01 0.  0.
     999903    2    3    3    0    0  0.54814308926E-01 -0.10268384850E+00  0.55585205806E-01  0.13082327888E+00  0.21827367854E-01 0.  0.
         14    1    1    2    0    0 -0.10347845635E-01 -0.70306671954E-02  0.18237652806E-01  0.22116061367E-01  0.00000000000E+00 0.  1.
     999901    1    3    3    0    0 -0.44466463291E-01  0.10971451569E+00 -0.73822858613E-01  0.89099065975E+00  0.88000000000E+00 0.  1.
        -11    1    4    4    0    0  0.39401913726E-01 -0.51627370409E-01  0.27289473321E-01  0.70447658980E-01  0.51100000000E-03 0. -1.
         11    1    4    4    0    0  0.15412395200E-01 -0.51056478088E-01  0.28295732485E-01  0.60375619901E-01  0.51100000000E-03 0.  1.
</event>
<event>
 8    1  0.1126407E+005  0.1043930E+01  0.7957747E-01            NaN
         13   -1    0    0    0    0  0.00000000000E+00  0.00000000000E+00  0.74505805969E-08  0.10566000000E+00  0.10566000000E+00 0. -1.
     999900   -1    0    0    0    0 -0.00000000000E+00 -0.00000000000E+00 -0.74505805969E-08  0.93827000000E+00  0.93827000000E+00 0.  1.
     999902    2    1    2    0    0  0.13312189341E-01  0.19517995240E-01  0.64191760552E-03  0.10202957329E+01  0.10200219625E+01 0.  0.
     999903    2    3    3    0    0  0.12038244235E+00 -0.41784588770E-01 -0.24297004417E-01  0.13133904345E+00  0.20535715870E-01 0.  0.
         14    1    1    2    0    0 -0.13312189341E-01 -0.19517995240E-01 -0.64191760552E-03  0.23634267102E-01  0.00000000000E+00 0. -1.
     999901    1    3    3    0    0 -0.10707025301E+00  0.61302584011E-01  0.24938922022E-01  0.88895668945E+00  0.88000000000E+00 0. -1.
        -11    1    4    4    0    0  0.67565818895E-01 -0.12934330227E-01 -0.10474108888E-01  0.69587390089E-01  0.51100000000E-03 0. -1.
         11    1    4    4    0    0  0.52816623451E-01 -0.28850258543E-01 -0.13822895529E-01  0.61751653359E-01  0.51100000000E-03 0.  1.
</event>
<event>
 8    1  0.1126407E+005  0.1043930E+01  0.7957747E-01            NaN
         13   -1    0    0    0    0  0.00000000000E+00  0.00000000000E+00  0.74505805969E-08  0.10566000000E+00  0.10566000000E+00 0. -1.
     999900   -1    0    0    0    0 -0.00000000000E+00 -0.00000000000E+00 -0.74505805969E-08  0.93827000000E+00  0.93827000000E+00 0.  1.
     999902    2    1    2    0    0 -0.12023406279E-01 -0.15612236028E-01 -0.10191810096E-01  0.10217449328E+01  0.10215040531E+01 0.  0.
     999903    2    3    3    0    0 -0.69915775874E-01  0.99412020104E-01 -0.46052724962E-01  0.13165049336E+00  0.20976974727E-01 0.  0.
         14    1    1    2    0    0  0.12023406279E-01  0.15612236028E-01  0.10191810096E-01  0.22185067171E-01  0.00000000000E+00 0.  1.
     999901    1    3    3    0    0  0.57892369595E-01 -0.11502425613E+00  0.35860914866E-01  0.89009443947E+00  0.88000000000E+00 0. -1.
        -11    1    4    4    0    0 -0.54874403867E-01  0.61770838768E-01 -0.34103977559E-01  0.89387801898E-01  0.51100000000E-03 0. -1.
         11    1    4    4    0    0 -0.15041372007E-01  0.37641181336E-01 -0.11948747403E-01  0.42262691463E-01  0.51100000000E-03 0.  1.
</event>
<event>
 8    1  0.1126407E+005  0.1043930E+01  0.7957747E-01            NaN
         13   -1    0    0    0    0  0.00000000000E+00  0.00000000000E+00  0.74505805969E-08  0.10566000000E+00  0.10566000000E+00 0.  1.
     999900   -1    0    0    0    0 -0.00000000000E+00 -0.00000000000E+00 -0.74505805969E-08  0.93827000000E+00  0.93827000000E+00 0.  1.
     999902    2    1    2    0    0 -0.10908638956E-01  0.19652519900E-01 -0.55509925448E-02  0.10207776036E+01  0.10205150085E+01 0.  0.
     999903    2    3    3    0    0 -0.96326714865E-01 -0.35260464276E-01  0.78826278188E-01  0.13092862349E+00  0.20163977269E-01 0.  0.
         14    1    1    2    0    0  0.10908638956E-01 -0.19652519900E-01  0.55509925448E-02  0.23152396432E-01  0.00000000000E+00 0.  1.
     999901    1    3    3    0    0  0.85418075910E-01  0.54912984177E-01 -0.84377270733E-01  0.88984898007E+00  0.88000000000E+00 0.  1.
        -11    1    4    4    0    0 -0.32357353616E-01 -0.11004699352E-01  0.38618562355E-01  0.51572824435E-01  0.51100000000E-03 0. -1.
         11    1    4    4    0    0 -0.63969361250E-01 -0.24255764924E-01  0.40207715833E-01  0.79355799059E-01  0.51100000000E-03 0.  1.
</event>
<event>
 8    1  0.1126407E+005  0.1043930E+01  0.7957747E-01            NaN
         13   -1    0    0    0    0  0.00000000000E+00  0.00000000000E+00  0.74505805969E-08  0.10566000000E+00  0.10566000000E+00 0. -1.
     999900   -1    0    0    0    0 -0.00000000000E+00 -0.00000000000E+00 -0.74505805969E-08  0.93827000000E+00  0.93827000000E+00 0. -1.
     999902    2    1    2    0    0  0.25973762234E-02  0.21039763434E-01 -0.96226036946E-02  0.10206488379E+01  0.10203832798E+01 0.  0.
     999903    2    3    3    0    0 -0.59216136554E-01 -0.11285963968E+00  0.15557557126E-02  0.12830646173E+00  0.14706415214E-01 0.  0.
         14    1    1    2    0    0 -0.25973762234E-02 -0.21039763434E-01  0.96226036946E-02  0.23281162138E-01  0.00000000000E+00 0.  1.
     999901    1    3    3    0    0  0.61813512777E-01  0.13389940312E+00 -0.11178359407E-01  0.89234237613E+00  0.88000000000E+00 0.  1.
        -11    1    4    4    0    0 -0.38762881827E-01 -0.87323480027E-01 -0.12747356548E-03  0.95541763340E-01  0.51100000000E-03 0. -1.
         11    1    4    4    0    0 -0.20453254727E-01 -0.25536159657E-01  0.16832292780E-02  0.32764698392E-01  0.51100000000E-03 0.  1.
</event>
<event>
 8    1  0.1126407E+005  0.1043930E+01  0.7957747E-01            NaN
         13   -1    0    0    0    0  0.00000000000E+00  0.00000000000E+00  0.74505805969E-08  0.10566000000E+00  0.10566000000E+00 0. -1.
     999900   -1    0    0    0    0 -0.00000000000E+00 -0.00000000000E+00 -0.74505805969E-08  0.93827000000E+00  0.93827000000E+00 0.  1.
     999902    2    1    2    0    0  0.60056521304E-02  0.19777800854E-01  0.12054329263E-01  0.10200022730E+01  0.10197215801E+01 0.  0.
     999903    2    3    3    0    0  0.78744005986E-01 -0.68648726472E-01 -0.72189032294E-01  0.12859492348E+00  0.20301030437E-01 0.  0.
         14    1    1    2    0    0 -0.60056521304E-02 -0.19777800854E-01 -0.12054329263E-01  0.23927726973E-01  0.00000000000E+00 0.  1.
     999901    1    3    3    0    0 -0.72738353856E-01  0.88426527326E-01  0.84243361557E-01  0.89140734955E+00  0.88000000000E+00 0. -1.
        -11    1    4    4    0    0  0.47300434659E-01 -0.32011441792E-01 -0.47916669834E-01  0.74554221165E-01  0.51100000000E-03 0. -1.
         11    1    4    4    0    0  0.31443571327E-01 -0.36637284680E-01 -0.24272362460E-01  0.54040702317E-01  0.51100000000E-03 0.  1.
</event>
<event>
 8    1  0.1126407E+005  0.1043930E+01  0.7957747E-01            NaN
         13   -1    0    0    0    0  0.00000000000E+00  0.00000000000E+00  0.74505805969E-08  0.10566000000E+00  0.10566000000E+00 0. -1.
     999900   -1    0    0    0    0 -0.00000000000E+00 -0.00000000000E+00 -0.74505805969E-08  0.93827000000E+00  0.93827000000E+00 0. -1.
     999902    2    1    2    0    0  0.16601644152E-02  0.23001421490E-01 -0.62342623442E-02  0.10200409321E+01  0.10197611562E+01 0.  0.
     999903    2    3    3    0    0  0.81693557432E-01  0.79329361528E-01 -0.65053185796E-01  0.13266398484E+00  0.20020763383E-01 0.  0.
         14    1    1    2    0    0 -0.16601644152E-02 -0.23001421490E-01  0.62342623442E-02  0.23889067865E-01  0.00000000000E+00 0. -1.
     999901    1    3    3    0    0 -0.80033393017E-01 -0.56327940037E-01  0.58818923452E-01  0.88737694729E+00  0.88000000000E+00 0.  1.
        -11    1    4    4    0    0 -0.11134117414E-03  0.51291272687E-02 -0.24130324101E-02  0.56924678135E-02  0.51100000000E-03 0.  1.
         11    1    4    4    0    0  0.81804898606E-01  0.74200234259E-01 -0.62640153386E-01  0.12697151703E+00  0.51100000000E-03 0. -1.
</event>
<event>
 7    1  0.1126407E+005  0.1043930E+01  0.7957747E-01            NaN
         13   -1    0    0    0    0  0.00000000000E+00  0.00000000000E+00  0.74505805969E-08  0.10566000000E+00  0.10566000000E+00 0.  1.
     999900   -1    0    0    0    0 -0.00000000000E+00 -0.00000000000E+00 -0.74505805969E-08  0.93827000000E+00  0.93827000000E+00 0. -1.
     999903    2    1    2    0    0 -0.60741991756E-01 -0.66764517873E-01  0.73024510169E-02  0.92795098681E-01  0.20261148513E-01 0.  0.
         14    1    1    2    0    0  0.41324447946E-01 -0.47316103747E-01  0.86585258148E-02  0.63415248490E-01  0.00000000000E+00 0. -1.
     999901    1    1    2    0    0  0.19417543809E-01  0.11408062162E+00 -0.15960976832E-01  0.88771965283E+00  0.88000000000E+00 0. -1.
        -11    1    3    3    0    0 -0.89631499496E-02 -0.19759436474E-01  0.71821380559E-02  0.22860831456E-01  0.51100000000E-03 0. -1.
         11    1    3    3    0    0 -0.51778841806E-01 -0.47005081399E-01  0.12031296096E-03  0.69934267225E-01  0.51100000000E-03 0.  1.
</event>
<event>
 8    1  0.1126407E+005  0.1043930E+01  0.7957747E-01            NaN
         13   -1    0    0    0    0  0.00000000000E+00  0.00000000000E+00  0.74505805969E-08  0.10566000000E+00  0.10566000000E+00 0.  1.
     999900   -1    0    0    0    0 -0.00000000000E+00 -0.00000000000E+00 -0.74505805969E-08  0.93827000000E+00  0.93827000000E+00 0. -1.
     999902    2    1    2    0    0  0.26660173800E-01 -0.18174256249E-03 -0.65580512383E-02  0.10164744735E+01  0.10161036116E+01 0.  0.
     999903    2    3    3    0    0  0.10834756286E-01  0.69412634519E-01 -0.10536942203E+00  0.12807281428E+00  0.19089915774E-01 0.  0.
         14    1    1    2    0    0 -0.26660173800E-01  0.18174256249E-03  0.65580512383E-02  0.27455526465E-01  0.00000000000E+00 0.  1.
     999901    1    3    3    0    0  0.15825417514E-01 -0.69594377081E-01  0.98811370796E-01  0.88840165925E+00  0.88000000000E+00 0.  1.
        -11    1    4    4    0    0 -0.23392422486E-02  0.20955930736E-01 -0.20224668888E-01  0.29221934227E-01  0.51100000000E-03 0. -1.
         11    1    4    4    0    0  0.13173998535E-01  0.48456703783E-01 -0.85144753146E-01  0.98850880058E-01  0.51100000000E-03 0.  1.
</event>
<event>
 8    1  0.1126407E+005  0.1043930E+01  0.7957747E-01            NaN
         13   -1    0    0    0    0  0.00000000000E+00  0.00000000000E+00  0.74505805969E-08  0.10566000000E+00  0.10566000000E+00 0. -1.
     999900   -1    0    0    0    0 -0.00000000000E+00 -0.00000000000E+00 -0.74505805969E-08  0.93827000000E+00  0.93827000000E+00 0. -1.
     999902    2    1    2    0    0  0.16855761572E-01 -0.92279071668E-02  0.12894110276E-01  0.10207884994E+01  0.10205261543E+01 0.  0.
     999903    2    3    3    0    0 -0.14774160100E-01  0.49535240773E-01 -0.11633098417E+00  0.12885089817E+00  0.19940917650E-01 0.  0.
         14    1    1    2    0    0 -0.16855761572E-01  0.92279071668E-02 -0.12894110276E-01  0.23141500570E-01  0.00000000000E+00 0. -1.
     999901    1    3    3    0    0  0.31629921672E-01 -0.58763147940E-01  0.12922509445E+00  0.89193760126E+00  0.88000000000E+00 0.  1.
        -11    1    4    4    0    0  0.34353270584E-02  0.52998373164E-02 -0.66225073336E-02  0.91656135617E-02  0.51100000000E-03 0.  1.
         11    1    4    4    0    0 -0.18209487159E-01  0.44235403457E-01 -0.10970847684E+00  0.11968528461E+00  0.51100000000E-03 0. -1.
</event>
<event>
 8    1  0.1126407E+005  0.1043930E+01  0.7957747E-01            NaN
         13   -1    0    0    0    0  0.00000000000E+00  0.00000000000E+00  0.74505805969E-08  0.10566000000E+00  0.10566000000E+00 0.  1.
     999900   -1    0    0    0    0 -0.00000000000E+00 -0.00000000000E+00 -0.74505805969E-08  0.93827000000E+00  0.93827000000E+00 0. -1.
     999902    2    1    2    0    0 -0.59253653276E-02  0.22331035555E-01  0.14372099140E-02  0.10207815513E+01  0.10205190468E+01 0.  0.
     999903    2    3    3    0    0  0.79877865147E-01 -0.62068644791E-01 -0.77634575055E-01  0.12907652859E+00  0.20015818333E-01 0.  0.
         14    1    1    2    0    0  0.59253653276E-02 -0.22331035555E-01 -0.14372099140E-02  0.23148448665E-01  0.00000000000E+00 0. -1.
     999901    1    3    3    0    0 -0.85803230474E-01  0.84399680347E-01  0.79071784969E-01  0.89170502274E+00  0.88000000000E+00 0.  1.
        -11    1    4    4    0    0  0.56753013540E-01 -0.49542430620E-01 -0.47430841887E-01  0.89024170093E-01  0.51100000000E-03 0.  1.
         11    1    4    4    0    0  0.23124851606E-01 -0.12526214171E-01 -0.30203733168E-01  0.40052358502E-01  0.51100000000E-03 0. -1.
</event>
<event>
 8    1  0.1126407E+005  0.1043930E+01  0.7957747E-01            NaN
         13   -1    0    0    0    0  0.00000000000E+00  0.00000000000E+00  0.74505805969E-08  0.10566000000E+00  0.10566000000E+00 0.  1.
     999900   -1    0    0    0    0 -0.00000000000E+00 -0.00000000000E+00 -0.74505805969E-08  0.93827000000E+00  0.93827000000E+00 0.  1.
     999902    2    1    2    0    0  0.14288234110E-01 -0.16135107099E-01  0.95633301279E-02  0.10203513529E+01  0.10200788846E+01 0.  0.
     999903    2    3    3    0    0 -0.12028815151E+00  0.38847086016E-01  0.10874289646E-01  0.12842334924E+00  0.19899019348E-01 0.  0.
         14    1    1    2    0    0 -0.14288234110E-01  0.16135107099E-01 -0.95633301279E-02  0.23578647082E-01  0.00000000000E+00 0. -1.
     999901    1    3    3    0    0  0.13457638561E+00 -0.54982193116E-01 -0.13109595177E-02  0.89192800368E+00  0.88000000000E+00 0. -1.
        -11    1    4    4    0    0 -0.66611514893E-01  0.30277129263E-01  0.10203103316E-02  0.73178553053E-01  0.51100000000E-03 0. -1.
         11    1    4    4    0    0 -0.53676636612E-01  0.85699567530E-02  0.98539793140E-02  0.55244796190E-01  0.51100000000E-03 0.  1.
</event>
<event>
 8    1  0.1126407E+005  0.1043930E+01  0.7957747E-01            NaN
         13   -1    0    0    0    0  0.00000000000E+00  0.00000000000E+00  0.74505805969E-08  0.10566000000E+00  0.10566000000E+00 0.  1.
     999900   -1    0    0    0    0 -0.00000000000E+00 -0.00000000000E+00 -0.74505805969E-08  0.93827000000E+00  0.93827000000E+00 0.  1.
     999902    2    1    2    0    0 -0.11225258866E-01  0.14280998652E-02  0.18913783164E-01  0.10218896484E+01  0.10216519350E+01 0.  0.
     999903    2    3    3    0    0  0.99898516089E-02  0.54675917269E-01 -0.11555869992E+00  0.12983120877E+00  0.20324285472E-01 0.  0.
         14    1    1    2    0    0  0.11225258866E-01 -0.14280998652E-02 -0.18913783164E-01  0.22040351618E-01  0.00000000000E+00 0. -1.
     999901    1    3    3    0    0 -0.21215110475E-01 -0.53247817404E-01  0.13447248308E+00  0.89205843961E+00  0.88000000000E+00 0. -1.
        -11    1    4    4    0    0  0.10628287297E-01  0.41409695694E-01 -0.10310010355E+00  0.11161369029E+00  0.51100000000E-03 0. -1.
         11    1    4    4    0    0 -0.63843568849E-03  0.13266221576E-01 -0.12458596374E-01  0.18217518482E-01  0.51100000000E-03 0.  1.
</event>
<event>
 8    1  0.1126407E+005  0.1043930E+01  0.7957747E-01            NaN
         13   -1    0    0    0    0  0.00000000000E+00  0.00000000000E+00  0.74505805969E-08  0.10566000000E+00  0.10566000000E+00 0. -1.
     999900   -1    0    0    0    0 -0.00000000000E+00 -0.00000000000E+00 -0.74505805969E-08  0.93827000000E+00  0.93827000000E+00 0. -1.
     999902    2    1    2    0    0 -0.16189152953E-01 -0.26532391944E-02 -0.17164509128E-01  0.10201866067E+01  0.10199102724E+01 0.  0.
     999903    2    3    3    0    0 -0.83657623235E-01  0.56332334182E-02  0.97463332132E-01  0.13015278594E+00  0.20256241857E-01 0.  0.
         14    1    1    2    0    0  0.16189152953E-01  0.26532391944E-02  0.17164509128E-01  0.23743393295E-01  0.00000000000E+00 0. -1.
     999901    1    3    3    0    0  0.67468470282E-01 -0.82864726126E-02 -0.11462784126E+00  0.89003382076E+00  0.88000000000E+00 0. -1.
        -11    1    4    4    0    0 -0.41145763628E-01 -0.40669490098E-02  0.36213854461E-01  0.54965610291E-01  0.51100000000E-03 0.  1.
         11    1    4    4    0    0 -0.42511859607E-01  0.97001824280E-02  0.61249477671E-01  0.75187175650E-01  0.51100000000E-03 0. -1.
</event>
<event>
 8    1  0.1126407E+005  0.1043930E+01  0.7957747E-01            NaN
         13   -1    0    0    0    0  0.00000000000E+00  0.00000000000E+00  0.74505805969E-08  0.10566000000E+00  0.10566000000E+00 0. -1.
     999900   -1    0    0    0    0 -0.00000000000E+00 -0.00000000000E+00 -0.74505805969E-08  0.93827000000E+00  0.93827000000E+00 0.  1.
     999902    2    1    2    0    0 -0.98773551420E-02  0.97976201210E-02  0.15574933104E-01  0.10230461774E+01  0.10228330006E+01 0.  0.
     999903    2    3    3    0    0 -0.10140088635E+00  0.25583823161E-02 -0.83288734430E-01  0.13276364468E+00  0.20012171135E-01 0.  0.
         14    1    1    2    0    0  0.98773551420E-02 -0.97976201210E-02 -0.15574933104E-01  0.20883822587E-01  0.00000000000E+00 0.  1.
     999901    1    3    3    0    0  0.91523531208E-01  0.72392378049E-02  0.98863667534E-01  0.89028253273E+00  0.88000000000E+00 0. -1.
        -11    1    4    4    0    0 -0.82789659063E-01  0.97623146475E-02 -0.68957672925E-01  0.10818896529E+00  0.51100000000E-03 0.  1.
         11    1    4    4    0    0 -0.18611227287E-01 -0.72039323314E-02 -0.14331061505E-01  0.24574679388E-01  0.51100000000E-03 0. -1.
</event>
<event>
 8    1  0.1126407E+005  0.1043930E+01  0.7957747E-01            NaN
         13   -1    0    0    0    0  0.00000000000E+00  0.00000000000E+00  0.74505805969E-08  0.10566000000E+00  0.10566000000E+00 0. -1.
     999900   -1    0    0    0    0 -0.00000000000E+00 -0.00000000000E+00 -0.74505805969E-08  0.93827000000E+00  0.93827000000E+00 0.  1.
     999902    2    1    2    0    0 -0.56979183256E-03 -0.19233471427E-01  0.13003346796E-01  0.10207063458E+01  0.10204421131E+01 0.  0.
     999903    2    3    3    0    0 -0.83925727297E-01  0.95557789552E-01 -0.98430593344E-02  0.12905215060E+00  0.19564071924E-01 0.  0.
         14    1    1    2    0    0  0.56979183256E-03  0.19233471427E-01 -0.13003346796E-01  0.23223654186E-01  0.00000000000E+00 0.  1.
     999901    1    3    3    0    0  0.83355935464E-01 -0.11479126098E+00  0.22846406130E-01  0.89165419522E+00  0.88000000000E+00 0. -1.
        -11    1    4    4    0    0 -0.34368490230E-01  0.39508020228E-01  0.55705139246E-02  0.52662781254E-01  0.51100000000E-03 0.  1.
         11    1    4    4    0    0 -0.49557237067E-01  0.56049769324E-01 -0.15413573259E-01  0.76389369343E-01  0.51100000000E-03 0. -1.
</event>
<event>
 8    1  0.1126407E+005  0.1043930E+01  0.7957747E-01            NaN
         13   -1    0    0    0    0  0.00000000000E+00  0.00000000000E+00  0.74505805969E-08  0.10566000000E+00  0.10566000000E+00 0.  1.
     999900   -1    0    0    0    0 -0.00000000000E+00 -0.00000000000E+00 -0.74505805969E-08  0.93827000000E+00  0.93827000000E+00 0.  1.
     999902    2    1    2    0    0  0.16640502174E-01 -0.15356034562E-01  0.55593753423E-02  0.10206143236E+01  0.10203479685E+01 0.  0.
     999903    2    3    3    0    0 -0.11586996870E+00 -0.50657518227E-01  0.21563615187E-01  0.12984984560E+00  0.20098733856E-01 0.  0.
         14    1    1    2    0    0 -0.16640502174E-01  0.15356034562E-01 -0.55593753423E-02  0.23315676363E-01  0.00000000000E+00 0. -1.
     999901    1    3    3    0    0  0.13251047087E+00  0.35301483665E-01 -0.16004239845E-01  0.89076447804E+00  0.88000000000E+00 0. -1.
        -11    1    4    4    0    0 -0.71557807315E-01 -0.40462393026E-01  0.18572490921E-01  0.84278844185E-01  0.51100000000E-03 0.  1.
         11    1    4    4    0    0 -0.44312161386E-01 -0.10195125201E-01  0.29911242664E-02  0.45571001415E-01  0.51100000000E-03 0. -1.
</event>
<event>
 8    1  0.1126407E+005  0.1043930E+01  0.7957747E-01            NaN
         13   -1    0    0    0    0  0.00000000000E+00  0.00000000000E+00  0.74505805969E-08  0.10566000000E+00  0.10566000000E+00 0.  1.
     999900   -1    0    0    0    0 -0.00000000000E+00 -0.00000000000E+00 -0.74505805969E-08  0.93827000000E+00  0.93827000000E+00 0. -1.
     999902    2    1    2    0    0  0.58958087267E-02 -0.22725935944E-01  0.18690047926E-02  0.10203774650E+01  0.10201056069E+01 0.  0.
     999903    2    3    3    0    0  0.84220965071E-01 -0.32705549509E-02  0.98840862270E-01  0.13137978048E+00  0.19679003502E-01 0.  0.
         14    1    1    2    0    0 -0.58958087267E-02  0.22725935944E-01 -0.18690047926E-02  0.23552534980E-01  0.00000000000E+00 0.  1.
     999901    1    3    3    0    0 -0.78325156344E-01 -0.19455380993E-01 -0.96971857477E-01  0.88899768453E+00  0.88000000000E+00 0. -1.
        -11    1    4    4    0    0  0.45870403267E-01 -0.21657601474E-02  0.38774426288E-01  0.60104090275E-01  0.51100000000E-03 0. -1.
         11    1    4    4    0    0  0.38350561804E-01 -0.11047948036E-02  0.60066435982E-01  0.71275690210E-01  0.51100000000E-03 0.  1.
</event>
<event>
 8    1  0.1126407E+005  0.1043930E+01  0.7957747E-01            NaN
         13   -1    0    0    0    0  0.00000000000E+00  0.00000000000E+00  0.74505805969E-08  0.10566000000E+00  0.10566000000E+00 0. -1.
     999900   -1    0    0    0    0 -0.00000000000E+00 -0.00000000000E+00 -0.74505805969E-08  0.93827000000E+00  0.93827000000E+00 0.  1.
     999902    2    1    2    0    0 -0.20339685825E-01  0.76854303994E-03  0.11003113705E-01  0.10207921092E+01  0.10205298468E+01 0.  0.
     999903    2    3    3    0    0  0.35473213331E-01  0.10793771806E+00 -0.59326206745E-01  0.12975533945E+00  0.20197758965E-01 0.  0.
         14    1    1    2    0    0  0.20339685825E-01 -0.76854303994E-03 -0.11003113705E-01  0.23137890765E-01  0.00000000000E+00 0.  1.
     999901    1    3    3    0    0 -0.55812899156E-01 -0.10716917502E+00  0.70329320450E-01  0.89103676978E+00  0.88000000000E+00 0. -1.
        -11    1    4    4    0    0  0.88041352527E-02  0.58414594755E-01 -0.28093769394E-01  0.65416348703E-01  0.51100000000E-03 0.  1.
         11    1    4    4    0    0  0.26669078079E-01  0.49523123300E-01 -0.31232437351E-01  0.64338990751E-01  0.51100000000E-03 0. -1.
</event>
<event>
 8    1  0.1126407E+005  0.1043930E+01  0.7957747E-01            NaN
         13   -1    0    0    0    0  0.00000000000E+00  0.00000000000E+00  0.74505805969E-08  0.10566000000E+00  0.10566000000E+00 0. -1.
     999900   -1    0    0    0    0 -0.00000000000E+00 -0.00000000000E+00 -0.74505805969E-08  0.93827000000E+00  0.93827000000E+00 0. -1.
     999902    2    1    2    0    0 -0.23086656668E-01  0.54166004432E-02 -0.80980170169E-03  0.10202026096E+01  0.10199266521E+01 0.  0.
     999903    2    3    3    0    0  0.43347674942E-01  0.10989098649E+00  0.50457149809E-01  0.13005839765E+00  0.20352223393E-01 0.  0.
         14    1    1    2    0    0  0.23086656668E-01 -0.54166004432E-02  0.80980170169E-03  0.23727390401E-01  0.00000000000E+00 0. -1.
     999901    1    3    3    0    0 -0.66434331609E-01 -0.10447438605E+00 -0.51266951511E-01  0.89014421195E+00  0.88000000000E+00 0. -1.
        -11    1    4    4    0    0  0.13578774990E-01  0.22667707299E-01  0.19462040805E-01  0.32821338147E-01  0.51100000000E-03 0.  1.
         11    1    4    4    0    0  0.29768899951E-01  0.87223279190E-01  0.30995109004E-01  0.97237059499E-01  0.51100000000E-03 0. -1.
</event>
<event>
 8    1  0.1126407E+005  0.1043930E+01  0.7957747E-01            NaN
         13   -1    0    0    0    0  0.00000000000E+00  0.00000000000E+00  0.74505805969E-08  0.10566000000E+00  0.10566000000E+00 0. -1.
     999900   -1    0    0    0    0 -0.00000000000E+00 -0.00000000000E+00 -0.74505805969E-08  0.93827000000E+00  0.93827000000E+00 0. -1.
     999902    2    1    2    0    0 -0.18243300404E-01 -0.36330838564E-02 -0.14607497227E-01  0.10202784402E+01  0.10200042643E+01 0.  0.
     999903    2    3    3    0    0 -0.27624253623E-01 -0.62522062107E-01  0.10819779708E+00  0.12975216073E+00  0.21371763671E-01 0.  0.
         14    1    1    2    0    0  0.18243300404E-01  0.36330838564E-02  0.14607497227E-01  0.23651559847E-01  0.00000000000E+00 0.  1.
     999901    1    3    3    0    0  0.93809532194E-02  0.58888978251E-01 -0.12280529430E+00  0.89052627943E+00  0.88000000000E+00 0. -1.
        -11    1    4    4    0    0 -0.93350067715E-02 -0.46071516914E-01  0.71368133626E-01  0.85459924178E-01  0.51100000000E-03 0.  1.
         11    1    4    4    0    0 -0.18289246852E-01 -0.16450545193E-01  0.36829663450E-01  0.44292236547E-01  0.51100000000E-03 0. -1.
</event>
<event>
 8    1  0.1126407E+005  0.1043930E+01  0.7957747E-01            NaN
         13   -1    0    0    0    0  0.00000000000E+00  0.00000000000E+00  0.74505805969E-08  0.10566000000E+00  0.10566000000E+00 0.  1.
     999900   -1    0    0    0    0 -0.00000000000E+00 -0.00000000000E+00 -0.74505805969E-08  0.93827000000E+00  0.93827000000E+00 0.  1.
     999902    2    1    2    0    0  0.16513992823E-01 -0.10275891496E-01 -0.13395755544E-01  0.10203132227E+01  0.10200398621E+01 0.  0.
     999903    2    3    3    0    0 -0.88214464451E-02 -0.12948640572E+00  0.90521558522E-02  0.13163052344E+00  0.20002649624E-01 0.  0.
         14    1    1    2    0    0 -0.16513992823E-01  0.10275891496E-01  0.13395755544E-01  0.23616777333E-01  0.00000000000E+00 0.  1.
     999901    1    3    3    0    0  0.25335439269E-01  0.11921051422E+00 -0.22447911397E-01  0.88868269923E+00  0.88000000000E+00 0. -1.
        -11    1    4    4    0    0  0.51081722232E-02 -0.39823877590E-01  0.76761706505E-02  0.40880549980E-01  0.51100000000E-03 0. -1.
         11    1    4    4    0    0 -0.13929618668E-01 -0.89662528126E-01  0.13759852017E-02  0.90749973457E-01  0.51100000000E-03 0.  1.
</event>
<event>
 7    1  0.1126407E+005  0.1043930E+01  0.7957747E-01            NaN
         13   -1    0    0    0    0  0.00000000000E+00  0.00000000000E+00  0.74505805969E-08  0.10566000000E+00  0.10566000000E+00 0.  1.
     999900   -1    0    0    0    0 -0.00000000000E+00 -0.00000000000E+00 -0.74505805969E-08  0.93827000000E+00  0.93827000000E+00 0.  1.
     999903    2    1    2    0    0 -0.62707233904E-01  0.41633589629E-02  0.92217549365E-01  0.11331863960E+00  0.19685195661E-01 0.  0.
         14    1    1    2    0    0 -0.38924253461E-01  0.93389927008E-02 -0.59563631027E-02  0.40469649783E-01  0.00000000000E+00 0. -1.
     999901    1    1    2    0    0  0.10163148736E+00 -0.13502351664E-01 -0.86261186263E-01  0.89014171062E+00  0.88000000000E+00 0.  1.
        -11    1    3    3    0    0 -0.38920087857E-01  0.57483667930E-02  0.72029352885E-01  0.82075000807E-01  0.51100000000E-03 0.  1.
         11    1    3    3    0    0 -0.23787146047E-01 -0.15850078301E-02  0.20188196481E-01  0.31243638793E-01  0.51100000000E-03 0. -1.
</event>
<event>
 8    1  0.1126407E+005  0.1043930E+01  0.7957747E-01            NaN
         13   -1    0    0    0    0  0.00000000000E+00  0.00000000000E+00  0.74505805969E-08  0.10566000000E+00  0.10566000000E+00 0.  1.
     999900   -1    0    0    0    0 -0.00000000000E+00 -0.00000000000E+00 -0.74505805969E-08  0.93827000000E+00  0.93827000000E+00 0. -1.
     999902    2    1    2    0    0 -0.61618024224E-02 -0.11682160570E-01 -0.20586938773E-01  0.10194705901E+01  0.10191771295E+01 0.  0.
     999903    2    3    3    0    0  0.47902248324E-01  0.10137022586E+00  0.56589869892E-01  0.12724863147E+00  0.20475662450E-01 0.  0.
         14    1    1    2    0    0  0.61618024224E-02  0.11682160570E-01  0.20586938773E-01  0.24459409901E-01  0.00000000000E+00 0.  1.
     999901    1    3    3    0    0 -0.54064050746E-01 -0.11305238643E+00 -0.77176808664E-01  0.89222195863E+00  0.88000000000E+00 0. -1.
        -11    1    4    4    0    0  0.27241794456E-01  0.77042156688E-01  0.44994684542E-01  0.93286612278E-01  0.51100000000E-03 0. -1.
         11    1    4    4    0    0  0.20660453868E-01  0.24328069168E-01  0.11595185350E-01  0.33962019195E-01  0.51100000000E-03 0.  1.
</event>
<event>
 8    1  0.1126407E+005  0.1043930E+01  0.7957747E-01            NaN
         13   -1    0    0    0    0  0.00000000000E+00  0.00000000000E+00  0.74505805969E-08  0.10566000000E+00  0.10566000000E+00 0.  1.
     999900   -1    0    0    0    0 -0.00000000000E+00 -0.00000000000E+00 -0.74505805969E-08  0.93827000000E+00  0.93827000000E+00 0.  1.
     999902    2    1    2    0    0 -0.11727436251E-01 -0.19340744041E-01 -0.35020070038E-02  0.10210419858E+01  0.10207854209E+01 0.  0.
     999903    2    3    3    0    0 -0.58606354715E-01  0.10609116842E+00  0.42128278509E-01  0.12974353936E+00  0.19197742758E-01 0.  0.
         14    1    1    2    0    0  0.11727436251E-01  0.19340744041E-01  0.35020070038E-02  0.22888014202E-01  0.00000000000E+00 0.  1.
     999901    1    3    3    0    0  0.46878918464E-01 -0.12543191246E+00 -0.45630285513E-01  0.89129844643E+00  0.88000000000E+00 0. -1.
        -11    1    4    4    0    0 -0.41810325592E-01  0.56586873348E-01  0.26417724066E-01  0.75155404511E-01  0.51100000000E-03 0.  1.
         11    1    4    4    0    0 -0.16796029123E-01  0.49504295071E-01  0.15710554443E-01  0.54588134853E-01  0.51100000000E-03 0. -1.
</event>
<event>
 8    1  0.1511891E+005  0.1043930E+01  0.7957747E-01            NaN
         13   -1    0    0    0    0  0.00000000000E+00  0.00000000000E+00  0.74505805969E-08  0.10566000000E+00  0.10566000000E+00 0.  1.
     999900   -1    0    0    0    0 -0.00000000000E+00 -0.00000000000E+00 -0.74505805969E-08  0.93827000000E+00  0.93827000000E+00 0. -1.
     999902    2    1    2    0    0  0.14979754963E-01  0.32762817921E-01  0.51319007554E-02  0.10075413795E+01  0.10068840547E+01 0.  0.
     999903    2    3    3    0    0  0.58865566334E-01  0.10230728681E+00  0.28750403227E-01  0.12339194006E+00  0.21611324612E-01 0.  0.
         14    1    1    2    0    0 -0.14979754963E-01 -0.32762817921E-01 -0.51319007554E-02  0.36388620505E-01  0.00000000000E+00 0.  1.
     999901    1    3    3    0    0 -0.43885811372E-01 -0.69544468892E-01 -0.23618502471E-01  0.88414943943E+00  0.88000000000E+00 0. -1.
        -11    1    4    4    0    0  0.30703939250E-01  0.43492205268E-01  0.22774215726E-01  0.57907079252E-01  0.51100000000E-03 0.  1.
         11    1    4    4    0    0  0.28161627084E-01  0.58815081545E-01  0.59761875005E-02  0.65484860809E-01  0.51100000000E-03 0. -1.
</event>
<event>
 8    1  0.1126407E+005  0.1043930E+01  0.7957747E-01            NaN
         13   -1    0    0    0    0  0.00000000000E+00  0.00000000000E+00  0.74505805969E-08  0.10566000000E+00  0.10566000000E+00 0.  1.
     999900   -1    0    0    0    0 -0.00000000000E+00 -0.00000000000E+00 -0.74505805969E-08  0.93827000000E+00  0.93827000000E+00 0. -1.
     999902    2    1    2    0    0  0.10778865380E-01 -0.16664129851E-01  0.13789197952E-01  0.10197635120E+01  0.10194771215E+01 0.  0.
     999903    2    3    3    0    0  0.25183121427E-01  0.10328778867E+00 -0.68066491555E-01  0.12774540721E+00  0.19577663233E-01 0.  0.
         14    1    1    2    0    0 -0.10778865380E-01  0.16664129851E-01 -0.13789197952E-01  0.24166488010E-01  0.00000000000E+00 0. -1.
     999901    1    3    3    0    0 -0.14404256047E-01 -0.11995191852E+00  0.81855689507E-01  0.89201810478E+00  0.88000000000E+00 0.  1.
        -11    1    4    4    0    0  0.12691824306E-01  0.34182100490E-01 -0.13781919762E-01  0.38983340434E-01  0.51100000000E-03 0. -1.
         11    1    4    4    0    0  0.12491297121E-01  0.69105688180E-01 -0.54284571793E-01  0.88762066777E-01  0.51100000000E-03 0.  1.
</event>
<event>
 8    1  0.1126407E+005  0.1043930E+01  0.7957747E-01            NaN
         13   -1    0    0    0    0  0.00000000000E+00  0.00000000000E+00  0.74505805969E-08  0.10566000000E+00  0.10566000000E+00 0.  1.
     999900   -1    0    0    0    0 -0.00000000000E+00 -0.00000000000E+00 -0.74505805969E-08  0.93827000000E+00  0.93827000000E+00 0. -1.
     999902    2    1    2    0    0 -0.88573163323E-02  0.63632889051E-02  0.22159275474E-01  0.10192322878E+01  0.10189330103E+01 0.  0.
     999903    2    3    3    0    0 -0.64081388609E-01  0.10731663573E+00 -0.30197937309E-01  0.13019766861E+00  0.20401784801E-01 0.  0.
         14    1    1    2    0    0  0.88573163323E-02 -0.63632889051E-02 -0.22159275474E-01  0.24697712198E-01  0.00000000000E+00 0. -1.
     999901    1    3    3    0    0  0.55224072276E-01 -0.10095334682E+00  0.52357212783E-01  0.88903461919E+00  0.88000000000E+00 0.  1.
        -11    1    4    4    0    0 -0.15141667835E-01  0.35647794977E-01 -0.14012313750E-02  0.38758998464E-01  0.51100000000E-03 0. -1.
         11    1    4    4    0    0 -0.48939720773E-01  0.71668840753E-01 -0.28796705934E-01  0.91438670145E-01  0.51100000000E-03 0.  1.
</event>
<event>
 8    1  0.1126407E+005  0.1043930E+01  0.7957747E-01            NaN
         13   -1    0    0    0    0  0.00000000000E+00  0.00000000000E+00  0.74505805969E-08  0.10566000000E+00  0.10566000000E+00 0.  1.
     999900   -1    0    0    0    0 -0.00000000000E+00 -0.00000000000E+00 -0.74505805969E-08  0.93827000000E+00  0.93827000000E+00 0.  1.
     999902    2    1    2    0    0 -0.21843488580E-01  0.67780242994E-02 -0.57934484669E-02  0.10203367032E+01  0.10200638923E+01 0.  0.
     999903    2    3    3    0    0  0.18523680788E-01  0.93275362038E-01  0.86764194904E-01  0.13034894201E+00  0.20479288377E-01 0.  0.
         14    1    1    2    0    0  0.21843488580E-01 -0.67780242994E-02  0.57934484669E-02  0.23593296757E-01  0.00000000000E+00 0.  1.
     999901    1    3    3    0    0 -0.40367169368E-01 -0.86497337739E-01 -0.92557643371E-01  0.88998776123E+00  0.88000000000E+00 0.  1.
        -11    1    4    4    0    0  0.11268564209E-01  0.15560977426E-01  0.16695547346E-01  0.25458338123E-01  0.51100000000E-03 0.  1.
         11    1    4    4    0    0  0.72551165795E-02  0.77714384612E-01  0.70068647558E-01  0.10489060389E+00  0.51100000000E-03 0. -1.
</event>
<event>
 8    1  0.1280573E+005  0.1043930E+01  0.7957747E-01            NaN
         13   -1    0    0    0    0  0.00000000000E+00  0.00000000000E+00  0.74505805969E-08  0.10566000000E+00  0.10566000000E+00 0. -1.
     999900   -1    0    0    0    0 -0.00000000000E+00 -0.00000000000E+00 -0.74505805969E-08  0.93827000000E+00  0.93827000000E+00 0. -1.
     999902    2    1    2    0    0  0.18493923702E-03 -0.29048331069E-02 -0.22679255801E-01  0.10210647228E+01  0.10208086732E+01 0.  0.
     999903    2    3    3    0    0  0.11895916290E+00  0.31691400730E-01  0.37909371002E-01  0.13034860792E+00  0.19950234548E-01 0.  0.
         14    1    1    2    0    0 -0.18493923702E-03  0.29048331069E-02  0.22679255801E-01  0.22865277203E-01  0.00000000000E+00 0. -1.
     999901    1    3    3    0    0 -0.11877422366E+00 -0.34596233837E-01 -0.60588626803E-01  0.89071611488E+00  0.88000000000E+00 0. -1.
        -11    1    4    4    0    0  0.61841530311E-01  0.14652197916E-01  0.29790063981E-01  0.70190959589E-01  0.51100000000E-03 0. -1.
         11    1    4    4    0    0  0.57117632590E-01  0.17039202814E-01  0.81193070209E-02  0.60157648331E-01  0.51100000000E-03 0.  1.
</event>
<event>
 8    1  0.1126407E+005  0.1043930E+01  0.7957747E-01            NaN
         13   -1    0    0    0    0  0.00000000000E+00  0.00000000000E+00  0.74505805969E-08  0.10566000000E+00  0.10566000000E+00 0. -1.
     999900   -1    0    0    0    0 -0.00000000000E+00 -0.00000000000E+00 -0.74505805969E-08  0.93827000000E+00  0.93827000000E+00 0.  1.
     999902    2    1    2    0    0 -0.19367887505E-01 -0.45137392501E-02 -0.11975198697E-01  0.10207159032E+01  0.10204518904E+01 0.  0.
     999903    2    3    3    0    0 -0.12866862224E+00  0.27546323803E-01  0.46832447963E-02  0.13321829640E+00  0.20267397713E-01 0.  0.
         14    1    1    2    0    0  0.19367887505E-01  0.45137392501E-02  0.11975198697E-01  0.23214096844E-01  0.00000000000E+00 0.  1.
     999901    1    3    3    0    0  0.10930073473E+00 -0.32060063053E-01 -0.16658443494E-01  0.88749760676E+00  0.88000000000E+00 0.  1.
        -11    1    4    4    0    0 -0.10078956926E+00  0.14150364417E-01  0.80701026868E-02  0.10209876475E+00  0.51100000000E-03 0. -1.
         11    1    4    4    0    0 -0.27879052979E-01  0.13395959386E-01 -0.33868578905E-02  0.31119531652E-01  0.51100000000E-03 0.  1.
</event>
<event>
 8    1  0.1126407E+005  0.1043930E+01  0.7957747E-01            NaN
         13   -1    0    0    0    0  0.00000000000E+00  0.00000000000E+00  0.74505805969E-08  0.10566000000E+00  0.10566000000E+00 0.  1.
     999900   -1    0    0    0    0 -0.00000000000E+00 -0.00000000000E+00 -0.74505805969E-08  0.93827000000E+00  0.93827000000E+00 0.  1.
     999902    2    1    2    0    0 -0.10870661113E-01  0.16467042558E-01  0.12710961758E-01  0.10204586704E+01  0.10201887054E+01 0.  0.
     999903    2    3    3    0    0 -0.17793834364E-01  0.12762456123E+00 -0.23615684800E-01  0.13269544211E+00  0.21112333260E-01 0.  0.
         14    1    1    2    0    0  0.10870661113E-01 -0.16467042558E-01 -0.12710961758E-01  0.23471329585E-01  0.00000000000E+00 0. -1.
     999901    1    3    3    0    0  0.69231732508E-02 -0.11115751868E+00  0.36326646558E-01  0.88776322831E+00  0.88000000000E+00 0.  1.
        -11    1    4    4    0    0 -0.11057538900E-01  0.95571134675E-01 -0.26551372513E-01  0.99806550151E-01  0.51100000000E-03 0.  1.
         11    1    4    4    0    0 -0.67362954636E-02  0.32053426559E-01  0.29356877129E-02  0.32888891956E-01  0.51100000000E-03 0. -1.
</event>
<event>
 8    1  0.1126407E+005  0.1043930E+01  0.7957747E-01            NaN
         13   -1    0    0    0    0  0.00000000000E+00  0.00000000000E+00  0.74505805969E-08  0.10566000000E+00  0.10566000000E+00 0. -1.
     999900   -1    0    0    0    0 -0.00000000000E+00 -0.00000000000E+00 -0.74505805969E-08  0.93827000000E+00  0.93827000000E+00 0. -1.
     999902    2    1    2    0    0  0.74312623207E-02  0.75732370463E-02 -0.20861311881E-01  0.10205254724E+01  0.10202570597E+01 0.  0.
     999903    2    3    3    0    0 -0.12278227745E+00 -0.12651247211E-01  0.32709661705E-01  0.12910276407E+00  0.19027874561E-01 0.  0.
         14    1    1    2    0    0 -0.74312623207E-02 -0.75732370463E-02  0.20861311881E-01  0.23404527605E-01  0.00000000000E+00 0. -1.
     999901    1    3    3    0    0  0.13021353977E+00  0.20224484258E-01 -0.53570973586E-01  0.89142270832E+00  0.88000000000E+00 0. -1.
        -11    1    4    4    0    0 -0.29124446419E-01 -0.11216477427E-01  0.76147233383E-02  0.32129237115E-01  0.51100000000E-03 0. -1.
         11    1    4    4    0    0 -0.93657831031E-01 -0.14347697840E-02  0.25094938367E-01  0.96973526956E-01  0.51100000000E-03 0.  1.
</event>
<event>
 8    1  0.1126407E+005  0.1043930E+01  0.7957747E-01            NaN
         13   -1    0    0    0    0  0.00000000000E+00  0.00000000000E+00  0.74505805969E-08  0.10566000000E+00  0.10566000000E+00 0. -1.
     999900   -1    0    0    0    0 -0.00000000000E+00 -0.00000000000E+00 -0.74505805969E-08  0.93827000000E+00  0.93827000000E+00 0. -1.
     999902    2    1    2    0    0 -0.11248763703E-01  0.16085322119E-01 -0.14424793218E-01  0.10195712863E+01  0.10192802662E+01 0.  0.
     999903    2    3    3    0    0 -0.53148618849E-01 -0.37782874843E-01  0.10926928197E+00  0.12830387149E+00  0.16425167945E-01 0.  0.
         14    1    1    2    0    0  0.11248763703E-01 -0.16085322119E-01  0.14424793218E-01  0.24358713675E-01  0.00000000000E+00 0. -1.
     999901    1    3    3    0    0  0.41899855146E-01  0.53868196962E-01 -0.12369407518E+00  0.89126741483E+00  0.88000000000E+00 0.  1.
        -11    1    4    4    0    0 -0.37059675676E-02  0.15530720223E-02  0.71905668391E-02  0.82529752687E-02  0.51100000000E-03 0. -1.
         11    1    4    4    0    0 -0.49442651281E-01 -0.39335946865E-01  0.10207871513E+00  0.12005089622E+00  0.51100000000E-03 0.  1.
</event>
<event>
 8    1  0.1126407E+005  0.1043930E+01  0.7957747E-01            NaN
         13   -1    0    0    0    0  0.00000000000E+00  0.00000000000E+00  0.74505805969E-08  0.10566000000E+00  0.10566000000E+00 0. -1.
     999900   -1    0    0    0    0 -0.00000000000E+00 -0.00000000000E+00 -0.74505805969E-08  0.93827000000E+00  0.93827000000E+00 0.  1.
     999902    2    1    2    0    0 -0.11354936237E-01 -0.85968038386E-02 -0.16568063233E-01  0.10220818803E+01  0.10218483399E+01 0.  0.
     999903    2    3    3    0    0 -0.50607065312E-01 -0.67793299007E-01 -0.10281879204E+00  0.13501697691E+00  0.22380205715E-01 0.  0.
         14    1    1    2    0    0  0.11354936237E-01  0.85968038386E-02  0.16568063233E-01  0.21848119656E-01  0.00000000000E+00 0. -1.
     999901    1    3    3    0    0  0.39252129075E-01  0.59196495168E-01  0.86250728811E-01  0.88706490343E+00  0.88000000000E+00 0. -1.
        -11    1    4    4    0    0 -0.93034552031E-02 -0.30206803317E-01 -0.34982546277E-01  0.47149177198E-01  0.51100000000E-03 0.  1.
         11    1    4    4    0    0 -0.41303610109E-01 -0.37586495690E-01 -0.67836245767E-01  0.87867799716E-01  0.51100000000E-03 0. -1.
</event>
<event>
 8    1  0.1126407E+005  0.1043930E+01  0.7957747E-01            NaN
         13   -1    0    0    0    0  0.00000000000E+00  0.00000000000E+00  0.74505805969E-08  0.10566000000E+00  0.10566000000E+00 0. -1.
     999900   -1    0    0    0    0 -0.00000000000E+00 -0.00000000000E+00 -0.74505805969E-08  0.93827000000E+00  0.93827000000E+00 0. -1.
     999902    2    1    2    0    0  0.86322392763E-02  0.10167611146E-01  0.19154275318E-01  0.10205894316E+01  0.10203225008E+01 0.  0.
     999903    2    3    3    0    0 -0.11176807180E+00  0.17770604470E-01  0.63226259479E-01  0.13126587954E+00  0.20622196450E-01 0.  0.
         14    1    1    2    0    0 -0.86322392763E-02 -0.10167611146E-01 -0.19154275318E-01  0.23340568423E-01  0.00000000000E+00 0.  1.
     999901    1    3    3    0    0  0.12040031108E+00 -0.76029933243E-02 -0.44071984161E-01  0.88932355203E+00  0.88000000000E+00 0. -1.
        -11    1    4    4    0    0 -0.40314228377E-01  0.15656109085E-01  0.19296814497E-01  0.47360098523E-01  0.51100000000E-03 0.  1.
         11    1    4    4    0    0 -0.71453843426E-01  0.21144953853E-02  0.43929444982E-01  0.83905781020E-01  0.51100000000E-03 0. -1.
</event>
<event>
 8    1  0.1126407E+005  0.1043930E+01  0.7957747E-01            NaN
         13   -1    0    0    0    0  0.00000000000E+00  0.00000000000E+00  0.74505805969E-08  0.10566000000E+00  0.10566000000E+00 0. -1.
     999900   -1    0    0    0    0 -0.00000000000E+00 -0.00000000000E+00 -0.74505805969E-08  0.93827000000E+00  0.93827000000E+00 0.  1.
     999902    2    1    2    0    0  0.19351915867E-01  0.32599444448E-02  0.16173204555E-01  0.10184997733E+01  0.10181822488E+01 0.  0.
     999903    2    3    3    0    0 -0.95654690889E-01  0.52767414556E-01 -0.60437712956E-01  0.12634129976E+00  0.19369743137E-01 0.  0.
         14    1    1    2    0    0 -0.19351915867E-01 -0.32599444448E-02 -0.16173204555E-01  0.25430226721E-01  0.00000000000E+00 0. -1.
     999901    1    3    3    0    0  0.11500660676E+00 -0.49507470111E-01  0.76610917511E-01  0.89215847352E+00  0.88000000000E+00 0. -1.
        -11    1    4    4    0    0 -0.42268723664E-01  0.30609147569E-01 -0.20449861654E-01  0.56053749899E-01  0.51100000000E-03 0. -1.
         11    1    4    4    0    0 -0.53385967225E-01  0.22158266986E-01 -0.39987851302E-01  0.70287549859E-01  0.51100000000E-03 0.  1.
</event>
<event>
 8    1  0.1126407E+005  0.1043930E+01  0.7957747E-01            NaN
         13   -1    0    0    0    0  0.00000000000E+00  0.00000000000E+00  0.74505805969E-08  0.10566000000E+00  0.10566000000E+00 0.  1.
     999900   -1    0    0    0    0 -0.00000000000E+00 -0.00000000000E+00 -0.74505805969E-08  0.93827000000E+00  0.93827000000E+00 0.  1.
     999902    2    1    2    0    0  0.22401342661E-01  0.41385236792E-02  0.18068366211E-01  0.10148540067E+01  0.10144374014E+01 0.  0.
     999903    2    3    3    0    0 -0.10376307451E+00  0.52768413574E-01  0.38484233402E-01  0.12429287233E+00  0.20405900820E-01 0.  0.
         14    1    1    2    0    0 -0.22401342661E-01 -0.41385236792E-02 -0.18068366211E-01  0.29075993341E-01  0.00000000000E+00 0. -1.
     999901    1    3    3    0    0  0.12616441717E+00 -0.48629889895E-01 -0.20415867191E-01  0.89056113433E+00  0.88000000000E+00 0.  1.
        -11    1    4    4    0    0 -0.50716056555E-01  0.14878786414E-01  0.14251241490E-01  0.54743544667E-01  0.51100000000E-03 0.  1.
         11    1    4    4    0    0 -0.53047017952E-01  0.37889627160E-01  0.24232991912E-01  0.69549327660E-01  0.51100000000E-03 0. -1.
</event>
<event>
 8    1  0.1126407E+005  0.1043930E+01  0.7957747E-01            NaN
         13   -1    0    0    0    0  0.00000000000E+00  0.00000000000E+00  0.74505805969E-08  0.10566000000E+00  0.10566000000E+00 0. -1.
     999900   -1    0    0    0    0 -0.00000000000E+00 -0.00000000000E+00 -0.74505805969E-08  0.93827000000E+00  0.93827000000E+00 0.  1.
     999902    2    1    2    0    0  0.13118989064E-01  0.23559282725E-01  0.36930146353E-02  0.10167126152E+01  0.10163482454E+01 0.  0.
     999903    2    3    3    0    0 -0.95232202200E-01 -0.91996641235E-02  0.80511130098E-01  0.12614304910E+00  0.16619886040E-01 0.  0.
         14    1    1    2    0    0 -0.13118989064E-01 -0.23559282725E-01 -0.36930146353E-02  0.27217384769E-01  0.00000000000E+00 0. -1.
     999901    1    3    3    0    0  0.10835119126E+00  0.32758946849E-01 -0.76818115462E-01  0.89056956613E+00  0.88000000000E+00 0.  1.
        -11    1    4    4    0    0 -0.49742752135E-01 -0.67420899903E-03  0.51025259363E-01  0.71264536495E-01  0.51100000000E-03 0. -1.
         11    1    4    4    0    0 -0.45489450065E-01 -0.85254551244E-02  0.29485870734E-01  0.54878512610E-01  0.51100000000E-03 0.  1.
</event>
<event>
 8    1  0.1126407E+005  0.1043930E+01  0.7957747E-01            NaN
         13   -1    0    0    0    0  0.00000000000E+00  0.00000000000E+00  0.74505805969E-08  0.10566000000E+00  0.10566000000E+00 0.  1.
     999900   -1    0    0    0    0 -0.00000000000E+00 -0.00000000000E+00 -0.74505805969E-08  0.93827000000E+00  0.93827000000E+00 0.  1.
     999902    2    1    2    0    0 -0.52653160080E-02  0.20633702509E-01 -0.99293998597E-02  0.10204339107E+01  0.10201633692E+01 0.  0.
     999903    2    3    3    0    0 -0.10721649792E+00 -0.12017749490E-01  0.70266873457E-01  0.13032627501E+00  0.20191600367E-01 0.  0.
         14    1    1    2    0    0  0.52653160080E-02 -0.20633702509E-01  0.99293998597E-02  0.23496089323E-01  0.00000000000E+00 0.  1.
     999901    1    3    3    0    0  0.10195118191E+00  0.32651451999E-01 -0.80196273317E-01  0.89010763566E+00  0.88000000000E+00 0.  1.
        -11    1    4    4    0    0 -0.21959431844E-01  0.22429915809E-02  0.22670774903E-01  0.31646055265E-01  0.51100000000E-03 0. -1.
         11    1    4    4    0    0 -0.85257066073E-01 -0.14260741071E-01  0.47596098554E-01  0.98680219750E-01  0.51100000000E-03 0.  1.
</event>
<event>
 8    1  0.1126407E+005  0.1043930E+01  0.7957747E-01            NaN
         13   -1    0    0    0    0  0.00000000000E+00  0.00000000000E+00  0.74505805969E-08  0.10566000000E+00  0.10566000000E+00 0. -1.
     999900   -1    0    0    0    0 -0.00000000000E+00 -0.00000000000E+00 -0.74505805969E-08  0.93827000000E+00  0.93827000000E+00 0. -1.
     999902    2    1    2    0    0  0.22006383335E-01  0.35126985196E-02  0.78556126466E-02  0.10203009795E+01  0.10200273321E+01 0.  0.
     999903    2    3    3    0    0 -0.60557154422E-01  0.10560233986E+00  0.40363316109E-01  0.12996633266E+00  0.21048211355E-01 0.  0.
         14    1    1    2    0    0 -0.22006383335E-01 -0.35126985196E-02 -0.78556126466E-02  0.23629020471E-01  0.00000000000E+00 0.  1.
     999901    1    3    3    0    0  0.82563537757E-01 -0.10208964134E+00 -0.32507703463E-01  0.89033464687E+00  0.88000000000E+00 0.  1.
        -11    1    4    4    0    0 -0.53653342597E-02  0.21641527308E-01  0.13059046311E-01  0.25844580235E-01  0.51100000000E-03 0.  1.
         11    1    4    4    0    0 -0.55191820162E-01  0.83960812552E-01  0.27304269798E-01  0.10412175242E+00  0.51100000000E-03 0. -1.
</event>
<event>
 8    1  0.1126407E+005  0.1043930E+01  0.7957747E-01            NaN
         13   -1    0    0    0    0  0.00000000000E+00  0.00000000000E+00  0.74505805969E-08  0.10566000000E+00  0.10566000000E+00 0. -1.
     999900   -1    0    0    0    0 -0.00000000000E+00 -0.00000000000E+00 -0.74505805969E-08  0.93827000000E+00  0.93827000000E+00 0. -1.
     999902    2    1    2    0    0  0.58552064094E-02 -0.96928270329E-02 -0.24417320790E-01  0.10170145789E+01  0.10166583565E+01 0.  0.
     999903    2    3    3    0    0 -0.73330711190E-01 -0.59821796819E-01 -0.86570305764E-01  0.12985826985E+00  0.20315310250E-01 0.  0.
         14    1    1    2    0    0 -0.58552064094E-02  0.96928270329E-02  0.24417320790E-01  0.26915421091E-01  0.00000000000E+00 0. -1.
     999901    1    3    3    0    0  0.79185917599E-01  0.50128969786E-01  0.62152984975E-01  0.88715630906E+00  0.88000000000E+00 0. -1.
        -11    1    4    4    0    0 -0.57760639698E-01 -0.53696392467E-01 -0.78500265038E-01  0.11127509512E+00  0.51100000000E-03 0.  1.
         11    1    4    4    0    0 -0.15570071492E-01 -0.61254043513E-02 -0.80700407267E-02  0.18583174730E-01  0.51100000000E-03 0. -1.
</event>
<event>
 8    1  0.1126407E+005  0.1043930E+01  0.7957747E-01            NaN
         13   -1    0    0    0    0  0.00000000000E+00  0.00000000000E+00  0.74505805969E-08  0.10566000000E+00  0.10566000000E+00 0.  1.
     999900   -1    0    0    0    0 -0.00000000000E+00 -0.00000000000E+00 -0.74505805969E-08  0.93827000000E+00  0.93827000000E+00 0. -1.
     999902    2    1    2    0    0  0.56860529735E-02  0.16401476777E-01  0.15775260786E-01  0.10204736897E+01  0.10202040742E+01 0.  0.
     999903    2    3    3    0    0 -0.73703958565E-01 -0.39192609619E-01 -0.95431602756E-01  0.12819545796E+00  0.18935429254E-01 0.  0.
         14    1    1    2    0    0 -0.56860529735E-02 -0.16401476777E-01 -0.15775260786E-01  0.23456310276E-01  0.00000000000E+00 0.  1.
     999901    1    3    3    0    0  0.79390011538E-01  0.55594086397E-01  0.11120686354E+00  0.89227823176E+00  0.88000000000E+00 0.  1.
        -11    1    4    4    0    0 -0.30512264631E-02 -0.74473500524E-02 -0.75029411492E-02  0.11014910468E-01  0.51100000000E-03 0.  1.
         11    1    4    4    0    0 -0.70652732101E-01 -0.31745259567E-01 -0.87928661607E-01  0.11718054750E+00  0.51100000000E-03 0. -1.
</event>
<event>
 8    1  0.1126407E+005  0.1043930E+01  0.7957747E-01            NaN
         13   -1    0    0    0    0  0.00000000000E+00  0.00000000000E+00  0.74505805969E-08  0.10566000000E+00  0.10566000000E+00 0. -1.
     999900   -1    0    0    0    0 -0.00000000000E+00 -0.00000000000E+00 -0.74505805969E-08  0.93827000000E+00  0.93827000000E+00 0.  1.
     999902    2    1    2    0    0  0.20467689838E-01 -0.10947056814E-01 -0.40818200508E-02  0.10203625301E+01  0.10200903231E+01 0.  0.
     999903    2    3    3    0    0 -0.42137071099E-02 -0.10253062462E+00 -0.80722233948E-01  0.13195357348E+00  0.19114972902E-01 0.  0.
         14    1    1    2    0    0 -0.20467689838E-01  0.10947056814E-01  0.40818200508E-02  0.23567469850E-01  0.00000000000E+00 0.  1.
     999901    1    3    3    0    0  0.24681396948E-01  0.91583567802E-01  0.76640413897E-01  0.88840895667E+00  0.88000000000E+00 0. -1.
        -11    1    4    4    0    0 -0.10638152539E-01 -0.82729068918E-01 -0.67324842452E-01  0.10719218566E+00  0.51100000000E-03 0. -1.
         11    1    4    4    0    0  0.64244454288E-02 -0.19801555698E-01 -0.13397391496E-01  0.24761387825E-01  0.51100000000E-03 0.  1.
</event>
<event>
 8    1  0.1126407E+005  0.1043930E+01  0.7957747E-01            NaN
         13   -1    0    0    0    0  0.00000000000E+00  0.00000000000E+00  0.74505805969E-08  0.10566000000E+00  0.10566000000E+00 0.  1.
     999900   -1    0    0    0    0 -0.00000000000E+00 -0.00000000000E+00 -0.74505805969E-08  0.93827000000E+00  0.93827000000E+00 0. -1.
     999902    2    1    2    0    0  0.89764769133E-02  0.74630936050E-02  0.20847828105E-01  0.10200363431E+01  0.10197564584E+01 0.  0.
     999903    2    3    3    0    0  0.87007194515E-01  0.96228292494E-01 -0.85222428400E-02  0.13164979744E+00  0.20710006495E-01 0.  0.
         14    1    1    2    0    0 -0.89764769133E-02 -0.74630936050E-02 -0.20847828105E-01  0.23893656912E-01  0.00000000000E+00 0. -1.
     999901    1    3    3    0    0 -0.78030717601E-01 -0.88765198889E-01  0.29370070945E-01  0.88838654565E+00  0.88000000000E+00 0. -1.
        -11    1    4    4    0    0  0.44286544671E-01  0.64122463753E-01 -0.49659545791E-02  0.78089117184E-01  0.51100000000E-03 0.  1.
         11    1    4    4    0    0  0.42720649843E-01  0.32105828741E-01 -0.35562882609E-02  0.53560680255E-01  0.51100000000E-03 0. -1.
</event>
<event>
 8    1  0.1126407E+005  0.1043930E+01  0.7957747E-01            NaN
         13   -1    0    0    0    0  0.00000000000E+00  0.00000000000E+00  0.74505805969E-08  0.10566000000E+00  0.10566000000E+00 0. -1.
     999900   -1    0    0    0    0 -0.00000000000E+00 -0.00000000000E+00 -0.74505805969E-08  0.93827000000E+00  0.93827000000E+00 0. -1.
     999902    2    1    2    0    0 -0.67006149442E-02 -0.15625329994E-01 -0.15624302030E-01  0.10208395693E+01  0.10205783939E+01 0.  0.
     999903    2    3    3    0    0  0.86938519227E-01 -0.22629741104E-01 -0.94880769385E-01  0.13230204228E+00  0.20761952821E-01 0.  0.
         14    1    1    2    0    0  0.67006149442E-02  0.15625329994E-01  0.15624302030E-01  0.23090430745E-01  0.00000000000E+00 0. -1.
     999901    1    3    3    0    0 -0.93639134171E-01  0.70044111101E-02  0.79256467355E-01  0.88853752697E+00  0.88000000000E+00 0. -1.
        -11    1    4    4    0    0  0.45535821037E-01 -0.21399635601E-01 -0.45401474064E-01  0.67771752004E-01  0.51100000000E-03 0.  1.
         11    1    4    4    0    0  0.41402698189E-01 -0.12301055026E-02 -0.49479295321E-01  0.64530290278E-01  0.51100000000E-03 0. -1.
</event>
<event>
 8    1  0.1126407E+005  0.1043930E+01  0.7957747E-01            NaN
         13   -1    0    0    0    0  0.00000000000E+00  0.00000000000E+00  0.74505805969E-08  0.10566000000E+00  0.10566000000E+00 0.  1.
     999900   -1    0    0    0    0 -0.00000000000E+00 -0.00000000000E+00 -0.74505805969E-08  0.93827000000E+00  0.93827000000E+00 0. -1.
     999902    2    1    2    0    0  0.14425472822E-01  0.18002137528E-01 -0.92329132428E-02  0.10190821045E+01  0.10187791311E+01 0.  0.
     999903    2    3    3    0    0 -0.23456361818E-01 -0.12062292539E+00  0.24111664159E-01  0.12680199028E+00  0.19931917913E-01 0.  0.
         14    1    1    2    0    0 -0.14425472822E-01 -0.18002137528E-01  0.92329132428E-02  0.24847895458E-01  0.00000000000E+00 0.  1.
     999901    1    3    3    0    0  0.37881834640E-01  0.13862506292E+00 -0.33344577401E-01  0.89228011426E+00  0.88000000000E+00 0.  1.
        -11    1    4    4    0    0 -0.22116586996E-01 -0.10712264850E+00  0.14894470844E-01  0.11039253428E+00  0.51100000000E-03 0.  1.
         11    1    4    4    0    0 -0.13397748215E-02 -0.13500276885E-01  0.92171933143E-02  0.16409455997E-01  0.51100000000E-03 0. -1.
</event>
<event>
 8    1  0.1126407E+005  0.1043930E+01  0.7957747E-01            NaN
         13   -1    0    0    0    0  0.00000000000E+00  0.00000000000E+00  0.74505805969E-08  0.10566000000E+00  0.10566000000E+00 0.  1.
     999900   -1    0    0    0    0 -0.00000000000E+00 -0.00000000000E+00 -0.74505805969E-08  0.93827000000E+00  0.93827000000E+00 0.  1.
     999902    2    1    2    0    0 -0.20642247242E-01 -0.40205053596E-02 -0.10371122321E-01  0.10204816096E+01  0.10202121782E+01 0.  0.
     999903    2    3    3    0    0 -0.10105890719E+00 -0.93577862484E-02 -0.84670601080E-01  0.13368076481E+00  0.20024118130E-01 0.  0.
         14    1    1    2    0    0  0.20642247242E-01  0.40205053596E-02  0.10371122321E-01  0.23448390408E-01  0.00000000000E+00 0.  1.
     999901    1    3    3    0    0  0.80416659947E-01  0.53372808888E-02  0.74299478759E-01  0.88680084478E+00  0.88000000000E+00 0. -1.
        -11    1    4    4    0    0 -0.17025661575E-01 -0.68081767370E-03 -0.55317860970E-02  0.17922010021E-01  0.51100000000E-03 0. -1.
         11    1    4    4    0    0 -0.84033245614E-01 -0.86769685747E-02 -0.79138814983E-01  0.11575875479E+00  0.51100000000E-03 0.  1.
</event>
<event>
 8    1  0.1126407E+005  0.1043930E+01  0.7957747E-01            NaN
         13   -1    0    0    0    0  0.00000000000E+00  0.00000000000E+00  0.74505805969E-08  0.10566000000E+00  0.10566000000E+00 0.  1.
     999900   -1    0    0    0    0 -0.00000000000E+00 -0.00000000000E+00 -0.74505805969E-08  0.93827000000E+00  0.93827000000E+00 0. -1.
     999902    2    1    2    0    0  0.34430079612E-02 -0.16779013765E-01 -0.16520947192E-01  0.10201322837E+01  0.10198546685E+01 0.  0.
     999903    2    3    3    0    0  0.36016876159E-01 -0.11092717957E+00 -0.61600313576E-01  0.13336451063E+00  0.19734222275E-01 0.  0.
         14    1    1    2    0    0 -0.34430079612E-02  0.16779013765E-01  0.16520947192E-01  0.23797716337E-01  0.00000000000E+00 0.  1.
     999901    1    3    3    0    0 -0.32573868198E-01  0.94148165801E-01  0.45079366384E-01  0.88676777303E+00  0.88000000000E+00 0.  1.
        -11    1    4    4    0    0  0.14131523985E-01 -0.54057005551E-01 -0.39974753063E-01  0.68702997188E-01  0.51100000000E-03 0. -1.
         11    1    4    4    0    0  0.21885352174E-01 -0.56870174015E-01 -0.21625560513E-01  0.64661513444E-01  0.51100000000E-03 0.  1.
</event>
<event>
 8    1  0.1126407E+005  0.1043930E+01  0.7957747E-01            NaN
         13   -1    0    0    0    0  0.00000000000E+00  0.00000000000E+00  0.74505805969E-08  0.10566000000E+00  0.10566000000E+00 0. -1.
     999900   -1    0    0    0    0 -0.00000000000E+00 -0.00000000000E+00 -0.74505805969E-08  0.93827000000E+00  0.93827000000E+00 0. -1.
     999902    2    1    2    0    0  0.16581398676E-01 -0.13946518314E-01  0.10196623899E-01  0.10199838251E+01  0.10197026940E+01 0.  0.
     999903    2    3    3    0    0  0.10108548921E+00 -0.74582116301E-01 -0.37200684678E-01  0.13259207284E+00  0.20396044666E-01 0.  0.
         14    1    1    2    0    0 -0.16581398676E-01  0.13946518314E-01 -0.10196623899E-01  0.23946174936E-01  0.00000000000E+00 0.  1.
     999901    1    3    3    0    0 -0.84504090533E-01  0.60635597987E-01  0.47397308576E-01  0.88739175223E+00  0.88000000000E+00 0.  1.
        -11    1    4    4    0    0  0.56192451713E-01 -0.51230355648E-01 -0.15903076356E-01  0.77687257178E-01  0.51100000000E-03 0. -1.
         11    1    4    4    0    0  0.44893037496E-01 -0.23351760653E-01 -0.21297608322E-01  0.54904815658E-01  0.51100000000E-03 0.  1.
</event>
<event>
 8    1  0.1126407E+005  0.1043930E+01  0.7957747E-01            NaN
         13   -1    0    0    0    0  0.00000000000E+00  0.00000000000E+00  0.74505805969E-08  0.10566000000E+00  0.10566000000E+00 0. -1.
     999900   -1    0    0    0    0 -0.00000000000E+00 -0.00000000000E+00 -0.74505805969E-08  0.93827000000E+00  0.93827000000E+00 0.  1.
     999902    2    1    2    0    0  0.24092214963E-01 -0.16251085504E-02  0.39011876109E-02  0.10194699292E+01  0.10191764526E+01 0.  0.
     999903    2    3    3    0    0 -0.22711899966E-01 -0.21196689697E-01 -0.12429166604E+00  0.12873591743E+00  0.12624901456E-01 0.  0.
         14    1    1    2    0    0 -0.24092214963E-01  0.16251085504E-02 -0.39011876109E-02  0.24460070818E-01  0.00000000000E+00 0. -1.
     999901    1    3    3    0    0  0.46804114929E-01  0.19571581147E-01  0.12819285365E+00  0.89073401175E+00  0.88000000000E+00 0. -1.
        -11    1    4    4    0    0 -0.20739223229E-01 -0.11728493708E-01 -0.90231892898E-01  0.93325926525E-01  0.51100000000E-03 0. -1.
         11    1    4    4    0    0 -0.19726767373E-02 -0.94681959891E-02 -0.34059773139E-01  0.35409990907E-01  0.51100000000E-03 0.  1.
</event>
<event>
 8    1  0.1126407E+005  0.1043930E+01  0.7957747E-01            NaN
         13   -1    0    0    0    0  0.00000000000E+00  0.00000000000E+00  0.74505805969E-08  0.10566000000E+00  0.10566000000E+00 0.  1.
     999900   -1    0    0    0    0 -0.00000000000E+00 -0.00000000000E+00 -0.74505805969E-08  0.93827000000E+00  0.93827000000E+00 0. -1.
     999902    2    1    2    0    0  0.21245719072E-01  0.10706316176E-01 -0.10183468389E-02  0.10201173392E+01  0.10198393711E+01 0.  0.
     999903    2    3    3    0    0 -0.49888352569E-02  0.10593903438E+00 -0.75088632572E-01  0.13149822523E+00  0.20137353685E-01 0.  0.
         14    1    1    2    0    0 -0.21245719072E-01 -0.10706316176E-01  0.10183468389E-02  0.23812660818E-01  0.00000000000E+00 0. -1.
     999901    1    3    3    0    0  0.26234554329E-01 -0.95232718205E-01  0.74070285733E-01  0.88861911395E+00  0.88000000000E+00 0.  1.
        -11    1    4    4    0    0 -0.11569348366E-01  0.88605651969E-01 -0.63587116675E-01  0.10967403481E+00  0.51100000000E-03 0. -1.
         11    1    4    4    0    0  0.65805131089E-02  0.17333382412E-01 -0.11501515897E-01  0.21824190421E-01  0.51100000000E-03 0.  1.
</event>
<event>
 8    1  0.1126407E+005  0.1043930E+01  0.7957747E-01            NaN
         13   -1    0    0    0    0  0.00000000000E+00  0.00000000000E+00  0.74505805969E-08  0.10566000000E+00  0.10566000000E+00 0.  1.
     999900   -1    0    0    0    0 -0.00000000000E+00 -0.00000000000E+00 -0.74505805969E-08  0.93827000000E+00  0.93827000000E+00 0.  1.
     999902    2    1    2    0    0 -0.48379701733E-03  0.63272257595E-02  0.23190985471E-01  0.10198865050E+01  0.10196030568E+01 0.  0.
     999903    2    3    3    0    0  0.78381790860E-01  0.81747198871E-01  0.64859566188E-01  0.13216795504E+00  0.20863732947E-01 0.  0.
         14    1    1    2    0    0  0.48379701733E-03 -0.63272257595E-02 -0.23190985471E-01  0.24043495014E-01  0.00000000000E+00 0. -1.
     999901    1    3    3    0    0 -0.78865587877E-01 -0.75419973111E-01 -0.41668580717E-01  0.88771854994E+00  0.88000000000E+00 0.  1.
        -11    1    4    4    0    0  0.18732807154E-01  0.12006519830E-01  0.20412760369E-01  0.30199610745E-01  0.51100000000E-03 0. -1.
         11    1    4    4    0    0  0.59648983706E-01  0.69740679041E-01  0.44446805819E-01  0.10196834430E+00  0.51100000000E-03 0.  1.
</event>
<event>
 8    1  0.1126407E+005  0.1043930E+01  0.7957747E-01            NaN
         13   -1    0    0    0    0  0.00000000000E+00  0.00000000000E+00  0.74505805969E-08  0.10566000000E+00  0.10566000000E+00 0. -1.
     999900   -1    0    0    0    0 -0.00000000000E+00 -0.00000000000E+00 -0.74505805969E-08  0.93827000000E+00  0.93827000000E+00 0.  1.
     999902    2    1    2    0    0 -0.19151749612E-01 -0.17925133840E-01  0.69159419444E-02  0.10168019667E+01  0.10164400176E+01 0.  0.
     999903    2    3    3    0    0  0.84900263910E-01  0.45837027581E-01 -0.76351878128E-01  0.12448701974E+00  0.18929365589E-01 0.  0.
         14    1    1    2    0    0  0.19151749612E-01  0.17925133840E-01 -0.69159419444E-02  0.27128033275E-01  0.00000000000E+00 0. -1.
     999901    1    3    3    0    0 -0.10405201352E+00 -0.63762161421E-01  0.83267820072E-01  0.89231494698E+00  0.88000000000E+00 0. -1.
        -11    1    4    4    0    0  0.58855033019E-01  0.29236491695E-01 -0.62285049599E-01  0.90544883250E-01  0.51100000000E-03 0. -1.
         11    1    4    4    0    0  0.26045230891E-01  0.16600535886E-01 -0.14066828529E-01  0.33942136494E-01  0.51100000000E-03 0.  1.
</event>
<event>
 8    1  0.1126407E+005  0.1043930E+01  0.7957747E-01            NaN
         13   -1    0    0    0    0  0.00000000000E+00  0.00000000000E+00  0.74505805969E-08  0.10566000000E+00  0.10566000000E+00 0. -1.
     999900   -1    0    0    0    0 -0.00000000000E+00 -0.00000000000E+00 -0.74505805969E-08  0.93827000000E+00  0.93827000000E+00 0.  1.
     999902    2    1    2    0    0 -0.19318297815E-01  0.12541710838E-01 -0.58157179046E-02  0.10201747118E+01  0.10198980973E+01 0.  0.
     999903    2    3    3    0    0  0.11013235809E+00  0.25174260672E-01  0.56796359424E-01  0.12841391102E+00  0.22392552376E-01 0.  0.
         14    1    1    2    0    0  0.19318297815E-01 -0.12541710838E-01  0.58157179046E-02  0.23755288169E-01  0.00000000000E+00 0.  1.
     999901    1    3    3    0    0 -0.12945065590E+00 -0.12632549834E-01 -0.62612077328E-01  0.89176080081E+00  0.88000000000E+00 0.  1.
        -11    1    4    4    0    0  0.48044011576E-01  0.19024584902E-01  0.16964660999E-01  0.54389546080E-01  0.51100000000E-03 0. -1.
         11    1    4    4    0    0  0.62088346514E-01  0.61496757694E-02  0.39831698425E-01  0.74024364944E-01  0.51100000000E-03 0.  1.
</event>
<event>
 8    1  0.1126407E+005  0.1043930E+01  0.7957747E-01            NaN
         13   -1    0    0    0    0  0.00000000000E+00  0.00000000000E+00  0.74505805969E-08  0.10566000000E+00  0.10566000000E+00 0. -1.
     999900   -1    0    0    0    0 -0.00000000000E+00 -0.00000000000E+00 -0.74505805969E-08  0.93827000000E+00  0.93827000000E+00 0. -1.
     999902    2    1    2    0    0 -0.22549373724E-01 -0.12176824486E-01  0.41315097600E-02  0.10179719823E+01  0.10176409672E+01 0.  0.
     999903    2    3    3    0    0  0.85549473955E-01 -0.92515636969E-01  0.62412616759E-02  0.12772250226E+00  0.19905493177E-01 0.  0.
         14    1    1    2    0    0  0.22549373724E-01  0.12176824486E-01 -0.41315097600E-02  0.25958017698E-01  0.00000000000E+00 0. -1.
     999901    1    3    3    0    0 -0.10809884768E+00  0.80338812483E-01 -0.21097519160E-02  0.89024948004E+00  0.88000000000E+00 0. -1.
        -11    1    4    4    0    0  0.80285746604E-01 -0.78186458304E-01  0.79712337538E-02  0.11235090146E+00  0.51100000000E-03 0.  1.
         11    1    4    4    0    0  0.52637273507E-02 -0.14329178665E-01 -0.17299720779E-02  0.15371600802E-01  0.51100000000E-03 0. -1.
</event>
<event>
 8    1  0.1126407E+005  0.1043930E+01  0.7957747E-01            NaN
         13   -1    0    0    0    0  0.00000000000E+00  0.00000000000E+00  0.74505805969E-08  0.10566000000E+00  0.10566000000E+00 0. -1.
     999900   -1    0    0    0    0 -0.00000000000E+00 -0.00000000000E+00 -0.74505805969E-08  0.93827000000E+00  0.93827000000E+00 0.  1.
     999902    2    1    2    0    0  0.51746049908E-02  0.68774676295E-02 -0.21877296381E-01  0.10204205935E+01  0.10201497417E+01 0.  0.
     999903    2    3    3    0    0  0.10290874865E+00  0.66797379614E-01 -0.46253893014E-01  0.13265002788E+00  0.20112354546E-01 0.  0.
         14    1    1    2    0    0 -0.51746049908E-02 -0.68774676295E-02  0.21877296381E-01  0.23509406516E-01  0.00000000000E+00 0. -1.
     999901    1    3    3    0    0 -0.97734143660E-01 -0.59919911985E-01  0.24376596633E-01  0.88777056560E+00  0.88000000000E+00 0. -1.
        -11    1    4    4    0    0  0.61887548457E-01  0.30391312265E-01 -0.19679266841E-01  0.71702407070E-01  0.51100000000E-03 0. -1.
         11    1    4    4    0    0  0.41021200194E-01  0.36406067349E-01 -0.26574626173E-01  0.60947620810E-01  0.51100000000E-03 0.  1.
</event>
<event>
 8    1  0.1126407E+005  0.1043930E+01  0.7957747E-01            NaN
         13   -1    0    0    0    0  0.00000000000E+00  0.00000000000E+00  0.74505805969E-08  0.10566000000E+00  0.10566000000E+00 0.  1.
     999900   -1    0    0    0    0 -0.00000000000E+00 -0.00000000000E+00 -0.74505805969E-08  0.93827000000E+00  0.93827000000E+00 0. -1.
     999902    2    1    2    0    0 -0.46752979527E-02  0.65483518197E-02  0.21688465247E-01  0.10207971479E+01  0.10205350010E+01 0.  0.
     999903    2    3    3    0    0  0.40310245183E-02 -0.50025955780E-03 -0.12676954954E+00  0.12829209740E+00  0.19283260811E-01 0.  0.
         14    1    1    2    0    0  0.46752979527E-02 -0.65483518197E-02 -0.21688465247E-01  0.23132852122E-01  0.00000000000E+00 0. -1.
     999901    1    3    3    0    0 -0.87063224710E-02  0.70486113775E-02  0.14845801478E+00  0.89250505048E+00  0.88000000000E+00 0.  1.
        -11    1    4    4    0    0  0.75650229735E-02 -0.76077594672E-02 -0.91970982720E-01  0.92596060177E-01  0.51100000000E-03 0. -1.
         11    1    4    4    0    0 -0.35339984552E-02  0.71074999094E-02 -0.34798566817E-01  0.35696037224E-01  0.51100000000E-03 0.  1.
</event>
<event>
 8    1  0.1126407E+005  0.1043930E+01  0.7957747E-01            NaN
         13   -1    0    0    0    0  0.00000000000E+00  0.00000000000E+00  0.74505805969E-08  0.10566000000E+00  0.10566000000E+00 0. -1.
     999900   -1    0    0    0    0 -0.00000000000E+00 -0.00000000000E+00 -0.74505805969E-08  0.93827000000E+00  0.93827000000E+00 0.  1.
     999902    2    1    2    0    0 -0.20531310355E-01 -0.97745411484E-02 -0.14639855873E-01  0.10168855599E+01  0.10165258680E+01 0.  0.
     999903    2    3    3    0    0 -0.61151086758E-02 -0.36165305345E-01  0.11926584473E+00  0.12624812753E+00  0.19207397583E-01 0.  0.
         14    1    1    2    0    0  0.20531310355E-01  0.97745411484E-02  0.14639855873E-01  0.27044440086E-01  0.00000000000E+00 0. -1.
     999901    1    3    3    0    0 -0.14416201679E-01  0.26390764197E-01 -0.13390570060E+00  0.89063743238E+00  0.88000000000E+00 0. -1.
        -11    1    4    4    0    0 -0.19289982599E-02 -0.20028961325E-01  0.92858100377E-01  0.95014568634E-01  0.51100000000E-03 0. -1.
         11    1    4    4    0    0 -0.41861104159E-02 -0.16136344021E-01  0.26407744351E-01  0.31233558899E-01  0.51100000000E-03 0.  1.
</event>
<event>
 8    1  0.1126407E+005  0.1043930E+01  0.7957747E-01            NaN
         13   -1    0    0    0    0  0.00000000000E+00  0.00000000000E+00  0.74505805969E-08  0.10566000000E+00  0.10566000000E+00 0. -1.
     999900   -1    0    0    0    0 -0.00000000000E+00 -0.00000000000E+00 -0.74505805969E-08  0.93827000000E+00  0.93827000000E+00 0. -1.
     999902    2    1    2    0    0  0.11773105351E-01 -0.87141621217E-02 -0.34804510897E-02  0.10288748955E+01  0.10287647420E+01 0.  0.
     999903    2    3    3    0    0  0.11256846221E+00 -0.21871465460E-01 -0.77599655685E-01  0.13992806073E+00  0.20202374431E-01 0.  0.
         14    1    1    2    0    0 -0.11773105351E-01  0.87141621217E-02  0.34804510897E-02  0.15055104479E-01  0.00000000000E+00 0.  1.
     999901    1    3    3    0    0 -0.10079535685E+00  0.13157303339E-01  0.74119204595E-01  0.88894683479E+00  0.88000000000E+00 0. -1.
        -11    1    4    4    0    0  0.96908514474E-01 -0.14131836486E-01 -0.72082306326E-01  0.12160217509E+00  0.51100000000E-03 0.  1.
         11    1    4    4    0    0  0.15659947731E-01 -0.77396289739E-02 -0.55173493593E-02  0.18325885642E-01  0.51100000000E-03 0. -1.
</event>
<event>
 8    1  0.1126407E+005  0.1043930E+01  0.7957747E-01            NaN
         13   -1    0    0    0    0  0.00000000000E+00  0.00000000000E+00  0.74505805969E-08  0.10566000000E+00  0.10566000000E+00 0.  1.
     999900   -1    0    0    0    0 -0.00000000000E+00 -0.00000000000E+00 -0.74505805969E-08  0.93827000000E+00  0.93827000000E+00 0.  1.
     999902    2    1    2    0    0  0.18518507768E-01 -0.56133325218E-02  0.11427040223E-01  0.10214573081E+01  0.10212100716E+01 0.  0.
     999903    2    3    3    0    0  0.56619993948E-01 -0.10417297278E+00  0.58334885150E-01  0.13389543881E+00  0.21614757381E-01 0.  0.
         14    1    1    2    0    0 -0.18518507768E-01  0.56133325218E-02 -0.11427040223E-01  0.22472691878E-01  0.00000000000E+00 0.  1.
     999901    1    3    3    0    0 -0.38101486179E-01  0.98559640259E-01 -0.46907844927E-01  0.88756186931E+00  0.88000000000E+00 0. -1.
        -11    1    4    4    0    0  0.94263585000E-02 -0.38265141809E-01  0.20780543011E-01  0.44555239883E-01  0.51100000000E-03 0. -1.
         11    1    4    4    0    0  0.47193635448E-01 -0.65907830972E-01  0.37554342139E-01  0.89340198929E-01  0.51100000000E-03 0.  1.
</event>
<event>
 8    1  0.1126407E+005  0.1043930E+01  0.7957747E-01            NaN
         13   -1    0    0    0    0  0.00000000000E+00  0.00000000000E+00  0.74505805969E-08  0.10566000000E+00  0.10566000000E+00 0.  1.
     999900   -1    0    0    0    0 -0.00000000000E+00 -0.00000000000E+00 -0.74505805969E-08  0.93827000000E+00  0.93827000000E+00 0. -1.
     999902    2    1    2    0    0 -0.11091590203E-01 -0.13594298023E-03  0.25551877872E-01  0.10160742947E+01  0.10156923905E+01 0.  0.
     999903    2    3    3    0    0  0.89933208706E-01  0.28976958305E-01  0.83994738119E-01  0.12789123987E+00  0.19323743499E-01 0.  0.
         14    1    1    2    0    0  0.11091590203E-01  0.13594298023E-03 -0.25551877872E-01  0.27855705277E-01  0.00000000000E+00 0. -1.
     999901    1    3    3    0    0 -0.10102479891E+00 -0.29112901285E-01 -0.58442860247E-01  0.88818305485E+00  0.88000000000E+00 0. -1.
        -11    1    4    4    0    0  0.43081384748E-01  0.44415920003E-02  0.42317213535E-01  0.60553621970E-01  0.51100000000E-03 0. -1.
         11    1    4    4    0    0  0.46851823957E-01  0.24535366305E-01  0.41677524584E-01  0.67337617899E-01  0.51100000000E-03 0.  1.
</event>
<event>
 8    1  0.1126407E+005  0.1043930E+01  0.7957747E-01            NaN
         13   -1    0    0    0    0  0.00000000000E+00  0.00000000000E+00  0.74505805969E-08  0.10566000000E+00  0.10566000000E+00 0.  1.
     999900   -1    0    0    0    0 -0.00000000000E+00 -0.00000000000E+00 -0.74505805969E-08  0.93827000000E+00  0.93827000000E+00 0. -1.
     999902    2    1    2    0    0  0.18134675141E-01  0.53233411206E-02 -0.14025199318E-01  0.10203946942E+01  0.10201232383E+01 0.  0.
     999903    2    3    3    0    0  0.74229551796E-01 -0.66619791931E-01  0.81874209370E-01  0.13049630328E+00  0.19433887225E-01 0.  0.
         14    1    1    2    0    0 -0.18134675141E-01 -0.53233411206E-02  0.14025199318E-01  0.23535305799E-01  0.00000000000E+00 0. -1.
     999901    1    3    3    0    0 -0.56094876655E-01  0.71943133052E-01 -0.95899408687E-01  0.88989839092E+00  0.88000000000E+00 0.  1.
        -11    1    4    4    0    0  0.47273468351E-01 -0.34993712349E-01  0.37792585468E-01  0.69913384636E-01  0.51100000000E-03 0. -1.
         11    1    4    4    0    0  0.26956083444E-01 -0.31626079582E-01  0.44081623902E-01  0.60582918642E-01  0.51100000000E-03 0.  1.
</event>
<event>
 8    1  0.1126407E+005  0.1043930E+01  0.7957747E-01            NaN
         13   -1    0    0    0    0  0.00000000000E+00  0.00000000000E+00  0.74505805969E-08  0.10566000000E+00  0.10566000000E+00 0. -1.
     999900   -1    0    0    0    0 -0.00000000000E+00 -0.00000000000E+00 -0.74505805969E-08  0.93827000000E+00  0.93827000000E+00 0. -1.
     999902    2    1    2    0    0  0.48285048250E-02 -0.19049229397E-01 -0.13339588843E-01  0.10201785320E+01  0.10199020076E+01 0.  0.
     999903    2    3    3    0    0 -0.85148046312E-01 -0.21996881885E-02  0.94708059644E-01  0.12885705181E+00  0.19480626785E-01 0.  0.
         14    1    1    2    0    0 -0.48285048250E-02  0.19049229397E-01  0.13339588843E-01  0.23751467954E-01  0.00000000000E+00 0. -1.
     999901    1    3    3    0    0  0.89976551137E-01 -0.16849541208E-01 -0.10804764849E+00  0.89132148024E+00  0.88000000000E+00 0. -1.
        -11    1    4    4    0    0 -0.23998442857E-01 -0.26392964561E-02  0.40415779918E-01  0.47080649238E-01  0.51100000000E-03 0.  1.
         11    1    4    4    0    0 -0.61149603455E-01  0.43960826753E-03  0.54292279726E-01  0.81776402568E-01  0.51100000000E-03 0. -1.
</event>
<event>
 7    1  0.2118411E+005  0.1043930E+01  0.7957747E-01            NaN
         13   -1    0    0    0    0  0.00000000000E+00  0.00000000000E+00  0.74505805969E-08  0.10566000000E+00  0.10566000000E+00 0.  1.
     999900   -1    0    0    0    0 -0.00000000000E+00 -0.00000000000E+00 -0.74505805969E-08  0.93827000000E+00  0.93827000000E+00 0. -1.
     999903    2    1    2    0    0  0.75663866886E-01 -0.24179700144E-01 -0.80428240433E-01  0.11484745186E+00  0.20286859971E-01 0.  0.
         14    1    1    2    0    0  0.18463837074E-01  0.35698184832E-01  0.84237624679E-02  0.41063773011E-01  0.00000000000E+00 0.  1.
     999901    1    1    2    0    0 -0.94127703960E-01 -0.11518484688E-01  0.72004477965E-01  0.88801877513E+00  0.88000000000E+00 0.  1.
        -11    1    3    3    0    0  0.39118868013E-01 -0.25623125824E-02 -0.43640311826E-01  0.58665059599E-01  0.51100000000E-03 0. -1.
         11    1    3    3    0    0  0.36544998872E-01 -0.21617387562E-01 -0.36787928606E-01  0.56182392257E-01  0.51100000000E-03 0.  1.
</event>
<event>
 8    1  0.1126407E+005  0.1043930E+01  0.7957747E-01            NaN
         13   -1    0    0    0    0  0.00000000000E+00  0.00000000000E+00  0.74505805969E-08  0.10566000000E+00  0.10566000000E+00 0. -1.
     999900   -1    0    0    0    0 -0.00000000000E+00 -0.00000000000E+00 -0.74505805969E-08  0.93827000000E+00  0.93827000000E+00 0. -1.
     999902    2    1    2    0    0 -0.20578814083E-01  0.79650477178E-03 -0.34117506602E-02  0.10230550856E+01  0.10228420925E+01 0.  0.
     999903    2    3    3    0    0 -0.23121839568E-01  0.94528406969E-01 -0.89824173310E-01  0.13386486789E+00  0.19523871429E-01 0.  0.
         14    1    1    2    0    0  0.20578814083E-01 -0.79650477178E-03  0.34117506602E-02  0.20874914407E-01  0.00000000000E+00 0. -1.
     999901    1    3    3    0    0  0.25430254845E-02 -0.93731902198E-01  0.86412422650E-01  0.88919021770E+00  0.88000000000E+00 0.  1.
        -11    1    4    4    0    0 -0.36126004102E-02  0.11642958076E-01 -0.36942352679E-02  0.12748248888E-01  0.51100000000E-03 0. -1.
         11    1    4    4    0    0 -0.19509239158E-01  0.82885448893E-01 -0.86129938042E-01  0.12111661900E+00  0.51100000000E-03 0.  1.
</event>
<event>
 8    1  0.1126407E+005  0.1043930E+01  0.7957747E-01            NaN
         13   -1    0    0    0    0  0.00000000000E+00  0.00000000000E+00  0.74505805969E-08  0.10566000000E+00  0.10566000000E+00 0. -1.
     999900   -1    0    0    0    0 -0.00000000000E+00 -0.00000000000E+00 -0.74505805969E-08  0.93827000000E+00  0.93827000000E+00 0. -1.
     999902    2    1    2    0    0 -0.22214043980E-01 -0.11276058492E-01 -0.48967959350E-02  0.10185411864E+01  0.10182247083E+01 0.  0.
     999903    2    3    3    0    0 -0.30873594797E-01 -0.12513550089E+00  0.13046206903E-01  0.13098222398E+00  0.19340812898E-01 0.  0.
         14    1    1    2    0    0  0.22214043980E-01  0.11276058492E-01  0.48967959350E-02  0.25388813590E-01  0.00000000000E+00 0. -1.
     999901    1    3    3    0    0  0.86595508172E-02  0.11385944240E+00 -0.17943002838E-01  0.88755896243E+00  0.88000000000E+00 0.  1.
        -11    1    4    4    0    0 -0.60830079699E-02 -0.25559049088E-01  0.10601438839E-01  0.28335836015E-01  0.51100000000E-03 0.  1.
         11    1    4    4    0    0 -0.24790586827E-01 -0.99576451807E-01  0.24447680637E-02  0.10264638796E+00  0.51100000000E-03 0. -1.
</event>
<event>
 8    1  0.1126407E+005  0.1043930E+01  0.7957747E-01            NaN
         13   -1    0    0    0    0  0.00000000000E+00  0.00000000000E+00  0.74505805969E-08  0.10566000000E+00  0.10566000000E+00 0. -1.
     999900   -1    0    0    0    0 -0.00000000000E+00 -0.00000000000E+00 -0.74505805969E-08  0.93827000000E+00  0.93827000000E+00 0.  1.
     999902    2    1    2    0    0 -0.12344539771E-01 -0.18485307914E-01 -0.89406838693E-02  0.10199710748E+01  0.10196896406E+01 0.  0.
     999903    2    3    3    0    0 -0.11392942916E+00 -0.35525911427E-01  0.52353986421E-01  0.13184557207E+00  0.20007742716E-01 0.  0.
         14    1    1    2    0    0  0.12344539771E-01  0.18485307914E-01  0.89406838693E-02  0.23958925244E-01  0.00000000000E+00 0. -1.
     999901    1    3    3    0    0  0.10158488939E+00  0.17040603513E-01 -0.61294670290E-01  0.88812550269E+00  0.88000000000E+00 0.  1.
        -11    1    4    4    0    0 -0.95549352305E-01 -0.33613861128E-01  0.37076359842E-01  0.10786328368E+00  0.51100000000E-03 0.  1.
         11    1    4    4    0    0 -0.18380076853E-01 -0.19120502993E-02  0.15277626579E-01  0.23982288388E-01  0.51100000000E-03 0. -1.
</event>
<event>
 8    1  0.1126407E+005  0.1043930E+01  0.7957747E-01            NaN
         13   -1    0    0    0    0  0.00000000000E+00  0.00000000000E+00  0.74505805969E-08  0.10566000000E+00  0.10566000000E+00 0.  1.
     999900   -1    0    0    0    0 -0.00000000000E+00 -0.00000000000E+00 -0.74505805969E-08  0.93827000000E+00  0.93827000000E+00 0.  1.
     999902    2    1    2    0    0  0.26447861268E-02 -0.93575195266E-02  0.21278124716E-01  0.10205352002E+01  0.10202670132E+01 0.  0.
     999903    2    3    3    0    0 -0.93570746244E-01 -0.84267251659E-01  0.33318371705E-01  0.13204554683E+00  0.21666986153E-01 0.  0.
         14    1    1    2    0    0 -0.26447861268E-02  0.93575195266E-02 -0.21278124716E-01  0.23394799780E-01  0.00000000000E+00 0. -1.
     999901    1    3    3    0    0  0.96215532371E-01  0.74909732132E-01 -0.12040246990E-01  0.88848965339E+00  0.88000000000E+00 0.  1.
        -11    1    4    4    0    0 -0.76930365811E-01 -0.60522454088E-01  0.19033493768E-01  0.99718522044E-01  0.51100000000E-03 0. -1.
         11    1    4    4    0    0 -0.16640380433E-01 -0.23744797571E-01  0.14284877937E-01  0.32327024783E-01  0.51100000000E-03 0.  1.
</event>
<event>
 8    1  0.1126407E+005  0.1043930E+01  0.7957747E-01            NaN
         13   -1    0    0    0    0  0.00000000000E+00  0.00000000000E+00  0.74505805969E-08  0.10566000000E+00  0.10566000000E+00 0.  1.
     999900   -1    0    0    0    0 -0.00000000000E+00 -0.00000000000E+00 -0.74505805969E-08  0.93827000000E+00  0.93827000000E+00 0. -1.
     999902    2    1    2    0    0  0.14737524716E-01 -0.71565184586E-03 -0.18555087668E-01  0.10202235015E+01  0.10199480354E+01 0.  0.
     999903    2    3    3    0    0  0.11901823937E+00  0.47245608089E-01  0.23848195937E-01  0.13175696395E+00  0.19841177224E-01 0.  0.
         14    1    1    2    0    0 -0.14737524716E-01  0.71565184586E-03  0.18555087668E-01  0.23706498491E-01  0.00000000000E+00 0.  1.
     999901    1    3    3    0    0 -0.10428071465E+00 -0.47961259935E-01 -0.42403283605E-01  0.88846653756E+00  0.88000000000E+00 0. -1.
        -11    1    4    4    0    0  0.83449415520E-01  0.25234156640E-01  0.21841255446E-01  0.89876966862E-01  0.51100000000E-03 0.  1.
         11    1    4    4    0    0  0.35568823849E-01  0.22011451449E-01  0.20069404911E-02  0.41879997087E-01  0.51100000000E-03 0. -1.
</event>
<event>
 8    1  0.1126407E+005  0.1043930E+01  0.7957747E-01            NaN
         13   -1    0    0    0    0  0.00000000000E+00  0.00000000000E+00  0.74505805969E-08  0.10566000000E+00  0.10566000000E+00 0.  1.
     999900   -1    0    0    0    0 -0.00000000000E+00 -0.00000000000E+00 -0.74505805969E-08  0.93827000000E+00  0.93827000000E+00 0. -1.
     999902    2    1    2    0    0  0.15159049807E-01  0.17541330171E-01  0.72313678729E-02  0.10196444542E+01  0.10193552007E+01 0.  0.
     999903    2    3    3    0    0  0.27587608887E-01  0.58748840398E-01  0.11210751948E+00  0.13237249182E+00  0.27237442168E-01 0.  0.
         14    1    1    2    0    0 -0.15159049807E-01 -0.17541330171E-01 -0.72313678729E-02  0.24285545835E-01  0.00000000000E+00 0. -1.
     999901    1    3    3    0    0 -0.12428559080E-01 -0.41207510227E-01 -0.10487615161E+00  0.88727196234E+00  0.88000000000E+00 0. -1.
        -11    1    4    4    0    0  0.15986161283E-01  0.46310955922E-01  0.59472318867E-01  0.77055044114E-01  0.51100000000E-03 0.  1.
         11    1    4    4    0    0  0.11601447605E-01  0.12437884476E-01  0.52635200612E-01  0.55317447711E-01  0.51100000000E-03 0. -1.
</event>
<event>
 8    1  0.1126407E+005  0.1043930E+01  0.7957747E-01            NaN
         13   -1    0    0    0    0  0.00000000000E+00  0.00000000000E+00  0.74505805969E-08  0.10566000000E+00  0.10566000000E+00 0.  1.
     999900   -1    0    0    0    0 -0.00000000000E+00 -0.00000000000E+00 -0.74505805969E-08  0.93827000000E+00  0.93827000000E+00 0. -1.
     999902    2    1    2    0    0  0.21022918021E-01  0.11154086385E-01 -0.92366461776E-04  0.10201311501E+01  0.10198535082E+01 0.  0.
     999903    2    3    3    0    0  0.60128839157E-01 -0.11337301151E+00  0.12151208280E-01  0.13041986192E+00  0.19818463236E-01 0.  0.
         14    1    1    2    0    0 -0.21022918021E-01 -0.11154086385E-01  0.92366461776E-04  0.23798849905E-01  0.00000000000E+00 0. -1.
     999901    1    3    3    0    0 -0.39105921136E-01  0.12452709789E+00 -0.12243574742E-01  0.88971128817E+00  0.88000000000E+00 0. -1.
        -11    1    4    4    0    0  0.14939091057E-01 -0.44787005164E-01 -0.10605941515E-02  0.47227515858E-01  0.51100000000E-03 0. -1.
         11    1    4    4    0    0  0.45189748100E-01 -0.68586006343E-01  0.13211802431E-01  0.83192346066E-01  0.51100000000E-03 0.  1.
</event>
<event>
 8    1  0.1126407E+005  0.1043930E+01  0.7957747E-01            NaN
         13   -1    0    0    0    0  0.00000000000E+00  0.00000000000E+00  0.74505805969E-08  0.10566000000E+00  0.10566000000E+00 0.  1.
     999900   -1    0    0    0    0 -0.00000000000E+00 -0.00000000000E+00 -0.74505805969E-08  0.93827000000E+00  0.93827000000E+00 0.  1.
     999902    2    1    2    0    0 -0.23917041146E-01 -0.64032661043E-02 -0.21152108038E-02  0.10190804368E+01  0.10187774222E+01 0.  0.
     999903    2    3    3    0    0  0.37330899533E-01  0.10022057710E+00  0.67225456780E-01  0.12782958415E+00  0.19580102428E-01 0.  0.
         14    1    1    2    0    0  0.23917041146E-01  0.64032661043E-02  0.21152108038E-02  0.24849563190E-01  0.00000000000E+00 0. -1.
     999901    1    3    3    0    0 -0.61247940680E-01 -0.10662384321E+00 -0.69340667583E-01  0.89125085266E+00  0.88000000000E+00 0. -1.
        -11    1    4    4    0    0  0.10019567294E-01  0.10983082064E-01  0.51340085524E-02  0.15736549342E-01  0.51100000000E-03 0.  1.
         11    1    4    4    0    0  0.27311332240E-01  0.89237495039E-01  0.62091448227E-01  0.11209303481E+00  0.51100000000E-03 0. -1.
</event>
<event>
 8    1  0.1126407E+005  0.1043930E+01  0.7957747E-01            NaN
         13   -1    0    0    0    0  0.00000000000E+00  0.00000000000E+00  0.74505805969E-08  0.10566000000E+00  0.10566000000E+00 0.  1.
     999900   -1    0    0    0    0 -0.00000000000E+00 -0.00000000000E+00 -0.74505805969E-08  0.93827000000E+00  0.93827000000E+00 0.  1.
     999902    2    1    2    0    0  0.59059473146E-02  0.55815930351E-02 -0.25515532130E-01  0.10171517108E+01  0.10167991571E+01 0.  0.
     999903    2    3    3    0    0  0.64818470865E-01  0.30869093274E-01 -0.10774603373E+00  0.13099596910E+00  0.19909822955E-01 0.  0.
         14    1    1    2    0    0 -0.59059473146E-02 -0.55815930351E-02  0.25515532130E-01  0.26778289235E-01  0.00000000000E+00 0.  1.
     999901    1    3    3    0    0 -0.58912523550E-01 -0.25287500239E-01  0.82230501600E-01  0.88615574167E+00  0.88000000000E+00 0. -1.
        -11    1    4    4    0    0  0.34555343289E-01  0.83587995016E-02 -0.64167502543E-01  0.73359871746E-01  0.51100000000E-03 0.  1.
         11    1    4    4    0    0  0.30263127575E-01  0.22510293773E-01 -0.43578531187E-01  0.57636097351E-01  0.51100000000E-03 0. -1.
</event>
<event>
 8    1  0.1126407E+005  0.1043930E+01  0.7957747E-01            NaN
         13   -1    0    0    0    0  0.00000000000E+00  0.00000000000E+00  0.74505805969E-08  0.10566000000E+00  0.10566000000E+00 0. -1.
     999900   -1    0    0    0    0 -0.00000000000E+00 -0.00000000000E+00 -0.74505805969E-08  0.93827000000E+00  0.93827000000E+00 0.  1.
     999902    2    1    2    0    0  0.19641166056E-01 -0.13065095352E-01  0.38926806612E-02  0.10200213178E+01  0.10197410768E+01 0.  0.
     999903    2    3    3    0    0  0.38433115338E-01 -0.12375126095E+00  0.20513065652E-01  0.13273286314E+00  0.20143191291E-01 0.  0.
         14    1    1    2    0    0 -0.19641166056E-01  0.13065095352E-01 -0.38926806612E-02  0.23908682175E-01  0.00000000000E+00 0.  1.
     999901    1    3    3    0    0 -0.18791949282E-01  0.11068616560E+00 -0.16620384991E-01  0.88728845468E+00  0.88000000000E+00 0. -1.
        -11    1    4    4    0    0  0.16585605828E-01 -0.26493903420E-01  0.79959083688E-02  0.32267706934E-01  0.51100000000E-03 0.  1.
         11    1    4    4    0    0  0.21847509510E-01 -0.97257357528E-01  0.12517157284E-01  0.10046515621E+00  0.51100000000E-03 0. -1.
</event>
<event>
 8    1  0.1126407E+005  0.1043930E+01  0.7957747E-01            NaN
         13   -1    0    0    0    0  0.00000000000E+00  0.00000000000E+00  0.74505805969E-08  0.10566000000E+00  0.10566000000E+00 0.  1.
     999900   -1    0    0    0    0 -0.00000000000E+00 -0.00000000000E+00 -0.74505805969E-08  0.93827000000E+00  0.93827000000E+00 0.  1.
     999902    2    1    2    0    0 -0.14325575322E-01  0.47944226275E-02 -0.19256334049E-01  0.10194552171E+01  0.10191613830E+01 0.  0.
     999903    2    3    3    0    0  0.13651804554E-01  0.32558176415E-01 -0.12583154181E+00  0.13214927510E+00  0.19581812374E-01 0.  0.
         14    1    1    2    0    0  0.14325575322E-01 -0.47944226275E-02  0.19256334049E-01  0.24474782893E-01  0.00000000000E+00 0.  1.
     999901    1    3    3    0    0 -0.27977379876E-01 -0.27763753787E-01  0.10657520776E+00  0.88730594201E+00  0.88000000000E+00 0. -1.
        -11    1    4    4    0    0 -0.35440498035E-02  0.10229621688E-01 -0.52057244191E-01  0.53173520127E-01  0.51100000000E-03 0.  1.
         11    1    4    4    0    0  0.17195854358E-01  0.22328554727E-01 -0.73774297621E-01  0.78975754975E-01  0.51100000000E-03 0. -1.
</event>
<event>
 8    1  0.1126407E+005  0.1043930E+01  0.7957747E-01            NaN
         13   -1    0    0    0    0  0.00000000000E+00  0.00000000000E+00  0.74505805969E-08  0.10566000000E+00  0.10566000000E+00 0. -1.
     999900   -1    0    0    0    0 -0.00000000000E+00 -0.00000000000E+00 -0.74505805969E-08  0.93827000000E+00  0.93827000000E+00 0. -1.
     999902    2    1    2    0    0 -0.16036301207E-01 -0.44530159449E-02  0.15907190321E-01  0.10209075976E+01  0.10206479765E+01 0.  0.
     999903    2    3    3    0    0  0.12370727239E+00 -0.27558362705E-01  0.18880371286E-01  0.12957659108E+00  0.19252842349E-01 0.  0.
         14    1    1    2    0    0  0.16036301207E-01  0.44530159449E-02 -0.15907190321E-01  0.23022402380E-01  0.00000000000E+00 0. -1.
     999901    1    3    3    0    0 -0.13974357360E+00  0.23105346761E-01 -0.29731809653E-02  0.89133100654E+00  0.88000000000E+00 0. -1.
        -11    1    4    4    0    0  0.65692876157E-01 -0.17010310630E-01  0.68279880090E-03  0.67864806643E-01  0.51100000000E-03 0. -1.
         11    1    4    4    0    0  0.58014396236E-01 -0.10548052075E-01  0.18197572486E-01  0.61711784439E-01  0.51100000000E-03 0.  1.
</event>
<event>
 8    1  0.1126407E+005  0.1043930E+01  0.7957747E-01            NaN
         13   -1    0    0    0    0  0.00000000000E+00  0.00000000000E+00  0.74505805969E-08  0.10566000000E+00  0.10566000000E+00 0.  1.
     999900   -1    0    0    0    0 -0.00000000000E+00 -0.00000000000E+00 -0.74505805969E-08  0.93827000000E+00  0.93827000000E+00 0.  1.
     999902    2    1    2    0    0 -0.51585418602E-03 -0.22303923761E-01 -0.52456643594E-02  0.10210117078E+01  0.10207544560E+01 0.  0.
     999903    2    3    3    0    0  0.99347832468E-01 -0.20796631916E-01 -0.81976324185E-01  0.13204454197E+00  0.20326131541E-01 0.  0.
         14    1    1    2    0    0  0.51585418602E-03  0.22303923761E-01  0.52456643594E-02  0.22918292154E-01  0.00000000000E+00 0. -1.
     999901    1    3    3    0    0 -0.99863686654E-01 -0.15072918450E-02  0.76730659825E-01  0.88896716587E+00  0.88000000000E+00 0. -1.
        -11    1    4    4    0    0  0.74878150400E-01 -0.73044529585E-02 -0.64362570920E-01  0.99009565683E-01  0.51100000000E-03 0. -1.
         11    1    4    4    0    0  0.24469682068E-01 -0.13492178957E-01 -0.17613753264E-01  0.33034976291E-01  0.51100000000E-03 0.  1.
</event>
<event>
 8    1  0.1126407E+005  0.1043930E+01  0.7957747E-01            NaN
         13   -1    0    0    0    0  0.00000000000E+00  0.00000000000E+00  0.74505805969E-08  0.10566000000E+00  0.10566000000E+00 0.  1.
     999900   -1    0    0    0    0 -0.00000000000E+00 -0.00000000000E+00 -0.74505805969E-08  0.93827000000E+00  0.93827000000E+00 0.  1.
     999902    2    1    2    0    0  0.46276173882E-02  0.19244525800E-01  0.17136170843E-01  0.10177495690E+01  0.10174127826E+01 0.  0.
     999903    2    3    3    0    0  0.12040087044E+00 -0.11527287856E-01 -0.36803310215E-01  0.12799689649E+00  0.19986843143E-01 0.  0.
         14    1    1    2    0    0 -0.46276173882E-02 -0.19244525800E-01 -0.17136170843E-01  0.26180430996E-01  0.00000000000E+00 0. -1.
     999901    1    3    3    0    0 -0.11577325305E+00  0.30771813656E-01  0.53939481058E-01  0.88975267252E+00  0.88000000000E+00 0.  1.
        -11    1    4    4    0    0  0.57290276203E-01 -0.19347200879E-02 -0.27164882461E-01  0.63435879827E-01  0.51100000000E-03 0.  1.
         11    1    4    4    0    0  0.63110594238E-01 -0.95925677676E-02 -0.96384277540E-02  0.64561016658E-01  0.51100000000E-03 0. -1.
</event>
<event>
 7    1  0.1408016E+005  0.1043930E+01  0.7957747E-01            NaN
         13   -1    0    0    0    0  0.00000000000E+00  0.00000000000E+00  0.74505805969E-08  0.10566000000E+00  0.10566000000E+00 0. -1.
     999900   -1    0    0    0    0 -0.00000000000E+00 -0.00000000000E+00 -0.74505805969E-08  0.93827000000E+00  0.93827000000E+00 0.  1.
     999903    2    1    2    0    0 -0.11271447533E+00  0.18474259773E-01 -0.25499571210E-01  0.11893519429E+00  0.21201440656E-01 0.  0.
         14    1    1    2    0    0  0.25832660269E-01  0.28163896832E-01  0.93316939320E-02  0.39339699198E-01  0.00000000000E+00 0.  1.
     999901    1    1    2    0    0  0.86881815059E-01 -0.46638156605E-01  0.16167877278E-01  0.88565510651E+00  0.88000000000E+00 0.  1.
        -11    1    3    3    0    0 -0.23489499494E-01 -0.41107149670E-02 -0.86074038511E-02  0.25357505518E-01  0.51100000000E-03 0.  1.
         11    1    3    3    0    0 -0.89224975833E-01  0.22584974740E-01 -0.16892167359E-01  0.93577688770E-01  0.51100000000E-03 0. -1.
</event>
<event>
 8    1  0.1126407E+005  0.1043930E+01  0.7957747E-01            NaN
         13   -1    0    0    0    0  0.00000000000E+00  0.00000000000E+00  0.74505805969E-08  0.10566000000E+00  0.10566000000E+00 0.  1.
     999900   -1    0    0    0    0 -0.00000000000E+00 -0.00000000000E+00 -0.74505805969E-08  0.93827000000E+00  0.93827000000E+00 0. -1.
     999902    2    1    2    0    0 -0.14633204166E-01 -0.66503188774E-02 -0.17308051947E-01  0.10203095413E+01  0.10200360945E+01 0.  0.
     999903    2    3    3    0    0  0.86274673508E-01 -0.16277540107E-02 -0.96414056517E-01  0.13100341525E+00  0.20500137580E-01 0.  0.
         14    1    1    2    0    0  0.14633204166E-01  0.66503188774E-02  0.17308051947E-01  0.23620458665E-01  0.00000000000E+00 0.  1.
     999901    1    3    3    0    0 -0.10090787767E+00 -0.50225648667E-02  0.79106004570E-01  0.88930612609E+00  0.88000000000E+00 0.  1.
        -11    1    4    4    0    0  0.40027627916E-01 -0.46153296979E-02 -0.58961547455E-01  0.71415946848E-01  0.51100000000E-03 0.  1.
         11    1    4    4    0    0  0.46247045592E-01  0.29875756872E-02 -0.37452509062E-01  0.59587468401E-01  0.51100000000E-03 0. -1.
</event>
<event>
 8    1  0.1126407E+005  0.1043930E+01  0.7957747E-01            NaN
         13   -1    0    0    0    0  0.00000000000E+00  0.00000000000E+00  0.74505805969E-08  0.10566000000E+00  0.10566000000E+00 0.  1.
     999900   -1    0    0    0    0 -0.00000000000E+00 -0.00000000000E+00 -0.74505805969E-08  0.93827000000E+00  0.93827000000E+00 0.  1.
     999902    2    1    2    0    0  0.19890300900E-02 -0.22378054819E-01  0.64679934892E-02  0.10205511951E+01  0.10202833789E+01 0.  0.
     999903    2    3    3    0    0 -0.54868924220E-01 -0.97164522716E-01 -0.68394033860E-01  0.13239008029E+00  0.19946081597E-01 0.  0.
         14    1    1    2    0    0 -0.19890300900E-02  0.22378054819E-01 -0.64679934892E-02  0.23378804887E-01  0.00000000000E+00 0.  1.
     999901    1    3    3    0    0  0.56857954310E-01  0.74786467898E-01  0.74862027349E-01  0.88816111483E+00  0.88000000000E+00 0. -1.
        -11    1    4    4    0    0 -0.20701705193E-01 -0.19910068844E-01 -0.14398915138E-01  0.32133492145E-01  0.51100000000E-03 0.  1.
         11    1    4    4    0    0 -0.34167219027E-01 -0.77254453872E-01 -0.53995118722E-01  0.10025658814E+00  0.51100000000E-03 0. -1.
</event>
<event>
 8    1  0.1126407E+005  0.1043930E+01  0.7957747E-01            NaN
         13   -1    0    0    0    0  0.00000000000E+00  0.00000000000E+00  0.74505805969E-08  0.10566000000E+00  0.10566000000E+00 0. -1.
     999900   -1    0    0    0    0 -0.00000000000E+00 -0.00000000000E+00 -0.74505805969E-08  0.93827000000E+00  0.93827000000E+00 0.  1.
     999902    2    1    2    0    0 -0.63723531847E-02  0.10894375020E-02 -0.22683832618E-01  0.10203429268E+01  0.10200702614E+01 0.  0.
     999903    2    3    3    0    0  0.83001576636E-02 -0.91321005895E-01 -0.93418826640E-01  0.13256006372E+00  0.20896760236E-01 0.  0.
         14    1    1    2    0    0  0.63723531847E-02 -0.10894375020E-02  0.22683832618E-01  0.23587073184E-01  0.00000000000E+00 0. -1.
     999901    1    3    3    0    0 -0.14672510848E-01  0.92410443397E-01  0.70734994022E-01  0.88778286309E+00  0.88000000000E+00 0. -1.
        -11    1    4    4    0    0  0.71967466741E-02 -0.65975313341E-01 -0.53444733797E-01  0.85212298554E-01  0.51100000000E-03 0. -1.
         11    1    4    4    0    0  0.11034109894E-02 -0.25345692553E-01 -0.39974092843E-01  0.47347765168E-01  0.51100000000E-03 0.  1.
</event>
<event>
 8    1  0.1126407E+005  0.1043930E+01  0.7957747E-01            NaN
         13   -1    0    0    0    0  0.00000000000E+00  0.00000000000E+00  0.74505805969E-08  0.10566000000E+00  0.10566000000E+00 0.  1.
     999900   -1    0    0    0    0 -0.00000000000E+00 -0.00000000000E+00 -0.74505805969E-08  0.93827000000E+00  0.93827000000E+00 0. -1.
     999902    2    1    2    0    0 -0.10666062751E-01 -0.19715041921E-01 -0.50504298188E-02  0.10209527370E+01  0.10206941445E+01 0.  0.
     999903    2    3    3    0    0 -0.72611817820E-01  0.78563203620E-01  0.70494978479E-01  0.13010875583E+00  0.22673625693E-01 0.  0.
         14    1    1    2    0    0  0.10666062751E-01  0.19715041921E-01  0.50504298188E-02  0.22977262977E-01  0.00000000000E+00 0. -1.
     999901    1    3    3    0    0  0.61945755069E-01 -0.98278245541E-01 -0.75545408298E-01  0.89084398120E+00  0.88000000000E+00 0. -1.
        -11    1    4    4    0    0 -0.50019400272E-01  0.63141235649E-01  0.61369033562E-01  0.10126784013E+00  0.51100000000E-03 0. -1.
         11    1    4    4    0    0 -0.22592417548E-01  0.15421967971E-01  0.91259449170E-02  0.28840915700E-01  0.51100000000E-03 0.  1.
</event>
<event>
 8    1  0.1126407E+005  0.1043930E+01  0.7957747E-01            NaN
         13   -1    0    0    0    0  0.00000000000E+00  0.00000000000E+00  0.74505805969E-08  0.10566000000E+00  0.10566000000E+00 0.  1.
     999900   -1    0    0    0    0 -0.00000000000E+00 -0.00000000000E+00 -0.74505805969E-08  0.93827000000E+00  0.93827000000E+00 0.  1.
     999902    2    1    2    0    0  0.93539978156E-02  0.74951065931E-02  0.19833932241E-01  0.10207554716E+01  0.10204923684E+01 0.  0.
     999903    2    3    3    0    0  0.30650046384E-01 -0.11381276710E+00 -0.49682236251E-01  0.12946336484E+00  0.19991671727E-01 0.  0.
         14    1    1    2    0    0 -0.93539978156E-02 -0.74951065931E-02 -0.19833932241E-01  0.23174528390E-01  0.00000000000E+00 0. -1.
     999901    1    3    3    0    0 -0.21296048568E-01  0.12130787370E+00  0.69516168492E-01  0.89129210677E+00  0.88000000000E+00 0. -1.
        -11    1    4    4    0    0  0.21235084274E-02 -0.39265510695E-01 -0.21459707609E-01  0.44800332475E-01  0.51100000000E-03 0.  1.
         11    1    4    4    0    0  0.28526537956E-01 -0.74547256408E-01 -0.28222528642E-01  0.84663032367E-01  0.51100000000E-03 0. -1.
</event>
<event>
 8    1  0.1126407E+005  0.1043930E+01  0.7957747E-01            NaN
         13   -1    0    0    0    0  0.00000000000E+00  0.00000000000E+00  0.74505805969E-08  0.10566000000E+00  0.10566000000E+00 0. -1.
     999900   -1    0    0    0    0 -0.00000000000E+00 -0.00000000000E+00 -0.74505805969E-08  0.93827000000E+00  0.93827000000E+00 0.  1.
     999902    2    1    2    0    0 -0.65865926344E-02 -0.21373218894E-01 -0.47015934528E-02  0.10210760579E+01  0.10208202650E+01 0.  0.
     999903    2    3    3    0    0 -0.12168097145E-01 -0.65443612777E-01  0.11262861094E+00  0.13217801556E+00  0.18838650533E-01 0.  0.
         14    1    1    2    0    0  0.65865926344E-02  0.21373218894E-01  0.47015934528E-02  0.22853942098E-01  0.00000000000E+00 0.  1.
     999901    1    3    3    0    0  0.55815045110E-02  0.44070393883E-01 -0.11733020440E+00  0.88889804234E+00  0.88000000000E+00 0.  1.
        -11    1    4    4    0    0 -0.17086163673E-01 -0.49514551789E-01  0.82013759000E-01  0.97314673170E-01  0.51100000000E-03 0.  1.
         11    1    4    4    0    0  0.49180665278E-02 -0.15929060989E-01  0.30614851943E-01  0.34863342393E-01  0.51100000000E-03 0. -1.
</event>
<event>
 8    1  0.1126407E+005  0.1043930E+01  0.7957747E-01            NaN
         13   -1    0    0    0    0  0.00000000000E+00  0.00000000000E+00  0.74505805969E-08  0.10566000000E+00  0.10566000000E+00 0.  1.
     999900   -1    0    0    0    0 -0.00000000000E+00 -0.00000000000E+00 -0.74505805969E-08  0.93827000000E+00  0.93827000000E+00 0.  1.
     999902    2    1    2    0    0  0.55949538200E-02 -0.14640035082E-01  0.17612847191E-01  0.10203536024E+01  0.10200811867E+01 0.  0.
     999903    2    3    3    0    0  0.34270007528E-01 -0.11100570508E+00  0.62681282261E-01  0.13348283120E+00  0.19799573300E-01 0.  0.
         14    1    1    2    0    0 -0.55949538200E-02  0.14640035082E-01 -0.17612847191E-01  0.23576397554E-01  0.00000000000E+00 0. -1.
     999901    1    3    3    0    0 -0.28675053708E-01  0.96365669993E-01 -0.45068435069E-01  0.88687077125E+00  0.88000000000E+00 0.  1.
        -11    1    4    4    0    0  0.28411535086E-02 -0.40726206295E-01  0.23240596465E-01  0.46979596396E-01  0.51100000000E-03 0.  1.
         11    1    4    4    0    0  0.31428854019E-01 -0.70279498780E-01  0.39440685795E-01  0.86503234799E-01  0.51100000000E-03 0. -1.
</event>
<event>
 8    1  0.1126407E+005  0.1043930E+01  0.7957747E-01            NaN
         13   -1    0    0    0    0  0.00000000000E+00  0.00000000000E+00  0.74505805969E-08  0.10566000000E+00  0.10566000000E+00 0. -1.
     999900   -1    0    0    0    0 -0.00000000000E+00 -0.00000000000E+00 -0.74505805969E-08  0.93827000000E+00  0.93827000000E+00 0. -1.
     999902    2    1    2    0    0  0.10944453031E-01 -0.15096269431E-01  0.14451555785E-01  0.10203391995E+01  0.10200664470E+01 0.  0.
     999903    2    3    3    0    0  0.20354423950E-01 -0.53093306434E-01  0.11882716563E+00  0.13330673658E+00  0.20434993577E-01 0.  0.
         14    1    1    2    0    0 -0.10944453031E-01  0.15096269431E-01 -0.14451555785E-01  0.23590800485E-01  0.00000000000E+00 0.  1.
     999901    1    3    3    0    0 -0.94099709190E-02  0.37997037003E-01 -0.10437560985E+00  0.88703246294E+00  0.88000000000E+00 0. -1.
        -11    1    4    4    0    0 -0.12523244630E-02 -0.88945971515E-02  0.34715236774E-01  0.35862110372E-01  0.51100000000E-03 0. -1.
         11    1    4    4    0    0  0.21606748413E-01 -0.44198709283E-01  0.84111928858E-01  0.97444626206E-01  0.51100000000E-03 0.  1.
</event>
<event>
 8    1  0.1126407E+005  0.1043930E+01  0.7957747E-01            NaN
         13   -1    0    0    0    0  0.00000000000E+00  0.00000000000E+00  0.74505805969E-08  0.10566000000E+00  0.10566000000E+00 0. -1.
     999900   -1    0    0    0    0 -0.00000000000E+00 -0.00000000000E+00 -0.74505805969E-08  0.93827000000E+00  0.93827000000E+00 0.  1.
     999902    2    1    2    0    0 -0.14082100704E-01 -0.18330959030E-01 -0.12464727941E-01  0.10176678778E+01  0.10173289588E+01 0.  0.
     999903    2    3    3    0    0 -0.21447392514E-01 -0.12751224620E+00 -0.96534571564E-03  0.13081555821E+00  0.19809462394E-01 0.  0.
         14    1    1    2    0    0  0.14082100704E-01  0.18330959030E-01  0.12464727941E-01  0.26262122188E-01  0.00000000000E+00 0. -1.
     999901    1    3    3    0    0  0.73652918102E-02  0.10918128717E+00 -0.11499382225E-01  0.88685231960E+00  0.88000000000E+00 0.  1.
        -11    1    4    4    0    0 -0.15295050850E-01 -0.72111672776E-01  0.87384015780E-02  0.74233770713E-01  0.51100000000E-03 0. -1.
         11    1    4    4    0    0 -0.61523416639E-02 -0.55400573425E-01 -0.97037472936E-02  0.56581787497E-01  0.51100000000E-03 0.  1.
</event>
<event>
 8    1  0.1126407E+005  0.1043930E+01  0.7957747E-01            NaN
         13   -1    0    0    0    0  0.00000000000E+00  0.00000000000E+00  0.74505805969E-08  0.10566000000E+00  0.10566000000E+00 0. -1.
     999900   -1    0    0    0    0 -0.00000000000E+00 -0.00000000000E+00 -0.74505805969E-08  0.93827000000E+00  0.93827000000E+00 0. -1.
     999902    2    1    2    0    0  0.17284015769E-01  0.18826269399E-01 -0.12381199900E-03  0.10183725950E+01  0.10180518461E+01 0.  0.
     999903    2    3    3    0    0 -0.10902469364E+00 -0.33470030095E-01  0.50621484720E-01  0.12637266331E+00  0.20022202151E-01 0.  0.
         14    1    1    2    0    0 -0.17284015769E-01 -0.18826269399E-01  0.12381199900E-03  0.25557404994E-01  0.00000000000E+00 0. -1.
     999901    1    3    3    0    0  0.12630870941E+00  0.52296299494E-01 -0.50745296719E-01  0.89199993170E+00  0.88000000000E+00 0. -1.
        -11    1    4    4    0    0 -0.72917787272E-01 -0.28936387233E-01  0.26920217559E-01  0.82941409688E-01  0.51100000000E-03 0. -1.
         11    1    4    4    0    0 -0.36106906365E-01 -0.45336428618E-02  0.23701267161E-01  0.43431253619E-01  0.51100000000E-03 0.  1.
</event>
<event>
 8    1  0.1126407E+005  0.1043930E+01  0.7957747E-01            NaN
         13   -1    0    0    0    0  0.00000000000E+00  0.00000000000E+00  0.74505805969E-08  0.10566000000E+00  0.10566000000E+00 0.  1.
     999900   -1    0    0    0    0 -0.00000000000E+00 -0.00000000000E+00 -0.74505805969E-08  0.93827000000E+00  0.93827000000E+00 0. -1.
     999902    2    1    2    0    0  0.22774893910E-01 -0.33354720999E-03  0.39777101840E-04  0.10211526290E+01  0.10208985665E+01 0.  0.
     999903    2    3    3    0    0  0.42249494018E-01  0.72460932071E-01  0.10028281098E+00  0.13226176840E+00  0.20023156124E-01 0.  0.
         14    1    1    2    0    0 -0.22774893910E-01  0.33354720999E-03 -0.39777101840E-04  0.22777370976E-01  0.00000000000E+00 0.  1.
     999901    1    3    3    0    0 -0.19474600108E-01 -0.72794479281E-01 -0.10024303387E+00  0.88889086063E+00  0.88000000000E+00 0. -1.
        -11    1    4    4    0    0  0.33604896690E-01  0.43860873897E-01  0.54662859782E-01  0.77726151976E-01  0.51100000000E-03 0.  1.
         11    1    4    4    0    0  0.86445973283E-02  0.28600058175E-01  0.45619951195E-01  0.54535616422E-01  0.51100000000E-03 0. -1.
</event>
<event>
 8    1  0.1126407E+005  0.1043930E+01  0.7957747E-01            NaN
         13   -1    0    0    0    0  0.00000000000E+00  0.00000000000E+00  0.74505805969E-08  0.10566000000E+00  0.10566000000E+00 0. -1.
     999900   -1    0    0    0    0 -0.00000000000E+00 -0.00000000000E+00 -0.74505805969E-08  0.93827000000E+00  0.93827000000E+00 0.  1.
     999902    2    1    2    0    0  0.17697673750E-01  0.12382355960E-01  0.96601425164E-02  0.10202688769E+01  0.10199944766E+01 0.  0.
     999903    2    3    3    0    0 -0.40130620265E-01 -0.27686049895E-01  0.11945127046E+00  0.13066015358E+00  0.20651529661E-01 0.  0.
         14    1    1    2    0    0 -0.17697673750E-01 -0.12382355960E-01 -0.96601425164E-02  0.23661123150E-01  0.00000000000E+00 0. -1.
     999901    1    3    3    0    0  0.57828294015E-01  0.40068405855E-01 -0.10979112795E+00  0.88960872327E+00  0.88000000000E+00 0.  1.
        -11    1    4    4    0    0 -0.38391092141E-02  0.33964654160E-02  0.12432200188E-01  0.13457171300E-01  0.51100000000E-03 0.  1.
         11    1    4    4    0    0 -0.36291511051E-01 -0.31082515311E-01  0.10701907028E+00  0.11720298228E+00  0.51100000000E-03 0. -1.
</event>
<event>
 8    1  0.1126407E+005  0.1043930E+01  0.7957747E-01            NaN
         13   -1    0    0    0    0  0.00000000000E+00  0.00000000000E+00  0.74505805969E-08  0.10566000000E+00  0.10566000000E+00 0. -1.
     999900   -1    0    0    0    0 -0.00000000000E+00 -0.00000000000E+00 -0.74505805969E-08  0.93827000000E+00  0.93827000000E+00 0.  1.
     999902    2    1    2    0    0  0.16687418611E-01 -0.22217858990E-02  0.17123553059E-01  0.10199170380E+01  0.10196343179E+01 0.  0.
     999903    2    3    3    0    0 -0.33899735236E-01  0.71295837921E-01  0.10270811356E+00  0.13127277956E+00  0.21243763975E-01 0.  0.
         14    1    1    2    0    0 -0.16687418611E-01  0.22217858990E-02 -0.17123553059E-01  0.24012961955E-01  0.00000000000E+00 0.  1.
     999901    1    3    3    0    0  0.50587153847E-01 -0.73517623820E-01 -0.85584560500E-01  0.88864425849E+00  0.88000000000E+00 0.  1.
        -11    1    4    4    0    0 -0.15464953716E-01  0.27560726987E-01  0.58076387109E-01  0.66120241425E-01  0.51100000000E-03 0. -1.
         11    1    4    4    0    0 -0.18434781519E-01  0.43735110934E-01  0.44631726451E-01  0.65152538132E-01  0.51100000000E-03 0.  1.
</event>
<event>
 8    1  0.1126407E+005  0.1043930E+01  0.7957747E-01            NaN
         13   -1    0    0    0    0  0.00000000000E+00  0.00000000000E+00  0.74505805969E-08  0.10566000000E+00  0.10566000000E+00 0. -1.
     999900   -1    0    0    0    0 -0.00000000000E+00 -0.00000000000E+00 -0.74505805969E-08  0.93827000000E+00  0.93827000000E+00 0. -1.
     999902    2    1    2    0    0 -0.63538563574E-02 -0.60048827223E-02 -0.14015168218E-01  0.10274116754E+01  0.10272788792E+01 0.  0.
     999903    2    3    3    0    0  0.80021512828E-01 -0.87606261383E-01  0.63468983292E-01  0.13605132003E+00  0.20083582690E-01 0.  0.
         14    1    1    2    0    0  0.63538563574E-02  0.60048827223E-02  0.14015168218E-01  0.16518324591E-01  0.00000000000E+00 0. -1.
     999901    1    3    3    0    0 -0.86375369186E-01  0.81601378661E-01 -0.77484151510E-01  0.89136035538E+00  0.88000000000E+00 0. -1.
        -11    1    4    4    0    0  0.31047541547E-01 -0.45131574599E-01  0.21652752332E-01  0.58905956121E-01  0.51100000000E-03 0.  1.
         11    1    4    4    0    0  0.48973971281E-01 -0.42474686784E-01  0.41816230960E-01  0.77145363912E-01  0.51100000000E-03 0. -1.
</event>
<event>
 8    1  0.1126407E+005  0.1043930E+01  0.7957747E-01            NaN
         13   -1    0    0    0    0  0.00000000000E+00  0.00000000000E+00  0.74505805969E-08  0.10566000000E+00  0.10566000000E+00 0. -1.
     999900   -1    0    0    0    0 -0.00000000000E+00 -0.00000000000E+00 -0.74505805969E-08  0.93827000000E+00  0.93827000000E+00 0. -1.
     999902    2    1    2    0    0  0.15008358543E-01 -0.16225536879E-01  0.12102496526E-01  0.10187310061E+01  0.10184193014E+01 0.  0.
     999903    2    3    3    0    0 -0.81482591572E-01 -0.67262789170E-01 -0.68855272156E-01  0.12829882735E+00  0.23576366566E-01 0.  0.
         14    1    1    2    0    0 -0.15008358543E-01  0.16225536879E-01 -0.12102496526E-01  0.25198993935E-01  0.00000000000E+00 0. -1.
     999901    1    3    3    0    0  0.96490950114E-01  0.51037252291E-01  0.80957768683E-01  0.89043217871E+00  0.88000000000E+00 0.  1.
        -11    1    4    4    0    0 -0.51616215384E-01 -0.28910895416E-01 -0.43781089147E-01  0.73601076433E-01  0.51100000000E-03 0.  1.
         11    1    4    4    0    0 -0.29866376188E-01 -0.38351893754E-01 -0.25074183009E-01  0.54697750920E-01  0.51100000000E-03 0. -1.
</event>
<event>
 8    1  0.1126407E+005  0.1043930E+01  0.7957747E-01            NaN
         13   -1    0    0    0    0  0.00000000000E+00  0.00000000000E+00  0.74505805969E-08  0.10566000000E+00  0.10566000000E+00 0.  1.
     999900   -1    0    0    0    0 -0.00000000000E+00 -0.00000000000E+00 -0.74505805969E-08  0.93827000000E+00  0.93827000000E+00 0.  1.
     999902    2    1    2    0    0 -0.15671532247E-01 -0.18447623708E-01  0.11403097203E-01  0.10171729006E+01  0.10168209121E+01 0.  0.
     999903    2    3    3    0    0 -0.94973527585E-02  0.12670546502E-02 -0.12448822178E+00  0.12650279352E+00  0.20342916923E-01 0.  0.
         14    1    1    2    0    0  0.15671532247E-01  0.18447623708E-01 -0.11403097203E-01  0.26757099418E-01  0.00000000000E+00 0. -1.
     999901    1    3    3    0    0 -0.61741794885E-02 -0.19714678359E-01  0.13589131899E+00  0.89067010706E+00  0.88000000000E+00 0. -1.
        -11    1    4    4    0    0 -0.42345663275E-02 -0.30141228806E-02 -0.11321715147E+00  0.11333755334E+00  0.51100000000E-03 0. -1.
         11    1    4    4    0    0 -0.52627864310E-02  0.42811775307E-02 -0.11271070315E-01  0.13165240184E-01  0.51100000000E-03 0.  1.
</event>
<event>
 8    1  0.1126407E+005  0.1043930E+01  0.7957747E-01            NaN
         13   -1    0    0    0    0  0.00000000000E+00  0.00000000000E+00  0.74505805969E-08  0.10566000000E+00  0.10566000000E+00 0. -1.
     999900   -1    0    0    0    0 -0.00000000000E+00 -0.00000000000E+00 -0.74505805969E-08  0.93827000000E+00  0.93827000000E+00 0. -1.
     999902    2    1    2    0    0 -0.10274798813E-01  0.21054247501E-01  0.91060070847E-03  0.10204847015E+01  0.10202153420E+01 0.  0.
     999903    2    3    3    0    0 -0.15870774160E-01 -0.76895285681E-01  0.10087070942E+00  0.12940813389E+00  0.20169250484E-01 0.  0.
         14    1    1    2    0    0  0.10274798813E-01 -0.21054247501E-01 -0.91060070847E-03  0.23445298509E-01  0.00000000000E+00 0.  1.
     999901    1    3    3    0    0  0.55959753465E-02  0.97949533182E-01 -0.99960108716E-01  0.89107656760E+00  0.88000000000E+00 0. -1.
        -11    1    4    4    0    0 -0.21690109539E-02 -0.56130739031E-01  0.69107058328E-01  0.89058470144E-01  0.51100000000E-03 0. -1.
         11    1    4    4    0    0 -0.13701763206E-01 -0.20764546650E-01  0.31763651097E-01  0.40349663747E-01  0.51100000000E-03 0.  1.
</event>
<event>
 8    1  0.1126407E+005  0.1043930E+01  0.7957747E-01            NaN
         13   -1    0    0    0    0  0.00000000000E+00  0.00000000000E+00  0.74505805969E-08  0.10566000000E+00  0.10566000000E+00 0.  1.
     999900   -1    0    0    0    0 -0.00000000000E+00 -0.00000000000E+00 -0.74505805969E-08  0.93827000000E+00  0.93827000000E+00 0.  1.
     999902    2    1    2    0    0 -0.16326387958E-01 -0.10721103604E-01  0.78532131682E-03  0.10243823726E+01  0.10241958483E+01 0.  0.
     999903    2    3    3    0    0  0.23862619656E-01 -0.55779238497E-01  0.11831909796E+00  0.13451745001E+00  0.20366328846E-01 0.  0.
         14    1    1    2    0    0  0.16326387958E-01  0.10721103604E-01 -0.78532131682E-03  0.19547627371E-01  0.00000000000E+00 0.  1.
     999901    1    3    3    0    0 -0.40189007614E-01  0.45058134893E-01 -0.11753377665E+00  0.88986492262E+00  0.88000000000E+00 0.  1.
        -11    1    4    4    0    0  0.88289003377E-02 -0.19040106448E-01  0.22362126330E-01  0.30672478702E-01  0.51100000000E-03 0. -1.
         11    1    4    4    0    0  0.15033719318E-01 -0.36739132049E-01  0.95956971633E-01  0.10384497131E+00  0.51100000000E-03 0.  1.
</event>
<event>
 8    1  0.1126407E+005  0.1043930E+01  0.7957747E-01            NaN
         13   -1    0    0    0    0  0.00000000000E+00  0.00000000000E+00  0.74505805969E-08  0.10566000000E+00  0.10566000000E+00 0. -1.
     999900   -1    0    0    0    0 -0.00000000000E+00 -0.00000000000E+00 -0.74505805969E-08  0.93827000000E+00  0.93827000000E+00 0.  1.
     999902    2    1    2    0    0  0.21670915514E-01 -0.28227616305E-03  0.10280672411E-01  0.10199424932E+01  0.10196603792E+01 0.  0.
     999903    2    3    3    0    0 -0.12586726853E-01 -0.12821294625E+00 -0.62894223947E-03  0.12996560464E+00  0.17137022525E-01 0.  0.
         14    1    1    2    0    0 -0.21670915514E-01  0.28227616305E-03 -0.10280672411E-01  0.23987506838E-01  0.00000000000E+00 0. -1.
     999901    1    3    3    0    0  0.34257642367E-01  0.12793067009E+00  0.10909614651E-01  0.88997688852E+00  0.88000000000E+00 0. -1.
        -11    1    4    4    0    0  0.28199375203E-02 -0.27284519120E-01 -0.44606607548E-02  0.27794885260E-01  0.51100000000E-03 0.  1.
         11    1    4    4    0    0 -0.15406664373E-01 -0.10092842713E+00  0.38317185153E-02  0.10217071938E+00  0.51100000000E-03 0. -1.
</event>
<event>
 8    1  0.1126407E+005  0.1043930E+01  0.7957747E-01            NaN
         13   -1    0    0    0    0  0.00000000000E+00  0.00000000000E+00  0.74505805969E-08  0.10566000000E+00  0.10566000000E+00 0.  1.
     999900   -1    0    0    0    0 -0.00000000000E+00 -0.00000000000E+00 -0.74505805969E-08  0.93827000000E+00  0.93827000000E+00 0.  1.
     999902    2    1    2    0    0 -0.22182738735E-01 -0.60107724693E-02 -0.29462910965E-02  0.10207592444E+01  0.10204962279E+01 0.  0.
     999903    2    3    3    0    0 -0.19746528091E-01  0.10594256849E+00 -0.72031453600E-01  0.13097711076E+00  0.18780842521E-01 0.  0.
         14    1    1    2    0    0  0.22182738735E-01  0.60107724693E-02  0.29462910965E-02  0.23170755592E-01  0.00000000000E+00 0.  1.
     999901    1    3    3    0    0 -0.24362106445E-02 -0.11195334096E+00  0.69085162503E-01  0.88978213364E+00  0.88000000000E+00 0. -1.
        -11    1    4    4    0    0  0.10424543335E-02  0.36618391852E-01 -0.29434799131E-01  0.46996402562E-01  0.51100000000E-03 0. -1.
         11    1    4    4    0    0 -0.20788982424E-01  0.69324176641E-01 -0.42596654469E-01  0.83980708202E-01  0.51100000000E-03 0.  1.
</event>
<event>
 8    1  0.1126407E+005  0.1043930E+01  0.7957747E-01            NaN
         13   -1    0    0    0    0  0.00000000000E+00  0.00000000000E+00  0.74505805969E-08  0.10566000000E+00  0.10566000000E+00 0.  1.
     999900   -1    0    0    0    0 -0.00000000000E+00 -0.00000000000E+00 -0.74505805969E-08  0.93827000000E+00  0.93827000000E+00 0.  1.
     999902    2    1    2    0    0 -0.50260190979E-02  0.16781830689E-01  0.14941430424E-01  0.10209052947E+01  0.10206456211E+01 0.  0.
     999903    2    3    3    0    0  0.11637098539E+00  0.11023054638E-01  0.56321309697E-01  0.13158943937E+00  0.21908369473E-01 0.  0.
         14    1    1    2    0    0  0.50260190979E-02 -0.16781830689E-01 -0.14941430424E-01  0.23024705261E-01  0.00000000000E+00 0.  1.
     999901    1    3    3    0    0 -0.12139700449E+00  0.57587760516E-02 -0.41379879274E-01  0.88931585537E+00  0.88000000000E+00 0.  1.
        -11    1    4    4    0    0  0.10628591292E+00  0.10445933823E-01  0.57687063811E-01  0.12138315892E+00  0.51100000000E-03 0.  1.
         11    1    4    4    0    0  0.10085072476E-01  0.57712081464E-03 -0.13657541130E-02  0.10206280447E-01  0.51100000000E-03 0. -1.
</event>
<event>
 8    1  0.1126407E+005  0.1043930E+01  0.7957747E-01            NaN
         13   -1    0    0    0    0  0.00000000000E+00  0.00000000000E+00  0.74505805969E-08  0.10566000000E+00  0.10566000000E+00 0. -1.
     999900   -1    0    0    0    0 -0.00000000000E+00 -0.00000000000E+00 -0.74505805969E-08  0.93827000000E+00  0.93827000000E+00 0.  1.
     999902    2    1    2    0    0  0.19966116291E-01  0.13647570903E-01 -0.40300241617E-03  0.10197418954E+01  0.10194549862E+01 0.  0.
     999903    2    3    3    0    0 -0.75430569485E-01  0.10390752330E+00  0.27482697292E-02  0.12999062841E+00  0.20086470014E-01 0.  0.
         14    1    1    2    0    0 -0.19966116291E-01 -0.13647570903E-01  0.40300241617E-03  0.24188104561E-01  0.00000000000E+00 0.  1.
     999901    1    3    3    0    0  0.95396685776E-01 -0.90259952393E-01 -0.31512721454E-02  0.88975126703E+00  0.88000000000E+00 0. -1.
        -11    1    4    4    0    0 -0.31704784176E-01  0.42451773347E-01  0.10994949669E-01  0.54115584070E-01  0.51100000000E-03 0. -1.
         11    1    4    4    0    0 -0.43725785309E-01  0.61455749949E-01 -0.82466799397E-02  0.75875044341E-01  0.51100000000E-03 0.  1.
</event>
<event>
 8    1  0.1126407E+005  0.1043930E+01  0.7957747E-01            NaN
         13   -1    0    0    0    0  0.00000000000E+00  0.00000000000E+00  0.74505805969E-08  0.10566000000E+00  0.10566000000E+00 0.  1.
     999900   -1    0    0    0    0 -0.00000000000E+00 -0.00000000000E+00 -0.74505805969E-08  0.93827000000E+00  0.93827000000E+00 0. -1.
     999902    2    1    2    0    0  0.15739546728E-01  0.12972151059E-02  0.16503714346E-01  0.10210873056E+01  0.10208317673E+01 0.  0.
     999903    2    3    3    0    0  0.42069972514E-01 -0.76948861401E-02  0.12543929014E+00  0.13393393171E+00  0.19343957534E-01 0.  0.
         14    1    1    2    0    0 -0.15739546728E-01 -0.12972151059E-02 -0.16503714346E-01  0.22842694356E-01  0.00000000000E+00 0. -1.
     999901    1    3    3    0    0 -0.26330425786E-01  0.89921012460E-02 -0.10893557579E+00  0.88715337393E+00  0.88000000000E+00 0. -1.
        -11    1    4    4    0    0  0.23257711436E-01  0.54663510002E-02  0.67807551496E-01  0.71895252245E-01  0.51100000000E-03 0. -1.
         11    1    4    4    0    0  0.18812261078E-01 -0.13161237140E-01  0.57631738643E-01  0.62038679466E-01  0.51100000000E-03 0.  1.
</event>
<event>
 8    1  0.1126407E+005  0.1043930E+01  0.7957747E-01            NaN
         13   -1    0    0    0    0  0.00000000000E+00  0.00000000000E+00  0.74505805969E-08  0.10566000000E+00  0.10566000000E+00 0. -1.
     999900   -1    0    0    0    0 -0.00000000000E+00 -0.00000000000E+00 -0.74505805969E-08  0.93827000000E+00  0.93827000000E+00 0.  1.
     999902    2    1    2    0    0 -0.16033094641E-01 -0.61498566131E-02 -0.16464849177E-01  0.10201398315E+01  0.10198623945E+01 0.  0.
     999903    2    3    3    0    0 -0.43099280154E-02 -0.76977029380E-01  0.10184220033E+00  0.12932532834E+00  0.20227907703E-01 0.  0.
         14    1    1    2    0    0  0.16033094641E-01  0.61498566131E-02  0.16464849177E-01  0.23790168527E-01  0.00000000000E+00 0. -1.
     999901    1    3    3    0    0 -0.11723166625E-01  0.70827172767E-01 -0.11830704950E+00  0.89081450314E+00  0.88000000000E+00 0.  1.
        -11    1    4    4    0    0 -0.11692462607E-02 -0.91487457986E-02  0.25668764450E-01  0.27280272650E-01  0.51100000000E-03 0.  1.
         11    1    4    4    0    0 -0.31406817547E-02 -0.67828283581E-01  0.76173435876E-01  0.10204505568E+00  0.51100000000E-03 0. -1.
</event>
<event>
 8    1  0.1126407E+005  0.1043930E+01  0.7957747E-01            NaN
         13   -1    0    0    0    0  0.00000000000E+00  0.00000000000E+00  0.74505805969E-08  0.10566000000E+00  0.10566000000E+00 0.  1.
     999900   -1    0    0    0    0 -0.00000000000E+00 -0.00000000000E+00 -0.74505805969E-08  0.93827000000E+00  0.93827000000E+00 0. -1.
     999902    2    1    2    0    0 -0.11871485507E-01  0.51167109782E-02  0.19731476688E-01  0.10203409332E+01  0.10200682212E+01 0.  0.
     999903    2    3    3    0    0  0.51992669973E-03 -0.11976950221E+00  0.47476458925E-01  0.13100415933E+00  0.23729130359E-01 0.  0.
         14    1    1    2    0    0  0.11871485507E-01 -0.51167109782E-02 -0.19731476688E-01  0.23589066783E-01  0.00000000000E+00 0. -1.
     999901    1    3    3    0    0 -0.12391412206E-01  0.12488621319E+00 -0.27744982236E-01  0.88933677388E+00  0.88000000000E+00 0.  1.
        -11    1    4    4    0    0 -0.95809376968E-02 -0.85446895649E-01  0.29064644831E-01  0.90763324329E-01  0.51100000000E-03 0. -1.
         11    1    4    4    0    0  0.10100864397E-01 -0.34322606561E-01  0.18411814094E-01  0.40240835005E-01  0.51100000000E-03 0.  1.
</event>
<event>
 8    1  0.1126407E+005  0.1043930E+01  0.7957747E-01            NaN
         13   -1    0    0    0    0  0.00000000000E+00  0.00000000000E+00  0.74505805969E-08  0.10566000000E+00  0.10566000000E+00 0. -1.
     999900   -1    0    0    0    0 -0.00000000000E+00 -0.00000000000E+00 -0.74505805969E-08  0.93827000000E+00  0.93827000000E+00 0.  1.
     999902    2    1    2    0    0  0.66146595180E-02 -0.21389439567E-01 -0.65868449382E-02  0.10205922972E+01  0.10203254328E+01 0.  0.
     999903    2    3    3    0    0  0.11370435636E+00 -0.15607717584E-02  0.62539768683E-01  0.13118807642E+00  0.19182597940E-01 0.  0.
         14    1    1    2    0    0 -0.66146595180E-02  0.21389439567E-01  0.65868449382E-02  0.23337702795E-01  0.00000000000E+00 0. -1.
     999901    1    3    3    0    0 -0.10708969684E+00 -0.19828667809E-01 -0.69126613621E-01  0.88940422078E+00  0.88000000000E+00 0.  1.
        -11    1    4    4    0    0  0.63492472099E-01  0.22706532034E-02  0.45014555183E-01  0.77865404247E-01  0.51100000000E-03 0. -1.
         11    1    4    4    0    0  0.50211884263E-01 -0.38314249618E-02  0.17525213500E-01  0.53322672174E-01  0.51100000000E-03 0.  1.
</event>
<event>
 8    1  0.1126407E+005  0.1043930E+01  0.7957747E-01            NaN
         13   -1    0    0    0    0  0.00000000000E+00  0.00000000000E+00  0.74505805969E-08  0.10566000000E+00  0.10566000000E+00 0. -1.
     999900   -1    0    0    0    0 -0.00000000000E+00 -0.00000000000E+00 -0.74505805969E-08  0.93827000000E+00  0.93827000000E+00 0.  1.
     999902    2    1    2    0    0  0.20783706663E-01  0.11412663271E-01  0.34778292574E-02  0.10199653043E+01  0.10196837330E+01 0.  0.
     999903    2    3    3    0    0 -0.40285370646E-01  0.97233005230E-01 -0.74012259252E-01  0.13030285304E+00  0.20587632115E-01 0.  0.
         14    1    1    2    0    0 -0.20783706663E-01 -0.11412663271E-01 -0.34778292574E-02  0.23964695740E-01  0.00000000000E+00 0.  1.
     999901    1    3    3    0    0  0.61069077309E-01 -0.85820341959E-01  0.77490088509E-01  0.88966245122E+00  0.88000000000E+00 0. -1.
        -11    1    4    4    0    0 -0.26845022325E-01  0.38291056151E-01 -0.31064488243E-01  0.56143777532E-01  0.51100000000E-03 0. -1.
         11    1    4    4    0    0 -0.13440348321E-01  0.58941949079E-01 -0.42947771009E-01  0.74159075505E-01  0.51100000000E-03 0.  1.
</event>
<event>
 8    1  0.1126407E+005  0.1043930E+01  0.7957747E-01            NaN
         13   -1    0    0    0    0  0.00000000000E+00  0.00000000000E+00  0.74505805969E-08  0.10566000000E+00  0.10566000000E+00 0.  1.
     999900   -1    0    0    0    0 -0.00000000000E+00 -0.00000000000E+00 -0.74505805969E-08  0.93827000000E+00  0.93827000000E+00 0.  1.
     999902    2    1    2    0    0 -0.10678820818E-01  0.22588211250E-01 -0.10134349527E-03  0.10189445088E+01  0.10186381287E+01 0.  0.
     999903    2    3    3    0    0 -0.70080108445E-01 -0.15958531667E-01  0.10605867007E+00  0.12974019432E+00  0.20449454549E-01 0.  0.
         14    1    1    2    0    0  0.10678820818E-01 -0.22588211250E-01  0.10134349527E-03  0.24985491230E-01  0.00000000000E+00 0.  1.
     999901    1    3    3    0    0  0.59401287628E-01  0.38546742916E-01 -0.10616001357E+00  0.88920431445E+00  0.88000000000E+00 0.  1.
        -11    1    4    4    0    0 -0.56928915410E-01 -0.11399985690E-01  0.69162873224E-01  0.90302963612E-01  0.51100000000E-03 0.  1.
         11    1    4    4    0    0 -0.13151193036E-01 -0.45585459771E-02  0.36895796847E-01  0.39437230705E-01  0.51100000000E-03 0. -1.
</event>
<event>
 8    1  0.1126407E+005  0.1043930E+01  0.7957747E-01            NaN
         13   -1    0    0    0    0  0.00000000000E+00  0.00000000000E+00  0.74505805969E-08  0.10566000000E+00  0.10566000000E+00 0. -1.
     999900   -1    0    0    0    0 -0.00000000000E+00 -0.00000000000E+00 -0.74505805969E-08  0.93827000000E+00  0.93827000000E+00 0. -1.
     999902    2    1    2    0    0  0.17635348812E-01  0.61013887230E-02 -0.15743185121E-01  0.10195152432E+01  0.10192228661E+01 0.  0.
     999903    2    3    3    0    0 -0.70756555195E-01  0.61783493439E-01 -0.88257641064E-01  0.13037410041E+00  0.19603690619E-01 0.  0.
         14    1    1    2    0    0 -0.17635348812E-01 -0.61013887230E-02  0.15743185121E-01  0.24414756805E-01  0.00000000000E+00 0. -1.
     999901    1    3    3    0    0  0.88391904007E-01 -0.55682104716E-01  0.72514455943E-01  0.88914114279E+00  0.88000000000E+00 0.  1.
        -11    1    4    4    0    0 -0.41150452589E-02 -0.10226249449E-02 -0.27172101710E-02  0.50619868998E-02  0.51100000000E-03 0.  1.
         11    1    4    4    0    0 -0.66641509936E-01  0.62806118384E-01 -0.85540430893E-01  0.12531211351E+00  0.51100000000E-03 0. -1.
</event>
<event>
 8    1  0.1126407E+005  0.1043930E+01  0.7957747E-01            NaN
         13   -1    0    0    0    0  0.00000000000E+00  0.00000000000E+00  0.74505805969E-08  0.10566000000E+00  0.10566000000E+00 0. -1.
     999900   -1    0    0    0    0 -0.00000000000E+00 -0.00000000000E+00 -0.74505805969E-08  0.93827000000E+00  0.93827000000E+00 0.  1.
     999902    2    1    2    0    0 -0.10339898020E-01 -0.17242658484E-01  0.13470247854E-01  0.10197293732E+01  0.10194421632E+01 0.  0.
     999903    2    3    3    0    0 -0.49946288300E-01  0.31503558762E-01  0.11587003517E+00  0.13156802728E+00  0.19929245407E-01 0.  0.
         14    1    1    2    0    0  0.10339898020E-01  0.17242658484E-01 -0.13470247854E-01  0.24200626850E-01  0.00000000000E+00 0.  1.
     999901    1    3    3    0    0  0.39606390280E-01 -0.48746217246E-01 -0.10239978732E+00  0.88816134587E+00  0.88000000000E+00 0.  1.
        -11    1    4    4    0    0 -0.40641911940E-01  0.15287733691E-01  0.76054825235E-01  0.87578977900E-01  0.51100000000E-03 0.  1.
         11    1    4    4    0    0 -0.93043763606E-02  0.16215825071E-01  0.39815209940E-01  0.43989049384E-01  0.51100000000E-03 0. -1.
</event>
<event>
 8    1  0.1126407E+005  0.1043930E+01  0.7957747E-01            NaN
         13   -1    0    0    0    0  0.00000000000E+00  0.00000000000E+00  0.74505805969E-08  0.10566000000E+00  0.10566000000E+00 0.  1.
     999900   -1    0    0    0    0 -0.00000000000E+00 -0.00000000000E+00 -0.74505805969E-08  0.93827000000E+00  0.93827000000E+00 0. -1.
     999902    2    1    2    0    0 -0.13826628708E-01 -0.33309224226E-02  0.17819458600E-01  0.10211307936E+01  0.10208762383E+01 0.  0.
     999903    2    3    3    0    0  0.10989735976E+00 -0.57288073681E-01 -0.31502877356E-01  0.12947408150E+00  0.20291708419E-01 0.  0.
         14    1    1    2    0    0  0.13826628708E-01  0.33309224226E-02 -0.17819458600E-01  0.22799206355E-01  0.00000000000E+00 0. -1.
     999901    1    3    3    0    0 -0.12372398846E+00  0.53957151258E-01  0.49322335956E-01  0.89165671215E+00  0.88000000000E+00 0.  1.
        -11    1    4    4    0    0  0.79710262433E-01 -0.38461170971E-01 -0.13273215051E-01  0.89495401940E-01  0.51100000000E-03 0. -1.
         11    1    4    4    0    0  0.30187097324E-01 -0.18826902710E-01 -0.18229662305E-01  0.39978679558E-01  0.51100000000E-03 0.  1.
</event>
<event>
 8    1  0.1126407E+005  0.1043930E+01  0.7957747E-01            NaN
         13   -1    0    0    0    0  0.00000000000E+00  0.00000000000E+00  0.74505805969E-08  0.10566000000E+00  0.10566000000E+00 0.  1.
     999900   -1    0    0    0    0 -0.00000000000E+00 -0.00000000000E+00 -0.74505805969E-08  0.93827000000E+00  0.93827000000E+00 0.  1.
     999902    2    1    2    0    0  0.14002600983E-01 -0.15913953075E-01  0.40689455042E-02  0.10223456757E+01  0.10221178003E+01 0.  0.
     999903    2    3    3    0    0  0.11566411351E+00 -0.61583572415E-01  0.25428715897E-01  0.13505935382E+00  0.20583632253E-01 0.  0.
         14    1    1    2    0    0 -0.14002600983E-01  0.15913953075E-01 -0.40689455042E-02  0.21584324272E-01  0.00000000000E+00 0.  1.
     999901    1    3    3    0    0 -0.10166151252E+00  0.45669619341E-01 -0.21359770393E-01  0.88728632191E+00  0.88000000000E+00 0. -1.
        -11    1    4    4    0    0  0.88232355598E-01 -0.56380318030E-01  0.20732386557E-01  0.10674165920E+00  0.51100000000E-03 0.  1.
         11    1    4    4    0    0  0.27431757908E-01 -0.52032543855E-02  0.46963293400E-02  0.28317694617E-01  0.51100000000E-03 0. -1.
</event>
<event>
 8    1  0.1126407E+005  0.1043930E+01  0.7957747E-01            NaN
         13   -1    0    0    0    0  0.00000000000E+00  0.00000000000E+00  0.74505805969E-08  0.10566000000E+00  0.10566000000E+00 0.  1.
     999900   -1    0    0    0    0 -0.00000000000E+00 -0.00000000000E+00 -0.74505805969E-08  0.93827000000E+00  0.93827000000E+00 0. -1.
     999902    2    1    2    0    0  0.19812785947E-01  0.54985551348E-02  0.75828972396E-02  0.10220146874E+01  0.10217796927E+01 0.  0.
     999903    2    3    3    0    0 -0.15236449324E-01  0.50670878160E-01 -0.11827585122E+00  0.13122323469E+00  0.20752663898E-01 0.  0.
         14    1    1    2    0    0 -0.19812785947E-01 -0.54985551348E-02 -0.75828972396E-02  0.21915312594E-01  0.00000000000E+00 0. -1.
     999901    1    3    3    0    0  0.35049235271E-01 -0.45172323026E-01  0.12585874846E+00  0.89079145271E+00  0.88000000000E+00 0.  1.
        -11    1    4    4    0    0 -0.99017282124E-02  0.58153099067E-02 -0.20146111781E-01  0.23194589710E-01  0.51100000000E-03 0.  1.
         11    1    4    4    0    0 -0.53347211113E-02  0.44855568254E-01 -0.98129739443E-01  0.10802864498E+00  0.51100000000E-03 0. -1.
</event>
<event>
 8    1  0.1126407E+005  0.1043930E+01  0.7957747E-01            NaN
         13   -1    0    0    0    0  0.00000000000E+00  0.00000000000E+00  0.74505805969E-08  0.10566000000E+00  0.10566000000E+00 0. -1.
     999900   -1    0    0    0    0 -0.00000000000E+00 -0.00000000000E+00 -0.74505805969E-08  0.93827000000E+00  0.93827000000E+00 0. -1.
     999902    2    1    2    0    0  0.19381033587E-01  0.13613533972E-01 -0.87222659032E-03  0.10202295032E+01  0.10199541782E+01 0.  0.
     999903    2    3    3    0    0  0.73691555142E-01  0.23784536186E-01 -0.10538956999E+00  0.13232356385E+00  0.20159727812E-01 0.  0.
         14    1    1    2    0    0 -0.19381033587E-01 -0.13613533972E-01  0.87222659032E-03  0.23700496816E-01  0.00000000000E+00 0. -1.
     999901    1    3    3    0    0 -0.54310521556E-01 -0.10171002214E-01  0.10451734340E+00  0.88790593934E+00  0.88000000000E+00 0.  1.
        -11    1    4    4    0    0  0.39471589251E-01  0.91525554933E-02 -0.39161190459E-01  0.56352778008E-01  0.51100000000E-03 0. -1.
         11    1    4    4    0    0  0.34219965891E-01  0.14631980693E-01 -0.66228379532E-01  0.75970785839E-01  0.51100000000E-03 0.  1.
</event>
<event>
 8    1  0.1126407E+005  0.1043930E+01  0.7957747E-01            NaN
         13   -1    0    0    0    0  0.00000000000E+00  0.00000000000E+00  0.74505805969E-08  0.10566000000E+00  0.10566000000E+00 0. -1.
     999900   -1    0    0    0    0 -0.00000000000E+00 -0.00000000000E+00 -0.74505805969E-08  0.93827000000E+00  0.93827000000E+00 0.  1.
     999902    2    1    2    0    0 -0.16611141329E-01  0.84157583940E-02 -0.17872721461E-01  0.10181193592E+01  0.10177921401E+01 0.  0.
     999903    2    3    3    0    0  0.50422710207E-01  0.78275383795E-01 -0.88362258810E-01  0.13000749723E+00  0.20605221208E-01 0.  0.
         14    1    1    2    0    0  0.16611141329E-01 -0.84157583940E-02  0.17872721461E-01  0.25810640791E-01  0.00000000000E+00 0.  1.
     999901    1    3    3    0    0 -0.67033851536E-01 -0.69859625401E-01  0.70489537349E-01  0.88811186198E+00  0.88000000000E+00 0.  1.
        -11    1    4    4    0    0  0.36076697022E-01  0.68754338288E-01 -0.66933179366E-01  0.10251340753E+00  0.51100000000E-03 0.  1.
         11    1    4    4    0    0  0.14346013185E-01  0.95210455074E-02 -0.21429079444E-01  0.27494089704E-01  0.51100000000E-03 0. -1.
</event>
<event>
 8    1  0.1126407E+005  0.1043930E+01  0.7957747E-01            NaN
         13   -1    0    0    0    0  0.00000000000E+00  0.00000000000E+00  0.74505805969E-08  0.10566000000E+00  0.10566000000E+00 0. -1.
     999900   -1    0    0    0    0 -0.00000000000E+00 -0.00000000000E+00 -0.74505805969E-08  0.93827000000E+00  0.93827000000E+00 0.  1.
     999902    2    1    2    0    0 -0.17827755793E-01  0.17011555562E-02  0.23834127738E-01  0.10141174447E+01  0.10136791422E+01 0.  0.
     999903    2    3    3    0    0 -0.10329722472E+00  0.15346698647E-01 -0.65875570065E-01  0.12533228461E+00  0.21511695417E-01 0.  0.
         14    1    1    2    0    0  0.17827755793E-01 -0.17011555562E-02 -0.23834127738E-01  0.29812555272E-01  0.00000000000E+00 0. -1.
     999901    1    3    3    0    0  0.85469468928E-01 -0.13645543091E-01  0.89709697803E-01  0.88878516012E+00  0.88000000000E+00 0. -1.
        -11    1    4    4    0    0 -0.49619446208E-01  0.18202432047E-01 -0.31711198761E-01  0.61638293473E-01  0.51100000000E-03 0.  1.
         11    1    4    4    0    0 -0.53677778513E-01 -0.28557333998E-02 -0.34164371304E-01  0.63693991137E-01  0.51100000000E-03 0. -1.
</event>
<event>
 8    1  0.1126407E+005  0.1043930E+01  0.7957747E-01            NaN
         13   -1    0    0    0    0  0.00000000000E+00  0.00000000000E+00  0.74505805969E-08  0.10566000000E+00  0.10566000000E+00 0. -1.
     999900   -1    0    0    0    0 -0.00000000000E+00 -0.00000000000E+00 -0.74505805969E-08  0.93827000000E+00  0.93827000000E+00 0. -1.
     999902    2    1    2    0    0  0.23105925061E-01 -0.34503102818E-02 -0.35217885090E-02  0.10203039252E+01  0.10200303468E+01 0.  0.
     999903    2    3    3    0    0 -0.11058275089E+00 -0.71378135562E-02 -0.61192332374E-01  0.12833298884E+00  0.21103585154E-01 0.  0.
         14    1    1    2    0    0 -0.23105925061E-01  0.34503102818E-02  0.35217885090E-02  0.23626074754E-01  0.00000000000E+00 0.  1.
     999901    1    3    3    0    0  0.13368867595E+00  0.36875032744E-02  0.57670543865E-01  0.89197093640E+00  0.88000000000E+00 0. -1.
        -11    1    4    4    0    0 -0.89571130047E-01 -0.52793843357E-02 -0.39392592630E-01  0.97994370818E-01  0.51100000000E-03 0.  1.
         11    1    4    4    0    0 -0.21011620847E-01 -0.18584292205E-02 -0.21799739744E-01  0.30338618025E-01  0.51100000000E-03 0. -1.
</event>
<event>
 8    1  0.1126407E+005  0.1043930E+01  0.7957747E-01            NaN
         13   -1    0    0    0    0  0.00000000000E+00  0.00000000000E+00  0.74505805969E-08  0.10566000000E+00  0.10566000000E+00 0. -1.
     999900   -1    0    0    0    0 -0.00000000000E+00 -0.00000000000E+00 -0.74505805969E-08  0.93827000000E+00  0.93827000000E+00 0. -1.
     999902    2    1    2    0    0  0.13645475512E-01  0.10430994892E-01 -0.16654347840E-01  0.10200057036E+01  0.10197250921E+01 0.  0.
     999903    2    3    3    0    0 -0.89873544550E-01 -0.24134997721E-01  0.85027519454E-01  0.12745307350E+00  0.18837588880E-01 0.  0.
         14    1    1    2    0    0 -0.13645475512E-01 -0.10430994892E-01  0.16654347840E-01  0.23924296403E-01  0.00000000000E+00 0. -1.
     999901    1    3    3    0    0  0.10351902006E+00  0.34565992613E-01 -0.10168186729E+00  0.89255263010E+00  0.88000000000E+00 0.  1.
        -11    1    4    4    0    0 -0.32634677316E-01  0.68577467738E-04  0.25822642193E-01  0.41618467501E-01  0.51100000000E-03 0.  1.
         11    1    4    4    0    0 -0.57238867234E-01 -0.24203575189E-01  0.59204877261E-01  0.85834605997E-01  0.51100000000E-03 0. -1.
</event>
<event>
 8    1  0.1126407E+005  0.1043930E+01  0.7957747E-01            NaN
         13   -1    0    0    0    0  0.00000000000E+00  0.00000000000E+00  0.74505805969E-08  0.10566000000E+00  0.10566000000E+00 0. -1.
     999900   -1    0    0    0    0 -0.00000000000E+00 -0.00000000000E+00 -0.74505805969E-08  0.93827000000E+00  0.93827000000E+00 0.  1.
     999902    2    1    2    0    0 -0.19052041845E-01 -0.47291969203E-02 -0.13402280467E-01  0.10201609713E+01  0.10198840330E+01 0.  0.
     999903    2    3    3    0    0  0.42010736846E-01 -0.99666307937E-01  0.67391402474E-01  0.12927975748E+00  0.21757288880E-01 0.  0.
         14    1    1    2    0    0  0.19052041845E-01  0.47291969203E-02  0.13402280467E-01  0.23769028665E-01  0.00000000000E+00 0.  1.
     999901    1    3    3    0    0 -0.61062778691E-01  0.94937111017E-01 -0.80793682941E-01  0.89088121385E+00  0.88000000000E+00 0.  1.
        -11    1    4    4    0    0  0.32156525379E-01 -0.90529162460E-01  0.53581531729E-01  0.11000369559E+00  0.51100000000E-03 0.  1.
         11    1    4    4    0    0  0.98542114669E-02 -0.91371454769E-02  0.13809870745E-01  0.19276061893E-01  0.51100000000E-03 0. -1.
</event>
<event>
 7    1  0.1126407E+005  0.1043930E+01  0.7957747E-01            NaN
         13   -1    0    0    0    0  0.00000000000E+00  0.00000000000E+00  0.74505805969E-08  0.10566000000E+00  0.10566000000E+00 0.  1.
     999900   -1    0    0    0    0 -0.00000000000E+00 -0.00000000000E+00 -0.74505805969E-08  0.93827000000E+00  0.93827000000E+00 0. -1.
     999902    2    1    2    0    0 -0.23612919797E-01  0.11740117472E-02  0.59070787996E-02  0.10195611292E+01  0.10192698633E+01 0.  0.
         14    1    1    2    0    0  0.23612919797E-01 -0.11740117472E-02 -0.59070787996E-02  0.24368870816E-01  0.00000000000E+00 0. -1.
     999901    1    3    3    0    0  0.77162681666E-01 -0.28965017589E-02 -0.68669986775E-01  0.88604629464E+00  0.88000000000E+00 0. -1.
        -11    1    3    3    0    0 -0.13847167464E-01  0.83513572585E-02 -0.35432806332E-02  0.16562160894E-01  0.51100000000E-03 0.  1.
         11    1    3    3    0    0 -0.86928433999E-01 -0.42808437524E-02  0.78120346208E-01  0.11695267365E+00  0.51100000000E-03 0. -1.
</event>
<event>
 8    1  0.1126407E+005  0.1043930E+01  0.7957747E-01            NaN
         13   -1    0    0    0    0  0.00000000000E+00  0.00000000000E+00  0.74505805969E-08  0.10566000000E+00  0.10566000000E+00 0. -1.
     999900   -1    0    0    0    0 -0.00000000000E+00 -0.00000000000E+00 -0.74505805969E-08  0.93827000000E+00  0.93827000000E+00 0. -1.
     999902    2    1    2    0    0  0.95895525144E-02 -0.12368928161E-01 -0.33312909856E-02  0.10279285188E+01  0.10278039659E+01 0.  0.
     999903    2    3    3    0    0  0.29132846896E-02  0.11456446602E+00 -0.70906837128E-01  0.13623175781E+00  0.19945129293E-01 0.  0.
         14    1    1    2    0    0 -0.95895525144E-02  0.12368928161E-01  0.33312909856E-02  0.16001481210E-01  0.00000000000E+00 0. -1.
     999901    1    3    3    0    0  0.66762678248E-02 -0.12693339418E+00  0.67575546143E-01  0.89169676098E+00  0.88000000000E+00 0.  1.
        -11    1    4    4    0    0  0.27176053393E-02  0.87344077466E-01 -0.43559381732E-01  0.97642481047E-01  0.51100000000E-03 0. -1.
         11    1    4    4    0    0  0.19567935035E-03  0.27220388551E-01 -0.27347455397E-01  0.38589276761E-01  0.51100000000E-03 0.  1.
</event>
<event>
 8    1  0.1126407E+005  0.1043930E+01  0.7957747E-01            NaN
         13   -1    0    0    0    0  0.00000000000E+00  0.00000000000E+00  0.74505805969E-08  0.10566000000E+00  0.10566000000E+00 0. -1.
     999900   -1    0    0    0    0 -0.00000000000E+00 -0.00000000000E+00 -0.74505805969E-08  0.93827000000E+00  0.93827000000E+00 0. -1.
     999902    2    1    2    0    0  0.62949215561E-02 -0.23951123591E-01  0.46049818926E-02  0.10187409505E+01  0.10184294948E+01 0.  0.
     999903    2    3    3    0    0  0.23420142490E-01 -0.54287913872E-01  0.11530570305E+00  0.13112152542E+00  0.20044166385E-01 0.  0.
         14    1    1    2    0    0 -0.62949215561E-02  0.23951123591E-01 -0.46049818926E-02  0.25189049543E-01  0.00000000000E+00 0.  1.
     999901    1    3    3    0    0 -0.17125220934E-01  0.30336790281E-01 -0.11070072116E+00  0.88761942504E+00  0.88000000000E+00 0. -1.
        -11    1    4    4    0    0  0.15078506782E-01 -0.25295051935E-01  0.76441971849E-01  0.81919699709E-01  0.51100000000E-03 0.  1.
         11    1    4    4    0    0  0.83416357083E-02 -0.28992861937E-01  0.38863731200E-01  0.49201825712E-01  0.51100000000E-03 0. -1.
</event>
<event>
 8    1  0.1126407E+005  0.1043930E+01  0.7957747E-01            NaN
         13   -1    0    0    0    0  0.00000000000E+00  0.00000000000E+00  0.74505805969E-08  0.10566000000E+00  0.10566000000E+00 0. -1.
     999900   -1    0    0    0    0 -0.00000000000E+00 -0.00000000000E+00 -0.74505805969E-08  0.93827000000E+00  0.93827000000E+00 0. -1.
     999902    2    1    2    0    0 -0.13170745639E-01 -0.10003482351E-02  0.19483573761E-01  0.10203911197E+01  0.10201195804E+01 0.  0.
     999903    2    3    3    0    0 -0.82499002271E-01 -0.98265581774E-01  0.24835979956E-01  0.13230577414E+00  0.20634486503E-01 0.  0.
         14    1    1    2    0    0  0.13170745639E-01  0.10003482351E-02 -0.19483573761E-01  0.23538880257E-01  0.00000000000E+00 0.  1.
     999901    1    3    3    0    0  0.69328256632E-01  0.97265233539E-01 -0.53524061956E-02  0.88808534560E+00  0.88000000000E+00 0. -1.
        -11    1    4    4    0    0 -0.47481884052E-01 -0.59545536378E-01  0.45555963441E-02  0.76296885878E-01  0.51100000000E-03 0.  1.
         11    1    4    4    0    0 -0.35017118219E-01 -0.38720045396E-01  0.20280383612E-01  0.56008888261E-01  0.51100000000E-03 0. -1.
</event>
<event>
 8    1  0.1126407E+005  0.1043930E+01  0.7957747E-01            NaN
         13   -1    0    0    0    0  0.00000000000E+00  0.00000000000E+00  0.74505805969E-08  0.10566000000E+00  0.10566000000E+00 0. -1.
     999900   -1    0    0    0    0 -0.00000000000E+00 -0.00000000000E+00 -0.74505805969E-08  0.93827000000E+00  0.93827000000E+00 0. -1.
     999902    2    1    2    0    0 -0.12259476312E-01 -0.16430452279E-01 -0.15161238157E-01  0.10184325950E+01  0.10181133693E+01 0.  0.
     999903    2    3    3    0    0 -0.10486651448E+00 -0.75778962268E-01  0.11914267119E-02  0.13143444456E+00  0.23111831111E-01 0.  0.
         14    1    1    2    0    0  0.12259476312E-01  0.16430452279E-01  0.15161238157E-01  0.25497405045E-01  0.00000000000E+00 0. -1.
     999901    1    3    3    0    0  0.92607038169E-01  0.59348509989E-01 -0.16352664869E-01  0.88699815040E+00  0.88000000000E+00 0.  1.
        -11    1    4    4    0    0 -0.44371877520E-01 -0.30238345365E-01  0.11782202988E-01  0.54975471560E-01  0.51100000000E-03 0. -1.
         11    1    4    4    0    0 -0.60494636962E-01 -0.45540616902E-01 -0.10590776276E-01  0.76458973000E-01  0.51100000000E-03 0.  1.
</event>
<event>
 8    1  0.1126407E+005  0.1043930E+01  0.7957747E-01            NaN
         13   -1    0    0    0    0  0.00000000000E+00  0.00000000000E+00  0.74505805969E-08  0.10566000000E+00  0.10566000000E+00 0.  1.
     999900   -1    0    0    0    0 -0.00000000000E+00 -0.00000000000E+00 -0.74505805969E-08  0.93827000000E+00  0.93827000000E+00 0.  1.
     999902    2    1    2    0    0  0.16849610068E-01  0.15270078444E-01 -0.40991303247E-02  0.10208239938E+01  0.10205624619E+01 0.  0.
     999903    2    3    3    0    0  0.89696504292E-01 -0.11746038140E-01  0.93949508214E-01  0.13197638248E+00  0.20194631574E-01 0.  0.
         14    1    1    2    0    0 -0.16849610068E-01 -0.15270078444E-01  0.40991303247E-02  0.23106006244E-01  0.00000000000E+00 0.  1.
     999901    1    3    3    0    0 -0.72846894224E-01  0.27016116584E-01 -0.98048638539E-01  0.88884761128E+00  0.88000000000E+00 0. -1.
        -11    1    4    4    0    0  0.71608727620E-01 -0.15766456145E-01  0.81588901485E-01  0.10969685947E+00  0.51100000000E-03 0. -1.
         11    1    4    4    0    0  0.18087776672E-01  0.40204180053E-02  0.12360606730E-01  0.22279523011E-01  0.51100000000E-03 0.  1.
</event>
<event>
 8    1  0.1126407E+005  0.1043930E+01  0.7957747E-01            NaN
         13   -1    0    0    0    0  0.00000000000E+00  0.00000000000E+00  0.74505805969E-08  0.10566000000E+00  0.10566000000E+00 0.  1.
     999900   -1    0    0    0    0 -0.00000000000E+00 -0.00000000000E+00 -0.74505805969E-08  0.93827000000E+00  0.93827000000E+00 0. -1.
     999902    2    1    2    0    0 -0.20905741869E-01 -0.69662970248E-02  0.92682261241E-02  0.10200243657E+01  0.10197441969E+01 0.  0.
     999903    2    3    3    0    0  0.11234851788E+00  0.13251657450E-01  0.56034989069E-01  0.12853539011E+00  0.24158448096E-01 0.  0.
         14    1    1    2    0    0  0.20905741869E-01  0.69662970248E-02 -0.92682261241E-02  0.23905634332E-01  0.00000000000E+00 0. -1.
     999901    1    3    3    0    0 -0.13325425975E+00 -0.20217954475E-01 -0.46766762945E-01  0.89148897556E+00  0.88000000000E+00 0. -1.
        -11    1    4    4    0    0  0.74720616394E-01  0.20211541453E-01  0.37253570479E-01  0.85905567670E-01  0.51100000000E-03 0. -1.
         11    1    4    4    0    0  0.37627901491E-01 -0.69598840035E-02  0.18781418590E-01  0.42629822439E-01  0.51100000000E-03 0.  1.
</event>
<event>
 8    1  0.1126407E+005  0.1043930E+01  0.7957747E-01            NaN
         13   -1    0    0    0    0  0.00000000000E+00  0.00000000000E+00  0.74505805969E-08  0.10566000000E+00  0.10566000000E+00 0. -1.
     999900   -1    0    0    0    0 -0.00000000000E+00 -0.00000000000E+00 -0.74505805969E-08  0.93827000000E+00  0.93827000000E+00 0.  1.
     999902    2    1    2    0    0  0.83088261156E-02  0.20355580247E-01 -0.76574247756E-02  0.10206486256E+01  0.10203830627E+01 0.  0.
     999903    2    3    3    0    0 -0.63054379603E-01  0.50831156303E-01  0.10065092016E+00  0.13061931968E+00  0.19264934621E-01 0.  0.
         14    1    1    2    0    0 -0.83088261156E-02 -0.20355580247E-01  0.76574247756E-02  0.23281374375E-01  0.00000000000E+00 0.  1.
     999901    1    3    3    0    0  0.71363205718E-01 -0.30475576056E-01 -0.10830834493E+00  0.89002930595E+00  0.88000000000E+00 0.  1.
        -11    1    4    4    0    0 -0.38345675287E-01  0.19433097960E-01  0.57705918121E-01  0.71960198838E-01  0.51100000000E-03 0.  1.
         11    1    4    4    0    0 -0.24708704315E-01  0.31398058343E-01  0.42945002036E-01  0.58659120838E-01  0.51100000000E-03 0. -1.
</event>
<event>
 8    1  0.1126407E+005  0.1043930E+01  0.7957747E-01            NaN
         13   -1    0    0    0    0  0.00000000000E+00  0.00000000000E+00  0.74505805969E-08  0.10566000000E+00  0.10566000000E+00 0.  1.
     999900   -1    0    0    0    0 -0.00000000000E+00 -0.00000000000E+00 -0.74505805969E-08  0.93827000000E+00  0.93827000000E+00 0. -1.
     999902    2    1    2    0    0  0.89163675772E-02  0.21078065653E-01  0.47646657956E-02  0.10205529065E+01  0.10202851299E+01 0.  0.
     999903    2    3    3    0    0  0.40810595600E-01 -0.12031404887E+00  0.52709086384E-02  0.12869572724E+00  0.19845217648E-01 0.  0.
         14    1    1    2    0    0 -0.89163675772E-02 -0.21078065653E-01 -0.47646657956E-02  0.23377093544E-01  0.00000000000E+00 0. -1.
     999901    1    3    3    0    0 -0.31894228023E-01  0.14139211453E+00 -0.50624284278E-03  0.89185717921E+00  0.88000000000E+00 0.  1.
        -11    1    4    4    0    0  0.12947946859E-01 -0.65586582804E-01 -0.17812253961E-02  0.66878120911E-01  0.51100000000E-03 0. -1.
         11    1    4    4    0    0  0.27862648741E-01 -0.54727466069E-01  0.70521340345E-02  0.61817606332E-01  0.51100000000E-03 0.  1.
</event>
<event>
 8    1  0.1126407E+005  0.1043930E+01  0.7957747E-01            NaN
         13   -1    0    0    0    0  0.00000000000E+00  0.00000000000E+00  0.74505805969E-08  0.10566000000E+00  0.10566000000E+00 0. -1.
     999900   -1    0    0    0    0 -0.00000000000E+00 -0.00000000000E+00 -0.74505805969E-08  0.93827000000E+00  0.93827000000E+00 0. -1.
     999902    2    1    2    0    0 -0.55728789025E-02 -0.21908480741E-01  0.61691370720E-02  0.10204971863E+01  0.10202281168E+01 0.  0.
     999903    2    3    3    0    0  0.24923534269E-01  0.63285203611E-02  0.12716602061E+00  0.13124603767E+00  0.19826569945E-01 0.  0.
         14    1    1    2    0    0  0.55728789025E-02  0.21908480741E-01 -0.61691370720E-02  0.23432813742E-01  0.00000000000E+00 0.  1.
     999901    1    3    3    0    0 -0.30496413171E-01 -0.28237001102E-01 -0.12099688353E+00  0.88925114859E+00  0.88000000000E+00 0. -1.
        -11    1    4    4    0    0  0.77024698319E-02  0.44383049118E-02  0.12910436189E-01  0.15683337514E-01  0.51100000000E-03 0.  1.
         11    1    4    4    0    0  0.17221064437E-01  0.18902154493E-02  0.11425558442E+00  0.11556270015E+00  0.51100000000E-03 0. -1.
</event>
<event>
 8    1  0.1126407E+005  0.1043930E+01  0.7957747E-01            NaN
         13   -1    0    0    0    0  0.00000000000E+00  0.00000000000E+00  0.74505805969E-08  0.10566000000E+00  0.10566000000E+00 0. -1.
     999900   -1    0    0    0    0 -0.00000000000E+00 -0.00000000000E+00 -0.74505805969E-08  0.93827000000E+00  0.93827000000E+00 0. -1.
     999902    2    1    2    0    0  0.17748707880E-01  0.90037349267E-02 -0.67785412035E-02  0.10229054312E+01  0.10226893412E+01 0.  0.
     999903    2    3    3    0    0  0.31346234452E-01 -0.12692688210E+00 -0.61900013067E-02  0.13236493699E+00  0.19726647357E-01 0.  0.
         14    1    1    2    0    0 -0.17748707880E-01 -0.90037349267E-02  0.67785412035E-02  0.21024568839E-01  0.00000000000E+00 0. -1.
     999901    1    3    3    0    0 -0.13597526572E-01  0.13593061702E+00 -0.58853989678E-03  0.89054049417E+00  0.88000000000E+00 0.  1.
        -11    1    4    4    0    0  0.94492351478E-02 -0.78519127943E-01 -0.38672397752E-02  0.79181804490E-01  0.51100000000E-03 0. -1.
         11    1    4    4    0    0  0.21896999304E-01 -0.48407754153E-01 -0.23227615315E-02  0.53183132503E-01  0.51100000000E-03 0.  1.
</event>
<event>
 8    1  0.1126407E+005  0.1043930E+01  0.7957747E-01            NaN
         13   -1    0    0    0    0  0.00000000000E+00  0.00000000000E+00  0.74505805969E-08  0.10566000000E+00  0.10566000000E+00 0. -1.
     999900   -1    0    0    0    0 -0.00000000000E+00 -0.00000000000E+00 -0.74505805969E-08  0.93827000000E+00  0.93827000000E+00 0.  1.
     999902    2    1    2    0    0 -0.10883321362E-02 -0.99175582396E-02  0.21189027885E-01  0.10205095531E+01  0.10202407710E+01 0.  0.
     999903    2    3    3    0    0  0.10855853649E+00 -0.20858626286E-01 -0.64528883552E-01  0.12950466926E+00  0.19683607688E-01 0.  0.
         14    1    1    2    0    0  0.10883321362E-02  0.99175582396E-02 -0.21189027885E-01  0.23420446857E-01  0.00000000000E+00 0.  1.
     999901    1    3    3    0    0 -0.10964686862E+00  0.10941068047E-01  0.85717911438E-01  0.89100488389E+00  0.88000000000E+00 0. -1.
        -11    1    4    4    0    0  0.15084817442E-01  0.76067753857E-03 -0.26636334891E-02  0.15345566524E-01  0.51100000000E-03 0. -1.
         11    1    4    4    0    0  0.93473719045E-01 -0.21619303825E-01 -0.61865250063E-01  0.11415910273E+00  0.51100000000E-03 0.  1.
</event>
<event>
 8    1  0.1126407E+005  0.1043930E+01  0.7957747E-01            NaN
         13   -1    0    0    0    0  0.00000000000E+00  0.00000000000E+00  0.74505805969E-08  0.10566000000E+00  0.10566000000E+00 0. -1.
     999900   -1    0    0    0    0 -0.00000000000E+00 -0.00000000000E+00 -0.74505805969E-08  0.93827000000E+00  0.93827000000E+00 0.  1.
     999902    2    1    2    0    0 -0.20165240573E-01 -0.10100816086E-01  0.59265423085E-02  0.10206107522E+01  0.10203443146E+01 0.  0.
     999903    2    3    3    0    0 -0.87143242660E-02  0.63113691742E-01  0.11028223843E+00  0.13135173543E+00  0.32122091366E-01 0.  0.
         14    1    1    2    0    0  0.20165240573E-01  0.10100816086E-01 -0.59265423085E-02  0.23319247773E-01  0.00000000000E+00 0.  1.
     999901    1    3    3    0    0 -0.11450916307E-01 -0.73214507829E-01 -0.10435569613E+00  0.88925901680E+00  0.88000000000E+00 0.  1.
        -11    1    4    4    0    0 -0.17669443701E-01  0.36697688403E-01  0.47009884028E-01  0.62202249897E-01  0.51100000000E-03 0. -1.
         11    1    4    4    0    0  0.89551194353E-02  0.26416003339E-01  0.63272354405E-01  0.69149485533E-01  0.51100000000E-03 0.  1.
</event>
<event>
 8    1  0.1126407E+005  0.1043930E+01  0.7957747E-01            NaN
         13   -1    0    0    0    0  0.00000000000E+00  0.00000000000E+00  0.74505805969E-08  0.10566000000E+00  0.10566000000E+00 0. -1.
     999900   -1    0    0    0    0 -0.00000000000E+00 -0.00000000000E+00 -0.74505805969E-08  0.93827000000E+00  0.93827000000E+00 0. -1.
     999902    2    1    2    0    0  0.13390758237E-01 -0.55997835271E-02  0.19167557921E-01  0.10198870123E+01  0.10196035762E+01 0.  0.
     999903    2    3    3    0    0 -0.12492441688E+00  0.40724188655E-02 -0.20440124713E-01  0.12815083623E+00  0.19548493537E-01 0.  0.
         14    1    1    2    0    0 -0.13390758237E-01  0.55997835271E-02 -0.19167557921E-01  0.24042987717E-01  0.00000000000E+00 0. -1.
     999901    1    3    3    0    0  0.13831517511E+00 -0.96722023926E-02  0.39607682634E-01  0.89173617606E+00  0.88000000000E+00 0. -1.
        -11    1    4    4    0    0 -0.35953094214E-01 -0.13638134409E-02 -0.14565318936E-01  0.38818740414E-01  0.51100000000E-03 0.  1.
         11    1    4    4    0    0 -0.88971322663E-01  0.54362323064E-02 -0.58748057772E-02  0.89332095811E-01  0.51100000000E-03 0. -1.
</event>
<event>
 8    1  0.1126407E+005  0.1043930E+01  0.7957747E-01            NaN
         13   -1    0    0    0    0  0.00000000000E+00  0.00000000000E+00  0.74505805969E-08  0.10566000000E+00  0.10566000000E+00 0. -1.
     999900   -1    0    0    0    0 -0.00000000000E+00 -0.00000000000E+00 -0.74505805969E-08  0.93827000000E+00  0.93827000000E+00 0.  1.
     999902    2    1    2    0    0 -0.82281429060E-03  0.11004330138E-01 -0.17768528755E-01  0.10230136686E+01  0.10227998207E+01 0.  0.
     999903    2    3    3    0    0  0.55759344213E-02 -0.45385861624E-01  0.12051021316E+00  0.13040972049E+00  0.19824637237E-01 0.  0.
         14    1    1    2    0    0  0.82281429060E-03 -0.11004330138E-01  0.17768528755E-01  0.20916331401E-01  0.00000000000E+00 0. -1.
     999901    1    3    3    0    0 -0.63987487119E-02  0.56390191762E-01 -0.13827874192E+00  0.89260394811E+00  0.88000000000E+00 0.  1.
        -11    1    4    4    0    0  0.49879533935E-02 -0.44991001138E-01  0.98749217762E-01  0.10863120634E+00  0.51100000000E-03 0.  1.
         11    1    4    4    0    0  0.58798102779E-03 -0.39486048653E-03  0.21760995403E-01  0.21778514146E-01  0.51100000000E-03 0. -1.
</event>
<event>
 8    1  0.1126407E+005  0.1043930E+01  0.7957747E-01            NaN
         13   -1    0    0    0    0  0.00000000000E+00  0.00000000000E+00  0.74505805969E-08  0.10566000000E+00  0.10566000000E+00 0.  1.
     999900   -1    0    0    0    0 -0.00000000000E+00 -0.00000000000E+00 -0.74505805969E-08  0.93827000000E+00  0.93827000000E+00 0.  1.
     999902    2    1    2    0    0  0.68453118832E-02 -0.20696484294E-01  0.93897545358E-02  0.10201945782E+01  0.10199184316E+01 0.  0.
     999903    2    3    3    0    0  0.90884690399E-01  0.60709795253E-02 -0.90736271424E-01  0.13013596479E+00  0.20134910949E-01 0.  0.
         14    1    1    2    0    0 -0.68453118832E-02  0.20696484294E-01 -0.93897545358E-02  0.23735421782E-01  0.00000000000E+00 0. -1.
     999901    1    3    3    0    0 -0.84039378516E-01 -0.26767463820E-01  0.10012602596E+00  0.89005861343E+00  0.88000000000E+00 0. -1.
        -11    1    4    4    0    0  0.32868602438E-01 -0.63121415021E-02 -0.26475464431E-01  0.42677857191E-01  0.51100000000E-03 0. -1.
         11    1    4    4    0    0  0.58016087961E-01  0.12383121027E-01 -0.64260806992E-01  0.87458107600E-01  0.51100000000E-03 0.  1.
</event>
<event>
 8    1  0.1126407E+005  0.1043930E+01  0.7957747E-01            NaN
         13   -1    0    0    0    0  0.00000000000E+00  0.00000000000E+00  0.74505805969E-08  0.10566000000E+00  0.10566000000E+00 0.  1.
     999900   -1    0    0    0    0 -0.00000000000E+00 -0.00000000000E+00 -0.74505805969E-08  0.93827000000E+00  0.93827000000E+00 0.  1.
     999902    2    1    2    0    0  0.11612836992E-01 -0.20465494824E-02 -0.18861876355E-01  0.10216855237E+01  0.10214433379E+01 0.  0.
     999903    2    3    3    0    0  0.61267981042E-01  0.99102864138E-02 -0.11794823349E+00  0.13465299584E+00  0.19174572429E-01 0.  0.
         14    1    1    2    0    0 -0.11612836992E-01  0.20465494824E-02  0.18861876355E-01  0.22244476335E-01  0.00000000000E+00 0.  1.
     999901    1    3    3    0    0 -0.49655144050E-01 -0.11956835896E-01  0.99086357130E-01  0.88703252783E+00  0.88000000000E+00 0. -1.
        -11    1    4    4    0    0  0.19186515854E-01 -0.25423606780E-02 -0.51501021889E-01  0.55020017857E-01  0.51100000000E-03 0. -1.
         11    1    4    4    0    0  0.42081465189E-01  0.12452647092E-01 -0.66447211597E-01  0.79632977980E-01  0.51100000000E-03 0.  1.
</event>
<event>
 8    1  0.1126407E+005  0.1043930E+01  0.7957747E-01            NaN
         13   -1    0    0    0    0  0.00000000000E+00  0.00000000000E+00  0.74505805969E-08  0.10566000000E+00  0.10566000000E+00 0. -1.
     999900   -1    0    0    0    0 -0.00000000000E+00 -0.00000000000E+00 -0.74505805969E-08  0.93827000000E+00  0.93827000000E+00 0. -1.
     999902    2    1    2    0    0 -0.23073110739E-01 -0.73215923783E-02  0.17397607550E-02  0.10196606588E+01  0.10193717959E+01 0.  0.
     999903    2    3    3    0    0  0.73334090918E-01 -0.82953736552E-01 -0.62783793529E-01  0.12883078795E+00  0.19908688944E-01 0.  0.
         14    1    1    2    0    0  0.23073110739E-01  0.73215923783E-02 -0.17397607550E-02  0.24269341187E-01  0.00000000000E+00 0.  1.
     999901    1    3    3    0    0 -0.96407201657E-01  0.75632144174E-01  0.64523554284E-01  0.89082987086E+00  0.88000000000E+00 0.  1.
        -11    1    4    4    0    0  0.12008398502E-01 -0.22351382644E-01 -0.21388972074E-01  0.33189383664E-01  0.51100000000E-03 0. -1.
         11    1    4    4    0    0  0.61325692416E-01 -0.60602353908E-01 -0.41394821455E-01  0.95641404286E-01  0.51100000000E-03 0.  1.
</event>
<event>
 8    1  0.1126407E+005  0.1043930E+01  0.7957747E-01            NaN
         13   -1    0    0    0    0  0.00000000000E+00  0.00000000000E+00  0.74505805969E-08  0.10566000000E+00  0.10566000000E+00 0. -1.
     999900   -1    0    0    0    0 -0.00000000000E+00 -0.00000000000E+00 -0.74505805969E-08  0.93827000000E+00  0.93827000000E+00 0. -1.
     999902    2    1    2    0    0  0.18382725585E-01 -0.42341945991E-02  0.15106775969E-01  0.10197625077E+01  0.10194760931E+01 0.  0.
     999903    2    3    3    0    0 -0.43497412116E-01 -0.10096190076E+00  0.67915194439E-01  0.13073262651E+00  0.19829668001E-01 0.  0.
         14    1    1    2    0    0 -0.18382725585E-01  0.42341945991E-02 -0.15106775969E-01  0.24167492299E-01  0.00000000000E+00 0. -1.
     999901    1    3    3    0    0  0.61880137701E-01  0.96727706165E-01 -0.52808418469E-01  0.88902988119E+00  0.88000000000E+00 0.  1.
        -11    1    4    4    0    0 -0.84656660622E-02 -0.43529667373E-01  0.24511530616E-01  0.50671251195E-01  0.51100000000E-03 0.  1.
         11    1    4    4    0    0 -0.35031746054E-01 -0.57432233390E-01  0.43403663823E-01  0.80061375319E-01  0.51100000000E-03 0. -1.
</event>
<event>
 8    1  0.1126407E+005  0.1043930E+01  0.7957747E-01            NaN
         13   -1    0    0    0    0  0.00000000000E+00  0.00000000000E+00  0.74505805969E-08  0.10566000000E+00  0.10566000000E+00 0. -1.
     999900   -1    0    0    0    0 -0.00000000000E+00 -0.00000000000E+00 -0.74505805969E-08  0.93827000000E+00  0.93827000000E+00 0.  1.
     999902    2    1    2    0    0 -0.15546889347E-01 -0.16933796082E-01  0.85904084557E-02  0.10193891293E+01  0.10190936868E+01 0.  0.
     999903    2    3    3    0    0 -0.99481303898E-01  0.56382150196E-01  0.60186779563E-01  0.13086090833E+00  0.20655561184E-01 0.  0.
         14    1    1    2    0    0  0.15546889347E-01  0.16933796082E-01 -0.85904084557E-02  0.24540870718E-01  0.00000000000E+00 0.  1.
     999901    1    3    3    0    0  0.83934414551E-01 -0.73315946278E-01 -0.51596371107E-01  0.88852822096E+00  0.88000000000E+00 0.  1.
        -11    1    4    4    0    0 -0.22846304115E-02 -0.68009112691E-03 -0.97488821462E-03  0.26255643373E-02  0.51100000000E-03 0. -1.
         11    1    4    4    0    0 -0.97196673487E-01  0.57062241323E-01  0.61161667777E-01  0.12823534399E+00  0.51100000000E-03 0.  1.
</event>
<event>
 8    1  0.1126407E+005  0.1043930E+01  0.7957747E-01            NaN
         13   -1    0    0    0    0  0.00000000000E+00  0.00000000000E+00  0.74505805969E-08  0.10566000000E+00  0.10566000000E+00 0.  1.
     999900   -1    0    0    0    0 -0.00000000000E+00 -0.00000000000E+00 -0.74505805969E-08  0.93827000000E+00  0.93827000000E+00 0. -1.
     999902    2    1    2    0    0  0.11880523815E-01 -0.21164813768E-01 -0.22116580753E-01  0.10110934452E+01  0.10105600999E+01 0.  0.
     999903    2    3    3    0    0  0.90637129159E-01  0.22939890678E-01 -0.76963757565E-01  0.12477745151E+00  0.30077643860E-01 0.  0.
         14    1    1    2    0    0 -0.11880523815E-01  0.21164813768E-01  0.22116580753E-01  0.32836554816E-01  0.00000000000E+00 0.  1.
     999901    1    3    3    0    0 -0.78756605344E-01 -0.44104704446E-01  0.54847176812E-01  0.88631599367E+00  0.88000000000E+00 0.  1.
        -11    1    4    4    0    0  0.84656271546E-01  0.26897855035E-01 -0.62460797155E-01  0.10859001437E+00  0.51100000000E-03 0. -1.
         11    1    4    4    0    0  0.59808576125E-02 -0.39579643574E-02 -0.14502960410E-01  0.16187437144E-01  0.51100000000E-03 0.  1.
</event>
<event>
 8    1  0.1126407E+005  0.1043930E+01  0.7957747E-01            NaN
         13   -1    0    0    0    0  0.00000000000E+00  0.00000000000E+00  0.74505805969E-08  0.10566000000E+00  0.10566000000E+00 0. -1.
     999900   -1    0    0    0    0 -0.00000000000E+00 -0.00000000000E+00 -0.74505805969E-08  0.93827000000E+00  0.93827000000E+00 0. -1.
     999902    2    1    2    0    0 -0.46240962813E-04  0.62903477995E-02  0.22764876827E-01  0.10203119935E+01  0.10200386041E+01 0.  0.
     999903    2    3    3    0    0  0.90175495909E-01 -0.88118290605E-01  0.28058352413E-01  0.13065982907E+00  0.19704481482E-01 0.  0.
         14    1    1    2    0    0  0.46240962813E-04 -0.62903477995E-02 -0.22764876827E-01  0.23618006491E-01  0.00000000000E+00 0.  1.
     999901    1    3    3    0    0 -0.90221736872E-01  0.94408638405E-01 -0.52934755868E-02  0.88965216444E+00  0.88000000000E+00 0. -1.
        -11    1    4    4    0    0  0.18661274295E-01 -0.27624098290E-01  0.18479818570E-02  0.33391767288E-01  0.51100000000E-03 0. -1.
         11    1    4    4    0    0  0.71514221614E-01 -0.60494192315E-01  0.26210370556E-01  0.97268061781E-01  0.51100000000E-03 0.  1.
</event>
<event>
 8    1  0.1126407E+005  0.1043930E+01  0.7957747E-01            NaN
         13   -1    0    0    0    0  0.00000000000E+00  0.00000000000E+00  0.74505805969E-08  0.10566000000E+00  0.10566000000E+00 0. -1.
     999900   -1    0    0    0    0 -0.00000000000E+00 -0.00000000000E+00 -0.74505805969E-08  0.93827000000E+00  0.93827000000E+00 0. -1.
     999902    2    1    2    0    0 -0.29537224167E-03 -0.19278951673E-01 -0.96080822792E-02  0.10223874730E+01  0.10221604887E+01 0.  0.
     999903    2    3    3    0    0  0.68298470277E-01  0.74534466261E-01 -0.82376198325E-01  0.13176899619E+00  0.18898746057E-01 0.  0.
         14    1    1    2    0    0  0.29537224167E-03  0.19278951673E-01  0.96080822792E-02  0.21542526951E-01  0.00000000000E+00 0.  1.
     999901    1    3    3    0    0 -0.68593842519E-01 -0.93813417934E-01  0.72768116045E-01  0.89061847686E+00  0.88000000000E+00 0.  1.
        -11    1    4    4    0    0  0.35133553495E-01  0.48523538171E-01 -0.40244823549E-01  0.72172067182E-01  0.51100000000E-03 0. -1.
         11    1    4    4    0    0  0.33164916782E-01  0.26010928090E-01 -0.42131374775E-01  0.59596929004E-01  0.51100000000E-03 0.  1.
</event>
<event>
 8    1  0.1126407E+005  0.1043930E+01  0.7957747E-01            NaN
         13   -1    0    0    0    0  0.00000000000E+00  0.00000000000E+00  0.74505805969E-08  0.10566000000E+00  0.10566000000E+00 0.  1.
     999900   -1    0    0    0    0 -0.00000000000E+00 -0.00000000000E+00 -0.74505805969E-08  0.93827000000E+00  0.93827000000E+00 0.  1.
     999902    2    1    2    0    0 -0.18009286097E-01  0.14203513948E-01 -0.85771545479E-02  0.10194424159E+01  0.10191482707E+01 0.  0.
     999903    2    3    3    0    0  0.62364154163E-01 -0.97130588406E-01 -0.50709058613E-01  0.12779771673E+00  0.20909539619E-01 0.  0.
         14    1    1    2    0    0  0.18009286097E-01 -0.14203513948E-01  0.85771545479E-02  0.24487584085E-01  0.00000000000E+00 0.  1.
     999901    1    3    3    0    0 -0.80373440261E-01  0.11133410235E+00  0.42131904065E-01  0.89164469919E+00  0.88000000000E+00 0. -1.
        -11    1    4    4    0    0  0.45625477754E-01 -0.52390396147E-01 -0.28025467421E-01  0.74914122660E-01  0.51100000000E-03 0.  1.
         11    1    4    4    0    0  0.16738676410E-01 -0.44740192259E-01 -0.22683591192E-01  0.52883594069E-01  0.51100000000E-03 0. -1.
</event>
<event>
 8    1  0.1126407E+005  0.1043930E+01  0.7957747E-01            NaN
         13   -1    0    0    0    0  0.00000000000E+00  0.00000000000E+00  0.74505805969E-08  0.10566000000E+00  0.10566000000E+00 0. -1.
     999900   -1    0    0    0    0 -0.00000000000E+00 -0.00000000000E+00 -0.74505805969E-08  0.93827000000E+00  0.93827000000E+00 0.  1.
     999902    2    1    2    0    0  0.11822928748E-01  0.20778187706E-01 -0.16847327450E-03  0.10200230321E+01  0.10197428318E+01 0.  0.
     999903    2    3    3    0    0  0.32125564500E-01  0.11960668873E+00 -0.44803306711E-01  0.13313434805E+00  0.19483491819E-01 0.  0.
         14    1    1    2    0    0 -0.11822928748E-01 -0.20778187706E-01  0.16847327450E-03  0.23906967850E-01  0.00000000000E+00 0. -1.
     999901    1    3    3    0    0 -0.20302635752E-01 -0.98828501027E-01  0.44634833436E-01  0.88688868410E+00  0.88000000000E+00 0.  1.
        -11    1    4    4    0    0  0.87656338629E-02  0.57124033275E-01 -0.13030521405E-01  0.59245650674E-01  0.51100000000E-03 0. -1.
         11    1    4    4    0    0  0.23359930637E-01  0.62482655458E-01 -0.31772785305E-01  0.73888697374E-01  0.51100000000E-03 0.  1.
</event>
<event>
 8    1  0.1126407E+005  0.1043930E+01  0.7957747E-01            NaN
         13   -1    0    0    0    0  0.00000000000E+00  0.00000000000E+00  0.74505805969E-08  0.10566000000E+00  0.10566000000E+00 0.  1.
     999900   -1    0    0    0    0 -0.00000000000E+00 -0.00000000000E+00 -0.74505805969E-08  0.93827000000E+00  0.93827000000E+00 0. -1.
     999902    2    1    2    0    0 -0.50058849164E-02 -0.22731697116E-01 -0.31000211261E-03  0.10206515757E+01  0.10203860808E+01 0.  0.
     999903    2    3    3    0    0 -0.99082947585E-01  0.73005910715E-01  0.35415914265E-01  0.12975734830E+00  0.20865975976E-01 0.  0.
         14    1    1    2    0    0  0.50058849164E-02  0.22731697116E-01  0.31000211261E-03  0.23278424321E-01  0.00000000000E+00 0. -1.
     999901    1    3    3    0    0  0.94077062669E-01 -0.95737607831E-01 -0.35725916378E-01  0.89089422738E+00  0.88000000000E+00 0.  1.
        -11    1    4    4    0    0 -0.47129558202E-01  0.46666267444E-01  0.22971518905E-01  0.70191791366E-01  0.51100000000E-03 0.  1.
         11    1    4    4    0    0 -0.51953389383E-01  0.26339643271E-01  0.12444395360E-01  0.59565556935E-01  0.51100000000E-03 0. -1.
</event>
<event>
 8    1  0.1126407E+005  0.1043930E+01  0.7957747E-01            NaN
         13   -1    0    0    0    0  0.00000000000E+00  0.00000000000E+00  0.74505805969E-08  0.10566000000E+00  0.10566000000E+00 0. -1.
     999900   -1    0    0    0    0 -0.00000000000E+00 -0.00000000000E+00 -0.74505805969E-08  0.93827000000E+00  0.93827000000E+00 0.  1.
     999902    2    1    2    0    0  0.60539816462E-02 -0.22218293387E-01  0.59819808410E-02  0.10201374098E+01  0.10198599156E+01 0.  0.
     999903    2    3    3    0    0 -0.19520572168E-01 -0.13023771487E+00 -0.31570642495E-02  0.13311667982E+00  0.19161635619E-01 0.  0.
         14    1    1    2    0    0 -0.60539816462E-02  0.22218293387E-01 -0.59819808410E-02  0.23792590225E-01  0.00000000000E+00 0. -1.
     999901    1    3    3    0    0  0.25574553814E-01  0.10801942148E+00  0.91390450905E-02  0.88702072995E+00  0.88000000000E+00 0. -1.
        -11    1    4    4    0    0 -0.69371070963E-02 -0.24621918157E-01  0.62487028665E-02  0.26337610315E-01  0.51100000000E-03 0. -1.
         11    1    4    4    0    0 -0.12583465072E-01 -0.10561579671E+00 -0.94057671160E-02  0.10677906951E+00  0.51100000000E-03 0.  1.
</event>
<event>
 8    1  0.1126407E+005  0.1043930E+01  0.7957747E-01            NaN
         13   -1    0    0    0    0  0.00000000000E+00  0.00000000000E+00  0.74505805969E-08  0.10566000000E+00  0.10566000000E+00 0.  1.
     999900   -1    0    0    0    0 -0.00000000000E+00 -0.00000000000E+00 -0.74505805969E-08  0.93827000000E+00  0.93827000000E+00 0. -1.
     999902    2    1    2    0    0  0.12164273283E-01 -0.57244521438E-02 -0.17366116826E-01  0.10219681943E+01  0.10217321906E+01 0.  0.
     999903    2    3    3    0    0 -0.25091959944E-01 -0.26718575459E-01  0.12289605340E+00  0.12983465241E+00  0.20251130751E-01 0.  0.
         14    1    1    2    0    0 -0.12164273283E-01  0.57244521438E-02  0.17366116826E-01  0.21961805720E-01  0.00000000000E+00 0.  1.
     999901    1    3    3    0    0  0.37256233227E-01  0.20994123315E-01 -0.14026217023E+00  0.89213354187E+00  0.88000000000E+00 0. -1.
        -11    1    4    4    0    0 -0.22579115956E-01 -0.14357829370E-01  0.60205746959E-01  0.65885938025E-01  0.51100000000E-03 0.  1.
         11    1    4    4    0    0 -0.25128439884E-02 -0.12360746090E-01  0.62690306444E-01  0.63948714387E-01  0.51100000000E-03 0. -1.
</event>
<event>
 8    1  0.1126407E+005  0.1043930E+01  0.7957747E-01            NaN
         13   -1    0    0    0    0  0.00000000000E+00  0.00000000000E+00  0.74505805969E-08  0.10566000000E+00  0.10566000000E+00 0. -1.
     999900   -1    0    0    0    0 -0.00000000000E+00 -0.00000000000E+00 -0.74505805969E-08  0.93827000000E+00  0.93827000000E+00 0. -1.
     999902    2    1    2    0    0  0.19161561795E-01 -0.21332923491E-02 -0.20016051604E-01  0.10161386577E+01  0.10157585407E+01 0.  0.
     999903    2    3    3    0    0 -0.41123908798E-01 -0.11753739855E+00 -0.90219433870E-02  0.12649079694E+00  0.20305425736E-01 0.  0.
         14    1    1    2    0    0 -0.19161561795E-01  0.21332923491E-02  0.20016051604E-01  0.27791342329E-01  0.00000000000E+00 0. -1.
     999901    1    3    3    0    0  0.60285470593E-01  0.11540410620E+00 -0.10994108217E-01  0.88964786073E+00  0.88000000000E+00 0.  1.
        -11    1    4    4    0    0 -0.39785920774E-01 -0.87981062284E-01 -0.77990049482E-02  0.96874518897E-01  0.51100000000E-03 0.  1.
         11    1    4    4    0    0 -0.13379880240E-02 -0.29556336267E-01 -0.12229384388E-02  0.29616278039E-01  0.51100000000E-03 0. -1.
</event>
<event>
 7    1  0.1149490E+005  0.1043930E+01  0.7957747E-01            NaN
         13   -1    0    0    0    0  0.00000000000E+00  0.00000000000E+00  0.74505805969E-08  0.10566000000E+00  0.10566000000E+00 0. -1.
     999900   -1    0    0    0    0 -0.00000000000E+00 -0.00000000000E+00 -0.74505805969E-08  0.93827000000E+00  0.93827000000E+00 0. -1.
     999903    2    1    2    0    0  0.82045647197E-01  0.69569362524E-01  0.37457146636E-01  0.11565183424E+00  0.20023099260E-01 0.  0.
         14    1    1    2    0    0  0.32726421377E-01 -0.98467435039E-02 -0.17952830463E-01  0.38604159561E-01  0.00000000000E+00 0.  1.
     999901    1    1    2    0    0 -0.11477206857E+00 -0.59722619021E-01 -0.19504316173E-01  0.88967400619E+00  0.88000000000E+00 0.  1.
        -11    1    3    3    0    0  0.35110776695E-01  0.17237312942E-01  0.12978631411E-01  0.41214046051E-01  0.51100000000E-03 0. -1.
         11    1    3    3    0    0  0.46934870502E-01  0.52332049582E-01  0.24478515225E-01  0.74437788193E-01  0.51100000000E-03 0.  1.
</event>
<event>
 8    1  0.1126407E+005  0.1043930E+01  0.7957747E-01            NaN
         13   -1    0    0    0    0  0.00000000000E+00  0.00000000000E+00  0.74505805969E-08  0.10566000000E+00  0.10566000000E+00 0. -1.
     999900   -1    0    0    0    0 -0.00000000000E+00 -0.00000000000E+00 -0.74505805969E-08  0.93827000000E+00  0.93827000000E+00 0.  1.
     999902    2    1    2    0    0 -0.12722732572E-01  0.39904318446E-02  0.20360843067E-01  0.10195916475E+01  0.10193011196E+01 0.  0.
     999903    2    3    3    0    0  0.95307981409E-01 -0.22734803534E-01 -0.77202595258E-01  0.12723325660E+00  0.25051512101E-01 0.  0.
         14    1    1    2    0    0  0.12722732572E-01 -0.39904318446E-02 -0.20360843067E-01  0.24338352467E-01  0.00000000000E+00 0.  1.
     999901    1    3    3    0    0 -0.10803071398E+00  0.26725235379E-01  0.97563438325E-01  0.89235839093E+00  0.88000000000E+00 0. -1.
        -11    1    4    4    0    0  0.35418824074E-01 -0.20177157895E-01 -0.25611773417E-01  0.48143897412E-01  0.51100000000E-03 0.  1.
         11    1    4    4    0    0  0.59889157335E-01 -0.25576456394E-02 -0.51590821841E-01  0.79089359188E-01  0.51100000000E-03 0. -1.
</event>
<event>
 8    1  0.1126407E+005  0.1043930E+01  0.7957747E-01            NaN
         13   -1    0    0    0    0  0.00000000000E+00  0.00000000000E+00  0.74505805969E-08  0.10566000000E+00  0.10566000000E+00 0. -1.
     999900   -1    0    0    0    0 -0.00000000000E+00 -0.00000000000E+00 -0.74505805969E-08  0.93827000000E+00  0.93827000000E+00 0. -1.
     999902    2    1    2    0    0  0.23152354102E-01  0.32552619090E-02  0.56473159329E-02  0.10198775488E+01  0.10195938869E+01 0.  0.
     999903    2    3    3    0    0 -0.52801812097E-01 -0.75511655949E-01  0.87639077771E-01  0.12931822361E+00  0.23506455703E-01 0.  0.
         14    1    1    2    0    0 -0.23152354102E-01 -0.32552619090E-02 -0.56473159329E-02  0.24052451181E-01  0.00000000000E+00 0.  1.
     999901    1    3    3    0    0  0.75954166199E-01  0.78766917858E-01 -0.81991761838E-01  0.89055932521E+00  0.88000000000E+00 0.  1.
        -11    1    4    4    0    0 -0.24293037545E-01 -0.52998195826E-01  0.47717334079E-01  0.75340331341E-01  0.51100000000E-03 0. -1.
         11    1    4    4    0    0 -0.28508774553E-01 -0.22513460123E-01  0.39921743691E-01  0.53977892267E-01  0.51100000000E-03 0.  1.
</event>
<event>
 8    1  0.1126407E+005  0.1043930E+01  0.7957747E-01            NaN
         13   -1    0    0    0    0  0.00000000000E+00  0.00000000000E+00  0.74505805969E-08  0.10566000000E+00  0.10566000000E+00 0.  1.
     999900   -1    0    0    0    0 -0.00000000000E+00 -0.00000000000E+00 -0.74505805969E-08  0.93827000000E+00  0.93827000000E+00 0.  1.
     999902    2    1    2    0    0 -0.21958023989E-01 -0.85020938467E-02 -0.84465945380E-02  0.10189142974E+01  0.10186071667E+01 0.  0.
     999903    2    3    3    0    0  0.10083317079E+00 -0.51132118825E-01 -0.56758189853E-01  0.12805571896E+00  0.19873427834E-01 0.  0.
         14    1    1    2    0    0  0.21958023989E-01  0.85020938467E-02  0.84465945380E-02  0.25015702600E-01  0.00000000000E+00 0. -1.
     999901    1    3    3    0    0 -0.12279119478E+00  0.42630024978E-01  0.48311595315E-01  0.89085857844E+00  0.88000000000E+00 0. -1.
        -11    1    4    4    0    0  0.30252337427E-01 -0.84961804992E-02 -0.86830285133E-02  0.32604372529E-01  0.51100000000E-03 0.  1.
         11    1    4    4    0    0  0.70580833368E-01 -0.42635938326E-01 -0.48075161340E-01  0.95451346427E-01  0.51100000000E-03 0. -1.
</event>
<event>
 8    1  0.1126407E+005  0.1043930E+01  0.7957747E-01            NaN
         13   -1    0    0    0    0  0.00000000000E+00  0.00000000000E+00  0.74505805969E-08  0.10566000000E+00  0.10566000000E+00 0.  1.
     999900   -1    0    0    0    0 -0.00000000000E+00 -0.00000000000E+00 -0.74505805969E-08  0.93827000000E+00  0.93827000000E+00 0. -1.
     999902    2    1    2    0    0  0.20242069227E-01  0.11888406422E-01  0.57958727968E-02  0.10197500969E+01  0.10194633845E+01 0.  0.
     999903    2    3    3    0    0 -0.11896270732E-01  0.12732571209E+00 -0.10632311604E-01  0.13147731800E+00  0.28633562197E-01 0.  0.
         14    1    1    2    0    0 -0.20242069227E-01 -0.11888406422E-01 -0.57958727968E-02  0.24179903129E-01  0.00000000000E+00 0. -1.
     999901    1    3    3    0    0  0.32138339958E-01 -0.11543730566E+00  0.16428184401E-01  0.88827277887E+00  0.88000000000E+00 0. -1.
        -11    1    4    4    0    0  0.29907066604E-02  0.89534493699E-01 -0.14182429562E-01  0.90701556313E-01  0.51100000000E-03 0. -1.
         11    1    4    4    0    0 -0.14886977392E-01  0.37791218386E-01  0.35501179576E-02  0.40775761691E-01  0.51100000000E-03 0.  1.
</event>
<event>
 8    1  0.1126407E+005  0.1043930E+01  0.7957747E-01            NaN
         13   -1    0    0    0    0  0.00000000000E+00  0.00000000000E+00  0.74505805969E-08  0.10566000000E+00  0.10566000000E+00 0. -1.
     999900   -1    0    0    0    0 -0.00000000000E+00 -0.00000000000E+00 -0.74505805969E-08  0.93827000000E+00  0.93827000000E+00 0.  1.
     999902    2    1    2    0    0  0.23326466428E-01  0.57462684724E-02  0.22246104062E-01  0.10111880883E+01  0.10106578635E+01 0.  0.
     999903    2    3    3    0    0  0.10291617751E+00  0.48241775843E-01 -0.44471196310E-01  0.12406262453E+00  0.22244976370E-01 0.  0.
         14    1    1    2    0    0 -0.23326466428E-01 -0.57462684724E-02 -0.22246104062E-01  0.32741911724E-01  0.00000000000E+00 0.  1.
     999901    1    3    3    0    0 -0.79589711085E-01 -0.42495507370E-01  0.66717300372E-01  0.88712546375E+00  0.88000000000E+00 0. -1.
        -11    1    4    4    0    0  0.95964057249E-02 -0.18489854781E-02 -0.53549765241E-02  0.11155565638E-01  0.51100000000E-03 0.  1.
         11    1    4    4    0    0  0.93319771789E-01  0.50090761321E-01 -0.39116219786E-01  0.11290705889E+00  0.51100000000E-03 0. -1.
</event>
<event>
 8    1  0.1126407E+005  0.1043930E+01  0.7957747E-01            NaN
         13   -1    0    0    0    0  0.00000000000E+00  0.00000000000E+00  0.74505805969E-08  0.10566000000E+00  0.10566000000E+00 0.  1.
     999900   -1    0    0    0    0 -0.00000000000E+00 -0.00000000000E+00 -0.74505805969E-08  0.93827000000E+00  0.93827000000E+00 0.  1.
     999902    2    1    2    0    0 -0.12048227012E-01  0.93666979727E-02 -0.17436308882E-01  0.10207584728E+01  0.10204954386E+01 0.  0.
     999903    2    3    3    0    0 -0.24186564683E-01 -0.99921727103E-01  0.75477489833E-01  0.12906106164E+00  0.19762709846E-01 0.  0.
         14    1    1    2    0    0  0.12048227012E-01 -0.93666979727E-02  0.17436308882E-01  0.23171527194E-01  0.00000000000E+00 0.  1.
     999901    1    3    3    0    0  0.12138337671E-01  0.10928842508E+00 -0.92913798716E-01  0.89169741117E+00  0.88000000000E+00 0.  1.
        -11    1    4    4    0    0 -0.99473573204E-02 -0.13164850840E-01  0.15398067311E-01  0.22574871278E-01  0.51100000000E-03 0. -1.
         11    1    4    4    0    0 -0.14239207363E-01 -0.86756876263E-01  0.60079422523E-01  0.10648619036E+00  0.51100000000E-03 0.  1.
</event>
<event>
 8    1  0.1126407E+005  0.1043930E+01  0.7957747E-01            NaN
         13   -1    0    0    0    0  0.00000000000E+00  0.00000000000E+00  0.74505805969E-08  0.10566000000E+00  0.10566000000E+00 0.  1.
     999900   -1    0    0    0    0 -0.00000000000E+00 -0.00000000000E+00 -0.74505805969E-08  0.93827000000E+00  0.93827000000E+00 0. -1.
     999902    2    1    2    0    0  0.57295057008E-02 -0.18954472028E-01  0.12715617213E-01  0.10203973383E+01  0.10201259441E+01 0.  0.
     999903    2    3    3    0    0  0.98273296521E-01  0.47385690759E-01  0.70032624480E-01  0.13121197532E+00  0.20222993807E-01 0.  0.
         14    1    1    2    0    0 -0.57295057008E-02  0.18954472028E-01 -0.12715617213E-01  0.23532661697E-01  0.00000000000E+00 0. -1.
     999901    1    3    3    0    0 -0.92543790820E-01 -0.66340162787E-01 -0.57317007267E-01  0.88918536298E+00  0.88000000000E+00 0.  1.
        -11    1    4    4    0    0  0.71510144515E-01  0.33226653453E-01  0.39443387927E-01  0.88168890434E-01  0.51100000000E-03 0. -1.
         11    1    4    4    0    0  0.26763152006E-01  0.14159037306E-01  0.30589236554E-01  0.43043084888E-01  0.51100000000E-03 0.  1.
</event>
<event>
 8    1  0.1126407E+005  0.1043930E+01  0.7957747E-01            NaN
         13   -1    0    0    0    0  0.00000000000E+00  0.00000000000E+00  0.74505805969E-08  0.10566000000E+00  0.10566000000E+00 0.  1.
     999900   -1    0    0    0    0 -0.00000000000E+00 -0.00000000000E+00 -0.74505805969E-08  0.93827000000E+00  0.93827000000E+00 0. -1.
     999902    2    1    2    0    0 -0.40098002602E-03 -0.10288131662E-01  0.21200259277E-01  0.10203618556E+01  0.10200896328E+01 0.  0.
     999903    2    3    3    0    0 -0.11309013719E+00  0.40444764653E-01  0.49226753903E-01  0.13128471758E+00  0.19678558215E-01 0.  0.
         14    1    1    2    0    0  0.40098002602E-03  0.10288131662E-01 -0.21200259277E-01  0.23568144422E-01  0.00000000000E+00 0. -1.
     999901    1    3    3    0    0  0.11268915716E+00 -0.50732896316E-01 -0.28026494626E-01  0.88907713800E+00  0.88000000000E+00 0. -1.
        -11    1    4    4    0    0 -0.11718652882E-01  0.77680356581E-02  0.29146174384E-03  0.14071790018E-01  0.51100000000E-03 0. -1.
         11    1    4    4    0    0 -0.10137148430E+00  0.32676728995E-01  0.48935292160E-01  0.11721292756E+00  0.51100000000E-03 0.  1.
</event>
<event>
 8    1  0.1126407E+005  0.1043930E+01  0.7957747E-01            NaN
         13   -1    0    0    0    0  0.00000000000E+00  0.00000000000E+00  0.74505805969E-08  0.10566000000E+00  0.10566000000E+00 0. -1.
     999900   -1    0    0    0    0 -0.00000000000E+00 -0.00000000000E+00 -0.74505805969E-08  0.93827000000E+00  0.93827000000E+00 0.  1.
     999902    2    1    2    0    0 -0.66354603415E-02 -0.19428531172E-01 -0.11067954451E-01  0.10206062616E+01  0.10203397201E+01 0.  0.
     999903    2    3    3    0    0  0.95394651338E-01 -0.36217115665E-02 -0.87794555143E-01  0.13125426689E+00  0.20162895750E-01 0.  0.
         14    1    1    2    0    0  0.66354603415E-02  0.19428531172E-01  0.11067954451E-01  0.23323738405E-01  0.00000000000E+00 0. -1.
     999901    1    3    3    0    0 -0.10203011168E+00 -0.15806819606E-01  0.76726600692E-01  0.88935199471E+00  0.88000000000E+00 0.  1.
        -11    1    4    4    0    0  0.75639621414E-01  0.54160004710E-02 -0.68747393199E-01  0.10235795319E+00  0.51100000000E-03 0.  1.
         11    1    4    4    0    0  0.19755029924E-01 -0.90377120375E-02 -0.19047161944E-01  0.28896313697E-01  0.51100000000E-03 0. -1.
</event>
<event>
 8    1  0.1126407E+005  0.1043930E+01  0.7957747E-01            NaN
         13   -1    0    0    0    0  0.00000000000E+00  0.00000000000E+00  0.74505805969E-08  0.10566000000E+00  0.10566000000E+00 0.  1.
     999900   -1    0    0    0    0 -0.00000000000E+00 -0.00000000000E+00 -0.74505805969E-08  0.93827000000E+00  0.93827000000E+00 0.  1.
     999902    2    1    2    0    0 -0.10321627933E-01  0.21542640866E-01 -0.33385234440E-02  0.10198101510E+01  0.10195248780E+01 0.  0.
     999903    2    3    3    0    0 -0.12099937896E+00  0.45707089778E-01 -0.20254116565E-01  0.13238712757E+00  0.19650306462E-01 0.  0.
         14    1    1    2    0    0  0.10321627933E-01 -0.21542640866E-01  0.33385234440E-02  0.24119849035E-01  0.00000000000E+00 0. -1.
     999901    1    3    3    0    0  0.11067775102E+00 -0.24164448912E-01  0.16915593121E-01  0.88742302340E+00  0.88000000000E+00 0. -1.
        -11    1    4    4    0    0 -0.62065809112E-01  0.25245624842E-01 -0.20255734030E-01  0.70000443688E-01  0.51100000000E-03 0.  1.
         11    1    4    4    0    0 -0.58933569846E-01  0.20461464936E-01  0.16174649174E-05  0.62386683881E-01  0.51100000000E-03 0. -1.
</event>
<event>
 8    1  0.1126407E+005  0.1043930E+01  0.7957747E-01            NaN
         13   -1    0    0    0    0  0.00000000000E+00  0.00000000000E+00  0.74505805969E-08  0.10566000000E+00  0.10566000000E+00 0.  1.
     999900   -1    0    0    0    0 -0.00000000000E+00 -0.00000000000E+00 -0.74505805969E-08  0.93827000000E+00  0.93827000000E+00 0.  1.
     999902    2    1    2    0    0  0.15017913739E-02 -0.11991302320E-01  0.21506380466E-01  0.10192607659E+01  0.10189621867E+01 0.  0.
     999903    2    3    3    0    0 -0.84831613458E-01 -0.22876629647E-01 -0.90667538316E-01  0.12788265582E+00  0.20337854577E-01 0.  0.
         14    1    1    2    0    0 -0.15017913739E-02  0.11991302320E-01 -0.21506380466E-01  0.24669234066E-01  0.00000000000E+00 0. -1.
     999901    1    3    3    0    0  0.86333404831E-01  0.10885327327E-01  0.11217391878E+00  0.89137811012E+00  0.88000000000E+00 0. -1.
        -11    1    4    4    0    0 -0.10326238150E-01  0.38348915408E-02 -0.10555065381E-01  0.15264603292E-01  0.51100000000E-03 0. -1.
         11    1    4    4    0    0 -0.74505375308E-01 -0.26711521188E-01 -0.80112472934E-01  0.11261805253E+00  0.51100000000E-03 0.  1.
</event>
<event>
 8    1  0.1126407E+005  0.1043930E+01  0.7957747E-01            NaN
         13   -1    0    0    0    0  0.00000000000E+00  0.00000000000E+00  0.74505805969E-08  0.10566000000E+00  0.10566000000E+00 0.  1.
     999900   -1    0    0    0    0 -0.00000000000E+00 -0.00000000000E+00 -0.74505805969E-08  0.93827000000E+00  0.93827000000E+00 0.  1.
     999902    2    1    2    0    0  0.30781145900E-02  0.13785132284E-01  0.19477026127E-01  0.10198705069E+01  0.10195866769E+01 0.  0.
     999903    2    3    3    0    0 -0.10491047169E+00  0.59346056171E-01  0.48968219597E-01  0.13160981147E+00  0.19876983977E-01 0.  0.
         14    1    1    2    0    0 -0.30781145900E-02 -0.13785132284E-01 -0.19477026127E-01  0.24059493101E-01  0.00000000000E+00 0. -1.
     999901    1    3    3    0    0  0.10798858628E+00 -0.45560923887E-01 -0.29491193470E-01  0.88826069543E+00  0.88000000000E+00 0.  1.
        -11    1    4    4    0    0 -0.76645338797E-01  0.32790763874E-01  0.34119240711E-01  0.90078442829E-01  0.51100000000E-03 0.  1.
         11    1    4    4    0    0 -0.28265132891E-01  0.26555292297E-01  0.14848978886E-01  0.41531368642E-01  0.51100000000E-03 0. -1.
</event>
<event>
 8    1  0.1126407E+005  0.1043930E+01  0.7957747E-01            NaN
         13   -1    0    0    0    0  0.00000000000E+00  0.00000000000E+00  0.74505805969E-08  0.10566000000E+00  0.10566000000E+00 0.  1.
     999900   -1    0    0    0    0 -0.00000000000E+00 -0.00000000000E+00 -0.74505805969E-08  0.93827000000E+00  0.93827000000E+00 0. -1.
     999902    2    1    2    0    0  0.87270555373E-02  0.23778335250E-01 -0.43880895266E-02  0.10182234628E+01  0.10178989115E+01 0.  0.
     999903    2    3    3    0    0 -0.13211908198E-01  0.33857977007E-01  0.12197876265E+00  0.12886892233E+00  0.20185724662E-01 0.  0.
         14    1    1    2    0    0 -0.87270555373E-02 -0.23778335250E-01  0.43880895266E-02  0.25706537209E-01  0.00000000000E+00 0.  1.
     999901    1    3    3    0    0  0.21938963735E-01 -0.10079641757E-01 -0.12636685218E+00  0.88935454046E+00  0.88000000000E+00 0. -1.
        -11    1    4    4    0    0  0.50366805634E-02  0.89973850724E-02  0.38997851960E-01  0.40341227891E-01  0.51100000000E-03 0. -1.
         11    1    4    4    0    0 -0.18248588762E-01  0.24860591934E-01  0.82980910689E-01  0.88527694440E-01  0.51100000000E-03 0.  1.
</event>
<event>
 8    1  0.1126407E+005  0.1043930E+01  0.7957747E-01            NaN
         13   -1    0    0    0    0  0.00000000000E+00  0.00000000000E+00  0.74505805969E-08  0.10566000000E+00  0.10566000000E+00 0. -1.
     999900   -1    0    0    0    0 -0.00000000000E+00 -0.00000000000E+00 -0.74505805969E-08  0.93827000000E+00  0.93827000000E+00 0. -1.
     999902    2    1    2    0    0  0.16722691197E-01 -0.11063744721E-01 -0.14909386040E-01  0.10189431106E+01  0.10186366958E+01 0.  0.
     999903    2    3    3    0    0  0.10649419317E+00  0.18861656824E-01 -0.72933598160E-01  0.13197002118E+00  0.20000036820E-01 0.  0.
         14    1    1    2    0    0 -0.16722691197E-01  0.11063744721E-01  0.14909386040E-01  0.24986889366E-01  0.00000000000E+00 0. -1.
     999901    1    3    3    0    0 -0.89771501971E-01 -0.29925401546E-01  0.58024212120E-01  0.88697308945E+00  0.88000000000E+00 0.  1.
        -11    1    4    4    0    0  0.64772819593E-01  0.21173012779E-01 -0.47122663272E-01  0.82853009258E-01  0.51100000000E-03 0.  1.
         11    1    4    4    0    0  0.41721373575E-01 -0.23113559544E-02 -0.25810934888E-01  0.49117011921E-01  0.51100000000E-03 0. -1.
</event>
<event>
 8    1  0.1126407E+005  0.1043930E+01  0.7957747E-01            NaN
         13   -1    0    0    0    0  0.00000000000E+00  0.00000000000E+00  0.74505805969E-08  0.10566000000E+00  0.10566000000E+00 0. -1.
     999900   -1    0    0    0    0 -0.00000000000E+00 -0.00000000000E+00 -0.74505805969E-08  0.93827000000E+00  0.93827000000E+00 0. -1.
     999902    2    1    2    0    0 -0.86988362475E-02  0.15447821486E-01 -0.15943549574E-01  0.10200867260E+01  0.10198080343E+01 0.  0.
     999903    2    3    3    0    0  0.13371518307E-01  0.73590441917E-01 -0.10803738982E+00  0.13309803373E+00  0.21181556598E-01 0.  0.
         14    1    1    2    0    0  0.86988362475E-02 -0.15447821486E-01  0.15943549574E-01  0.23843273973E-01  0.00000000000E+00 0. -1.
     999901    1    3    3    0    0 -0.22070354554E-01 -0.58142620432E-01  0.92093840242E-01  0.88698869230E+00  0.88000000000E+00 0.  1.
        -11    1    4    4    0    0 -0.10605692160E-03  0.52998163127E-01 -0.70270805781E-01  0.88017406284E-01  0.51100000000E-03 0. -1.
         11    1    4    4    0    0  0.13477575229E-01  0.20592278790E-01 -0.37766584035E-01  0.45080627441E-01  0.51100000000E-03 0.  1.
</event>
<event>
 8    1  0.1126407E+005  0.1043930E+01  0.7957747E-01            NaN
         13   -1    0    0    0    0  0.00000000000E+00  0.00000000000E+00  0.74505805969E-08  0.10566000000E+00  0.10566000000E+00 0. -1.
     999900   -1    0    0    0    0 -0.00000000000E+00 -0.00000000000E+00 -0.74505805969E-08  0.93827000000E+00  0.93827000000E+00 0.  1.
     999902    2    1    2    0    0  0.61935909897E-02  0.18826345384E-01  0.17589008104E-01  0.10174316028E+01  0.10170864768E+01 0.  0.
     999903    2    3    3    0    0 -0.74781164709E-01 -0.69228843865E-01  0.74197321747E-01  0.12753546917E+00  0.19370026435E-01 0.  0.
         14    1    1    2    0    0 -0.61935909897E-02 -0.18826345384E-01 -0.17589008104E-01  0.26498397234E-01  0.00000000000E+00 0.  1.
     999901    1    3    3    0    0  0.80974755698E-01  0.88055189249E-01 -0.56608313643E-01  0.88989613360E+00  0.88000000000E+00 0. -1.
        -11    1    4    4    0    0 -0.64885361187E-01 -0.49382275369E-01  0.58918604608E-01  0.10060011087E+00  0.51100000000E-03 0.  1.
         11    1    4    4    0    0 -0.98958035216E-02 -0.19846568496E-01  0.15278717139E-01  0.26935358301E-01  0.51100000000E-03 0. -1.
</event>
<event>
 8    1  0.1126407E+005  0.1043930E+01  0.7957747E-01            NaN
         13   -1    0    0    0    0  0.00000000000E+00  0.00000000000E+00  0.74505805969E-08  0.10566000000E+00  0.10566000000E+00 0. -1.
     999900   -1    0    0    0    0 -0.00000000000E+00 -0.00000000000E+00 -0.74505805969E-08  0.93827000000E+00  0.93827000000E+00 0. -1.
     999902    2    1    2    0    0  0.17066316494E-01  0.17240625874E-01 -0.22607346108E-02  0.10195659022E+01  0.10192747518E+01 0.  0.
     999903    2    3    3    0    0 -0.31494959100E-02 -0.27352488848E-01  0.12446737996E+00  0.12914058814E+00  0.20666031547E-01 0.  0.
         14    1    1    2    0    0 -0.17066316494E-01 -0.17240625874E-01  0.22607346108E-02  0.24364097771E-01  0.00000000000E+00 0. -1.
     999901    1    3    3    0    0  0.20215812404E-01  0.44593114722E-01 -0.12672811457E+00  0.89042531409E+00  0.88000000000E+00 0. -1.
        -11    1    4    4    0    0 -0.10343543881E-03 -0.27038608207E-01  0.77728418283E-01  0.82298634025E-01  0.51100000000E-03 0.  1.
         11    1    4    4    0    0 -0.30460604712E-02 -0.31388064017E-03  0.46738961677E-01  0.46841954113E-01  0.51100000000E-03 0. -1.
</event>
<event>
 8    1  0.1126407E+005  0.1043930E+01  0.7957747E-01            NaN
         13   -1    0    0    0    0  0.00000000000E+00  0.00000000000E+00  0.74505805969E-08  0.10566000000E+00  0.10566000000E+00 0. -1.
     999900   -1    0    0    0    0 -0.00000000000E+00 -0.00000000000E+00 -0.74505805969E-08  0.93827000000E+00  0.93827000000E+00 0. -1.
     999902    2    1    2    0    0 -0.24315422415E-01  0.55756675629E-02  0.14694420689E-03  0.10189830678E+01  0.10186776443E+01 0.  0.
     999903    2    3    3    0    0 -0.11590018498E+00 -0.33110373356E-01 -0.49844250903E-01  0.13197489525E+00  0.20094126649E-01 0.  0.
         14    1    1    2    0    0  0.24315422415E-01 -0.55756675629E-02 -0.14694420689E-03  0.24946932248E-01  0.00000000000E+00 0.  1.
     999901    1    3    3    0    0  0.91584762566E-01  0.38686040919E-01  0.49991195109E-01  0.88700817250E+00  0.88000000000E+00 0. -1.
        -11    1    4    4    0    0 -0.82373099500E-01 -0.27599564824E-01 -0.26792255777E-01  0.90912868123E-01  0.51100000000E-03 0.  1.
         11    1    4    4    0    0 -0.33527085482E-01 -0.55108085322E-02 -0.23051995125E-01  0.41062027128E-01  0.51100000000E-03 0. -1.
</event>
<event>
 8    1  0.1126407E+005  0.1043930E+01  0.7957747E-01            NaN
         13   -1    0    0    0    0  0.00000000000E+00  0.00000000000E+00  0.74505805969E-08  0.10566000000E+00  0.10566000000E+00 0.  1.
     999900   -1    0    0    0    0 -0.00000000000E+00 -0.00000000000E+00 -0.74505805969E-08  0.93827000000E+00  0.93827000000E+00 0. -1.
     999902    2    1    2    0    0 -0.11798486957E-01 -0.47137400656E-02 -0.20857760416E-01  0.10195072686E+01  0.10192146981E+01 0.  0.
     999903    2    3    3    0    0  0.77106156099E-02  0.96960363975E-01 -0.85411343256E-01  0.13108991533E+00  0.20705133893E-01 0.  0.
         14    1    1    2    0    0  0.11798486957E-01  0.47137400656E-02  0.20857760416E-01  0.24422731409E-01  0.00000000000E+00 0. -1.
     999901    1    3    3    0    0 -0.19509102567E-01 -0.10167410404E+00  0.64553582840E-01  0.88841735326E+00  0.88000000000E+00 0.  1.
        -11    1    4    4    0    0  0.13702802150E-01  0.80169318218E-01 -0.73658585177E-01  0.10973028143E+00  0.51100000000E-03 0.  1.
         11    1    4    4    0    0 -0.59921865406E-02  0.16791045757E-01 -0.11752758079E-01  0.21359633906E-01  0.51100000000E-03 0. -1.
</event>
<event>
 8    1  0.1126407E+005  0.1043930E+01  0.7957747E-01            NaN
         13   -1    0    0    0    0  0.00000000000E+00  0.00000000000E+00  0.74505805969E-08  0.10566000000E+00  0.10566000000E+00 0.  1.
     999900   -1    0    0    0    0 -0.00000000000E+00 -0.00000000000E+00 -0.74505805969E-08  0.93827000000E+00  0.93827000000E+00 0. -1.
     999902    2    1    2    0    0  0.50356730254E-02 -0.22928454082E-01 -0.58392728904E-02  0.10197397309E+01  0.10194527697E+01 0.  0.
     999903    2    3    3    0    0 -0.95167417689E-01 -0.26992408144E-02 -0.86565227891E-01  0.13015187116E+00  0.19540921044E-01 0.  0.
         14    1    1    2    0    0 -0.50356730254E-02  0.22928454082E-01  0.58392728904E-02  0.24190269063E-01  0.00000000000E+00 0. -1.
     999901    1    3    3    0    0  0.10020309071E+00 -0.20229213268E-01  0.80725955001E-01  0.88958785978E+00  0.88000000000E+00 0.  1.
        -11    1    4    4    0    0 -0.17146356394E-01  0.44976990776E-02 -0.89521230719E-02  0.19865257690E-01  0.51100000000E-03 0. -1.
         11    1    4    4    0    0 -0.78021061295E-01 -0.71969398920E-02 -0.77613104819E-01  0.11028661347E+00  0.51100000000E-03 0.  1.
</event>
<event>
 8    1  0.1126407E+005  0.1043930E+01  0.7957747E-01            NaN
         13   -1    0    0    0    0  0.00000000000E+00  0.00000000000E+00  0.74505805969E-08  0.10566000000E+00  0.10566000000E+00 0.  1.
     999900   -1    0    0    0    0 -0.00000000000E+00 -0.00000000000E+00 -0.74505805969E-08  0.93827000000E+00  0.93827000000E+00 0.  1.
     999902    2    1    2    0    0  0.17716496527E-01 -0.11697838729E-01 -0.11497908910E-01  0.10197863551E+01  0.10195005122E+01 0.  0.
     999903    2    3    3    0    0  0.23424596216E-01 -0.10682253000E+00 -0.72237481847E-01  0.13256001136E+00  0.19852914259E-01 0.  0.
         14    1    1    2    0    0 -0.17716496527E-01  0.11697838729E-01  0.11497908910E-01  0.24143644908E-01  0.00000000000E+00 0.  1.
     999901    1    3    3    0    0 -0.57080996893E-02  0.95124691272E-01  0.60739572937E-01  0.88722634373E+00  0.88000000000E+00 0. -1.
        -11    1    4    4    0    0 -0.28798319560E-02 -0.17054384240E-01 -0.78657658120E-02  0.19007284043E-01  0.51100000000E-03 0.  1.
         11    1    4    4    0    0  0.26304428172E-01 -0.89768145761E-01 -0.64371716035E-01  0.11355272732E+00  0.51100000000E-03 0. -1.
</event>
<event>
 8    1  0.1126407E+005  0.1043930E+01  0.7957747E-01            NaN
         13   -1    0    0    0    0  0.00000000000E+00  0.00000000000E+00  0.74505805969E-08  0.10566000000E+00  0.10566000000E+00 0. -1.
     999900   -1    0    0    0    0 -0.00000000000E+00 -0.00000000000E+00 -0.74505805969E-08  0.93827000000E+00  0.93827000000E+00 0.  1.
     999902    2    1    2    0    0  0.76552950582E-02  0.33200452832E-02  0.22207300092E-01  0.10202067957E+01  0.10199309367E+01 0.  0.
     999903    2    3    3    0    0  0.59163252379E-01 -0.98778173152E-01 -0.55592649597E-01  0.12940381637E+00  0.19934569949E-01 0.  0.
         14    1    1    2    0    0 -0.76552950582E-02 -0.33200452832E-02 -0.22207300092E-01  0.23723204262E-01  0.00000000000E+00 0.  1.
     999901    1    3    3    0    0 -0.51507957321E-01  0.10209821844E+00  0.77799949689E-01  0.89080297937E+00  0.88000000000E+00 0. -1.
        -11    1    4    4    0    0  0.12165464806E-01 -0.30605062831E-01 -0.24096059242E-01  0.40811145498E-01  0.51100000000E-03 0.  1.
         11    1    4    4    0    0  0.46997787573E-01 -0.68173110321E-01 -0.31496590354E-01  0.88592670874E-01  0.51100000000E-03 0. -1.
</event>
<event>
 8    1  0.1126407E+005  0.1043930E+01  0.7957747E-01            NaN
         13   -1    0    0    0    0  0.00000000000E+00  0.00000000000E+00  0.74505805969E-08  0.10566000000E+00  0.10566000000E+00 0.  1.
     999900   -1    0    0    0    0 -0.00000000000E+00 -0.00000000000E+00 -0.74505805969E-08  0.93827000000E+00  0.93827000000E+00 0. -1.
     999902    2    1    2    0    0  0.23010432890E-01  0.41635705772E-03  0.17750339988E-02  0.10208474499E+01  0.10205864548E+01 0.  0.
     999903    2    3    3    0    0 -0.10201421336E+00  0.40170700520E-01 -0.64265459475E-01  0.12867430704E+00  0.20160434097E-01 0.  0.
         14    1    1    2    0    0 -0.23010432890E-01 -0.41635705772E-03 -0.17750339988E-02  0.23082550134E-01  0.00000000000E+00 0. -1.
     999901    1    3    3    0    0  0.12502464625E+00 -0.39754343462E-01  0.66040493474E-01  0.89217314282E+00  0.88000000000E+00 0.  1.
        -11    1    4    4    0    0 -0.35911929677E-02 -0.16805483369E-02 -0.49904900481E-02  0.63942960178E-02  0.51100000000E-03 0. -1.
         11    1    4    4    0    0 -0.98423020397E-01  0.41851248857E-01 -0.59274969427E-01  0.12228001103E+00  0.51100000000E-03 0.  1.
</event>
<event>
 8    1  0.1126407E+005  0.1043930E+01  0.7957747E-01            NaN
         13   -1    0    0    0    0  0.00000000000E+00  0.00000000000E+00  0.74505805969E-08  0.10566000000E+00  0.10566000000E+00 0. -1.
     999900   -1    0    0    0    0 -0.00000000000E+00 -0.00000000000E+00 -0.74505805969E-08  0.93827000000E+00  0.93827000000E+00 0. -1.
     999902    2    1    2    0    0  0.20371958930E-01 -0.51431311621E-03  0.92204585052E-02  0.10215626559E+01  0.10213177575E+01 0.  0.
     999903    2    3    3    0    0  0.15589060225E-01 -0.12150635885E+00  0.46565837363E-01  0.13248637760E+00  0.19428046730E-01 0.  0.
         14    1    1    2    0    0 -0.20371958930E-01  0.51431311621E-03 -0.92204585052E-02  0.22367344136E-01  0.00000000000E+00 0. -1.
     999901    1    3    3    0    0  0.47828987055E-02  0.12099204574E+00 -0.37345378858E-01  0.88907627826E+00  0.88000000000E+00 0. -1.
        -11    1    4    4    0    0  0.37695417017E-02 -0.82294656520E-01  0.24423173977E-01  0.85926552849E-01  0.51100000000E-03 0. -1.
         11    1    4    4    0    0  0.11819518523E-01 -0.39211702332E-01  0.22142663387E-01  0.46559824751E-01  0.51100000000E-03 0.  1.
</event>
<event>
 8    1  0.1126407E+005  0.1043930E+01  0.7957747E-01            NaN
         13   -1    0    0    0    0  0.00000000000E+00  0.00000000000E+00  0.74505805969E-08  0.10566000000E+00  0.10566000000E+00 0. -1.
     999900   -1    0    0    0    0 -0.00000000000E+00 -0.00000000000E+00 -0.74505805969E-08  0.93827000000E+00  0.93827000000E+00 0. -1.
     999902    2    1    2    0    0  0.72150818334E-02  0.52537786804E-02  0.22253703835E-01  0.10199532002E+01  0.10196713410E+01 0.  0.
     999903    2    3    3    0    0  0.29655712724E-01  0.94165269492E-01  0.86242888679E-01  0.13287741372E+00  0.21725836064E-01 0.  0.
         14    1    1    2    0    0 -0.72150818334E-02 -0.52537786804E-02 -0.22253703835E-01  0.23976799842E-01  0.00000000000E+00 0.  1.
     999901    1    3    3    0    0 -0.22440630891E-01 -0.88911490811E-01 -0.63989184844E-01  0.88707578644E+00  0.88000000000E+00 0. -1.
        -11    1    4    4    0    0  0.15835040039E-01  0.34725037816E-01  0.46009979180E-01  0.59780900374E-01  0.51100000000E-03 0.  1.
         11    1    4    4    0    0  0.13820672686E-01  0.59440231675E-01  0.40232909499E-01  0.73096513343E-01  0.51100000000E-03 0. -1.
</event>
<event>
 8    1  0.1126407E+005  0.1043930E+01  0.7957747E-01            NaN
         13   -1    0    0    0    0  0.00000000000E+00  0.00000000000E+00  0.74505805969E-08  0.10566000000E+00  0.10566000000E+00 0. -1.
     999900   -1    0    0    0    0 -0.00000000000E+00 -0.00000000000E+00 -0.74505805969E-08  0.93827000000E+00  0.93827000000E+00 0.  1.
     999902    2    1    2    0    0 -0.56517914563E-02 -0.17428050511E-01  0.16429928451E-01  0.10193206067E+01  0.10190234918E+01 0.  0.
     999903    2    3    3    0    0 -0.10896628368E+00  0.60271879318E-01  0.30670232628E-01  0.12976231759E+00  0.19779926207E-01 0.  0.
         14    1    1    2    0    0  0.56517914563E-02  0.17428050511E-01 -0.16429928451E-01  0.24609393333E-01  0.00000000000E+00 0. -1.
     999901    1    3    3    0    0  0.10331449223E+00 -0.77699929829E-01 -0.14240304177E-01  0.88955828908E+00  0.88000000000E+00 0. -1.
        -11    1    4    4    0    0 -0.49417882032E-03 -0.53045593515E-03 -0.11030497886E-02  0.14154278653E-02  0.51100000000E-03 0. -1.
         11    1    4    4    0    0 -0.10847210486E+00  0.60802335253E-01  0.31773282416E-01  0.12834688973E+00  0.51100000000E-03 0.  1.
</event>
<event>
 8    1  0.1126407E+005  0.1043930E+01  0.7957747E-01            NaN
         13   -1    0    0    0    0  0.00000000000E+00  0.00000000000E+00  0.74505805969E-08  0.10566000000E+00  0.10566000000E+00 0.  1.
     999900   -1    0    0    0    0 -0.00000000000E+00 -0.00000000000E+00 -0.74505805969E-08  0.93827000000E+00  0.93827000000E+00 0. -1.
     999902    2    1    2    0    0  0.10421745208E-01  0.24375694301E-02 -0.21637755736E-01  0.10197898469E+01  0.10195040877E+01 0.  0.
     999903    2    3    3    0    0 -0.13979510602E-01 -0.99759598798E-01  0.76645450243E-01  0.12810645520E+00  0.19731562315E-01 0.  0.
         14    1    1    2    0    0 -0.10421745208E-01 -0.24375694301E-02  0.21637755736E-01  0.24140153090E-01  0.00000000000E+00 0.  1.
     999901    1    3    3    0    0  0.24401255810E-01  0.10219716823E+00 -0.98283205979E-01  0.89168339171E+00  0.88000000000E+00 0. -1.
        -11    1    4    4    0    0 -0.18775435387E-01 -0.82808661544E-01  0.61148900570E-01  0.10463861889E+00  0.51100000000E-03 0.  1.
         11    1    4    4    0    0  0.47959247853E-02 -0.16950937254E-01  0.15496549673E-01  0.23467836311E-01  0.51100000000E-03 0. -1.
</event>
<event>
 8    1  0.1126407E+005  0.1043930E+01  0.7957747E-01            NaN
         13   -1    0    0    0    0  0.00000000000E+00  0.00000000000E+00  0.74505805969E-08  0.10566000000E+00  0.10566000000E+00 0. -1.
     999900   -1    0    0    0    0 -0.00000000000E+00 -0.00000000000E+00 -0.74505805969E-08  0.93827000000E+00  0.93827000000E+00 0. -1.
     999902    2    1    2    0    0  0.17496783120E-01  0.31368296055E-02  0.14171830524E-01  0.10211963707E+01  0.10209432941E+01 0.  0.
     999903    2    3    3    0    0 -0.61915821350E-02 -0.79310835974E-01  0.10403756297E+00  0.13246997522E+00  0.19898126399E-01 0.  0.
         14    1    1    2    0    0 -0.17496783120E-01 -0.31368296055E-02 -0.14171830524E-01  0.22733629272E-01  0.00000000000E+00 0.  1.
     999901    1    3    3    0    0  0.23688365255E-01  0.82447665580E-01 -0.89865732442E-01  0.88872639551E+00  0.88000000000E+00 0. -1.
        -11    1    4    4    0    0 -0.76611790461E-02 -0.12371726262E-01  0.24510870796E-01  0.28509598090E-01  0.51100000000E-03 0.  1.
         11    1    4    4    0    0  0.14695969112E-02 -0.66939109713E-01  0.79526692170E-01  0.10396037713E+00  0.51100000000E-03 0. -1.
</event>
<event>
 8    1  0.1126407E+005  0.1043930E+01  0.7957747E-01            NaN
         13   -1    0    0    0    0  0.00000000000E+00  0.00000000000E+00  0.74505805969E-08  0.10566000000E+00  0.10566000000E+00 0. -1.
     999900   -1    0    0    0    0 -0.00000000000E+00 -0.00000000000E+00 -0.74505805969E-08  0.93827000000E+00  0.93827000000E+00 0. -1.
     999902    2    1    2    0    0 -0.15443662675E-01  0.17894340141E-01  0.20505454589E-04  0.10202928566E+01  0.10200190188E+01 0.  0.
     999903    2    3    3    0    0  0.49031549949E-01  0.89438814344E-02 -0.11833707511E+00  0.12998634726E+00  0.20216360325E-01 0.  0.
         14    1    1    2    0    0  0.15443662675E-01 -0.17894340141E-01 -0.20505454589E-04  0.23637143363E-01  0.00000000000E+00 0. -1.
     999901    1    3    3    0    0 -0.64475212624E-01  0.89504587064E-02  0.11835758056E+00  0.89030650937E+00  0.88000000000E+00 0.  1.
        -11    1    4    4    0    0  0.33562021113E-01  0.29514732374E-02 -0.54915794470E-01  0.64429232951E-01  0.51100000000E-03 0.  1.
         11    1    4    4    0    0  0.15469528836E-01  0.59924081969E-02 -0.63421280637E-01  0.65557114313E-01  0.51100000000E-03 0. -1.
</event>
<event>
 8    1  0.1126407E+005  0.1043930E+01  0.7957747E-01            NaN
         13   -1    0    0    0    0  0.00000000000E+00  0.00000000000E+00  0.74505805969E-08  0.10566000000E+00  0.10566000000E+00 0.  1.
     999900   -1    0    0    0    0 -0.00000000000E+00 -0.00000000000E+00 -0.74505805969E-08  0.93827000000E+00  0.93827000000E+00 0. -1.
     999902    2    1    2    0    0 -0.22783723958E-02  0.21323437666E-01  0.98481726291E-02  0.10203319815E+01  0.10200590600E+01 0.  0.
     999903    2    3    3    0    0  0.91094420168E-01  0.89487594465E-01 -0.26945334095E-01  0.13200850840E+00  0.19848735758E-01 0.  0.
         14    1    1    2    0    0  0.22783723958E-02 -0.21323437666E-01 -0.98481726291E-02  0.23598018536E-01  0.00000000000E+00 0.  1.
     999901    1    3    3    0    0 -0.93372792564E-01 -0.68164156799E-01  0.36793506724E-01  0.88832347307E+00  0.88000000000E+00 0.  1.
        -11    1    4    4    0    0  0.23150851221E-01  0.21546327089E-01 -0.15558838997E-01  0.35249747733E-01  0.51100000000E-03 0.  1.
         11    1    4    4    0    0  0.67943568947E-01  0.67941267376E-01 -0.11386495097E-01  0.96758760665E-01  0.51100000000E-03 0. -1.
</event>
<event>
 8    1  0.1126407E+005  0.1043930E+01  0.7957747E-01            NaN
         13   -1    0    0    0    0  0.00000000000E+00  0.00000000000E+00  0.74505805969E-08  0.10566000000E+00  0.10566000000E+00 0.  1.
     999900   -1    0    0    0    0 -0.00000000000E+00 -0.00000000000E+00 -0.74505805969E-08  0.93827000000E+00  0.93827000000E+00 0.  1.
     999902    2    1    2    0    0  0.22432011827E-01  0.17940941806E-02  0.91121786911E-02  0.10196514966E+01  0.10193624128E+01 0.  0.
     999903    2    3    3    0    0 -0.88502529400E-02  0.10565554099E+00 -0.71364994443E-01  0.12934685454E+00  0.19905427081E-01 0.  0.
         14    1    1    2    0    0 -0.22432011827E-01 -0.17940941806E-02 -0.91121786911E-02  0.24278503435E-01  0.00000000000E+00 0. -1.
     999901    1    3    3    0    0  0.31282264767E-01 -0.10386144681E+00  0.80477173134E-01  0.89030464203E+00  0.88000000000E+00 0. -1.
        -11    1    4    4    0    0 -0.59361199236E-02  0.58588306568E-01 -0.27713903852E-01  0.65085703299E-01  0.51100000000E-03 0. -1.
         11    1    4    4    0    0 -0.29141330164E-02  0.47067234424E-01 -0.43651090591E-01  0.64261151237E-01  0.51100000000E-03 0.  1.
</event>
<event>
 8    1  0.1126407E+005  0.1043930E+01  0.7957747E-01            NaN
         13   -1    0    0    0    0  0.00000000000E+00  0.00000000000E+00  0.74505805969E-08  0.10566000000E+00  0.10566000000E+00 0. -1.
     999900   -1    0    0    0    0 -0.00000000000E+00 -0.00000000000E+00 -0.74505805969E-08  0.93827000000E+00  0.93827000000E+00 0.  1.
     999902    2    1    2    0    0  0.17285352139E-02  0.23818410588E-01  0.37359122637E-02  0.10197584970E+01  0.10194719862E+01 0.  0.
     999903    2    3    3    0    0 -0.10352298697E+00  0.66276518014E-01  0.38089505862E-01  0.13180537706E+00  0.28500198157E-01 0.  0.
         14    1    1    2    0    0 -0.17285352139E-02 -0.23818410588E-01 -0.37359122637E-02  0.24171503001E-01  0.00000000000E+00 0.  1.
     999901    1    3    3    0    0  0.10525152218E+00 -0.42458107426E-01 -0.34353593598E-01  0.88795311993E+00  0.88000000000E+00 0. -1.
        -11    1    4    4    0    0 -0.64207989260E-01  0.25621630174E-01  0.26715474738E-01  0.74115528259E-01  0.51100000000E-03 0. -1.
         11    1    4    4    0    0 -0.39314997710E-01  0.40654887839E-01  0.11374031123E-01  0.57689848805E-01  0.51100000000E-03 0.  1.
</event>
<event>
 8    1  0.1126407E+005  0.1043930E+01  0.7957747E-01            NaN
         13   -1    0    0    0    0  0.00000000000E+00  0.00000000000E+00  0.74505805969E-08  0.10566000000E+00  0.10566000000E+00 0. -1.
     999900   -1    0    0    0    0 -0.00000000000E+00 -0.00000000000E+00 -0.74505805969E-08  0.93827000000E+00  0.93827000000E+00 0.  1.
     999902    2    1    2    0    0  0.14367957144E-01  0.11451473336E-01  0.11949173767E-01  0.10220129476E+01  0.10217779151E+01 0.  0.
     999903    2    3    3    0    0  0.25184358425E-01  0.21677360489E-01  0.12828136486E+00  0.13423215142E+00  0.21400982160E-01 0.  0.
         14    1    1    2    0    0 -0.14367957144E-01 -0.11451473336E-01 -0.11949173767E-01  0.21917052443E-01  0.00000000000E+00 0. -1.
     999901    1    3    3    0    0 -0.10816401281E-01 -0.10225887153E-01 -0.11633219109E+00  0.88778079614E+00  0.88000000000E+00 0.  1.
        -11    1    4    4    0    0  0.15933633494E-01  0.55117530217E-02  0.91044450044E-01  0.92593807042E-01  0.51100000000E-03 0.  1.
         11    1    4    4    0    0  0.92507249312E-02  0.16165607467E-01  0.37236914816E-01  0.41638344378E-01  0.51100000000E-03 0. -1.
</event>
<event>
 8    1  0.1126407E+005  0.1043930E+01  0.7957747E-01            NaN
         13   -1    0    0    0    0  0.00000000000E+00  0.00000000000E+00  0.74505805969E-08  0.10566000000E+00  0.10566000000E+00 0.  1.
     999900   -1    0    0    0    0 -0.00000000000E+00 -0.00000000000E+00 -0.74505805969E-08  0.93827000000E+00  0.93827000000E+00 0.  1.
     999902    2    1    2    0    0 -0.39959511792E-02 -0.22588944675E-01  0.46007520368E-02  0.10205335266E+01  0.10202653008E+01 0.  0.
     999903    2    3    3    0    0  0.51183494384E-01 -0.78692467115E-01  0.91719875253E-01  0.13273731235E+00  0.19859609640E-01 0.  0.
         14    1    1    2    0    0  0.39959511792E-02  0.22588944675E-01 -0.46007520368E-02  0.23396473381E-01  0.00000000000E+00 0. -1.
     999901    1    3    3    0    0 -0.55179445564E-01  0.56103522441E-01 -0.87119123216E-01  0.88779621427E+00  0.88000000000E+00 0.  1.
        -11    1    4    4    0    0  0.41747856643E-01 -0.48945843823E-01  0.67348360977E-01  0.93137758235E-01  0.51100000000E-03 0.  1.
         11    1    4    4    0    0  0.94356377417E-02 -0.29746623292E-01  0.24371514277E-01  0.39599554114E-01  0.51100000000E-03 0. -1.
</event>
<event>
 8    1  0.1126407E+005  0.1043930E+01  0.7957747E-01            NaN
         13   -1    0    0    0    0  0.00000000000E+00  0.00000000000E+00  0.74505805969E-08  0.10566000000E+00  0.10566000000E+00 0.  1.
     999900   -1    0    0    0    0 -0.00000000000E+00 -0.00000000000E+00 -0.74505805969E-08  0.93827000000E+00  0.93827000000E+00 0.  1.
     999902    2    1    2    0    0 -0.18286258546E-01  0.14393533829E-01  0.29828994251E-02  0.10204681425E+01  0.10201983979E+01 0.  0.
     999903    2    3    3    0    0 -0.67630798622E-01  0.79113045750E-01  0.80357118139E-01  0.13333215036E+00  0.22077068495E-01 0.  0.
         14    1    1    2    0    0  0.18286258546E-01 -0.14393533829E-01 -0.29828994251E-02  0.23461857486E-01  0.00000000000E+00 0.  1.
     999901    1    3    3    0    0  0.49344540076E-01 -0.64719511920E-01 -0.77374218714E-01  0.88713599216E+00  0.88000000000E+00 0.  1.
        -11    1    4    4    0    0 -0.35638852777E-01  0.42792210626E-01  0.56627551901E-01  0.79424441281E-01  0.51100000000E-03 0. -1.
         11    1    4    4    0    0 -0.31991945845E-01  0.36320835123E-01  0.23729566238E-01  0.53907709076E-01  0.51100000000E-03 0.  1.
</event>
<event>
 8    1  0.1126407E+005  0.1043930E+01  0.7957747E-01            NaN
         13   -1    0    0    0    0  0.00000000000E+00  0.00000000000E+00  0.74505805969E-08  0.10566000000E+00  0.10566000000E+00 0.  1.
     999900   -1    0    0    0    0 -0.00000000000E+00 -0.00000000000E+00 -0.74505805969E-08  0.93827000000E+00  0.93827000000E+00 0. -1.
     999902    2    1    2    0    0  0.23045487643E-01 -0.20603237438E-02  0.43720905937E-02  0.10203831401E+01  0.10201114145E+01 0.  0.
     999903    2    3    3    0    0  0.80554579661E-01 -0.20120165355E-01 -0.10078885262E+00  0.13207447893E+00  0.19784180923E-01 0.  0.
         14    1    1    2    0    0 -0.23045487643E-01  0.20603237438E-02 -0.43720905937E-02  0.23546859893E-01  0.00000000000E+00 0.  1.
     999901    1    3    3    0    0 -0.57509092018E-01  0.18059841611E-01  0.10516094321E+00  0.88830866118E+00  0.88000000000E+00 0.  1.
        -11    1    4    4    0    0  0.42802943758E-01 -0.14187309569E-02 -0.44487769444E-01  0.61753765416E-01  0.51100000000E-03 0.  1.
         11    1    4    4    0    0  0.37751635903E-01 -0.18701434398E-01 -0.56301083172E-01  0.70320713515E-01  0.51100000000E-03 0. -1.
</event>
<event>
 8    1  0.1126407E+005  0.1043930E+01  0.7957747E-01            NaN
         13   -1    0    0    0    0  0.00000000000E+00  0.00000000000E+00  0.74505805969E-08  0.10566000000E+00  0.10566000000E+00 0. -1.
     999900   -1    0    0    0    0 -0.00000000000E+00 -0.00000000000E+00 -0.74505805969E-08  0.93827000000E+00  0.93827000000E+00 0.  1.
     999902    2    1    2    0    0  0.34313345948E-02 -0.21004268728E-01 -0.11477006684E-01  0.10197499453E+01  0.10194632293E+01 0.  0.
     999903    2    3    3    0    0 -0.31395956652E-01  0.11292090780E-01  0.12279537962E+00  0.12829884247E+00  0.16391165768E-01 0.  0.
         14    1    1    2    0    0 -0.34313345948E-02  0.21004268728E-01  0.11477006684E-01  0.24180054680E-01  0.00000000000E+00 0. -1.
     999901    1    3    3    0    0  0.34827291247E-01 -0.32296359508E-01 -0.13427238630E+00  0.89145110285E+00  0.88000000000E+00 0.  1.
        -11    1    4    4    0    0 -0.12151629632E-01  0.85843904228E-02  0.78885343927E-01  0.80277720876E-01  0.51100000000E-03 0.  1.
         11    1    4    4    0    0 -0.19244327020E-01  0.27077003572E-02  0.43910035690E-01  0.48021121592E-01  0.51100000000E-03 0. -1.
</event>
<event>
 8    1  0.1126407E+005  0.1043930E+01  0.7957747E-01            NaN
         13   -1    0    0    0    0  0.00000000000E+00  0.00000000000E+00  0.74505805969E-08  0.10566000000E+00  0.10566000000E+00 0. -1.
     999900   -1    0    0    0    0 -0.00000000000E+00 -0.00000000000E+00 -0.74505805969E-08  0.93827000000E+00  0.93827000000E+00 0. -1.
     999902    2    1    2    0    0 -0.18878199939E-01 -0.15256040429E-01 -0.20399558514E-02  0.10195723601E+01  0.10192813659E+01 0.  0.
     999903    2    3    3    0    0 -0.10037881462E+00 -0.59967049262E-01 -0.59533056204E-01  0.13281033953E+00  0.20553541891E-01 0.  0.
         14    1    1    2    0    0  0.18878199939E-01  0.15256040429E-01  0.20399558514E-02  0.24357639918E-01  0.00000000000E+00 0. -1.
     999901    1    3    3    0    0  0.81500614677E-01  0.44711008833E-01  0.57493100352E-01  0.88676202055E+00  0.88000000000E+00 0.  1.
        -11    1    4    4    0    0 -0.52795433605E-01 -0.20957310781E-01 -0.23262641589E-01  0.61383860252E-01  0.51100000000E-03 0.  1.
         11    1    4    4    0    0 -0.47583381011E-01 -0.39009738481E-01 -0.36270414614E-01  0.71426479278E-01  0.51100000000E-03 0. -1.
</event>
<event>
 8    1  0.1126407E+005  0.1043930E+01  0.7957747E-01            NaN
         13   -1    0    0    0    0  0.00000000000E+00  0.00000000000E+00  0.74505805969E-08  0.10566000000E+00  0.10566000000E+00 0.  1.
     999900   -1    0    0    0    0 -0.00000000000E+00 -0.00000000000E+00 -0.74505805969E-08  0.93827000000E+00  0.93827000000E+00 0. -1.
     999902    2    1    2    0    0 -0.73628472268E-02  0.55157794405E-02  0.21836043064E-01  0.10202351035E+01  0.10199599102E+01 0.  0.
     999903    2    3    3    0    0 -0.45290143143E-01 -0.23852915491E-01 -0.11570653789E+00  0.12826034963E+00  0.21037008659E-01 0.  0.
         14    1    1    2    0    0  0.73628472268E-02 -0.55157794405E-02 -0.21836043064E-01  0.23694896472E-01  0.00000000000E+00 0. -1.
     999901    1    3    3    0    0  0.37927295917E-01  0.29368694931E-01  0.13754258095E+00  0.89197475390E+00  0.88000000000E+00 0.  1.
        -11    1    4    4    0    0 -0.14576047804E-01 -0.10699365572E-01 -0.20395656479E-01  0.27261355752E-01  0.51100000000E-03 0.  1.
         11    1    4    4    0    0 -0.30714095339E-01 -0.13153549919E-01 -0.95310881410E-01  0.10099899388E+00  0.51100000000E-03 0. -1.
</event>
<event>
 8    1  0.1126407E+005  0.1043930E+01  0.7957747E-01            NaN
         13   -1    0    0    0    0  0.00000000000E+00  0.00000000000E+00  0.74505805969E-08  0.10566000000E+00  0.10566000000E+00 0.  1.
     999900   -1    0    0    0    0 -0.00000000000E+00 -0.00000000000E+00 -0.74505805969E-08  0.93827000000E+00  0.93827000000E+00 0.  1.
     999902    2    1    2    0    0 -0.88372372114E-02  0.45178285346E-02  0.20791651803E-01  0.10208908958E+01  0.10206308936E+01 0.  0.
     999903    2    3    3    0    0 -0.66725272894E-01 -0.31091272955E-01 -0.10463054693E+00  0.12940350909E+00  0.19462464312E-01 0.  0.
         14    1    1    2    0    0  0.88372372114E-02 -0.45178285346E-02 -0.20791651803E-01  0.23039104168E-01  0.00000000000E+00 0. -1.
     999901    1    3    3    0    0  0.57888035683E-01  0.35609101490E-01  0.12542219873E+00  0.89148738674E+00  0.88000000000E+00 0. -1.
        -11    1    4    4    0    0 -0.30916041394E-01 -0.10508308740E-01 -0.31273521014E-01  0.45216373203E-01  0.51100000000E-03 0.  1.
         11    1    4    4    0    0 -0.35809231500E-01 -0.20582964215E-01 -0.73357025916E-01  0.84187135887E-01  0.51100000000E-03 0. -1.
</event>
<event>
 7    1  0.1842622E+005  0.1043930E+01  0.7957747E-01            NaN
         13   -1    0    0    0    0  0.00000000000E+00  0.00000000000E+00  0.74505805969E-08  0.10566000000E+00  0.10566000000E+00 0. -1.
     999900   -1    0    0    0    0 -0.00000000000E+00 -0.00000000000E+00 -0.74505805969E-08  0.93827000000E+00  0.93827000000E+00 0.  1.
     999903    2    1    2    0    0 -0.78246890850E-01  0.29754034790E-01 -0.19596073636E-01  0.87591741901E-01  0.16746003505E-01 0.  0.
         14    1    1    2    0    0  0.74070830858E-01  0.99024597541E-02 -0.68108812174E-02  0.75039554877E-01  0.00000000000E+00 0. -1.
     999901    1    1    2    0    0  0.41760599924E-02 -0.39656494544E-01  0.26406954853E-01  0.88129870322E+00  0.88000000000E+00 0. -1.
        -11    1    3    3    0    0 -0.31224025157E-01  0.17517424656E-01 -0.18247681776E-02  0.35852347391E-01  0.51100000000E-03 0. -1.
         11    1    3    3    0    0 -0.47022865693E-01  0.12236610134E-01 -0.17771305458E-01  0.51739394510E-01  0.51100000000E-03 0.  1.
</event>
<event>
 8    1  0.1126407E+005  0.1043930E+01  0.7957747E-01            NaN
         13   -1    0    0    0    0  0.00000000000E+00  0.00000000000E+00  0.74505805969E-08  0.10566000000E+00  0.10566000000E+00 0. -1.
     999900   -1    0    0    0    0 -0.00000000000E+00 -0.00000000000E+00 -0.74505805969E-08  0.93827000000E+00  0.93827000000E+00 0. -1.
     999902    2    1    2    0    0 -0.25900814703E-01 -0.22328824153E-03  0.69411651003E-03  0.10180189240E+01  0.10176891204E+01 0.  0.
     999903    2    3    3    0    0  0.74351124574E-02 -0.91389349693E-01 -0.87457230720E-01  0.12830369161E+00  0.20143880953E-01 0.  0.
         14    1    1    2    0    0  0.25900814703E-01  0.22328824153E-03 -0.69411651003E-03  0.25911075964E-01  0.00000000000E+00 0. -1.
     999901    1    3    3    0    0 -0.33335927160E-01  0.91166061451E-01  0.88151347230E-01  0.88971523243E+00  0.88000000000E+00 0.  1.
        -11    1    4    4    0    0  0.12330534909E-01 -0.44125904737E-01 -0.36073412291E-01  0.58315433252E-01  0.51100000000E-03 0. -1.
         11    1    4    4    0    0 -0.48954224518E-02 -0.47263444956E-01 -0.51383818428E-01  0.69988258354E-01  0.51100000000E-03 0.  1.
</event>
<event>
 8    1  0.1126407E+005  0.1043930E+01  0.7957747E-01            NaN
         13   -1    0    0    0    0  0.00000000000E+00  0.00000000000E+00  0.74505805969E-08  0.10566000000E+00  0.10566000000E+00 0. -1.
     999900   -1    0    0    0    0 -0.00000000000E+00 -0.00000000000E+00 -0.74505805969E-08  0.93827000000E+00  0.93827000000E+00 0.  1.
     999902    2    1    2    0    0  0.92670626733E-02  0.90013451322E-02  0.20482216840E-01  0.10197138097E+01  0.10194262258E+01 0.  0.
     999903    2    3    3    0    0  0.17835044492E-01  0.11499494423E+00 -0.54844040576E-01  0.13011721664E+00  0.19511413839E-01 0.  0.
         14    1    1    2    0    0 -0.92670626733E-02 -0.90013451322E-02 -0.20482216840E-01  0.24216190276E-01  0.00000000000E+00 0.  1.
     999901    1    3    3    0    0 -0.85679818190E-02 -0.10599359910E+00  0.75326257416E-01  0.88959659308E+00  0.88000000000E+00 0. -1.
        -11    1    4    4    0    0  0.15376335511E-01  0.82268725270E-01 -0.29838509792E-01  0.88854783996E-01  0.51100000000E-03 0. -1.
         11    1    4    4    0    0  0.24587089812E-02  0.32726218960E-01 -0.25005530785E-01  0.41262432649E-01  0.51100000000E-03 0.  1.
</event>
<event>
 8    1  0.1126407E+005  0.1043930E+01  0.7957747E-01            NaN
         13   -1    0    0    0    0  0.00000000000E+00  0.00000000000E+00  0.74505805969E-08  0.10566000000E+00  0.10566000000E+00 0.  1.
     999900   -1    0    0    0    0 -0.00000000000E+00 -0.00000000000E+00 -0.74505805969E-08  0.93827000000E+00  0.93827000000E+00 0. -1.
     999902    2    1    2    0    0  0.18333166068E-01  0.72466771917E-02 -0.12540380291E-01  0.10205659155E+01  0.10202984403E+01 0.  0.
     999903    2    3    3    0    0 -0.80056867987E-01 -0.36360202697E-01  0.91006990709E-01  0.12798302474E+00  0.19136765948E-01 0.  0.
         14    1    1    2    0    0 -0.18333166068E-01 -0.72466771917E-02  0.12540380291E-01  0.23364084537E-01  0.00000000000E+00 0.  1.
     999901    1    3    3    0    0  0.98390034055E-01  0.43606879888E-01 -0.10354737100E+00  0.89258289073E+00  0.88000000000E+00 0. -1.
        -11    1    4    4    0    0 -0.46747701453E-01 -0.31316355137E-01  0.58305896343E-01  0.81030243487E-01  0.51100000000E-03 0.  1.
         11    1    4    4    0    0 -0.33309166534E-01 -0.50438475597E-02  0.32701094366E-01  0.46952781250E-01  0.51100000000E-03 0. -1.
</event>
<event>
 8    1  0.1126407E+005  0.1043930E+01  0.7957747E-01            NaN
         13   -1    0    0    0    0  0.00000000000E+00  0.00000000000E+00  0.74505805969E-08  0.10566000000E+00  0.10566000000E+00 0.  1.
     999900   -1    0    0    0    0 -0.00000000000E+00 -0.00000000000E+00 -0.74505805969E-08  0.93827000000E+00  0.93827000000E+00 0.  1.
     999902    2    1    2    0    0 -0.23317899398E-01 -0.74344823267E-02 -0.28194035229E-02  0.10192937463E+01  0.10189959746E+01 0.  0.
     999903    2    3    3    0    0  0.77083636570E-02 -0.11790597908E+00 -0.50861914616E-01  0.13054481468E+00  0.22221060051E-01 0.  0.
         14    1    1    2    0    0  0.23317899398E-01  0.74344823267E-02  0.28194035229E-02  0.24636253693E-01  0.00000000000E+00 0. -1.
     999901    1    3    3    0    0 -0.31026263055E-01  0.11047149675E+00  0.48042511093E-01  0.88874893163E+00  0.88000000000E+00 0.  1.
        -11    1    4    4    0    0 -0.51291496990E-02 -0.80714995262E-01 -0.33861334501E-01  0.87681638511E-01  0.51100000000E-03 0. -1.
         11    1    4    4    0    0  0.12837513356E-01 -0.37190983813E-01 -0.17000580115E-01  0.42863176170E-01  0.51100000000E-03 0.  1.
</event>
<event>
 8    1  0.1126407E+005  0.1043930E+01  0.7957747E-01            NaN
         13   -1    0    0    0    0  0.00000000000E+00  0.00000000000E+00  0.74505805969E-08  0.10566000000E+00  0.10566000000E+00 0. -1.
     999900   -1    0    0    0    0 -0.00000000000E+00 -0.00000000000E+00 -0.74505805969E-08  0.93827000000E+00  0.93827000000E+00 0.  1.
     999902    2    1    2    0    0  0.93878867158E-02  0.16360616994E-01  0.14806331586E-01  0.10199502239E+01  0.10196682939E+01 0.  0.
     999903    2    3    3    0    0 -0.42859080203E-01 -0.93535516814E-02 -0.11851836711E+00  0.12800491209E+00  0.20353488463E-01 0.  0.
         14    1    1    2    0    0 -0.93878867158E-02 -0.16360616994E-01 -0.14806331586E-01  0.23979776072E-01  0.00000000000E+00 0.  1.
     999901    1    3    3    0    0  0.52246966919E-01  0.25714168676E-01  0.13332469870E+00  0.89194531184E+00  0.88000000000E+00 0.  1.
        -11    1    4    4    0    0 -0.11242777991E-01 -0.37874128034E-02 -0.60882569954E-01  0.62029775091E-01  0.51100000000E-03 0.  1.
         11    1    4    4    0    0 -0.31616302212E-01 -0.55661388779E-02 -0.57635797156E-01  0.65975137002E-01  0.51100000000E-03 0. -1.
</event>
<event>
 8    1  0.1126407E+005  0.1043930E+01  0.7957747E-01            NaN
         13   -1    0    0    0    0  0.00000000000E+00  0.00000000000E+00  0.74505805969E-08  0.10566000000E+00  0.10566000000E+00 0.  1.
     999900   -1    0    0    0    0 -0.00000000000E+00 -0.00000000000E+00 -0.74505805969E-08  0.93827000000E+00  0.93827000000E+00 0.  1.
     999902    2    1    2    0    0 -0.56376853803E-02  0.46718880073E-02 -0.23682287298E-01  0.10191416809E+01  0.10188401763E+01 0.  0.
     999903    2    3    3    0    0 -0.63396589704E-01 -0.75774877423E-01  0.78732920476E-01  0.12768408351E+00  0.18530860209E-01 0.  0.
         14    1    1    2    0    0  0.56376853803E-02 -0.46718880073E-02  0.23682287298E-01  0.24788319138E-01  0.00000000000E+00 0.  1.
     999901    1    3    3    0    0  0.57758904324E-01  0.80446765430E-01 -0.10241520777E+00  0.89145759735E+00  0.88000000000E+00 0.  1.
        -11    1    4    4    0    0 -0.20937503818E-01 -0.36672721581E-01  0.40012015750E-01  0.58176370630E-01  0.51100000000E-03 0.  1.
         11    1    4    4    0    0 -0.42459085886E-01 -0.39102155842E-01  0.38720904726E-01  0.69507712878E-01  0.51100000000E-03 0. -1.
</event>
<event>
 8    1  0.1126407E+005  0.1043930E+01  0.7957747E-01            NaN
         13   -1    0    0    0    0  0.00000000000E+00  0.00000000000E+00  0.74505805969E-08  0.10566000000E+00  0.10566000000E+00 0.  1.
     999900   -1    0    0    0    0 -0.00000000000E+00 -0.00000000000E+00 -0.74505805969E-08  0.93827000000E+00  0.93827000000E+00 0. -1.
     999902    2    1    2    0    0 -0.14117504147E-01  0.19375899807E-01 -0.59345389962E-03  0.10199491409E+01  0.10196671851E+01 0.  0.
     999903    2    3    3    0    0  0.11920844790E+00  0.27524074683E-01 -0.36038020605E-01  0.12916380223E+00  0.20403924636E-01 0.  0.
         14    1    1    2    0    0  0.14117504147E-01 -0.19375899807E-01  0.59345389962E-03  0.23980859122E-01  0.00000000000E+00 0. -1.
     999901    1    3    3    0    0 -0.13332595204E+00 -0.81481748756E-02  0.35444566705E-01  0.89078533865E+00  0.88000000000E+00 0.  1.
        -11    1    4    4    0    0  0.76756414387E-01  0.82325480091E-02 -0.26036302411E-01  0.81470682829E-01  0.51100000000E-03 0.  1.
         11    1    4    4    0    0  0.42452033508E-01  0.19291526674E-01 -0.10001718193E-01  0.47693119401E-01  0.51100000000E-03 0. -1.
</event>
<event>
 8    1  0.1126407E+005  0.1043930E+01  0.7957747E-01            NaN
         13   -1    0    0    0    0  0.00000000000E+00  0.00000000000E+00  0.74505805969E-08  0.10566000000E+00  0.10566000000E+00 0.  1.
     999900   -1    0    0    0    0 -0.00000000000E+00 -0.00000000000E+00 -0.74505805969E-08  0.93827000000E+00  0.93827000000E+00 0. -1.
     999902    2    1    2    0    0 -0.23324340842E-02  0.72556770627E-02  0.23202935512E-01  0.10195074425E+01  0.10192148763E+01 0.  0.
     999903    2    3    3    0    0  0.18050707863E-01  0.38353415242E-01 -0.11842736590E+00  0.12740784937E+00  0.20270830546E-01 0.  0.
         14    1    1    2    0    0  0.23324340842E-02 -0.72556770627E-02 -0.23202935512E-01  0.24422557499E-01  0.00000000000E+00 0. -1.
     999901    1    3    3    0    0 -0.20383141948E-01 -0.31097738180E-01  0.14163030141E+00  0.89209959314E+00  0.88000000000E+00 0.  1.
        -11    1    4    4    0    0  0.26476197198E-02  0.21443981965E-01 -0.78176499022E-01  0.81109064679E-01  0.51100000000E-03 0. -1.
         11    1    4    4    0    0  0.15403088144E-01  0.16909433278E-01 -0.40250866877E-01  0.46298784687E-01  0.51100000000E-03 0.  1.
</event>
<event>
 8    1  0.1126407E+005  0.1043930E+01  0.7957747E-01            NaN
         13   -1    0    0    0    0  0.00000000000E+00  0.00000000000E+00  0.74505805969E-08  0.10566000000E+00  0.10566000000E+00 0.  1.
     999900   -1    0    0    0    0 -0.00000000000E+00 -0.00000000000E+00 -0.74505805969E-08  0.93827000000E+00  0.93827000000E+00 0. -1.
     999902    2    1    2    0    0  0.48029975553E-03  0.14766486696E-01  0.19344135802E-01  0.10195891823E+01  0.10192985947E+01 0.  0.
     999903    2    3    3    0    0 -0.77542946427E-01  0.29886960976E-01 -0.95976231319E-01  0.12851396505E+00  0.19956534235E-01 0.  0.
         14    1    1    2    0    0 -0.48029975553E-03 -0.14766486696E-01 -0.19344135802E-01  0.24340817717E-01  0.00000000000E+00 0. -1.
     999901    1    3    3    0    0  0.78023246183E-01 -0.15120474280E-01  0.11532036712E+00  0.89107521723E+00  0.88000000000E+00 0.  1.
        -11    1    4    4    0    0 -0.31609535967E-01  0.99950704613E-02 -0.53110293385E-01  0.62610131624E-01  0.51100000000E-03 0.  1.
         11    1    4    4    0    0 -0.45933410460E-01  0.19891890514E-01 -0.42865937934E-01  0.65903833429E-01  0.51100000000E-03 0. -1.
</event>
<event>
 8    1  0.2314926E+005  0.1043930E+01  0.7957747E-01            NaN
         13   -1    0    0    0    0  0.00000000000E+00  0.00000000000E+00  0.74505805969E-08  0.10566000000E+00  0.10566000000E+00 0. -1.
     999900   -1    0    0    0    0 -0.00000000000E+00 -0.00000000000E+00 -0.74505805969E-08  0.93827000000E+00  0.93827000000E+00 0.  1.
     999902    2    1    2    0    0  0.15310591753E-01 -0.30812506353E-01 -0.92607767446E-02  0.10082987391E+01  0.10076689737E+01 0.  0.
     999903    2    3    3    0    0  0.40806359670E-01 -0.11178088443E+00 -0.28330487032E-01  0.12400830814E+00  0.20379373838E-01 0.  0.
         14    1    1    2    0    0 -0.15310591753E-01  0.30812506353E-01  0.92607767446E-02  0.35631260903E-01  0.00000000000E+00 0. -1.
     999901    1    3    3    0    0 -0.25495767917E-01  0.80968378081E-01  0.19069710288E-01  0.88429043096E+00  0.88000000000E+00 0.  1.
        -11    1    4    4    0    0  0.14593355431E-01 -0.68447016881E-01 -0.14022524627E-01  0.71378235202E-01  0.51100000000E-03 0.  1.
         11    1    4    4    0    0  0.26213004239E-01 -0.43333867553E-01 -0.14307962405E-01  0.52630072939E-01  0.51100000000E-03 0. -1.
</event>
<event>
 8    1  0.1126407E+005  0.1043930E+01  0.7957747E-01            NaN
         13   -1    0    0    0    0  0.00000000000E+00  0.00000000000E+00  0.74505805969E-08  0.10566000000E+00  0.10566000000E+00 0.  1.
     999900   -1    0    0    0    0 -0.00000000000E+00 -0.00000000000E+00 -0.74505805969E-08  0.93827000000E+00  0.93827000000E+00 0. -1.
     999902    2    1    2    0    0 -0.10144151035E-01 -0.48080551316E-02  0.20876111962E-01  0.10202269781E+01  0.10199515938E+01 0.  0.
     999903    2    3    3    0    0 -0.11769255493E+00 -0.40191152072E-01  0.39980426904E-01  0.13276791003E+00  0.23706902130E-01 0.  0.
         14    1    1    2    0    0  0.10144151035E-01  0.48080551316E-02 -0.20876111962E-01  0.23703021854E-01  0.00000000000E+00 0. -1.
     999901    1    3    3    0    0  0.10754840389E+00  0.35383096940E-01 -0.19104314942E-01  0.88745906811E+00  0.88000000000E+00 0.  1.
        -11    1    4    4    0    0 -0.49142739627E-01 -0.55928761442E-02  0.20536641947E-01  0.53556548666E-01  0.51100000000E-03 0.  1.
         11    1    4    4    0    0 -0.68549815300E-01 -0.34598275928E-01  0.19443784957E-01  0.79211361365E-01  0.51100000000E-03 0. -1.
</event>
<event>
 8    1  0.1126407E+005  0.1043930E+01  0.7957747E-01            NaN
         13   -1    0    0    0    0  0.00000000000E+00  0.00000000000E+00  0.74505805969E-08  0.10566000000E+00  0.10566000000E+00 0. -1.
     999900   -1    0    0    0    0 -0.00000000000E+00 -0.00000000000E+00 -0.74505805969E-08  0.93827000000E+00  0.93827000000E+00 0.  1.
     999902    2    1    2    0    0  0.38240768332E-03  0.53785741544E-02 -0.23114890966E-01  0.10201945101E+01  0.10199183619E+01 0.  0.
     999903    2    3    3    0    0  0.78865674396E-02 -0.12091753025E+00  0.39300530556E-01  0.12895789549E+00  0.20058914207E-01 0.  0.
         14    1    1    2    0    0 -0.38240768332E-03 -0.53785741544E-02  0.23114890966E-01  0.23735489882E-01  0.00000000000E+00 0. -1.
     999901    1    3    3    0    0 -0.75041597563E-02  0.12629610441E+00 -0.62415421523E-01  0.89123661462E+00  0.88000000000E+00 0.  1.
        -11    1    4    4    0    0 -0.54718313993E-03 -0.28965040141E-01  0.10056436489E-02  0.28992161008E-01  0.51100000000E-03 0. -1.
         11    1    4    4    0    0  0.84337505795E-02 -0.91952490113E-01  0.38294886907E-01  0.99965734485E-01  0.51100000000E-03 0.  1.
</event>
<event>
 8    1  0.1126407E+005  0.1043930E+01  0.7957747E-01            NaN
         13   -1    0    0    0    0  0.00000000000E+00  0.00000000000E+00  0.74505805969E-08  0.10566000000E+00  0.10566000000E+00 0.  1.
     999900   -1    0    0    0    0 -0.00000000000E+00 -0.00000000000E+00 -0.74505805969E-08  0.93827000000E+00  0.93827000000E+00 0.  1.
     999902    2    1    2    0    0 -0.28079451424E-02 -0.11326042936E-01  0.20632276807E-01  0.10202265266E+01  0.10199511316E+01 0.  0.
     999903    2    3    3    0    0  0.35012440666E-01  0.30721904736E-01  0.12248683982E+00  0.13254822706E+00  0.19907288508E-01 0.  0.
         14    1    1    2    0    0  0.28079451424E-02  0.11326042936E-01 -0.20632276807E-01  0.23703473390E-01  0.00000000000E+00 0. -1.
     999901    1    3    3    0    0 -0.37820385808E-01 -0.42047947672E-01 -0.10185456301E+00  0.88767829955E+00  0.88000000000E+00 0.  1.
        -11    1    4    4    0    0  0.26036009904E-01  0.13301042427E-01  0.55239898002E-01  0.62501991917E-01  0.51100000000E-03 0. -1.
         11    1    4    4    0    0  0.89764307617E-02  0.17420862309E-01  0.67246941818E-01  0.70046235143E-01  0.51100000000E-03 0.  1.
</event>
<event>
 8    1  0.1126407E+005  0.1043930E+01  0.7957747E-01            NaN
         13   -1    0    0    0    0  0.00000000000E+00  0.00000000000E+00  0.74505805969E-08  0.10566000000E+00  0.10566000000E+00 0. -1.
     999900   -1    0    0    0    0 -0.00000000000E+00 -0.00000000000E+00 -0.74505805969E-08  0.93827000000E+00  0.93827000000E+00 0. -1.
     999902    2    1    2    0    0  0.26554687558E-03  0.16442289485E-01  0.16856124787E-01  0.10203811499E+01  0.10201093778E+01 0.  0.
     999903    2    3    3    0    0 -0.11862568969E+00  0.22958823229E-01  0.48551275696E-01  0.13179678477E+00  0.20347095282E-01 0.  0.
         14    1    1    2    0    0 -0.26554687558E-03 -0.16442289485E-01 -0.16856124787E-01  0.23548850110E-01  0.00000000000E+00 0.  1.
     999901    1    3    3    0    0  0.11889123656E+00 -0.65165337433E-02 -0.31695150909E-01  0.88858436512E+00  0.88000000000E+00 0. -1.
        -11    1    4    4    0    0 -0.75626323199E-01  0.22590965972E-01  0.37556004747E-01  0.87409422363E-01  0.51100000000E-03 0.  1.
         11    1    4    4    0    0 -0.42999366488E-01  0.36785725655E-03  0.10995270949E-01  0.44387362408E-01  0.51100000000E-03 0. -1.
</event>
<event>
 8    1  0.1126407E+005  0.1043930E+01  0.7957747E-01            NaN
         13   -1    0    0    0    0  0.00000000000E+00  0.00000000000E+00  0.74505805969E-08  0.10566000000E+00  0.10566000000E+00 0. -1.
     999900   -1    0    0    0    0 -0.00000000000E+00 -0.00000000000E+00 -0.74505805969E-08  0.93827000000E+00  0.93827000000E+00 0.  1.
     999902    2    1    2    0    0 -0.75048831415E-02  0.65398831052E-02  0.23615969700E-01  0.10183017467E+01  0.10179791943E+01 0.  0.
     999903    2    3    3    0    0  0.63327941212E-01  0.11124833050E+00  0.80947211069E-02  0.12913243936E+00  0.14934631241E-01 0.  0.
         14    1    1    2    0    0  0.75048831415E-02 -0.65398831052E-02 -0.23615969700E-01  0.25628253294E-01  0.00000000000E+00 0.  1.
     999901    1    3    3    0    0 -0.70832824353E-01 -0.10470844739E+00  0.15521248593E-01  0.88916930734E+00  0.88000000000E+00 0.  1.
        -11    1    4    4    0    0  0.36110923437E-01  0.64564735689E-01  0.12022270214E-01  0.74949316128E-01  0.51100000000E-03 0.  1.
         11    1    4    4    0    0  0.27217017774E-01  0.46683594807E-01 -0.39275491070E-02  0.54183123236E-01  0.51100000000E-03 0. -1.
</event>
<event>
 8    1  0.1126407E+005  0.1043930E+01  0.7957747E-01            NaN
         13   -1    0    0    0    0  0.00000000000E+00  0.00000000000E+00  0.74505805969E-08  0.10566000000E+00  0.10566000000E+00 0. -1.
     999900   -1    0    0    0    0 -0.00000000000E+00 -0.00000000000E+00 -0.74505805969E-08  0.93827000000E+00  0.93827000000E+00 0. -1.
     999902    2    1    2    0    0  0.72796854063E-02 -0.14832637208E-01 -0.16792144221E-01  0.10203720490E+01  0.10201000644E+01 0.  0.
     999903    2    3    3    0    0  0.76951052187E-01  0.13885024754E-01  0.10098263389E+00  0.12933349666E+00  0.20381429410E-01 0.  0.
         14    1    1    2    0    0 -0.72796854063E-02  0.14832637208E-01  0.16792144221E-01  0.23557950966E-01  0.00000000000E+00 0.  1.
     999901    1    3    3    0    0 -0.69671366781E-01 -0.28717661962E-01 -0.11777477812E+00  0.89103855237E+00  0.88000000000E+00 0. -1.
        -11    1    4    4    0    0  0.25035594529E-01 -0.50464299708E-02  0.32051650007E-01  0.40985568656E-01  0.51100000000E-03 0.  1.
         11    1    4    4    0    0  0.51915457658E-01  0.18931454725E-01  0.68930983887E-01  0.88347928003E-01  0.51100000000E-03 0. -1.
</event>
<event>
 8    1  0.1126407E+005  0.1043930E+01  0.7957747E-01            NaN
         13   -1    0    0    0    0  0.00000000000E+00  0.00000000000E+00  0.74505805969E-08  0.10566000000E+00  0.10566000000E+00 0.  1.
     999900   -1    0    0    0    0 -0.00000000000E+00 -0.00000000000E+00 -0.74505805969E-08  0.93827000000E+00  0.93827000000E+00 0.  1.
     999902    2    1    2    0    0 -0.12182289996E-01 -0.18531750945E-01 -0.88278625233E-02  0.10200602463E+01  0.10197809280E+01 0.  0.
     999903    2    3    3    0    0 -0.21226811408E-01 -0.89330773220E-01  0.91993878541E-01  0.13143246803E+00  0.19520640297E-01 0.  0.
         14    1    1    2    0    0  0.12182289996E-01  0.18531750945E-01  0.88278625233E-02  0.23869753652E-01  0.00000000000E+00 0.  1.
     999901    1    3    3    0    0  0.90445214114E-02  0.70799022274E-01 -0.10082174106E+00  0.88862777832E+00  0.88000000000E+00 0.  1.
        -11    1    4    4    0    0 -0.80646038533E-02 -0.58273203142E-01  0.68641364242E-01  0.90402997990E-01  0.51100000000E-03 0. -1.
         11    1    4    4    0    0 -0.13162207554E-01 -0.31057570078E-01  0.23352514300E-01  0.41029470042E-01  0.51100000000E-03 0.  1.
</event>
<event>
 8    1  0.1126407E+005  0.1043930E+01  0.7957747E-01            NaN
         13   -1    0    0    0    0  0.00000000000E+00  0.00000000000E+00  0.74505805969E-08  0.10566000000E+00  0.10566000000E+00 0.  1.
     999900   -1    0    0    0    0 -0.00000000000E+00 -0.00000000000E+00 -0.74505805969E-08  0.93827000000E+00  0.93827000000E+00 0. -1.
     999902    2    1    2    0    0 -0.14824806844E-01  0.17714653633E-01  0.18073908120E-01  0.10145999811E+01  0.10141759570E+01 0.  0.
     999903    2    3    3    0    0  0.51145616524E-02 -0.33917031151E-01  0.12084083543E+00  0.12689256840E+00  0.17963648432E-01 0.  0.
         14    1    1    2    0    0  0.14824806844E-01 -0.17714653633E-01 -0.18073908120E-01  0.29330018855E-01  0.00000000000E+00 0. -1.
     999901    1    3    3    0    0 -0.19939368497E-01  0.51631684785E-01 -0.10276692731E+00  0.88770741274E+00  0.88000000000E+00 0. -1.
        -11    1    4    4    0    0  0.29437258455E-02 -0.31633857482E-01  0.11908212949E+00  0.12324845291E+00  0.51100000000E-03 0.  1.
         11    1    4    4    0    0  0.21708358068E-02 -0.22831736693E-02  0.17587059431E-02  0.36441154892E-02  0.51100000000E-03 0. -1.
</event>
<event>
 8    1  0.1126407E+005  0.1043930E+01  0.7957747E-01            NaN
         13   -1    0    0    0    0  0.00000000000E+00  0.00000000000E+00  0.74505805969E-08  0.10566000000E+00  0.10566000000E+00 0.  1.
     999900   -1    0    0    0    0 -0.00000000000E+00 -0.00000000000E+00 -0.74505805969E-08  0.93827000000E+00  0.93827000000E+00 0.  1.
     999902    2    1    2    0    0 -0.92200521917E-02  0.59048151869E-02  0.20837704587E-01  0.10203909657E+01  0.10201194228E+01 0.  0.
     999903    2    3    3    0    0  0.62082533496E-01 -0.99200217405E-01  0.54518116805E-01  0.13063510209E+00  0.19959477453E-01 0.  0.
         14    1    1    2    0    0  0.92200521917E-02 -0.59048151869E-02 -0.20837704587E-01  0.23539034331E-01  0.00000000000E+00 0. -1.
     999901    1    3    3    0    0 -0.71302585688E-01  0.10510503259E+00 -0.33680412218E-01  0.88975586358E+00  0.88000000000E+00 0.  1.
        -11    1    4    4    0    0  0.29686054631E-01 -0.44954599288E-01  0.14313712121E-01  0.55743352181E-01  0.51100000000E-03 0.  1.
         11    1    4    4    0    0  0.32396478865E-01 -0.54245618117E-01  0.40204404684E-01  0.74891749911E-01  0.51100000000E-03 0. -1.
</event>
<event>
 8    1  0.1126407E+005  0.1043930E+01  0.7957747E-01            NaN
         13   -1    0    0    0    0  0.00000000000E+00  0.00000000000E+00  0.74505805969E-08  0.10566000000E+00  0.10566000000E+00 0. -1.
     999900   -1    0    0    0    0 -0.00000000000E+00 -0.00000000000E+00 -0.74505805969E-08  0.93827000000E+00  0.93827000000E+00 0. -1.
     999902    2    1    2    0    0  0.76156870120E-02 -0.84095000013E-02  0.19695760223E-01  0.10212002541E+01  0.10209472648E+01 0.  0.
     999903    2    3    3    0    0 -0.18401082497E-01 -0.12909383869E+00 -0.78092507418E-02  0.13215688757E+00  0.20015981363E-01 0.  0.
         14    1    1    2    0    0 -0.76156870120E-02  0.84095000013E-02 -0.19695760223E-01  0.22729745923E-01  0.00000000000E+00 0.  1.
     999901    1    3    3    0    0  0.26016769509E-01  0.12068433869E+00  0.27505010965E-01  0.88904336651E+00  0.88000000000E+00 0.  1.
        -11    1    4    4    0    0 -0.54116020816E-03 -0.64376662060E-01 -0.90066763427E-02  0.65007913458E-01  0.51100000000E-03 0. -1.
         11    1    4    4    0    0 -0.17859922289E-01 -0.64717176632E-01  0.11974256010E-02  0.67148974113E-01  0.51100000000E-03 0.  1.
</event>
<event>
 8    1  0.1126407E+005  0.1043930E+01  0.7957747E-01            NaN
         13   -1    0    0    0    0  0.00000000000E+00  0.00000000000E+00  0.74505805969E-08  0.10566000000E+00  0.10566000000E+00 0.  1.
     999900   -1    0    0    0    0 -0.00000000000E+00 -0.00000000000E+00 -0.74505805969E-08  0.93827000000E+00  0.93827000000E+00 0.  1.
     999902    2    1    2    0    0 -0.11574596070E-01 -0.14020497113E-01 -0.15337747770E-01  0.10201436148E+01  0.10198662671E+01 0.  0.
     999903    2    3    3    0    0 -0.10926091027E+00  0.26754951010E-01  0.61172019389E-01  0.13050380140E+00  0.25208179339E-01 0.  0.
         14    1    1    2    0    0  0.11574596070E-01  0.14020497113E-01  0.15337747770E-01  0.23786385184E-01  0.00000000000E+00 0.  1.
     999901    1    3    3    0    0  0.97686314202E-01 -0.40775448123E-01 -0.76509767158E-01  0.88963981342E+00  0.88000000000E+00 0.  1.
        -11    1    4    4    0    0 -0.32314896761E-01 -0.26651365146E-02  0.12081295737E-01  0.34605986953E-01  0.51100000000E-03 0.  1.
         11    1    4    4    0    0 -0.76946013512E-01  0.29420087524E-01  0.49090723652E-01  0.95897814443E-01  0.51100000000E-03 0. -1.
</event>
<event>
 8    1  0.1126407E+005  0.1043930E+01  0.7957747E-01            NaN
         13   -1    0    0    0    0  0.00000000000E+00  0.00000000000E+00  0.74505805969E-08  0.10566000000E+00  0.10566000000E+00 0. -1.
     999900   -1    0    0    0    0 -0.00000000000E+00 -0.00000000000E+00 -0.74505805969E-08  0.93827000000E+00  0.93827000000E+00 0. -1.
     999902    2    1    2    0    0 -0.19963955535E-01  0.10048174356E-01  0.79843893128E-02  0.10201965679E+01  0.10199204681E+01 0.  0.
     999903    2    3    3    0    0 -0.10196862050E+00  0.16135844506E-01  0.82024824697E-01  0.13326713951E+00  0.19341498417E-01 0.  0.
         14    1    1    2    0    0  0.19963955535E-01 -0.10048174356E-01 -0.79843893128E-02  0.23733432141E-01  0.00000000000E+00 0.  1.
     999901    1    3    3    0    0  0.82004664967E-01 -0.60876701506E-02 -0.74040435385E-01  0.88692942835E+00  0.88000000000E+00 0. -1.
        -11    1    4    4    0    0 -0.81143826452E-01  0.20477832974E-01  0.63475811318E-01  0.10503857367E+00  0.51100000000E-03 0.  1.
         11    1    4    4    0    0 -0.20824794050E-01 -0.43419884675E-02  0.18549013380E-01  0.28228565841E-01  0.51100000000E-03 0. -1.
</event>
<event>
 8    1  0.1126407E+005  0.1043930E+01  0.7957747E-01            NaN
         13   -1    0    0    0    0  0.00000000000E+00  0.00000000000E+00  0.74505805969E-08  0.10566000000E+00  0.10566000000E+00 0. -1.
     999900   -1    0    0    0    0 -0.00000000000E+00 -0.00000000000E+00 -0.74505805969E-08  0.93827000000E+00  0.93827000000E+00 0.  1.
     999902    2    1    2    0    0  0.18251028982E-01 -0.89450877202E-02 -0.15354077512E-03  0.10236041980E+01  0.10234023724E+01 0.  0.
     999903    2    3    3    0    0 -0.67396645915E-01  0.59194192899E-01 -0.94444635631E-01  0.13182547186E+00  0.20295454624E-01 0.  0.
         14    1    1    2    0    0 -0.18251028982E-01  0.89450877202E-02  0.15354077512E-03  0.20325802026E-01  0.00000000000E+00 0. -1.
     999901    1    3    3    0    0  0.85647674897E-01 -0.68139280619E-01  0.94291094856E-01  0.89177872611E+00  0.88000000000E+00 0. -1.
        -11    1    4    4    0    0 -0.33891248148E-01  0.34883238161E-01 -0.64253628464E-01  0.80586890357E-01  0.51100000000E-03 0.  1.
         11    1    4    4    0    0 -0.33505397768E-01  0.24310954738E-01 -0.30191007167E-01  0.51238581504E-01  0.51100000000E-03 0. -1.
</event>
<event>
 8    1  0.1126407E+005  0.1043930E+01  0.7957747E-01            NaN
         13   -1    0    0    0    0  0.00000000000E+00  0.00000000000E+00  0.74505805969E-08  0.10566000000E+00  0.10566000000E+00 0. -1.
     999900   -1    0    0    0    0 -0.00000000000E+00 -0.00000000000E+00 -0.74505805969E-08  0.93827000000E+00  0.93827000000E+00 0.  1.
     999902    2    1    2    0    0 -0.97167468180E-02 -0.77826435293E-02  0.20192022998E-01  0.10202086488E+01  0.10199328334E+01 0.  0.
     999903    2    3    3    0    0  0.47586792347E-01  0.10446812523E+00  0.58452066745E-01  0.13040655755E+00  0.20276443231E-01 0.  0.
         14    1    1    2    0    0  0.97167468180E-02  0.77826435293E-02 -0.20192022998E-01  0.23721351179E-01  0.00000000000E+00 0.  1.
     999901    1    3    3    0    0 -0.57303539165E-01 -0.11225076876E+00 -0.38260043747E-01  0.88980209127E+00  0.88000000000E+00 0.  1.
        -11    1    4    4    0    0  0.20470053358E-01  0.58583284023E-01  0.40754465216E-01  0.74244271209E-01  0.51100000000E-03 0.  1.
         11    1    4    4    0    0  0.27116738990E-01  0.45884841205E-01  0.17697601529E-01  0.56162286338E-01  0.51100000000E-03 0. -1.
</event>
<event>
 8    1  0.1126407E+005  0.1043930E+01  0.7957747E-01            NaN
         13   -1    0    0    0    0  0.00000000000E+00  0.00000000000E+00  0.74505805969E-08  0.10566000000E+00  0.10566000000E+00 0. -1.
     999900   -1    0    0    0    0 -0.00000000000E+00 -0.00000000000E+00 -0.74505805969E-08  0.93827000000E+00  0.93827000000E+00 0.  1.
     999902    2    1    2    0    0  0.15086307150E-01  0.11496703190E-01  0.10360226817E-01  0.10223173845E+01  0.10220889049E+01 0.  0.
     999903    2    3    3    0    0  0.46173689026E-01 -0.11575038159E+00 -0.36469227728E-01  0.13139020249E+00  0.20080347136E-01 0.  0.
         14    1    1    2    0    0 -0.15086307150E-01 -0.11496703190E-01 -0.10360226817E-01  0.21612615468E-01  0.00000000000E+00 0. -1.
     999901    1    3    3    0    0 -0.31087381876E-01  0.12724708478E+00  0.46829454546E-01  0.89092718205E+00  0.88000000000E+00 0. -1.
        -11    1    4    4    0    0  0.33574477369E-01 -0.64375430870E-01 -0.14138450010E-01  0.73970254292E-01  0.51100000000E-03 0. -1.
         11    1    4    4    0    0  0.12599211657E-01 -0.51374950722E-01 -0.22330777718E-01  0.57419948193E-01  0.51100000000E-03 0.  1.
</event>
<event>
 8    1  0.1126407E+005  0.1043930E+01  0.7957747E-01            NaN
         13   -1    0    0    0    0  0.00000000000E+00  0.00000000000E+00  0.74505805969E-08  0.10566000000E+00  0.10566000000E+00 0. -1.
     999900   -1    0    0    0    0 -0.00000000000E+00 -0.00000000000E+00 -0.74505805969E-08  0.93827000000E+00  0.93827000000E+00 0. -1.
     999902    2    1    2    0    0 -0.96842001397E-02  0.18033122389E-01 -0.98188470467E-02  0.10212278637E+01  0.10209754956E+01 0.  0.
     999903    2    3    3    0    0 -0.12748730323E+00 -0.26802188386E-01  0.56996515213E-02  0.13211111096E+00  0.21201175073E-01 0.  0.
         14    1    1    2    0    0  0.96842001397E-02 -0.18033122389E-01  0.98188470467E-02  0.22702136304E-01  0.00000000000E+00 0. -1.
     999901    1    3    3    0    0  0.11780310309E+00  0.44835310774E-01 -0.15518498568E-01  0.88911675273E+00  0.88000000000E+00 0. -1.
        -11    1    4    4    0    0 -0.38864131946E-01 -0.17924365606E-01  0.44721103532E-02  0.43034457430E-01  0.51100000000E-03 0. -1.
         11    1    4    4    0    0 -0.88623171288E-01 -0.88778227799E-02  0.12275411681E-02  0.89076653534E-01  0.51100000000E-03 0.  1.
</event>
<event>
 8    1  0.1126407E+005  0.1043930E+01  0.7957747E-01            NaN
         13   -1    0    0    0    0  0.00000000000E+00  0.00000000000E+00  0.74505805969E-08  0.10566000000E+00  0.10566000000E+00 0. -1.
     999900   -1    0    0    0    0 -0.00000000000E+00 -0.00000000000E+00 -0.74505805969E-08  0.93827000000E+00  0.93827000000E+00 0. -1.
     999902    2    1    2    0    0  0.14691679652E-01  0.41718567901E-02 -0.18381343092E-01  0.10200318073E+01  0.10197518151E+01 0.  0.
     999903    2    3    3    0    0  0.39135641499E-01  0.11489099213E+00 -0.48291476186E-01  0.13225320300E+00  0.20671345449E-01 0.  0.
         14    1    1    2    0    0 -0.14691679652E-01 -0.41718567901E-02  0.18381343092E-01  0.23898192692E-01  0.00000000000E+00 0. -1.
     999901    1    3    3    0    0 -0.24443961847E-01 -0.11071913534E+00  0.29910133094E-01  0.88777860431E+00  0.88000000000E+00 0. -1.
        -11    1    4    4    0    0  0.24281508011E-01  0.46839505953E-01 -0.27845817981E-01  0.59658877372E-01  0.51100000000E-03 0.  1.
         11    1    4    4    0    0  0.14854133489E-01  0.68051486182E-01 -0.20445658205E-01  0.72594325630E-01  0.51100000000E-03 0. -1.
</event>
<event>
 8    1  0.1126407E+005  0.1043930E+01  0.7957747E-01            NaN
         13   -1    0    0    0    0  0.00000000000E+00  0.00000000000E+00  0.74505805969E-08  0.10566000000E+00  0.10566000000E+00 0.  1.
     999900   -1    0    0    0    0 -0.00000000000E+00 -0.00000000000E+00 -0.74505805969E-08  0.93827000000E+00  0.93827000000E+00 0.  1.
     999902    2    1    2    0    0 -0.18915529197E-01  0.53738233023E-02 -0.14101693741E-01  0.10197322111E+01  0.10194450693E+01 0.  0.
     999903    2    3    3    0    0  0.20453658694E-01 -0.11262568147E+00  0.54835142149E-01  0.12831418153E+00  0.18834545038E-01 0.  0.
         14    1    1    2    0    0  0.18915529197E-01 -0.53738233023E-02  0.14101693741E-01  0.24197788909E-01  0.00000000000E+00 0.  1.
     999901    1    3    3    0    0 -0.39369187891E-01  0.11799950477E+00 -0.68936835890E-01  0.89141802956E+00  0.88000000000E+00 0.  1.
        -11    1    4    4    0    0  0.12822823363E-01 -0.35195666697E-01  0.24717263211E-01  0.44881666356E-01  0.51100000000E-03 0. -1.
         11    1    4    4    0    0  0.76308353305E-02 -0.77430014774E-01  0.30117878937E-01  0.83432515175E-01  0.51100000000E-03 0.  1.
</event>
<event>
 8    1  0.1209677E+005  0.1043930E+01  0.7957747E-01            NaN
         13   -1    0    0    0    0  0.00000000000E+00  0.00000000000E+00  0.74505805969E-08  0.10566000000E+00  0.10566000000E+00 0. -1.
     999900   -1    0    0    0    0 -0.00000000000E+00 -0.00000000000E+00 -0.74505805969E-08  0.93827000000E+00  0.93827000000E+00 0.  1.
     999902    2    1    2    0    0  0.12671320340E-01 -0.13266131416E-01  0.21472508356E-01  0.10156878114E+01  0.10152950847E+01 0.  0.
     999903    2    3    3    0    0  0.19408472178E-01 -0.10821367802E+00  0.61846796648E-01  0.12963447837E+00  0.29886164393E-01 0.  0.
         14    1    1    2    0    0 -0.12671320340E-01  0.13266131416E-01 -0.21472508356E-01  0.28242188602E-01  0.00000000000E+00 0.  1.
     999901    1    3    3    0    0 -0.67371518377E-02  0.94947546607E-01 -0.40374288293E-01  0.88605333303E+00  0.88000000000E+00 0.  1.
        -11    1    4    4    0    0  0.11366999881E-01 -0.45382263390E-01  0.42997093966E-01  0.63543447555E-01  0.51100000000E-03 0. -1.
         11    1    4    4    0    0  0.80414722974E-02 -0.62831414633E-01  0.18849702683E-01  0.66091030812E-01  0.51100000000E-03 0.  1.
</event>
<event>
 8    1  0.1126407E+005  0.1043930E+01  0.7957747E-01            NaN
         13   -1    0    0    0    0  0.00000000000E+00  0.00000000000E+00  0.74505805969E-08  0.10566000000E+00  0.10566000000E+00 0.  1.
     999900   -1    0    0    0    0 -0.00000000000E+00 -0.00000000000E+00 -0.74505805969E-08  0.93827000000E+00  0.93827000000E+00 0.  1.
     999902    2    1    2    0    0  0.18767288600E-01  0.19044065209E-02 -0.14280956789E-01  0.10202702533E+01  0.10199958854E+01 0.  0.
     999903    2    3    3    0    0  0.44993539010E-01 -0.10652737371E+00 -0.60898701494E-01  0.13200313062E+00  0.18538466665E-01 0.  0.
         14    1    1    2    0    0 -0.18767288600E-01 -0.19044065209E-02  0.14280956789E-01  0.23659746668E-01  0.00000000000E+00 0.  1.
     999901    1    3    3    0    0 -0.26226250410E-01  0.10843178023E+00  0.46617744705E-01  0.88826712272E+00  0.88000000000E+00 0. -1.
        -11    1    4    4    0    0  0.43691863508E-01 -0.99063988455E-01 -0.51431663562E-01  0.11986713429E+00  0.51100000000E-03 0.  1.
         11    1    4    4    0    0  0.13016755018E-02 -0.74633852575E-02 -0.94670379317E-02  0.12135996326E-01  0.51100000000E-03 0. -1.
</event>
<event>
 8    1  0.1126407E+005  0.1043930E+01  0.7957747E-01            NaN
         13   -1    0    0    0    0  0.00000000000E+00  0.00000000000E+00  0.74505805969E-08  0.10566000000E+00  0.10566000000E+00 0.  1.
     999900   -1    0    0    0    0 -0.00000000000E+00 -0.00000000000E+00 -0.74505805969E-08  0.93827000000E+00  0.93827000000E+00 0.  1.
     999902    2    1    2    0    0  0.82147050958E-03  0.22739919971E-01 -0.43512019273E-02  0.10207629602E+01  0.10205000290E+01 0.  0.
     999903    2    3    3    0    0  0.11850085590E+00  0.31128495513E-01 -0.45043666457E-01  0.13195776074E+00  0.19299809587E-01 0.  0.
         14    1    1    2    0    0 -0.82147050958E-03 -0.22739919971E-01  0.43512019273E-02  0.23167039783E-01  0.00000000000E+00 0.  1.
     999901    1    3    3    0    0 -0.11767938539E+00 -0.83885755418E-02  0.40692464529E-01  0.88880519948E+00  0.88000000000E+00 0. -1.
        -11    1    4    4    0    0  0.30739982892E-01  0.27830022566E-02 -0.18494559974E-01  0.35986129542E-01  0.51100000000E-03 0. -1.
         11    1    4    4    0    0  0.87760873008E-01  0.28345493256E-01 -0.26549106482E-01  0.95971631200E-01  0.51100000000E-03 0.  1.
</event>
<event>
 8    1  0.1126407E+005  0.1043930E+01  0.7957747E-01            NaN
         13   -1    0    0    0    0  0.00000000000E+00  0.00000000000E+00  0.74505805969E-08  0.10566000000E+00  0.10566000000E+00 0.  1.
     999900   -1    0    0    0    0 -0.00000000000E+00 -0.00000000000E+00 -0.74505805969E-08  0.93827000000E+00  0.93827000000E+00 0. -1.
     999902    2    1    2    0    0 -0.13294894821E-01 -0.11527500518E-01 -0.14314115108E-01  0.10212467157E+01  0.10209947712E+01 0.  0.
     999903    2    3    3    0    0 -0.11089379282E+00  0.62299264494E-01  0.28659542776E-01  0.13173973347E+00  0.18850897593E-01 0.  0.
         14    1    1    2    0    0  0.13294894821E-01  0.11527500518E-01  0.14314115108E-01  0.22683284326E-01  0.00000000000E+00 0.  1.
     999901    1    3    3    0    0  0.97598897996E-01 -0.73826765012E-01 -0.42973657884E-01  0.88950698221E+00  0.88000000000E+00 0. -1.
        -11    1    4    4    0    0 -0.91887951795E-01  0.54254539784E-01  0.30579724935E-01  0.11100599745E+00  0.51100000000E-03 0. -1.
         11    1    4    4    0    0 -0.19005841022E-01  0.80447247098E-02 -0.19201821591E-02  0.20733736015E-01  0.51100000000E-03 0.  1.
</event>
<event>
 8    1  0.1126407E+005  0.1043930E+01  0.7957747E-01            NaN
         13   -1    0    0    0    0  0.00000000000E+00  0.00000000000E+00  0.74505805969E-08  0.10566000000E+00  0.10566000000E+00 0.  1.
     999900   -1    0    0    0    0 -0.00000000000E+00 -0.00000000000E+00 -0.74505805969E-08  0.93827000000E+00  0.93827000000E+00 0. -1.
     999902    2    1    2    0    0 -0.14032242731E-01  0.17925519963E-01 -0.76388470951E-02  0.10199179179E+01  0.10196352187E+01 0.  0.
     999903    2    3    3    0    0 -0.99794722592E-01 -0.24649621960E-01  0.78015918818E-01  0.13058975316E+00  0.20015232266E-01 0.  0.
         14    1    1    2    0    0  0.14032242731E-01 -0.17925519963E-01  0.76388470951E-02  0.24012082103E-01  0.00000000000E+00 0.  1.
     999901    1    3    3    0    0  0.85762479861E-01  0.42575141923E-01 -0.85654765913E-01  0.88932816473E+00  0.88000000000E+00 0. -1.
        -11    1    4    4    0    0 -0.92392253842E-02 -0.62169703121E-02  0.29541312686E-02  0.11532650091E-01  0.51100000000E-03 0. -1.
         11    1    4    4    0    0 -0.90555497208E-01 -0.18432651648E-01  0.75061787549E-01  0.11905710307E+00  0.51100000000E-03 0.  1.
</event>
<event>
 8    1  0.1126407E+005  0.1043930E+01  0.7957747E-01            NaN
         13   -1    0    0    0    0  0.00000000000E+00  0.00000000000E+00  0.74505805969E-08  0.10566000000E+00  0.10566000000E+00 0.  1.
     999900   -1    0    0    0    0 -0.00000000000E+00 -0.00000000000E+00 -0.74505805969E-08  0.93827000000E+00  0.93827000000E+00 0.  1.
     999902    2    1    2    0    0  0.86211204750E-02  0.15049422579E-01  0.15631096468E-01  0.10205817663E+01  0.10203146582E+01 0.  0.
     999903    2    3    3    0    0  0.75456390891E-02  0.11515028563E+00  0.64089529285E-01  0.13358145115E+00  0.20494179058E-01 0.  0.
         14    1    1    2    0    0 -0.86211204750E-02 -0.15049422579E-01 -0.15631096468E-01  0.23348233659E-01  0.00000000000E+00 0. -1.
     999901    1    3    3    0    0  0.10754813859E-02 -0.10010086306E+00 -0.48458432817E-01  0.88700031519E+00  0.88000000000E+00 0.  1.
        -11    1    4    4    0    0  0.80444957007E-02  0.24674672640E-01  0.81524254841E-02  0.27208023508E-01  0.51100000000E-03 0. -1.
         11    1    4    4    0    0 -0.49885661159E-03  0.90475612995E-01  0.55937103801E-01  0.10637342764E+00  0.51100000000E-03 0.  1.
</event>
<event>
 8    1  0.1126407E+005  0.1043930E+01  0.7957747E-01            NaN
         13   -1    0    0    0    0  0.00000000000E+00  0.00000000000E+00  0.74505805969E-08  0.10566000000E+00  0.10566000000E+00 0. -1.
     999900   -1    0    0    0    0 -0.00000000000E+00 -0.00000000000E+00 -0.74505805969E-08  0.93827000000E+00  0.93827000000E+00 0. -1.
     999902    2    1    2    0    0 -0.11260956184E-01 -0.16898267835E-01 -0.13587033036E-01  0.10194970702E+01  0.10192042524E+01 0.  0.
     999903    2    3    3    0    0 -0.12078590943E+00 -0.46239699011E-01  0.15049597676E-01  0.13176023334E+00  0.20172332994E-01 0.  0.
         14    1    1    2    0    0  0.11260956184E-01  0.16898267835E-01  0.13587033036E-01  0.24432929761E-01  0.00000000000E+00 0. -1.
     999901    1    3    3    0    0  0.10952495325E+00  0.29341431176E-01 -0.28636630712E-01  0.88773683690E+00  0.88000000000E+00 0.  1.
        -11    1    4    4    0    0 -0.38813680159E-01 -0.23998583231E-01  0.85310207025E-03  0.45644525069E-01  0.51100000000E-03 0.  1.
         11    1    4    4    0    0 -0.81972229271E-01 -0.22241115779E-01  0.14196495606E-01  0.86115708272E-01  0.51100000000E-03 0. -1.
</event>
<event>
 8    1  0.1126407E+005  0.1043930E+01  0.7957747E-01            NaN
         13   -1    0    0    0    0  0.00000000000E+00  0.00000000000E+00  0.74505805969E-08  0.10566000000E+00  0.10566000000E+00 0. -1.
     999900   -1    0    0    0    0 -0.00000000000E+00 -0.00000000000E+00 -0.74505805969E-08  0.93827000000E+00  0.93827000000E+00 0. -1.
     999902    2    1    2    0    0  0.30610990681E-01  0.29879093975E-02 -0.64807777221E-02  0.10124981558E+01  0.10120101554E+01 0.  0.
     999903    2    3    3    0    0  0.35256635710E-01 -0.10006808821E+00  0.60417546011E-01  0.12395017934E+00  0.21370878608E-01 0.  0.
         14    1    1    2    0    0 -0.30610990681E-01 -0.29879093975E-02  0.64807777221E-02  0.31431844249E-01  0.00000000000E+00 0.  1.
     999901    1    3    3    0    0 -0.46456450290E-02  0.10305599761E+00 -0.66898323734E-01  0.88854797641E+00  0.88000000000E+00 0. -1.
        -11    1    4    4    0    0  0.10691395151E-01 -0.15142371840E-01  0.36904694549E-02  0.18907089702E-01  0.51100000000E-03 0. -1.
         11    1    4    4    0    0  0.24565240558E-01 -0.84925716374E-01  0.56727076557E-01  0.10504308964E+00  0.51100000000E-03 0.  1.
</event>
<event>
 8    1  0.1126407E+005  0.1043930E+01  0.7957747E-01            NaN
         13   -1    0    0    0    0  0.00000000000E+00  0.00000000000E+00  0.74505805969E-08  0.10566000000E+00  0.10566000000E+00 0.  1.
     999900   -1    0    0    0    0 -0.00000000000E+00 -0.00000000000E+00 -0.74505805969E-08  0.93827000000E+00  0.93827000000E+00 0.  1.
     999902    2    1    2    0    0  0.16313705491E-01  0.12948945507E-01  0.11190455287E-01  0.10202860057E+01  0.10200120073E+01 0.  0.
     999903    2    3    3    0    0 -0.99234028928E-01  0.79459832969E-01  0.20885366810E-01  0.13019108471E+00  0.18768655717E-01 0.  0.
         14    1    1    2    0    0 -0.16313705491E-01 -0.12948945507E-01 -0.11190455287E-01  0.23643994293E-01  0.00000000000E+00 0. -1.
     999901    1    3    3    0    0  0.11554773442E+00 -0.66510887462E-01 -0.96949115229E-02  0.89009492100E+00  0.88000000000E+00 0. -1.
        -11    1    4    4    0    0 -0.33396810441E-01  0.35070555405E-01  0.15020701248E-02  0.48454185987E-01  0.51100000000E-03 0. -1.
         11    1    4    4    0    0 -0.65837218487E-01  0.44389277564E-01  0.19383296685E-01  0.81736898719E-01  0.51100000000E-03 0.  1.
</event>
<event>
 8    1  0.1126407E+005  0.1043930E+01  0.7957747E-01            NaN
         13   -1    0    0    0    0  0.00000000000E+00  0.00000000000E+00  0.74505805969E-08  0.10566000000E+00  0.10566000000E+00 0. -1.
     999900   -1    0    0    0    0 -0.00000000000E+00 -0.00000000000E+00 -0.74505805969E-08  0.93827000000E+00  0.93827000000E+00 0. -1.
     999902    2    1    2    0    0 -0.18751398920E-01  0.11371770109E-01 -0.99700431938E-02  0.10198398801E+01  0.10195553183E+01 0.  0.
     999903    2    3    3    0    0  0.11105535621E+00 -0.46211202021E-01 -0.38803368225E-01  0.12798958266E+00  0.20170883707E-01 0.  0.
         14    1    1    2    0    0  0.18751398920E-01 -0.11371770109E-01  0.99700431938E-02  0.24090119928E-01  0.00000000000E+00 0. -1.
     999901    1    3    3    0    0 -0.12980675513E+00  0.57582972130E-01  0.28833325031E-01  0.89185029741E+00  0.88000000000E+00 0. -1.
        -11    1    4    4    0    0  0.41028839477E-01 -0.13685827204E-01 -0.23670622578E-01  0.49307474376E-01  0.51100000000E-03 0. -1.
         11    1    4    4    0    0  0.70026516732E-01 -0.32525374816E-01 -0.15132745647E-01  0.78682108286E-01  0.51100000000E-03 0.  1.
</event>
<event>
 8    1  0.1126407E+005  0.1043930E+01  0.7957747E-01            NaN
         13   -1    0    0    0    0  0.00000000000E+00  0.00000000000E+00  0.74505805969E-08  0.10566000000E+00  0.10566000000E+00 0.  1.
     999900   -1    0    0    0    0 -0.00000000000E+00 -0.00000000000E+00 -0.74505805969E-08  0.93827000000E+00  0.93827000000E+00 0. -1.
     999902    2    1    2    0    0  0.10859366811E-01  0.20802384898E-01 -0.50749991378E-03  0.10204582591E+01  0.10201882845E+01 0.  0.
     999903    2    3    3    0    0 -0.12495785942E-01 -0.10704853705E+00  0.67088644031E-01  0.12834808648E+00  0.18889446662E-01 0.  0.
         14    1    1    2    0    0 -0.10859366811E-01 -0.20802384898E-01  0.50749991378E-03  0.23471740906E-01  0.00000000000E+00 0. -1.
     999901    1    3    3    0    0  0.23355152753E-01  0.12785092195E+00 -0.67596143945E-01  0.89211017261E+00  0.88000000000E+00 0. -1.
        -11    1    4    4    0    0  0.79531490626E-03 -0.15471647248E-01  0.30100213362E-02  0.15790052052E-01  0.51100000000E-03 0.  1.
         11    1    4    4    0    0 -0.13291100848E-01 -0.91576889801E-01  0.64078622695E-01  0.11255803443E+00  0.51100000000E-03 0. -1.
</event>
<event>
 8    1  0.1126407E+005  0.1043930E+01  0.7957747E-01            NaN
         13   -1    0    0    0    0  0.00000000000E+00  0.00000000000E+00  0.74505805969E-08  0.10566000000E+00  0.10566000000E+00 0.  1.
     999900   -1    0    0    0    0 -0.00000000000E+00 -0.00000000000E+00 -0.74505805969E-08  0.93827000000E+00  0.93827000000E+00 0. -1.
     999902    2    1    2    0    0  0.91777790715E-03 -0.97024385804E-02 -0.19343376176E-01  0.10222702255E+01  0.10220407370E+01 0.  0.
     999903    2    3    3    0    0 -0.77626626941E-01 -0.76344474528E-01 -0.76138113069E-01  0.13444365084E+00  0.20584241250E-01 0.  0.
         14    1    1    2    0    0 -0.91777790715E-03  0.97024385804E-02  0.19343376176E-01  0.21659774528E-01  0.00000000000E+00 0.  1.
     999901    1    3    3    0    0  0.78544404848E-01  0.66642035948E-01  0.56794736892E-01  0.88782657463E+00  0.88000000000E+00 0. -1.
        -11    1    4    4    0    0 -0.14897709862E-01 -0.24929197655E-01 -0.26711548645E-01  0.39461051771E-01  0.51100000000E-03 0.  1.
         11    1    4    4    0    0 -0.62728917079E-01 -0.51415276873E-01 -0.49426564424E-01  0.94982599067E-01  0.51100000000E-03 0. -1.
</event>
<event>
 8    1  0.1126407E+005  0.1043930E+01  0.7957747E-01            NaN
         13   -1    0    0    0    0  0.00000000000E+00  0.00000000000E+00  0.74505805969E-08  0.10566000000E+00  0.10566000000E+00 0. -1.
     999900   -1    0    0    0    0 -0.00000000000E+00 -0.00000000000E+00 -0.74505805969E-08  0.93827000000E+00  0.93827000000E+00 0.  1.
     999902    2    1    2    0    0 -0.98912849665E-02 -0.21885976192E-01 -0.15717296049E-02  0.10198612691E+01  0.10195772185E+01 0.  0.
     999903    2    3    3    0    0  0.44828917866E-01 -0.11202431999E+00  0.49968178672E-01  0.13206873493E+00  0.19653287769E-01 0.  0.
         14    1    1    2    0    0  0.98912849665E-02  0.21885976192E-01  0.15717296049E-02  0.24068730878E-01  0.00000000000E+00 0. -1.
     999901    1    3    3    0    0 -0.54720202833E-01  0.90138343798E-01 -0.51539908277E-01  0.88779253419E+00  0.88000000000E+00 0.  1.
        -11    1    4    4    0    0  0.31298470062E-01 -0.89120112959E-01  0.46349940476E-01  0.10521676133E+00  0.51100000000E-03 0. -1.
         11    1    4    4    0    0  0.13530447804E-01 -0.22904207031E-01  0.36182381957E-02  0.26851973599E-01  0.51100000000E-03 0.  1.
</event>
<event>
 7    1  0.1126407E+005  0.1043930E+01  0.7957747E-01            NaN
         13   -1    0    0    0    0  0.00000000000E+00  0.00000000000E+00  0.74505805969E-08  0.10566000000E+00  0.10566000000E+00 0. -1.
     999900   -1    0    0    0    0 -0.00000000000E+00 -0.00000000000E+00 -0.74505805969E-08  0.93827000000E+00  0.93827000000E+00 0. -1.
     999903    2    1    2    0    0 -0.79035827027E-01 -0.71951064015E-01 -0.26108241750E-01  0.11189168836E+00  0.20359078334E-01 0.  0.
         14    1    1    2    0    0  0.73569645712E-02 -0.19827117284E-01 -0.36475866173E-01  0.42163115641E-01  0.00000000000E+00 0.  1.
     999901    1    1    2    0    0  0.71678862455E-01  0.91778181299E-01  0.62584107923E-01  0.88987519600E+00  0.88000000000E+00 0.  1.
        -11    1    3    3    0    0 -0.37027510456E-01 -0.41626618447E-01 -0.22055600060E-01  0.59920968859E-01  0.51100000000E-03 0.  1.
         11    1    3    3    0    0 -0.42008316570E-01 -0.30324445567E-01 -0.40526416903E-02  0.51970719503E-01  0.51100000000E-03 0. -1.
</event>
<event>
 7    1  0.1126407E+005  0.1043930E+01  0.7957747E-01            NaN
         13   -1    0    0    0    0  0.00000000000E+00  0.00000000000E+00  0.74505805969E-08  0.10566000000E+00  0.10566000000E+00 0. -1.
     999900   -1    0    0    0    0 -0.00000000000E+00 -0.00000000000E+00 -0.74505805969E-08  0.93827000000E+00  0.93827000000E+00 0.  1.
     999903    2    1    2    0    0  0.94768772564E-01 -0.49819237634E-01 -0.47329816899E-01  0.11886199483E+00  0.20615177824E-01 0.  0.
         14    1    1    2    0    0 -0.34984698474E-01 -0.16474920803E-01  0.90992062788E-02  0.39725907134E-01  0.00000000000E+00 0.  1.
     999901    1    1    2    0    0 -0.59784074090E-01  0.66294158437E-01  0.38230610620E-01  0.88534209803E+00  0.88000000000E+00 0. -1.
        -11    1    3    3    0    0  0.85843396972E-01 -0.37851412514E-01 -0.37831850485E-01  0.10115991432E+00  0.51100000000E-03 0.  1.
         11    1    3    3    0    0  0.89253755915E-02 -0.11967825120E-01 -0.94979664145E-02  0.17702080515E-01  0.51100000000E-03 0. -1.
</event>
<event>
 8    1  0.1126407E+005  0.1043930E+01  0.7957747E-01            NaN
         13   -1    0    0    0    0  0.00000000000E+00  0.00000000000E+00  0.74505805969E-08  0.10566000000E+00  0.10566000000E+00 0.  1.
     999900   -1    0    0    0    0 -0.00000000000E+00 -0.00000000000E+00 -0.74505805969E-08  0.93827000000E+00  0.93827000000E+00 0.  1.
     999902    2    1    2    0    0 -0.30639405920E-02  0.23384412287E-01 -0.58153050569E-02  0.10196393384E+01  0.10193499615E+01 0.  0.
     999903    2    3    3    0    0 -0.14546234845E-01 -0.10977465098E+00 -0.60815362484E-01  0.12785002158E+00  0.19622761194E-01 0.  0.
         14    1    1    2    0    0  0.30639405920E-02 -0.23384412287E-01  0.58153050569E-02  0.24290661639E-01  0.00000000000E+00 0.  1.
     999901    1    3    3    0    0  0.11482294253E-01  0.13315906327E+00  0.55000057427E-01  0.89178931678E+00  0.88000000000E+00 0. -1.
        -11    1    4    4    0    0 -0.16170115418E-01 -0.47894707786E-01 -0.26893976631E-01  0.57261878825E-01  0.51100000000E-03 0.  1.
         11    1    4    4    0    0  0.16238805725E-02 -0.61879943196E-01 -0.33921385853E-01  0.70588142753E-01  0.51100000000E-03 0. -1.
</event>
<event>
 8    1  0.1126407E+005  0.1043930E+01  0.7957747E-01            NaN
         13   -1    0    0    0    0  0.00000000000E+00  0.00000000000E+00  0.74505805969E-08  0.10566000000E+00  0.10566000000E+00 0.  1.
     999900   -1    0    0    0    0 -0.00000000000E+00 -0.00000000000E+00 -0.74505805969E-08  0.93827000000E+00  0.93827000000E+00 0. -1.
     999902    2    1    2    0    0 -0.86162678794E-02 -0.15400810900E-01  0.62719134635E-02  0.10252013602E+01  0.10250302762E+01 0.  0.
     999903    2    3    3    0    0  0.19540997223E-01  0.12757829532E+00  0.25585523033E-01  0.13300806734E+00  0.19453919392E-01 0.  0.
         14    1    1    2    0    0  0.86162678794E-02  0.15400810900E-01 -0.62719134635E-02  0.18728639754E-01  0.00000000000E+00 0.  1.
     999901    1    3    3    0    0 -0.28157265102E-01 -0.14297910622E+00 -0.19313609570E-01  0.89219329291E+00  0.88000000000E+00 0.  1.
        -11    1    4    4    0    0  0.65553414168E-02  0.96429294155E-01  0.21445801401E-01  0.99003862505E-01  0.51100000000E-03 0.  1.
         11    1    4    4    0    0  0.12985655806E-01  0.31149001164E-01  0.41397216326E-02  0.34004204834E-01  0.51100000000E-03 0. -1.
</event>
<event>
 8    1  0.1126407E+005  0.1043930E+01  0.7957747E-01            NaN
         13   -1    0    0    0    0  0.00000000000E+00  0.00000000000E+00  0.74505805969E-08  0.10566000000E+00  0.10566000000E+00 0. -1.
     999900   -1    0    0    0    0 -0.00000000000E+00 -0.00000000000E+00 -0.74505805969E-08  0.93827000000E+00  0.93827000000E+00 0.  1.
     999902    2    1    2    0    0  0.10854656910E-01 -0.55671370686E-02  0.20623043111E-01  0.10199690631E+01  0.10196875811E+01 0.  0.
     999903    2    3    3    0    0 -0.11058915240E+00 -0.27586457512E-01  0.60221874107E-01  0.13047397218E+00  0.20144727078E-01 0.  0.
         14    1    1    2    0    0 -0.10854656910E-01  0.55671370686E-02 -0.20623043111E-01  0.23960936938E-01  0.00000000000E+00 0.  1.
     999901    1    3    3    0    0  0.12144380931E+00  0.22019320444E-01 -0.39598830996E-01  0.88949509088E+00  0.88000000000E+00 0. -1.
        -11    1    4    4    0    0 -0.54824007688E-01 -0.23289462773E-01  0.26824605323E-01  0.65329101225E-01  0.51100000000E-03 0.  1.
         11    1    4    4    0    0 -0.55765144708E-01 -0.42969947397E-02  0.33397268784E-01  0.65144870952E-01  0.51100000000E-03 0. -1.
</event>
<event>
 8    1  0.1126407E+005  0.1043930E+01  0.7957747E-01            NaN
         13   -1    0    0    0    0  0.00000000000E+00  0.00000000000E+00  0.74505805969E-08  0.10566000000E+00  0.10566000000E+00 0.  1.
     999900   -1    0    0    0    0 -0.00000000000E+00 -0.00000000000E+00 -0.74505805969E-08  0.93827000000E+00  0.93827000000E+00 0. -1.
     999902    2    1    2    0    0 -0.14482989644E-01 -0.19204028853E-01 -0.43516538250E-02  0.10194864200E+01  0.10191933437E+01 0.  0.
     999903    2    3    3    0    0 -0.63091840657E-01  0.82945736242E-01  0.73801416131E-01  0.12880954409E+00  0.16872288135E-01 0.  0.
         14    1    1    2    0    0  0.14482989644E-01  0.19204028853E-01  0.43516538250E-02  0.24443580020E-01  0.00000000000E+00 0. -1.
     999901    1    3    3    0    0  0.48608851013E-01 -0.10214976509E+00 -0.78153069956E-01  0.89067687589E+00  0.88000000000E+00 0. -1.
        -11    1    4    4    0    0 -0.41487618765E-01  0.65967575526E-01  0.51411040505E-01  0.93361125413E-01  0.51100000000E-03 0.  1.
         11    1    4    4    0    0 -0.21604221892E-01  0.16978160716E-01  0.22390375626E-01  0.35448418675E-01  0.51100000000E-03 0. -1.
</event>
<event>
 8    1  0.1126407E+005  0.1043930E+01  0.7957747E-01            NaN
         13   -1    0    0    0    0  0.00000000000E+00  0.00000000000E+00  0.74505805969E-08  0.10566000000E+00  0.10566000000E+00 0.  1.
     999900   -1    0    0    0    0 -0.00000000000E+00 -0.00000000000E+00 -0.74505805969E-08  0.93827000000E+00  0.93827000000E+00 0. -1.
     999902    2    1    2    0    0  0.20160268324E-01 -0.12369933758E-01  0.31416049556E-03  0.10202751828E+01  0.10200009305E+01 0.  0.
     999903    2    3    3    0    0 -0.12265074205E+00 -0.18942268691E-01 -0.25395916486E-01  0.12836757081E+00  0.20766959152E-01 0.  0.
         14    1    1    2    0    0 -0.20160268324E-01  0.12369933758E-01 -0.31416049556E-03  0.23654817203E-01  0.00000000000E+00 0. -1.
     999901    1    3    3    0    0  0.14281101037E+00  0.65723349327E-02  0.25710076982E-01  0.89190761199E+00  0.88000000000E+00 0.  1.
        -11    1    4    4    0    0 -0.88555404639E-01 -0.43253929291E-02 -0.15974421449E-01  0.90090021514E-01  0.51100000000E-03 0. -1.
         11    1    4    4    0    0 -0.34095337409E-01 -0.14616875762E-01 -0.94214950374E-02  0.38277549292E-01  0.51100000000E-03 0.  1.
</event>
<event>
 8    1  0.1126407E+005  0.1043930E+01  0.7957747E-01            NaN
         13   -1    0    0    0    0  0.00000000000E+00  0.00000000000E+00  0.74505805969E-08  0.10566000000E+00  0.10566000000E+00 0. -1.
     999900   -1    0    0    0    0 -0.00000000000E+00 -0.00000000000E+00 -0.74505805969E-08  0.93827000000E+00  0.93827000000E+00 0. -1.
     999902    2    1    2    0    0  0.18824502644E-01 -0.81536285758E-02  0.98235038888E-02  0.10211847854E+01  0.10209314478E+01 0.  0.
     999903    2    3    3    0    0 -0.80433931008E-02 -0.12741773378E+00  0.29625184204E-01  0.13251278901E+00  0.19545144121E-01 0.  0.
         14    1    1    2    0    0 -0.18824502644E-01  0.81536285758E-02 -0.98235038888E-02  0.22745214605E-01  0.00000000000E+00 0.  1.
     999901    1    3    3    0    0  0.26867895745E-01  0.11926410520E+00 -0.19801680315E-01  0.88867199638E+00  0.88000000000E+00 0. -1.
        -11    1    4    4    0    0 -0.72059946574E-02 -0.76422418461E-01  0.82321936545E-02  0.77203254697E-01  0.51100000000E-03 0.  1.
         11    1    4    4    0    0 -0.83739844336E-03 -0.50995315319E-01  0.21392990549E-01  0.55309534316E-01  0.51100000000E-03 0. -1.
</event>
<event>
 8    1  0.1126407E+005  0.1043930E+01  0.7957747E-01            NaN
         13   -1    0    0    0    0  0.00000000000E+00  0.00000000000E+00  0.74505805969E-08  0.10566000000E+00  0.10566000000E+00 0. -1.
     999900   -1    0    0    0    0 -0.00000000000E+00 -0.00000000000E+00 -0.74505805969E-08  0.93827000000E+00  0.93827000000E+00 0.  1.
     999902    2    1    2    0    0 -0.94854260393E-02 -0.50980802567E-03 -0.23343757666E-01  0.10187275352E+01  0.10184157435E+01 0.  0.
     999903    2    3    3    0    0 -0.99927662012E-01  0.24792251423E-01 -0.79934093540E-01  0.13192290146E+00  0.20346971616E-01 0.  0.
         14    1    1    2    0    0  0.94854260393E-02  0.50980802567E-03  0.23343757666E-01  0.25202464826E-01  0.00000000000E+00 0. -1.
     999901    1    3    3    0    0  0.90442235973E-01 -0.25302059449E-01  0.56590335875E-01  0.88680463371E+00  0.88000000000E+00 0.  1.
        -11    1    4    4    0    0 -0.40345747996E-01  0.23759687352E-02 -0.39446605864E-01  0.56477610112E-01  0.51100000000E-03 0.  1.
         11    1    4    4    0    0 -0.59581914016E-01  0.22416282688E-01 -0.40487487676E-01  0.75445291349E-01  0.51100000000E-03 0. -1.
</event>
<event>
 8    1  0.1126407E+005  0.1043930E+01  0.7957747E-01            NaN
         13   -1    0    0    0    0  0.00000000000E+00  0.00000000000E+00  0.74505805969E-08  0.10566000000E+00  0.10566000000E+00 0.  1.
     999900   -1    0    0    0    0 -0.00000000000E+00 -0.00000000000E+00 -0.74505805969E-08  0.93827000000E+00  0.93827000000E+00 0. -1.
     999902    2    1    2    0    0 -0.21194246912E-01  0.70434801739E-02  0.50772569788E-02  0.10210261738E+01  0.10207692503E+01 0.  0.
     999903    2    3    3    0    0 -0.10302890980E+00  0.80032036433E-01  0.22993558615E-01  0.13403957006E+00  0.20440633372E-01 0.  0.
         14    1    1    2    0    0  0.21194246912E-01 -0.70434801739E-02 -0.50772569788E-02  0.22903826177E-01  0.00000000000E+00 0.  1.
     999901    1    3    3    0    0  0.81834662890E-01 -0.72988556259E-01 -0.17916301636E-01  0.88698660377E+00  0.88000000000E+00 0.  1.
        -11    1    4    4    0    0 -0.81039255189E-01  0.56592936032E-01  0.99292998594E-02  0.99342706864E-01  0.51100000000E-03 0.  1.
         11    1    4    4    0    0 -0.21989654613E-01  0.23439100401E-01  0.13064258756E-01  0.34696863193E-01  0.51100000000E-03 0. -1.
</event>
<event>
 8    1  0.1126407E+005  0.1043930E+01  0.7957747E-01            NaN
         13   -1    0    0    0    0  0.00000000000E+00  0.00000000000E+00  0.74505805969E-08  0.10566000000E+00  0.10566000000E+00 0. -1.
     999900   -1    0    0    0    0 -0.00000000000E+00 -0.00000000000E+00 -0.74505805969E-08  0.93827000000E+00  0.93827000000E+00 0. -1.
     999902    2    1    2    0    0 -0.20075000372E-01 -0.12343694293E-01  0.55997129689E-02  0.10197075060E+01  0.10194197706E+01 0.  0.
     999903    2    3    3    0    0 -0.83241679973E-01  0.33595586074E-01 -0.92989217049E-01  0.13076418725E+00  0.19860450398E-01 0.  0.
         14    1    1    2    0    0  0.20075000372E-01  0.12343694293E-01 -0.55997129689E-02  0.24222493968E-01  0.00000000000E+00 0. -1.
     999901    1    3    3    0    0  0.63166679602E-01 -0.45939280367E-01  0.98588930018E-01  0.88894331879E+00  0.88000000000E+00 0.  1.
        -11    1    4    4    0    0 -0.24219884677E-01  0.18671501600E-01 -0.37478509468E-01  0.48374865154E-01  0.51100000000E-03 0. -1.
         11    1    4    4    0    0 -0.59021795297E-01  0.14924084474E-01 -0.55510707582E-01  0.82389322091E-01  0.51100000000E-03 0.  1.
</event>
<event>
 8    1  0.1126407E+005  0.1043930E+01  0.7957747E-01            NaN
         13   -1    0    0    0    0  0.00000000000E+00  0.00000000000E+00  0.74505805969E-08  0.10566000000E+00  0.10566000000E+00 0. -1.
     999900   -1    0    0    0    0 -0.00000000000E+00 -0.00000000000E+00 -0.74505805969E-08  0.93827000000E+00  0.93827000000E+00 0. -1.
     999902    2    1    2    0    0  0.13211637275E-01  0.33736026670E-02  0.13518166285E-01  0.10247292351E+01  0.10245493330E+01 0.  0.
     999903    2    3    3    0    0  0.58791505600E-02 -0.12584685983E-02  0.13482009384E+00  0.13636592027E+00  0.19571876565E-01 0.  0.
         14    1    1    2    0    0 -0.13211637275E-01 -0.33736026670E-02 -0.13518166285E-01  0.19200764937E-01  0.00000000000E+00 0.  1.
     999901    1    3    3    0    0  0.73324867155E-02  0.46320712653E-02 -0.12130192756E+00  0.88836331480E+00  0.88000000000E+00 0. -1.
        -11    1    4    4    0    0 -0.52029065921E-02 -0.45567523223E-02  0.25210569516E-01  0.26147048879E-01  0.51100000000E-03 0. -1.
         11    1    4    4    0    0  0.11082057152E-01  0.32982837240E-02  0.10960952433E+00  0.11021887139E+00  0.51100000000E-03 0.  1.
</event>
<event>
 8    1  0.1126407E+005  0.1043930E+01  0.7957747E-01            NaN
         13   -1    0    0    0    0  0.00000000000E+00  0.00000000000E+00  0.74505805969E-08  0.10566000000E+00  0.10566000000E+00 0.  1.
     999900   -1    0    0    0    0 -0.00000000000E+00 -0.00000000000E+00 -0.74505805969E-08  0.93827000000E+00  0.93827000000E+00 0.  1.
     999902    2    1    2    0    0 -0.52522235986E-02  0.22547449176E-01  0.31124830422E-02  0.10205706150E+01  0.10203032487E+01 0.  0.
     999903    2    3    3    0    0  0.55732313666E-01  0.36600250476E-01 -0.10998414632E+00  0.13112840632E+00  0.25543636779E-01 0.  0.
         14    1    1    2    0    0  0.52522235986E-02 -0.22547449176E-01 -0.31124830422E-02  0.23359385004E-01  0.00000000000E+00 0. -1.
     999901    1    3    3    0    0 -0.60984537265E-01 -0.14052801301E-01  0.11309662936E+00  0.88944220868E+00  0.88000000000E+00 0. -1.
        -11    1    4    4    0    0  0.32771825012E-01  0.68335303768E-02 -0.45606698049E-01  0.56576688486E-01  0.51100000000E-03 0.  1.
         11    1    4    4    0    0  0.22960488654E-01  0.29766720100E-01 -0.64377448269E-01  0.74551717830E-01  0.51100000000E-03 0. -1.
</event>
<event>
 8    1  0.1126407E+005  0.1043930E+01  0.7957747E-01            NaN
         13   -1    0    0    0    0  0.00000000000E+00  0.00000000000E+00  0.74505805969E-08  0.10566000000E+00  0.10566000000E+00 0. -1.
     999900   -1    0    0    0    0 -0.00000000000E+00 -0.00000000000E+00 -0.74505805969E-08  0.93827000000E+00  0.93827000000E+00 0. -1.
     999902    2    1    2    0    0 -0.44422974008E-03  0.22023298064E-01 -0.54980206661E-02  0.10212264490E+01  0.10209740491E+01 0.  0.
     999903    2    3    3    0    0 -0.80951690134E-01 -0.98635931162E-01  0.48353365362E-03  0.12933190377E+00  0.21078056771E-01 0.  0.
         14    1    1    2    0    0  0.44422974008E-03 -0.22023298064E-01  0.54980206661E-02  0.22703551020E-01  0.00000000000E+00 0.  1.
     999901    1    3    3    0    0  0.80507460394E-01  0.12065922923E+00 -0.59815543198E-02  0.89189454521E+00  0.88000000000E+00 0.  1.
        -11    1    4    4    0    0 -0.46381900177E-01 -0.50234217474E-01 -0.94583393204E-02  0.69025202447E-01  0.51100000000E-03 0. -1.
         11    1    4    4    0    0 -0.34569789957E-01 -0.48401713688E-01  0.99418729740E-02  0.60306701326E-01  0.51100000000E-03 0.  1.
</event>
<event>
 8    1  0.1126407E+005  0.1043930E+01  0.7957747E-01            NaN
         13   -1    0    0    0    0  0.00000000000E+00  0.00000000000E+00  0.74505805969E-08  0.10566000000E+00  0.10566000000E+00 0. -1.
     999900   -1    0    0    0    0 -0.00000000000E+00 -0.00000000000E+00 -0.74505805969E-08  0.93827000000E+00  0.93827000000E+00 0.  1.
     999902    2    1    2    0    0  0.32874829792E-02 -0.10838875305E-01  0.20779087732E-01  0.10202644290E+01  0.10199899244E+01 0.  0.
     999903    2    3    3    0    0 -0.11300885516E+00  0.53277383065E-01  0.31769219534E-01  0.13023267912E+00  0.18487469050E-01 0.  0.
         14    1    1    2    0    0 -0.32874829792E-02  0.10838875305E-01 -0.20779087732E-01  0.23665570967E-01  0.00000000000E+00 0. -1.
     999901    1    3    3    0    0  0.11629633813E+00 -0.64116258370E-01 -0.10990131802E-01  0.89003174991E+00  0.88000000000E+00 0.  1.
        -11    1    4    4    0    0 -0.73575166231E-01  0.24762635965E-01  0.19659956930E-01  0.80082883648E-01  0.51100000000E-03 0. -1.
         11    1    4    4    0    0 -0.39433688924E-01  0.28514747100E-01  0.12109262604E-01  0.50149795475E-01  0.51100000000E-03 0.  1.
</event>
<event>
 8    1  0.1126407E+005  0.1043930E+01  0.7957747E-01            NaN
         13   -1    0    0    0    0  0.00000000000E+00  0.00000000000E+00  0.74505805969E-08  0.10566000000E+00  0.10566000000E+00 0.  1.
     999900   -1    0    0    0    0 -0.00000000000E+00 -0.00000000000E+00 -0.74505805969E-08  0.93827000000E+00  0.93827000000E+00 0.  1.
     999902    2    1    2    0    0 -0.12417663094E-01 -0.10979886078E-01  0.15882216402E-01  0.10209734965E+01  0.10207153763E+01 0.  0.
     999903    2    3    3    0    0  0.58291867699E-01  0.58371881982E-01 -0.96272606230E-01  0.12834355654E+00  0.19960845399E-01 0.  0.
         14    1    1    2    0    0  0.12417663094E-01  0.10979886078E-01 -0.15882216402E-01  0.22956503498E-01  0.00000000000E+00 0. -1.
     999901    1    3    3    0    0 -0.70709530792E-01 -0.69351768060E-01  0.11215482263E+00  0.89262993996E+00  0.88000000000E+00 0. -1.
        -11    1    4    4    0    0  0.49614286264E-01  0.42746972898E-01 -0.84613096828E-01  0.10699774937E+00  0.51100000000E-03 0. -1.
         11    1    4    4    0    0  0.86775814351E-02  0.15624909083E-01 -0.11659509402E-01  0.21345807174E-01  0.51100000000E-03 0.  1.
</event>
<event>
 8    1  0.1126407E+005  0.1043930E+01  0.7957747E-01            NaN
         13   -1    0    0    0    0  0.00000000000E+00  0.00000000000E+00  0.74505805969E-08  0.10566000000E+00  0.10566000000E+00 0.  1.
     999900   -1    0    0    0    0 -0.00000000000E+00 -0.00000000000E+00 -0.74505805969E-08  0.93827000000E+00  0.93827000000E+00 0.  1.
     999902    2    1    2    0    0  0.10674369417E-01  0.10993937235E-01 -0.16611717549E-01  0.10213300447E+01  0.10210799686E+01 0.  0.
     999903    2    3    3    0    0  0.36062318940E-01 -0.91339841679E-01 -0.86340223797E-01  0.13229752852E+00  0.20113286213E-01 0.  0.
         14    1    1    2    0    0 -0.10674369417E-01 -0.10993937235E-01  0.16611717549E-01  0.22599955272E-01  0.00000000000E+00 0.  1.
     999901    1    3    3    0    0 -0.25387949522E-01  0.10233377891E+00  0.69728506248E-01  0.88903251621E+00  0.88000000000E+00 0. -1.
        -11    1    4    4    0    0  0.38107888563E-02 -0.16961351860E-02 -0.76634151710E-02  0.87400251349E-02  0.51100000000E-03 0. -1.
         11    1    4    4    0    0  0.32251530083E-01 -0.89643706493E-01 -0.78676808626E-01  0.12355750339E+00  0.51100000000E-03 0.  1.
</event>
<event>
 8    1  0.1126407E+005  0.1043930E+01  0.7957747E-01            NaN
         13   -1    0    0    0    0  0.00000000000E+00  0.00000000000E+00  0.74505805969E-08  0.10566000000E+00  0.10566000000E+00 0.  1.
     999900   -1    0    0    0    0 -0.00000000000E+00 -0.00000000000E+00 -0.74505805969E-08  0.93827000000E+00  0.93827000000E+00 0. -1.
     999902    2    1    2    0    0 -0.77089508647E-03 -0.18726027633E-01 -0.14594620197E-01  0.10201758145E+01  0.10198992260E+01 0.  0.
     999903    2    3    3    0    0  0.91721944042E-01 -0.92308280763E-01 -0.12926736841E-01  0.13227263560E+00  0.19880037391E-01 0.  0.
         14    1    1    2    0    0  0.77089508647E-03  0.18726027633E-01  0.14594620197E-01  0.23754185501E-01  0.00000000000E+00 0. -1.
     999901    1    3    3    0    0 -0.92492839129E-01  0.73582253130E-01 -0.16678833554E-02  0.88790317890E+00  0.88000000000E+00 0.  1.
        -11    1    4    4    0    0  0.63208748169E-01 -0.74766741969E-01 -0.60525682589E-02  0.98093354787E-01  0.51100000000E-03 0.  1.
         11    1    4    4    0    0  0.28513195873E-01 -0.17541538794E-01 -0.68741685825E-02  0.34179280812E-01  0.51100000000E-03 0. -1.
</event>
<event>
 8    1  0.1126407E+005  0.1043930E+01  0.7957747E-01            NaN
         13   -1    0    0    0    0  0.00000000000E+00  0.00000000000E+00  0.74505805969E-08  0.10566000000E+00  0.10566000000E+00 0. -1.
     999900   -1    0    0    0    0 -0.00000000000E+00 -0.00000000000E+00 -0.74505805969E-08  0.93827000000E+00  0.93827000000E+00 0. -1.
     999902    2    1    2    0    0 -0.13678611057E-01 -0.76399333569E-02  0.14767788110E-01  0.10223995437E+01  0.10221728163E+01 0.  0.
     999903    2    3    3    0    0 -0.20996374045E-01  0.59977268205E-01 -0.11235719268E+00  0.13066729896E+00  0.20289993715E-01 0.  0.
         14    1    1    2    0    0  0.13678611057E-01  0.76399333569E-02 -0.14767788110E-01  0.21530456284E-01  0.00000000000E+00 0.  1.
     999901    1    3    3    0    0  0.73177629879E-02 -0.67617201562E-01  0.12712498079E+00  0.89173224476E+00  0.88000000000E+00 0.  1.
        -11    1    4    4    0    0  0.21689521150E-02  0.29969347367E-03 -0.16715427032E-02  0.28016683358E-02  0.51100000000E-03 0. -1.
         11    1    4    4    0    0 -0.23165326160E-01  0.59677574731E-01 -0.11068564998E+00  0.12786563062E+00  0.51100000000E-03 0.  1.
</event>
<event>
 8    1  0.1126407E+005  0.1043930E+01  0.7957747E-01            NaN
         13   -1    0    0    0    0  0.00000000000E+00  0.00000000000E+00  0.74505805969E-08  0.10566000000E+00  0.10566000000E+00 0. -1.
     999900   -1    0    0    0    0 -0.00000000000E+00 -0.00000000000E+00 -0.74505805969E-08  0.93827000000E+00  0.93827000000E+00 0. -1.
     999902    2    1    2    0    0  0.17682915099E-01 -0.12736764983E-01  0.17836047781E-02  0.10220646870E+01  0.10218307748E+01 0.  0.
     999903    2    3    3    0    0  0.96024331999E-01 -0.61427431787E-01  0.68795208093E-01  0.13470978974E+00  0.20492561632E-01 0.  0.
         14    1    1    2    0    0 -0.17682915099E-01  0.12736764983E-01 -0.17836047781E-02  0.21865313047E-01  0.00000000000E+00 0.  1.
     999901    1    3    3    0    0 -0.78341416900E-01  0.48690666804E-01 -0.67011603315E-01  0.88735489722E+00  0.88000000000E+00 0. -1.
        -11    1    4    4    0    0  0.32217095309E-01 -0.96256802157E-02  0.20265537826E-01  0.39262553332E-01  0.51100000000E-03 0.  1.
         11    1    4    4    0    0  0.63807236690E-01 -0.51801751571E-01  0.48529670267E-01  0.95447236404E-01  0.51100000000E-03 0. -1.
</event>
<event>
 8    1  0.1126407E+005  0.1043930E+01  0.7957747E-01            NaN
         13   -1    0    0    0    0  0.00000000000E+00  0.00000000000E+00  0.74505805969E-08  0.10566000000E+00  0.10566000000E+00 0. -1.
     999900   -1    0    0    0    0 -0.00000000000E+00 -0.00000000000E+00 -0.74505805969E-08  0.93827000000E+00  0.93827000000E+00 0.  1.
     999902    2    1    2    0    0  0.12243843214E-01  0.95005788897E-02  0.17209806354E-01  0.10207707658E+01  0.10205080137E+01 0.  0.
     999903    2    3    3    0    0 -0.44504291868E-01  0.10635369735E+00  0.61707939600E-01  0.13252476309E+00  0.21522130193E-01 0.  0.
         14    1    1    2    0    0 -0.12243843214E-01 -0.95005788897E-02 -0.17209806354E-01  0.23159234241E-01  0.00000000000E+00 0.  1.
     999901    1    3    3    0    0  0.56748135082E-01 -0.96853118461E-01 -0.44498133246E-01  0.88824600267E+00  0.88000000000E+00 0.  1.
        -11    1    4    4    0    0 -0.43083325802E-01  0.80270329490E-01  0.49573261891E-01  0.10371725109E+00  0.51100000000E-03 0.  1.
         11    1    4    4    0    0 -0.14209660663E-02  0.26083367861E-01  0.12134677710E-01  0.28807512000E-01  0.51100000000E-03 0. -1.
</event>
<event>
 8    1  0.1126407E+005  0.1043930E+01  0.7957747E-01            NaN
         13   -1    0    0    0    0  0.00000000000E+00  0.00000000000E+00  0.74505805969E-08  0.10566000000E+00  0.10566000000E+00 0. -1.
     999900   -1    0    0    0    0 -0.00000000000E+00 -0.00000000000E+00 -0.74505805969E-08  0.93827000000E+00  0.93827000000E+00 0. -1.
     999902    2    1    2    0    0 -0.22472191180E-01  0.80841732935E-03 -0.90466734794E-03  0.10214250819E+01  0.10211771279E+01 0.  0.
     999903    2    3    3    0    0  0.25467922819E-01  0.43558615170E-01 -0.11950024591E+00  0.13114942505E+00  0.19336361353E-01 0.  0.
         14    1    1    2    0    0  0.22472191180E-01 -0.80841732935E-03  0.90466734794E-03  0.22504918085E-01  0.00000000000E+00 0. -1.
     999901    1    3    3    0    0 -0.47940113999E-01 -0.42750197840E-01  0.11859557856E+00  0.89027565686E+00  0.88000000000E+00 0.  1.
        -11    1    4    4    0    0  0.11660131084E-01  0.19484606919E-01 -0.77863347101E-01  0.81108387398E-01  0.51100000000E-03 0.  1.
         11    1    4    4    0    0  0.13807791735E-01  0.24074008251E-01 -0.41636898812E-01  0.50041037655E-01  0.51100000000E-03 0. -1.
</event>
<event>
 8    1  0.1126407E+005  0.1043930E+01  0.7957747E-01            NaN
         13   -1    0    0    0    0  0.00000000000E+00  0.00000000000E+00  0.74505805969E-08  0.10566000000E+00  0.10566000000E+00 0.  1.
     999900   -1    0    0    0    0 -0.00000000000E+00 -0.00000000000E+00 -0.74505805969E-08  0.93827000000E+00  0.93827000000E+00 0.  1.
     999902    2    1    2    0    0 -0.40937468043E-02  0.11353079061E-01 -0.27124869107E-01  0.10142414552E+01  0.10138068454E+01 0.  0.
     999903    2    3    3    0    0  0.74338918282E-01  0.35725840451E-01  0.88729567634E-01  0.12285603636E+00  0.20446492347E-01 0.  0.
         14    1    1    2    0    0  0.40937468043E-02 -0.11353079061E-01  0.27124869107E-01  0.29688544780E-01  0.00000000000E+00 0.  1.
     999901    1    3    3    0    0 -0.78432665087E-01 -0.24372761391E-01 -0.11585443674E+00  0.89138541886E+00  0.88000000000E+00 0.  1.
        -11    1    4    4    0    0  0.64441738344E-01  0.36670951571E-01  0.71782267865E-01  0.10320102437E+00  0.51100000000E-03 0. -1.
         11    1    4    4    0    0  0.98971799389E-02 -0.94511111977E-03  0.16947299770E-01  0.19655011988E-01  0.51100000000E-03 0.  1.
</event>
<event>
 8    1  0.1126407E+005  0.1043930E+01  0.7957747E-01            NaN
         13   -1    0    0    0    0  0.00000000000E+00  0.00000000000E+00  0.74505805969E-08  0.10566000000E+00  0.10566000000E+00 0.  1.
     999900   -1    0    0    0    0 -0.00000000000E+00 -0.00000000000E+00 -0.74505805969E-08  0.93827000000E+00  0.93827000000E+00 0.  1.
     999902    2    1    2    0    0 -0.21301520435E-01 -0.10264726286E-01 -0.92461426909E-03  0.10202662241E+01  0.10199917616E+01 0.  0.
     999903    2    3    3    0    0 -0.79303971741E-01  0.60487047581E-01  0.83612667633E-01  0.13149367170E+00  0.18753790252E-01 0.  0.
         14    1    1    2    0    0  0.21301520435E-01  0.10264726286E-01  0.92461426909E-03  0.23663775906E-01  0.00000000000E+00 0. -1.
     999901    1    3    3    0    0  0.58002451305E-01 -0.70751773867E-01 -0.84537281902E-01  0.88877255240E+00  0.88000000000E+00 0.  1.
        -11    1    4    4    0    0 -0.79154257243E-01  0.56994161391E-01  0.82607719719E-01  0.12782029319E+00  0.51100000000E-03 0.  1.
         11    1    4    4    0    0 -0.14971449802E-03  0.34928861899E-02  0.10049479135E-02  0.36733785097E-02  0.51100000000E-03 0. -1.
</event>
<event>
 8    1  0.1126407E+005  0.1043930E+01  0.7957747E-01            NaN
         13   -1    0    0    0    0  0.00000000000E+00  0.00000000000E+00  0.74505805969E-08  0.10566000000E+00  0.10566000000E+00 0. -1.
     999900   -1    0    0    0    0 -0.00000000000E+00 -0.00000000000E+00 -0.74505805969E-08  0.93827000000E+00  0.93827000000E+00 0. -1.
     999902    2    1    2    0    0 -0.10407219153E-01  0.62087098334E-02 -0.20339521814E-01  0.10202539692E+01  0.10199792190E+01 0.  0.
     999903    2    3    3    0    0  0.10713043655E+00 -0.67912944583E-01  0.79144306639E-02  0.12890251997E+00  0.21543513278E-01 0.  0.
         14    1    1    2    0    0  0.10407219153E-01 -0.62087098334E-02  0.20339521814E-01  0.23676030831E-01  0.00000000000E+00 0. -1.
     999901    1    3    3    0    0 -0.11753765570E+00  0.74121654416E-01 -0.28253952478E-01  0.89135144920E+00  0.88000000000E+00 0.  1.
        -11    1    4    4    0    0  0.16691450747E-01 -0.15439886414E-01  0.86687324092E-02  0.24339323390E-01  0.51100000000E-03 0.  1.
         11    1    4    4    0    0  0.90438985802E-01 -0.52473058169E-01 -0.75430174528E-03  0.10456319658E+00  0.51100000000E-03 0. -1.
</event>
<event>
 8    1  0.1126407E+005  0.1043930E+01  0.7957747E-01            NaN
         13   -1    0    0    0    0  0.00000000000E+00  0.00000000000E+00  0.74505805969E-08  0.10566000000E+00  0.10566000000E+00 0. -1.
     999900   -1    0    0    0    0 -0.00000000000E+00 -0.00000000000E+00 -0.74505805969E-08  0.93827000000E+00  0.93827000000E+00 0.  1.
     999902    2    1    2    0    0  0.39389398199E-02  0.13956756947E-01 -0.18059907702E-01  0.10207682518E+01  0.10205054421E+01 0.  0.
     999903    2    3    3    0    0  0.10053194567E+00 -0.60981076038E-01  0.51862201233E-01  0.12956962701E+00  0.16529869680E-01 0.  0.
         14    1    1    2    0    0 -0.39389398199E-02 -0.13956756947E-01  0.18059907702E-01  0.23161748154E-01  0.00000000000E+00 0. -1.
     999901    1    3    3    0    0 -0.96593005850E-01  0.74937832985E-01 -0.69922108935E-01  0.89119862484E+00  0.88000000000E+00 0.  1.
        -11    1    4    4    0    0  0.33963397353E-01 -0.27647600339E-01  0.24950630656E-01  0.50405329633E-01  0.51100000000E-03 0. -1.
         11    1    4    4    0    0  0.66568548317E-01 -0.33333475700E-01  0.26911570578E-01  0.79164297377E-01  0.51100000000E-03 0.  1.
</event>
<event>
 8    1  0.1126407E+005  0.1043930E+01  0.7957747E-01            NaN
         13   -1    0    0    0    0  0.00000000000E+00  0.00000000000E+00  0.74505805969E-08  0.10566000000E+00  0.10566000000E+00 0. -1.
     999900   -1    0    0    0    0 -0.00000000000E+00 -0.00000000000E+00 -0.74505805969E-08  0.93827000000E+00  0.93827000000E+00 0. -1.
     999902    2    1    2    0    0 -0.23101418516E-01  0.56545845495E-02 -0.10864423763E-02  0.10201218035E+01  0.10198439409E+01 0.  0.
     999903    2    3    3    0    0 -0.39954835123E-01 -0.11892447526E+00  0.29851581232E-01  0.13064940870E+00  0.20945916721E-01 0.  0.
         14    1    1    2    0    0  0.23101418516E-01 -0.56545845495E-02  0.10864423763E-02  0.23808196507E-01  0.00000000000E+00 0. -1.
     999901    1    3    3    0    0  0.16853416607E-01  0.12457905980E+00 -0.30938023609E-01  0.88947239479E+00  0.88000000000E+00 0. -1.
        -11    1    4    4    0    0 -0.12054409689E-02 -0.21529886905E-01 -0.32105226701E-03  0.21572049360E-01  0.51100000000E-03 0. -1.
         11    1    4    4    0    0 -0.38749394154E-01 -0.97394588351E-01  0.30172633499E-01  0.10907735934E+00  0.51100000000E-03 0.  1.
</event>
<event>
 8    1  0.1126407E+005  0.1043930E+01  0.7957747E-01            NaN
         13   -1    0    0    0    0  0.00000000000E+00  0.00000000000E+00  0.74505805969E-08  0.10566000000E+00  0.10566000000E+00 0.  1.
     999900   -1    0    0    0    0 -0.00000000000E+00 -0.00000000000E+00 -0.74505805969E-08  0.93827000000E+00  0.93827000000E+00 0. -1.
     999902    2    1    2    0    0 -0.19851289587E-01 -0.25407564452E-02 -0.11172297102E-01  0.10210094990E+01  0.10207521970E+01 0.  0.
     999903    2    3    3    0    0  0.10758329265E-01  0.11516376300E+00  0.56181725461E-01  0.13009543640E+00  0.19748476847E-01 0.  0.
         14    1    1    2    0    0  0.19851289587E-01  0.25407564452E-02  0.11172297102E-01  0.22920500957E-01  0.00000000000E+00 0. -1.
     999901    1    3    3    0    0 -0.30609618852E-01 -0.11770451945E+00 -0.67354022564E-01  0.89091406265E+00  0.88000000000E+00 0. -1.
        -11    1    4    4    0    0  0.29941711125E-02  0.25193546301E-01  0.36930291101E-02  0.25643311426E-01  0.51100000000E-03 0.  1.
         11    1    4    4    0    0  0.77641581529E-02  0.89970216702E-01  0.52488696351E-01  0.10445212497E+00  0.51100000000E-03 0. -1.
</event>
<event>
 7    1  0.1126407E+005  0.1043930E+01  0.7957747E-01            NaN
         13   -1    0    0    0    0  0.00000000000E+00  0.00000000000E+00  0.74505805969E-08  0.10566000000E+00  0.10566000000E+00 0. -1.
     999900   -1    0    0    0    0 -0.00000000000E+00 -0.00000000000E+00 -0.74505805969E-08  0.93827000000E+00  0.93827000000E+00 0. -1.
     999903    2    1    2    0    0  0.25880806274E-01  0.59707775239E-02  0.10585105217E+00  0.11083416471E+00  0.19346847384E-01 0.  0.
         14    1    1    2    0    0  0.50216970509E-02  0.44708377499E-01 -0.24561933981E-02  0.45056512802E-01  0.00000000000E+00 0. -1.
     999901    1    1    2    0    0 -0.30902503325E-01 -0.50679155022E-01 -0.10339485877E+00  0.88803932249E+00  0.88000000000E+00 0. -1.
        -11    1    3    3    0    0 -0.22027014903E-02  0.40840569825E-03  0.24183573215E-01  0.24292489035E-01  0.51100000000E-03 0.  1.
         11    1    3    3    0    0  0.28083507765E-01  0.55623718256E-02  0.81667478955E-01  0.86541675675E-01  0.51100000000E-03 0. -1.
</event>
<event>
 8    1  0.1338571E+005  0.1043930E+01  0.7957747E-01            NaN
         13   -1    0    0    0    0  0.00000000000E+00  0.00000000000E+00  0.74505805969E-08  0.10566000000E+00  0.10566000000E+00 0.  1.
     999900   -1    0    0    0    0 -0.00000000000E+00 -0.00000000000E+00 -0.74505805969E-08  0.93827000000E+00  0.93827000000E+00 0.  1.
     999902    2    1    2    0    0  0.15494801895E-01  0.13222582981E-01  0.13996173191E-01  0.10192152584E+01  0.10189155630E+01 0.  0.
     999903    2    3    3    0    0 -0.14075429123E-01  0.39008187609E-01 -0.11965582748E+00  0.12825950575E+00  0.20327994464E-01 0.  0.
         14    1    1    2    0    0 -0.15494801895E-01 -0.13222582981E-01 -0.13996173191E-01  0.24714741561E-01  0.00000000000E+00 0. -1.
     999901    1    3    3    0    0  0.29570231018E-01 -0.25785604627E-01  0.13365200067E+00  0.89095575269E+00  0.88000000000E+00 0. -1.
        -11    1    4    4    0    0  0.46263823447E-02  0.14619362398E-01 -0.43977354363E-01  0.46576796673E-01  0.51100000000E-03 0. -1.
         11    1    4    4    0    0 -0.18701811468E-01  0.24388825210E-01 -0.75678473118E-01  0.81682709075E-01  0.51100000000E-03 0.  1.
</event>
<event>
 8    1  0.1126407E+005  0.1043930E+01  0.7957747E-01            NaN
         13   -1    0    0    0    0  0.00000000000E+00  0.00000000000E+00  0.74505805969E-08  0.10566000000E+00  0.10566000000E+00 0. -1.
     999900   -1    0    0    0    0 -0.00000000000E+00 -0.00000000000E+00 -0.74505805969E-08  0.93827000000E+00  0.93827000000E+00 0. -1.
     999902    2    1    2    0    0 -0.24272173386E-02  0.18690758936E-01  0.15374684785E-01  0.10196068262E+01  0.10193166648E+01 0.  0.
     999903    2    3    3    0    0 -0.10379355429E+00  0.14625996733E-01 -0.73268257929E-01  0.12935448673E+00  0.19424827562E-01 0.  0.
         14    1    1    2    0    0  0.24272173386E-02 -0.18690758936E-01 -0.15374684785E-01  0.24323173844E-01  0.00000000000E+00 0.  1.
     999901    1    3    3    0    0  0.10136633695E+00  0.40647622031E-02  0.88642942714E-01  0.89025233942E+00  0.88000000000E+00 0.  1.
        -11    1    4    4    0    0 -0.78118850116E-01  0.14078278585E-01 -0.45358995863E-01  0.91424571632E-01  0.51100000000E-03 0.  1.
         11    1    4    4    0    0 -0.25674704171E-01  0.54771814730E-03 -0.27909262066E-01  0.37929915100E-01  0.51100000000E-03 0. -1.
</event>
<event>
 8    1  0.1126407E+005  0.1043930E+01  0.7957747E-01            NaN
         13   -1    0    0    0    0  0.00000000000E+00  0.00000000000E+00  0.74505805969E-08  0.10566000000E+00  0.10566000000E+00 0. -1.
     999900   -1    0    0    0    0 -0.00000000000E+00 -0.00000000000E+00 -0.74505805969E-08  0.93827000000E+00  0.93827000000E+00 0.  1.
     999902    2    1    2    0    0  0.21315953876E-01 -0.88605303649E-02 -0.28936957026E-02  0.10206651690E+01  0.10203999876E+01 0.  0.
     999903    2    3    3    0    0 -0.31604444540E-01 -0.14472767973E-01  0.12400458150E+00  0.12997148507E+00  0.17525660359E-01 0.  0.
         14    1    1    2    0    0 -0.21315953876E-01  0.88605303649E-02  0.28936957026E-02  0.23264831029E-01  0.00000000000E+00 0. -1.
     999901    1    3    3    0    0  0.52920398416E-01  0.56122376077E-02 -0.12689827720E+00  0.89069368390E+00  0.88000000000E+00 0.  1.
        -11    1    4    4    0    0 -0.10604946523E-01 -0.58263431756E-02  0.74830999823E-01  0.75804688649E-01  0.51100000000E-03 0.  1.
         11    1    4    4    0    0 -0.20999498017E-01 -0.86464247970E-02  0.49173581678E-01  0.54166796424E-01  0.51100000000E-03 0. -1.
</event>
<event>
 8    1  0.1126407E+005  0.1043930E+01  0.7957747E-01            NaN
         13   -1    0    0    0    0  0.00000000000E+00  0.00000000000E+00  0.74505805969E-08  0.10566000000E+00  0.10566000000E+00 0.  1.
     999900   -1    0    0    0    0 -0.00000000000E+00 -0.00000000000E+00 -0.74505805969E-08  0.93827000000E+00  0.93827000000E+00 0. -1.
     999902    2    1    2    0    0 -0.85409810898E-02  0.12251230860E-01  0.20190641575E-01  0.10188161986E+01  0.10185066241E+01 0.  0.
     999903    2    3    3    0    0 -0.12611445539E+00  0.25901094782E-01 -0.80069532989E-02  0.13044412279E+00  0.19386472098E-01 0.  0.
         14    1    1    2    0    0  0.85409810898E-02 -0.12251230860E-01 -0.20190641575E-01  0.25113801440E-01  0.00000000000E+00 0. -1.
     999901    1    3    3    0    0  0.11757347430E+00 -0.13649863923E-01  0.28197594874E-01  0.88837207577E+00  0.88000000000E+00 0. -1.
        -11    1    4    4    0    0 -0.37158841752E-01 -0.73502265723E-03 -0.52983558479E-02  0.37545352233E-01  0.51100000000E-03 0.  1.
         11    1    4    4    0    0 -0.88955613641E-01  0.26636117440E-01 -0.27085974510E-02  0.92898770560E-01  0.51100000000E-03 0. -1.
</event>
<event>
 8    1  0.1126407E+005  0.1043930E+01  0.7957747E-01            NaN
         13   -1    0    0    0    0  0.00000000000E+00  0.00000000000E+00  0.74505805969E-08  0.10566000000E+00  0.10566000000E+00 0. -1.
     999900   -1    0    0    0    0 -0.00000000000E+00 -0.00000000000E+00 -0.74505805969E-08  0.93827000000E+00  0.93827000000E+00 0. -1.
     999902    2    1    2    0    0  0.15227613192E-01 -0.10308205009E-01 -0.14642052093E-01  0.10204240649E+01  0.10201532940E+01 0.  0.
     999903    2    3    3    0    0 -0.79443662171E-01  0.88876851435E-01 -0.39066945858E-01  0.12947125965E+00  0.32034210408E-01 0.  0.
         14    1    1    2    0    0 -0.15227613192E-01  0.10308205009E-01  0.14642052093E-01  0.23505935070E-01  0.00000000000E+00 0.  1.
     999901    1    3    3    0    0  0.94671275364E-01 -0.99185056444E-01  0.24424893766E-01  0.89095280528E+00  0.88000000000E+00 0.  1.
        -11    1    4    4    0    0 -0.57457904634E-01  0.50217131556E-01 -0.11577221231E-01  0.77184611672E-01  0.51100000000E-03 0.  1.
         11    1    4    4    0    0 -0.21985757538E-01  0.38659719879E-01 -0.27489724627E-01  0.52286647977E-01  0.51100000000E-03 0. -1.
</event>
<event>
 8    1  0.1126407E+005  0.1043930E+01  0.7957747E-01            NaN
         13   -1    0    0    0    0  0.00000000000E+00  0.00000000000E+00  0.74505805969E-08  0.10566000000E+00  0.10566000000E+00 0.  1.
     999900   -1    0    0    0    0 -0.00000000000E+00 -0.00000000000E+00 -0.74505805969E-08  0.93827000000E+00  0.93827000000E+00 0. -1.
     999902    2    1    2    0    0  0.11982585736E-02  0.25197065738E-01  0.28651051423E-02  0.10185422712E+01  0.10182258205E+01 0.  0.
     999903    2    3    3    0    0 -0.12675609619E+00 -0.48859128348E-02  0.82451725923E-02  0.12876350791E+00  0.20520186002E-01 0.  0.
         14    1    1    2    0    0 -0.11982585736E-02 -0.25197065738E-01 -0.28651051423E-02  0.25387728785E-01  0.00000000000E+00 0. -1.
     999901    1    3    3    0    0  0.12795435476E+00  0.30082978572E-01 -0.53800674500E-02  0.88977876330E+00  0.88000000000E+00 0. -1.
        -11    1    4    4    0    0 -0.40829281217E-01 -0.89671266255E-03  0.12278679525E-01  0.42648111215E-01  0.51100000000E-03 0.  1.
         11    1    4    4    0    0 -0.85926814970E-01 -0.39892001722E-02 -0.40335069330E-02  0.86115396696E-01  0.51100000000E-03 0. -1.
</event>
<event>
 8    1  0.1126407E+005  0.1043930E+01  0.7957747E-01            NaN
         13   -1    0    0    0    0  0.00000000000E+00  0.00000000000E+00  0.74505805969E-08  0.10566000000E+00  0.10566000000E+00 0. -1.
     999900   -1    0    0    0    0 -0.00000000000E+00 -0.00000000000E+00 -0.74505805969E-08  0.93827000000E+00  0.93827000000E+00 0. -1.
     999902    2    1    2    0    0 -0.38291124259E-02 -0.12400639313E-01  0.19876203392E-01  0.10201918152E+01  0.10199156035E+01 0.  0.
     999903    2    3    3    0    0  0.34508741469E-01 -0.87901627276E-01 -0.86753095284E-01  0.12972003148E+00  0.19586671756E-01 0.  0.
         14    1    1    2    0    0  0.38291124259E-02  0.12400639313E-01 -0.19876203392E-01  0.23738184822E-01  0.00000000000E+00 0.  1.
     999901    1    3    3    0    0 -0.38337853895E-01  0.75500987964E-01  0.10662929868E+00  0.89047178370E+00  0.88000000000E+00 0.  1.
        -11    1    4    4    0    0  0.16739773816E-01 -0.53539511940E-01 -0.39297634584E-01  0.68492806710E-01  0.51100000000E-03 0. -1.
         11    1    4    4    0    0  0.17768967653E-01 -0.34362115337E-01 -0.47455460700E-01  0.61227224771E-01  0.51100000000E-03 0.  1.
</event>
<event>
 8    1  0.1126407E+005  0.1043930E+01  0.7957747E-01            NaN
         13   -1    0    0    0    0  0.00000000000E+00  0.00000000000E+00  0.74505805969E-08  0.10566000000E+00  0.10566000000E+00 0.  1.
     999900   -1    0    0    0    0 -0.00000000000E+00 -0.00000000000E+00 -0.74505805969E-08  0.93827000000E+00  0.93827000000E+00 0.  1.
     999902    2    1    2    0    0  0.12893917288E-01 -0.16130871005E-01 -0.11010117801E-01  0.10205274190E+01  0.10202590515E+01 0.  0.
     999903    2    3    3    0    0  0.65390470092E-01  0.72203139862E-01  0.83891077900E-01  0.12948026961E+00  0.15434386354E-01 0.  0.
         14    1    1    2    0    0 -0.12893917288E-01  0.16130871005E-01  0.11010117801E-01  0.23402580977E-01  0.00000000000E+00 0.  1.
     999901    1    3    3    0    0 -0.52496552804E-01 -0.88334010867E-01 -0.94901195701E-01  0.89104714941E+00  0.88000000000E+00 0.  1.
        -11    1    4    4    0    0  0.29190235516E-01  0.27773645417E-01  0.25634855144E-01  0.47758267855E-01  0.51100000000E-03 0.  1.
         11    1    4    4    0    0  0.36200234576E-01  0.44429494446E-01  0.58256222756E-01  0.81722001755E-01  0.51100000000E-03 0. -1.
</event>
<event>
 8    1  0.1126407E+005  0.1043930E+01  0.7957747E-01            NaN
         13   -1    0    0    0    0  0.00000000000E+00  0.00000000000E+00  0.74505805969E-08  0.10566000000E+00  0.10566000000E+00 0. -1.
     999900   -1    0    0    0    0 -0.00000000000E+00 -0.00000000000E+00 -0.74505805969E-08  0.93827000000E+00  0.93827000000E+00 0.  1.
     999902    2    1    2    0    0 -0.92318680551E-02 -0.27632121398E-01 -0.12922284534E-01  0.10120592147E+01  0.10115572683E+01 0.  0.
     999903    2    3    3    0    0 -0.64559344503E-01 -0.65483218306E-01  0.81054138063E-01  0.12452025597E+00  0.21898858576E-01 0.  0.
         14    1    1    2    0    0  0.92318680551E-02  0.27632121398E-01  0.12922284534E-01  0.31870785342E-01  0.00000000000E+00 0. -1.
     999901    1    3    3    0    0  0.55327476448E-01  0.37851096909E-01 -0.93976422597E-01  0.88753895869E+00  0.88000000000E+00 0.  1.
        -11    1    4    4    0    0 -0.11593234161E-01 -0.12259463804E-01  0.27580414572E-01  0.32336325085E-01  0.51100000000E-03 0. -1.
         11    1    4    4    0    0 -0.52966110342E-01 -0.53223754502E-01  0.53473723492E-01  0.92183930884E-01  0.51100000000E-03 0.  1.
</event>
<event>
 8    1  0.1126407E+005  0.1043930E+01  0.7957747E-01            NaN
         13   -1    0    0    0    0  0.00000000000E+00  0.00000000000E+00  0.74505805969E-08  0.10566000000E+00  0.10566000000E+00 0.  1.
     999900   -1    0    0    0    0 -0.00000000000E+00 -0.00000000000E+00 -0.74505805969E-08  0.93827000000E+00  0.93827000000E+00 0.  1.
     999902    2    1    2    0    0 -0.88194438968E-02 -0.17441144530E-01  0.10271219234E-01  0.10218511853E+01  0.10216126325E+01 0.  0.
     999903    2    3    3    0    0  0.48189262223E-01  0.66711624192E-01  0.10051286142E+00  0.13141576653E+00  0.19865109715E-01 0.  0.
         14    1    1    2    0    0  0.88194438968E-02  0.17441144530E-01 -0.10271219234E-01  0.22078814681E-01  0.00000000000E+00 0. -1.
     999901    1    3    3    0    0 -0.57008706120E-01 -0.84152768722E-01 -0.90241642190E-01  0.89043541879E+00  0.88000000000E+00 0.  1.
        -11    1    4    4    0    0  0.72782627449E-02  0.25613758520E-01  0.29878265553E-01  0.40025112212E-01  0.51100000000E-03 0.  1.
         11    1    4    4    0    0  0.40910999478E-01  0.41097865671E-01  0.70634595870E-01  0.91390654313E-01  0.51100000000E-03 0. -1.
</event>
<event>
 8    1  0.1142219E+005  0.1043930E+01  0.7957747E-01            NaN
         13   -1    0    0    0    0  0.00000000000E+00  0.00000000000E+00  0.74505805969E-08  0.10566000000E+00  0.10566000000E+00 0. -1.
     999900   -1    0    0    0    0 -0.00000000000E+00 -0.00000000000E+00 -0.74505805969E-08  0.93827000000E+00  0.93827000000E+00 0. -1.
     999902    2    1    2    0    0  0.98823875752E-02  0.16503241271E-01 -0.14052874424E-01  0.10201077030E+01  0.10198295072E+01 0.  0.
     999903    2    3    3    0    0 -0.50412191974E-01 -0.44472505048E-01  0.10678343136E+00  0.12772051639E+00  0.19764520970E-01 0.  0.
         14    1    1    2    0    0 -0.98823875752E-02 -0.16503241271E-01  0.14052874424E-01  0.23822297039E-01  0.00000000000E+00 0. -1.
     999901    1    3    3    0    0  0.60294579549E-01  0.60975746318E-01 -0.12083630578E+00  0.89238718657E+00  0.88000000000E+00 0. -1.
        -11    1    4    4    0    0 -0.27371528505E-01 -0.35211227808E-01  0.76520249689E-01  0.88569977249E-01  0.51100000000E-03 0.  1.
         11    1    4    4    0    0 -0.23040663468E-01 -0.92612772398E-02  0.30263181670E-01  0.39150539140E-01  0.51100000000E-03 0. -1.
</event>
<event>
 8    1  0.1126407E+005  0.1043930E+01  0.7957747E-01            NaN
         13   -1    0    0    0    0  0.00000000000E+00  0.00000000000E+00  0.74505805969E-08  0.10566000000E+00  0.10566000000E+00 0. -1.
     999900   -1    0    0    0    0 -0.00000000000E+00 -0.00000000000E+00 -0.74505805969E-08  0.93827000000E+00  0.93827000000E+00 0. -1.
     999902    2    1    2    0    0  0.14347580337E-01  0.96302658478E-02  0.16422797973E-01  0.10200908856E+01  0.10198122923E+01 0.  0.
     999903    2    3    3    0    0  0.74486383753E-01 -0.10631169955E-01  0.10783590318E+00  0.13308267975E+00  0.20522536240E-01 0.  0.
         14    1    1    2    0    0 -0.14347580337E-01 -0.96302658478E-02 -0.16422797973E-01  0.23839114394E-01  0.00000000000E+00 0.  1.
     999901    1    3    3    0    0 -0.60138803416E-01  0.20261435803E-01 -0.91413105212E-01  0.88700820586E+00  0.88000000000E+00 0. -1.
        -11    1    4    4    0    0  0.16807594998E-01 -0.11341917579E-01  0.29439196244E-01  0.35749989377E-01  0.51100000000E-03 0. -1.
         11    1    4    4    0    0  0.57678788755E-01  0.71074762400E-03  0.78396706941E-01  0.97332690370E-01  0.51100000000E-03 0.  1.
</event>
<event>
 8    1  0.1126407E+005  0.1043930E+01  0.7957747E-01            NaN
         13   -1    0    0    0    0  0.00000000000E+00  0.00000000000E+00  0.74505805969E-08  0.10566000000E+00  0.10566000000E+00 0.  1.
     999900   -1    0    0    0    0 -0.00000000000E+00 -0.00000000000E+00 -0.74505805969E-08  0.93827000000E+00  0.93827000000E+00 0. -1.
     999902    2    1    2    0    0  0.84889361405E-02  0.67111165788E-02  0.20697107845E-01  0.10205746709E+01  0.10203073986E+01 0.  0.
     999903    2    3    3    0    0 -0.11131714033E+00  0.58938992634E-01  0.29379456605E-01  0.13087998725E+00  0.20027681043E-01 0.  0.
         14    1    1    2    0    0 -0.84889361405E-02 -0.67111165788E-02 -0.20697107845E-01  0.23355329064E-01  0.00000000000E+00 0. -1.
     999901    1    3    3    0    0  0.11980607647E+00 -0.52227876055E-01 -0.86823487597E-02  0.88969468368E+00  0.88000000000E+00 0.  1.
        -11    1    4    4    0    0 -0.50107604756E-01  0.20666490462E-01  0.39805947263E-02  0.54350548642E-01  0.51100000000E-03 0.  1.
         11    1    4    4    0    0 -0.61209535577E-01  0.38272502172E-01  0.25398861879E-01  0.76529438609E-01  0.51100000000E-03 0. -1.
</event>
<event>
 8    1  0.1126407E+005  0.1043930E+01  0.7957747E-01            NaN
         13   -1    0    0    0    0  0.00000000000E+00  0.00000000000E+00  0.74505805969E-08  0.10566000000E+00  0.10566000000E+00 0. -1.
     999900   -1    0    0    0    0 -0.00000000000E+00 -0.00000000000E+00 -0.74505805969E-08  0.93827000000E+00  0.93827000000E+00 0. -1.
     999902    2    1    2    0    0 -0.13872533155E-01  0.12803410470E-01 -0.15157286575E-01  0.10197201294E+01  0.10194326974E+01 0.  0.
     999903    2    3    3    0    0  0.84335802379E-01 -0.10011358635E-01 -0.96887260513E-01  0.13020049532E+00  0.18768933579E-01 0.  0.
         14    1    1    2    0    0  0.13872533155E-01 -0.12803410470E-01  0.15157286575E-01  0.24209870552E-01  0.00000000000E+00 0. -1.
     999901    1    3    3    0    0 -0.98208335534E-01  0.22814769105E-01  0.81729973937E-01  0.88951963413E+00  0.88000000000E+00 0. -1.
        -11    1    4    4    0    0  0.30012774847E-01 -0.33207324990E-02 -0.21647813406E-01  0.37157541154E-01  0.51100000000E-03 0.  1.
         11    1    4    4    0    0  0.54323027532E-01 -0.66906261356E-02 -0.75239447106E-01  0.93042954167E-01  0.51100000000E-03 0. -1.
</event>
<event>
 8    1  0.1126407E+005  0.1043930E+01  0.7957747E-01            NaN
         13   -1    0    0    0    0  0.00000000000E+00  0.00000000000E+00  0.74505805969E-08  0.10566000000E+00  0.10566000000E+00 0.  1.
     999900   -1    0    0    0    0 -0.00000000000E+00 -0.00000000000E+00 -0.74505805969E-08  0.93827000000E+00  0.93827000000E+00 0. -1.
     999902    2    1    2    0    0 -0.18095675145E-01  0.61912484465E-02 -0.14589261334E-01  0.10198752383E+01  0.10195915212E+01 0.  0.
     999903    2    3    3    0    0 -0.89033885059E-01 -0.93186734631E-01 -0.15924332174E-01  0.13144403914E+00  0.20326113026E-01 0.  0.
         14    1    1    2    0    0  0.18095675145E-01 -0.61912484465E-02  0.14589261334E-01  0.24054761744E-01  0.00000000000E+00 0.  1.
     999901    1    3    3    0    0  0.70938209913E-01  0.99377983077E-01  0.13350708403E-02  0.88843119911E+00  0.88000000000E+00 0.  1.
        -11    1    4    4    0    0 -0.85282661598E-01 -0.93101977714E-01 -0.17249588711E-01  0.12743202131E+00  0.51100000000E-03 0. -1.
         11    1    4    4    0    0 -0.37512234607E-02 -0.84756916792E-04  0.13252565370E-02  0.40120178310E-02  0.51100000000E-03 0.  1.
</event>
<event>
 8    1  0.1126407E+005  0.1043930E+01  0.7957747E-01            NaN
         13   -1    0    0    0    0  0.00000000000E+00  0.00000000000E+00  0.74505805969E-08  0.10566000000E+00  0.10566000000E+00 0.  1.
     999900   -1    0    0    0    0 -0.00000000000E+00 -0.00000000000E+00 -0.74505805969E-08  0.93827000000E+00  0.93827000000E+00 0. -1.
     999902    2    1    2    0    0  0.10147967344E-01  0.12220567304E-01  0.17576564712E-01  0.10202390918E+01  0.10199639921E+01 0.  0.
     999903    2    3    3    0    0 -0.25418020705E-01  0.10702212309E+00 -0.66852451930E-01  0.13041858551E+00  0.20974901895E-01 0.  0.
         14    1    1    2    0    0 -0.10147967344E-01 -0.12220567304E-01 -0.17576564712E-01  0.23690908246E-01  0.00000000000E+00 0.  1.
     999901    1    3    3    0    0  0.35565988049E-01 -0.94801555786E-01  0.84429016642E-01  0.88982050625E+00  0.88000000000E+00 0.  1.
        -11    1    4    4    0    0 -0.27141129678E-01  0.83285897221E-01 -0.46928815858E-01  0.99376840737E-01  0.51100000000E-03 0.  1.
         11    1    4    4    0    0  0.17231089734E-02  0.23736225869E-01 -0.19923636073E-01  0.31041744771E-01  0.51100000000E-03 0. -1.
</event>
<event>
 8    1  0.1126407E+005  0.1043930E+01  0.7957747E-01            NaN
         13   -1    0    0    0    0  0.00000000000E+00  0.00000000000E+00  0.74505805969E-08  0.10566000000E+00  0.10566000000E+00 0. -1.
     999900   -1    0    0    0    0 -0.00000000000E+00 -0.00000000000E+00 -0.74505805969E-08  0.93827000000E+00  0.93827000000E+00 0. -1.
     999902    2    1    2    0    0  0.21370768508E-01 -0.65266535566E-02  0.41440157079E-02  0.10212038076E+01  0.10209508984E+01 0.  0.
     999903    2    3    3    0    0 -0.36964409418E-01 -0.89781149683E-01 -0.85936901739E-01  0.13078319029E+00  0.17090037415E-01 0.  0.
         14    1    1    2    0    0 -0.21370768508E-01  0.65266535566E-02 -0.41440157079E-02  0.22726192366E-01  0.00000000000E+00 0.  1.
     999901    1    3    3    0    0  0.58335177927E-01  0.83254496127E-01  0.90080917447E-01  0.89042061735E+00  0.88000000000E+00 0.  1.
        -11    1    4    4    0    0 -0.32329514619E-01 -0.79000748455E-01 -0.82076803129E-01  0.11841950222E+00  0.51100000000E-03 0. -1.
         11    1    4    4    0    0 -0.46348947994E-02 -0.10780401228E-01 -0.38600986098E-02  0.12363688071E-01  0.51100000000E-03 0.  1.
</event>
<event>
 8    1  0.1126407E+005  0.1043930E+01  0.7957747E-01            NaN
         13   -1    0    0    0    0  0.00000000000E+00  0.00000000000E+00  0.74505805969E-08  0.10566000000E+00  0.10566000000E+00 0. -1.
     999900   -1    0    0    0    0 -0.00000000000E+00 -0.00000000000E+00 -0.74505805969E-08  0.93827000000E+00  0.93827000000E+00 0. -1.
     999902    2    1    2    0    0  0.76911762335E-02 -0.82799218284E-02  0.20803224223E-01  0.10202554264E+01  0.10199807104E+01 0.  0.
     999903    2    3    3    0    0  0.10918689419E+00  0.85535644775E-02  0.72293789746E-01  0.13276682063E+00  0.20141879184E-01 0.  0.
         14    1    1    2    0    0 -0.76911762335E-02  0.82799218284E-02 -0.20803224223E-01  0.23674573606E-01  0.00000000000E+00 0.  1.
     999901    1    3    3    0    0 -0.10149571795E+00 -0.16833486306E-01 -0.51490565523E-01  0.88748860576E+00  0.88000000000E+00 0. -1.
        -11    1    4    4    0    0  0.40251740503E-01 -0.60460933552E-02  0.22811469958E-01  0.46662427508E-01  0.51100000000E-03 0.  1.
         11    1    4    4    0    0  0.68935153683E-01  0.14599657833E-01  0.49482319788E-01  0.86104393121E-01  0.51100000000E-03 0. -1.
</event>
<event>
 8    1  0.1126407E+005  0.1043930E+01  0.7957747E-01            NaN
         13   -1    0    0    0    0  0.00000000000E+00  0.00000000000E+00  0.74505805969E-08  0.10566000000E+00  0.10566000000E+00 0.  1.
     999900   -1    0    0    0    0 -0.00000000000E+00 -0.00000000000E+00 -0.74505805969E-08  0.93827000000E+00  0.93827000000E+00 0. -1.
     999902    2    1    2    0    0 -0.39033223185E-02  0.36380074533E-02 -0.22095091859E-01  0.10211997535E+01  0.10209467530E+01 0.  0.
     999903    2    3    3    0    0  0.11307206039E+00  0.29860342772E-01  0.53036869505E-01  0.12989976881E+00  0.19598711633E-01 0.  0.
         14    1    1    2    0    0  0.39033223185E-02 -0.36380074533E-02  0.22095091859E-01  0.22730246537E-01  0.00000000000E+00 0.  1.
     999901    1    3    3    0    0 -0.11697538271E+00 -0.26222335319E-01 -0.75131961365E-01  0.89129998466E+00  0.88000000000E+00 0. -1.
        -11    1    4    4    0    0  0.66265968036E-01  0.15456286604E-01  0.41083903745E-01  0.79487254219E-01  0.51100000000E-03 0. -1.
         11    1    4    4    0    0  0.46806092355E-01  0.14404056168E-01  0.11952965761E-01  0.50412514589E-01  0.51100000000E-03 0.  1.
</event>
<event>
 8    1  0.1126407E+005  0.1043930E+01  0.7957747E-01            NaN
         13   -1    0    0    0    0  0.00000000000E+00  0.00000000000E+00  0.74505805969E-08  0.10566000000E+00  0.10566000000E+00 0. -1.
     999900   -1    0    0    0    0 -0.00000000000E+00 -0.00000000000E+00 -0.74505805969E-08  0.93827000000E+00  0.93827000000E+00 0.  1.
     999902    2    1    2    0    0  0.40495878287E-02  0.22102545158E-01 -0.57553200852E-02  0.10207341949E+01  0.10204706029E+01 0.  0.
     999903    2    3    3    0    0 -0.44546819810E-01 -0.49320068241E-01  0.10894151379E+00  0.12909628397E+00  0.19511761090E-01 0.  0.
         14    1    1    2    0    0 -0.40495878287E-02 -0.22102545158E-01  0.57553200852E-02  0.23195805081E-01  0.00000000000E+00 0. -1.
     999901    1    3    3    0    0  0.48596407639E-01  0.71422613400E-01 -0.11469683388E+00  0.89163791095E+00  0.88000000000E+00 0.  1.
        -11    1    4    4    0    0 -0.36353581744E-01 -0.31708349990E-01  0.64094458975E-01  0.80220715261E-01  0.51100000000E-03 0.  1.
         11    1    4    4    0    0 -0.81932380662E-02 -0.17611718252E-01  0.44847054818E-01  0.48875568710E-01  0.51100000000E-03 0. -1.
</event>
<event>
 8    1  0.1126407E+005  0.1043930E+01  0.7957747E-01            NaN
         13   -1    0    0    0    0  0.00000000000E+00  0.00000000000E+00  0.74505805969E-08  0.10566000000E+00  0.10566000000E+00 0. -1.
     999900   -1    0    0    0    0 -0.00000000000E+00 -0.00000000000E+00 -0.74505805969E-08  0.93827000000E+00  0.93827000000E+00 0.  1.
     999902    2    1    2    0    0 -0.21739008749E-01  0.41330923035E-02 -0.72160488419E-02  0.10206547274E+01  0.10203893052E+01 0.  0.
     999903    2    3    3    0    0  0.59371613535E-01 -0.88377926439E-02  0.11224696318E+00  0.12879230072E+00  0.19620930327E-01 0.  0.
         14    1    1    2    0    0  0.21739008749E-01 -0.41330923035E-02  0.72160488419E-02  0.23275272592E-01  0.00000000000E+00 0. -1.
     999901    1    3    3    0    0 -0.81110622284E-01  0.12970884947E-01 -0.11946301203E+00  0.89186242669E+00  0.88000000000E+00 0.  1.
        -11    1    4    4    0    0  0.25976749275E-01  0.52396460863E-02  0.54690892031E-01  0.60774996389E-01  0.51100000000E-03 0.  1.
         11    1    4    4    0    0  0.33394864260E-01 -0.14077438730E-01  0.57556071153E-01  0.68017304326E-01  0.51100000000E-03 0. -1.
</event>
<event>
 8    1  0.1126407E+005  0.1043930E+01  0.7957747E-01            NaN
         13   -1    0    0    0    0  0.00000000000E+00  0.00000000000E+00  0.74505805969E-08  0.10566000000E+00  0.10566000000E+00 0. -1.
     999900   -1    0    0    0    0 -0.00000000000E+00 -0.00000000000E+00 -0.74505805969E-08  0.93827000000E+00  0.93827000000E+00 0.  1.
     999902    2    1    2    0    0  0.10280222325E-02  0.23457474841E-01 -0.54619194910E-02  0.10198231022E+01  0.10195381392E+01 0.  0.
     999903    2    3    3    0    0  0.34614764134E-01  0.10118438596E+00 -0.76330616259E-01  0.13292293078E+00  0.20141516557E-01 0.  0.
         14    1    1    2    0    0 -0.10280222325E-02 -0.23457474841E-01  0.54619194910E-02  0.24106897771E-01  0.00000000000E+00 0. -1.
     999901    1    3    3    0    0 -0.33586741902E-01 -0.77726911120E-01  0.70868696768E-01  0.88690017145E+00  0.88000000000E+00 0. -1.
        -11    1    4    4    0    0  0.67952807200E-02  0.50728130758E-01 -0.34694581239E-01  0.61834409341E-01  0.51100000000E-03 0. -1.
         11    1    4    4    0    0  0.27819483414E-01  0.50456255203E-01 -0.41636035020E-01  0.71088521434E-01  0.51100000000E-03 0.  1.
</event>
<event>
 8    1  0.1126407E+005  0.1043930E+01  0.7957747E-01            NaN
         13   -1    0    0    0    0  0.00000000000E+00  0.00000000000E+00  0.74505805969E-08  0.10566000000E+00  0.10566000000E+00 0.  1.
     999900   -1    0    0    0    0 -0.00000000000E+00 -0.00000000000E+00 -0.74505805969E-08  0.93827000000E+00  0.93827000000E+00 0.  1.
     999902    2    1    2    0    0  0.60613869029E-02  0.20782960253E-01  0.10920281128E-01  0.10196828478E+01  0.10193945192E+01 0.  0.
     999903    2    3    3    0    0  0.13942866494E-01  0.10537893001E+00  0.77611065414E-01  0.13307907132E+00  0.19683478674E-01 0.  0.
         14    1    1    2    0    0 -0.60613869029E-02 -0.20782960253E-01 -0.10920281128E-01  0.24247152163E-01  0.00000000000E+00 0. -1.
     999901    1    3    3    0    0 -0.78814795912E-02 -0.84595969760E-01 -0.66690784286E-01  0.88660377651E+00  0.88000000000E+00 0.  1.
        -11    1    4    4    0    0  0.12598331625E-01  0.10326818241E+00  0.70896882223E-01  0.12589545062E+00  0.51100000000E-03 0. -1.
         11    1    4    4    0    0  0.13445348686E-02  0.21107476084E-02  0.67141831910E-02  0.71836207028E-02  0.51100000000E-03 0.  1.
</event>
<event>
 8    1  0.1126407E+005  0.1043930E+01  0.7957747E-01            NaN
         13   -1    0    0    0    0  0.00000000000E+00  0.00000000000E+00  0.74505805969E-08  0.10566000000E+00  0.10566000000E+00 0.  1.
     999900   -1    0    0    0    0 -0.00000000000E+00 -0.00000000000E+00 -0.74505805969E-08  0.93827000000E+00  0.93827000000E+00 0.  1.
     999902    2    1    2    0    0 -0.20695030954E-01 -0.87459114701E-03 -0.11386866954E-01  0.10202929538E+01  0.10200191182E+01 0.  0.
     999903    2    3    3    0    0 -0.48085825515E-01  0.91883226876E-01  0.76993966721E-01  0.13059331894E+00  0.19281339292E-01 0.  0.
         14    1    1    2    0    0  0.20695030954E-01  0.87459114701E-03  0.11386866954E-01  0.23637046239E-01  0.00000000000E+00 0. -1.
     999901    1    3    3    0    0  0.27390794561E-01 -0.92757818023E-01 -0.88380833676E-01  0.88969963482E+00  0.88000000000E+00 0. -1.
        -11    1    4    4    0    0 -0.29854947499E-01  0.74495341670E-01  0.59851783919E-01  0.10011678670E+00  0.51100000000E-03 0.  1.
         11    1    4    4    0    0 -0.18230878016E-01  0.17387885206E-01  0.17142182802E-01  0.30476532241E-01  0.51100000000E-03 0. -1.
</event>
<event>
 8    1  0.1126407E+005  0.1043930E+01  0.7957747E-01            NaN
         13   -1    0    0    0    0  0.00000000000E+00  0.00000000000E+00  0.74505805969E-08  0.10566000000E+00  0.10566000000E+00 0. -1.
     999900   -1    0    0    0    0 -0.00000000000E+00 -0.00000000000E+00 -0.74505805969E-08  0.93827000000E+00  0.93827000000E+00 0.  1.
     999902    2    1    2    0    0  0.12727559428E-01  0.63360936061E-02  0.15421925419E-01  0.10229544753E+01  0.10227394028E+01 0.  0.
     999903    2    3    3    0    0  0.52433868401E-01  0.12223537134E+00  0.23768616985E-02  0.13437166702E+00  0.18955180409E-01 0.  0.
         14    1    1    2    0    0 -0.12727559428E-01 -0.63360936061E-02 -0.15421925419E-01  0.20975524661E-01  0.00000000000E+00 0.  1.
     999901    1    3    3    0    0 -0.39706308973E-01 -0.11589927773E+00  0.13045063720E-01  0.88858280832E+00  0.88000000000E+00 0.  1.
        -11    1    4    4    0    0  0.16579242179E-01  0.26541596106E-01 -0.58843661005E-02  0.31846734220E-01  0.51100000000E-03 0.  1.
         11    1    4    4    0    0  0.35854626222E-01  0.95693775234E-01  0.82612277990E-02  0.10252493280E+00  0.51100000000E-03 0. -1.
</event>
<event>
 8    1  0.1126407E+005  0.1043930E+01  0.7957747E-01            NaN
         13   -1    0    0    0    0  0.00000000000E+00  0.00000000000E+00  0.74505805969E-08  0.10566000000E+00  0.10566000000E+00 0. -1.
     999900   -1    0    0    0    0 -0.00000000000E+00 -0.00000000000E+00 -0.74505805969E-08  0.93827000000E+00  0.93827000000E+00 0. -1.
     999902    2    1    2    0    0 -0.17075516015E-01  0.64603769648E-02 -0.15259538224E-01  0.10201358153E+01  0.10198582835E+01 0.  0.
     999903    2    3    3    0    0 -0.95643702683E-01  0.57536488499E-01  0.66493635604E-01  0.13139214555E+00  0.19604258851E-01 0.  0.
         14    1    1    2    0    0  0.17075516015E-01 -0.64603769648E-02  0.15259538224E-01  0.23794184678E-01  0.00000000000E+00 0. -1.
     999901    1    3    3    0    0  0.78568186668E-01 -0.51076111534E-01 -0.81753173828E-01  0.88874366977E+00  0.88000000000E+00 0. -1.
        -11    1    4    4    0    0 -0.57414338924E-01  0.33966872110E-01  0.28423385161E-01  0.72514168684E-01  0.51100000000E-03 0.  1.
         11    1    4    4    0    0 -0.38229363760E-01  0.23569616388E-01  0.38070250443E-01  0.58877976867E-01  0.51100000000E-03 0. -1.
</event>
<event>
 8    1  0.1126407E+005  0.1043930E+01  0.7957747E-01            NaN
         13   -1    0    0    0    0  0.00000000000E+00  0.00000000000E+00  0.74505805969E-08  0.10566000000E+00  0.10566000000E+00 0. -1.
     999900   -1    0    0    0    0 -0.00000000000E+00 -0.00000000000E+00 -0.74505805969E-08  0.93827000000E+00  0.93827000000E+00 0.  1.
     999902    2    1    2    0    0  0.19317999956E-01  0.68736356823E-02  0.10852296450E-01  0.10207307688E+01  0.10204670980E+01 0.  0.
     999903    2    3    3    0    0  0.32979362315E-01  0.31441568602E-01 -0.12063966131E+00  0.13051711406E+00  0.20114139463E-01 0.  0.
         14    1    1    2    0    0 -0.19317999956E-01 -0.68736356823E-02 -0.10852296450E-01  0.23199231195E-01  0.00000000000E+00 0. -1.
     999901    1    3    3    0    0 -0.13661362359E-01 -0.24567932919E-01  0.13149195776E+00  0.89021365475E+00  0.88000000000E+00 0. -1.
        -11    1    4    4    0    0  0.42229477019E-02  0.13634323067E-01 -0.21918814194E-01  0.26161490582E-01  0.51100000000E-03 0. -1.
         11    1    4    4    0    0  0.28756414613E-01  0.17807245535E-01 -0.98720847112E-01  0.10435562347E+00  0.51100000000E-03 0.  1.
</event>
<event>
 8    1  0.1126407E+005  0.1043930E+01  0.7957747E-01            NaN
         13   -1    0    0    0    0  0.00000000000E+00  0.00000000000E+00  0.74505805969E-08  0.10566000000E+00  0.10566000000E+00 0. -1.
     999900   -1    0    0    0    0 -0.00000000000E+00 -0.00000000000E+00 -0.74505805969E-08  0.93827000000E+00  0.93827000000E+00 0. -1.
     999902    2    1    2    0    0  0.94927189738E-03  0.23094716330E-01 -0.51826665417E-02  0.10202418791E+01  0.10199668449E+01 0.  0.
     999903    2    3    3    0    0  0.39128257726E-01 -0.13451972092E-01 -0.12198993939E+00  0.13095158095E+00  0.23554089536E-01 0.  0.
         14    1    1    2    0    0 -0.94927189738E-03 -0.23094716330E-01  0.51826665417E-02  0.23688120904E-01  0.00000000000E+00 0. -1.
     999901    1    3    3    0    0 -0.38178985829E-01  0.36546688422E-01  0.11680727285E+00  0.88929029815E+00  0.88000000000E+00 0.  1.
        -11    1    4    4    0    0  0.10253045541E-01  0.44176874850E-02 -0.51610158164E-01  0.52806348599E-01  0.51100000000E-03 0.  1.
         11    1    4    4    0    0  0.28875212186E-01 -0.17869659577E-01 -0.70379781226E-01  0.78145232347E-01  0.51100000000E-03 0. -1.
</event>
<event>
 8    1  0.1126407E+005  0.1043930E+01  0.7957747E-01            NaN
         13   -1    0    0    0    0  0.00000000000E+00  0.00000000000E+00  0.74505805969E-08  0.10566000000E+00  0.10566000000E+00 0. -1.
     999900   -1    0    0    0    0 -0.00000000000E+00 -0.00000000000E+00 -0.74505805969E-08  0.93827000000E+00  0.93827000000E+00 0. -1.
     999902    2    1    2    0    0 -0.23416058587E-01 -0.24361737982E-02 -0.81571030748E-02  0.10190144411E+01  0.10187097949E+01 0.  0.
     999903    2    3    3    0    0 -0.84952278634E-02 -0.79243850569E-01  0.99407729767E-01  0.12901879865E+00  0.20302633262E-01 0.  0.
         14    1    1    2    0    0  0.23416058587E-01  0.24361737982E-02  0.81571030748E-02  0.24915558856E-01  0.00000000000E+00 0. -1.
     999901    1    3    3    0    0 -0.14920830724E-01  0.76807676771E-01 -0.10756483284E+00  0.88999564250E+00  0.88000000000E+00 0.  1.
        -11    1    4    4    0    0  0.35317010906E-02 -0.10843297761E-01  0.23542827655E-01  0.26164400890E-01  0.51100000000E-03 0.  1.
         11    1    4    4    0    0 -0.12026928954E-01 -0.68400552808E-01  0.75864902112E-01  0.10285439776E+00  0.51100000000E-03 0. -1.
</event>
<event>
 8    1  0.1126407E+005  0.1043930E+01  0.7957747E-01            NaN
         13   -1    0    0    0    0  0.00000000000E+00  0.00000000000E+00  0.74505805969E-08  0.10566000000E+00  0.10566000000E+00 0. -1.
     999900   -1    0    0    0    0 -0.00000000000E+00 -0.00000000000E+00 -0.74505805969E-08  0.93827000000E+00  0.93827000000E+00 0.  1.
     999902    2    1    2    0    0  0.18831161992E-01 -0.89866031432E-02 -0.11633078245E-01  0.10200406675E+01  0.10197608853E+01 0.  0.
     999903    2    3    3    0    0 -0.10946130754E+00  0.51337630679E-01  0.35175708927E-01  0.12746628209E+00  0.19824035912E-01 0.  0.
         14    1    1    2    0    0 -0.18831161992E-01  0.89866031432E-02  0.11633078245E-01  0.23889332504E-01  0.00000000000E+00 0.  1.
     999901    1    3    3    0    0  0.12829246953E+00 -0.60324233822E-01 -0.46808787173E-01  0.89257438540E+00  0.88000000000E+00 0.  1.
        -11    1    4    4    0    0 -0.34994518139E-01  0.81312337872E-02  0.15616682321E-01  0.39177482696E-01  0.51100000000E-03 0. -1.
         11    1    4    4    0    0 -0.74466789400E-01  0.43206396892E-01  0.19559026606E-01  0.88288799396E-01  0.51100000000E-03 0.  1.
</event>
<event>
 8    1  0.1126407E+005  0.1043930E+01  0.7957747E-01            NaN
         13   -1    0    0    0    0  0.00000000000E+00  0.00000000000E+00  0.74505805969E-08  0.10566000000E+00  0.10566000000E+00 0. -1.
     999900   -1    0    0    0    0 -0.00000000000E+00 -0.00000000000E+00 -0.74505805969E-08  0.93827000000E+00  0.93827000000E+00 0. -1.
     999902    2    1    2    0    0 -0.49692987687E-02 -0.15659101280E-01 -0.17652770512E-01  0.10198152392E+01  0.10195300880E+01 0.  0.
     999903    2    3    3    0    0 -0.37567176363E-02  0.10721971862E+00  0.65439426559E-01  0.12739998384E+00  0.20934572953E-01 0.  0.
         14    1    1    2    0    0  0.49692987687E-02  0.15659101280E-01  0.17652770512E-01  0.24114760831E-01  0.00000000000E+00 0. -1.
     999901    1    3    3    0    0 -0.12125811324E-02 -0.12287881990E+00 -0.83092197071E-01  0.89241525533E+00  0.88000000000E+00 0.  1.
        -11    1    4    4    0    0 -0.17223196015E-03  0.38304140388E-01  0.35310148673E-01  0.52098988043E-01  0.51100000000E-03 0.  1.
         11    1    4    4    0    0 -0.35844856761E-02  0.68915578234E-01  0.30129277886E-01  0.75300995796E-01  0.51100000000E-03 0. -1.
</event>
<event>
 8    1  0.1126407E+005  0.1043930E+01  0.7957747E-01            NaN
         13   -1    0    0    0    0  0.00000000000E+00  0.00000000000E+00  0.74505805969E-08  0.10566000000E+00  0.10566000000E+00 0.  1.
     999900   -1    0    0    0    0 -0.00000000000E+00 -0.00000000000E+00 -0.74505805969E-08  0.93827000000E+00  0.93827000000E+00 0.  1.
     999902    2    1    2    0    0 -0.16859670793E-01  0.16167682612E-01  0.11048668214E-02  0.10205448938E+01  0.10202769316E+01 0.  0.
     999903    2    3    3    0    0  0.93324453949E-01 -0.26863416045E-01 -0.82055321092E-01  0.12874456098E+00  0.20272874404E-01 0.  0.
         14    1    1    2    0    0  0.16859670793E-01 -0.16167682612E-01 -0.11048668214E-02  0.23385106179E-01  0.00000000000E+00 0.  1.
     999901    1    3    3    0    0 -0.11018412474E+00  0.43031098656E-01  0.83160187914E-01  0.89180033284E+00  0.88000000000E+00 0.  1.
        -11    1    4    4    0    0  0.16865061088E-02  0.49614923366E-03  0.99259254457E-03  0.20825051925E-02  0.51100000000E-03 0. -1.
         11    1    4    4    0    0  0.91637947841E-01 -0.27359565278E-01 -0.83047913637E-01  0.12666205579E+00  0.51100000000E-03 0.  1.
</event>
<event>
 8    1  0.1126407E+005  0.1043930E+01  0.7957747E-01            NaN
         13   -1    0    0    0    0  0.00000000000E+00  0.00000000000E+00  0.74505805969E-08  0.10566000000E+00  0.10566000000E+00 0. -1.
     999900   -1    0    0    0    0 -0.00000000000E+00 -0.00000000000E+00 -0.74505805969E-08  0.93827000000E+00  0.93827000000E+00 0. -1.
     999902    2    1    2    0    0 -0.19828023302E-01 -0.12604488729E-01 -0.42357961630E-02  0.10200560474E+01  0.10197766296E+01 0.  0.
     999903    2    3    3    0    0  0.12328951212E+00 -0.26835943649E-01  0.13961407317E-01  0.12819490266E+00  0.17847703077E-01 0.  0.
         14    1    1    2    0    0  0.19828023302E-01  0.12604488729E-01  0.42357961630E-02  0.23873952612E-01  0.00000000000E+00 0. -1.
     999901    1    3    3    0    0 -0.14311753542E+00  0.14231454920E-01 -0.18197203480E-01  0.89186114472E+00  0.88000000000E+00 0.  1.
        -11    1    4    4    0    0  0.15944357170E-01 -0.58616678173E-02 -0.37226153847E-02  0.17398294786E-01  0.51100000000E-03 0.  1.
         11    1    4    4    0    0  0.10734515495E+00 -0.20974275832E-01  0.17684022702E-01  0.11079660788E+00  0.51100000000E-03 0. -1.
</event>
<event>
 8    1  0.1126407E+005  0.1043930E+01  0.7957747E-01            NaN
         13   -1    0    0    0    0  0.00000000000E+00  0.00000000000E+00  0.74505805969E-08  0.10566000000E+00  0.10566000000E+00 0. -1.
     999900   -1    0    0    0    0 -0.00000000000E+00 -0.00000000000E+00 -0.74505805969E-08  0.93827000000E+00  0.93827000000E+00 0.  1.
     999902    2    1    2    0    0 -0.17070220735E-01  0.25599840491E-02  0.16743511648E-01  0.10198823154E+01  0.10195987672E+01 0.  0.
     999903    2    3    3    0    0 -0.92598120907E-01 -0.90903288593E-01 -0.62588083109E-02  0.13141793579E+00  0.19841403515E-01 0.  0.
         14    1    1    2    0    0  0.17070220735E-01 -0.25599840491E-02 -0.16743511648E-01  0.24047684641E-01  0.00000000000E+00 0.  1.
     999901    1    3    3    0    0  0.75527900172E-01  0.93463272643E-01  0.23002319959E-01  0.88846437957E+00  0.88000000000E+00 0.  1.
        -11    1    4    4    0    0 -0.30741235953E-01 -0.43753764408E-01 -0.34799255178E-02  0.53589051964E-01  0.51100000000E-03 0. -1.
         11    1    4    4    0    0 -0.61856884955E-01 -0.47149524185E-01 -0.27788827932E-02  0.77828883827E-01  0.51100000000E-03 0.  1.
</event>
<event>
 8    1  0.1126407E+005  0.1043930E+01  0.7957747E-01            NaN
         13   -1    0    0    0    0  0.00000000000E+00  0.00000000000E+00  0.74505805969E-08  0.10566000000E+00  0.10566000000E+00 0.  1.
     999900   -1    0    0    0    0 -0.00000000000E+00 -0.00000000000E+00 -0.74505805969E-08  0.93827000000E+00  0.93827000000E+00 0.  1.
     999902    2    1    2    0    0  0.15736815757E-01 -0.43754713211E-02  0.19475184206E-01  0.10185119962E+01  0.10181947807E+01 0.  0.
     999903    2    3    3    0    0  0.12673747530E+00  0.22097912820E-01  0.15176274770E-01  0.13113357231E+00  0.20371280602E-01 0.  0.
         14    1    1    2    0    0 -0.15736815757E-01  0.43754713211E-02 -0.19475184206E-01  0.25418003842E-01  0.00000000000E+00 0. -1.
     999901    1    3    3    0    0 -0.11100065955E+00 -0.26473384141E-01  0.42989094359E-02  0.88737842385E+00  0.88000000000E+00 0.  1.
        -11    1    4    4    0    0  0.45287921040E-01 -0.39957318531E-03  0.68611655920E-04  0.45292618376E-01  0.51100000000E-03 0.  1.
         11    1    4    4    0    0  0.81449554265E-01  0.22497486006E-01  0.15107663114E-01  0.85840953934E-01  0.51100000000E-03 0. -1.
</event>
<event>
 8    1  0.1126407E+005  0.1043930E+01  0.7957747E-01            NaN
         13   -1    0    0    0    0  0.00000000000E+00  0.00000000000E+00  0.74505805969E-08  0.10566000000E+00  0.10566000000E+00 0. -1.
     999900   -1    0    0    0    0 -0.00000000000E+00 -0.00000000000E+00 -0.74505805969E-08  0.93827000000E+00  0.93827000000E+00 0. -1.
     999902    2    1    2    0    0  0.56013269677E-02 -0.76446146871E-02  0.21057581426E-01  0.10208380808E+01  0.10205768714E+01 0.  0.
     999903    2    3    3    0    0  0.12951845548E+00  0.37807114145E-02 -0.11127130282E-01  0.13150020996E+00  0.19472239305E-01 0.  0.
         14    1    1    2    0    0 -0.56013269677E-02  0.76446146871E-02 -0.21057581426E-01  0.23091919215E-01  0.00000000000E+00 0.  1.
     999901    1    3    3    0    0 -0.12391712851E+00 -0.11425326102E-01  0.32184711709E-01  0.88933787082E+00  0.88000000000E+00 0. -1.
        -11    1    4    4    0    0  0.20500025405E-01 -0.18622735315E-02 -0.85746025535E-02  0.22304798458E-01  0.51100000000E-03 0. -1.
         11    1    4    4    0    0  0.10901843007E+00  0.56429849460E-02 -0.25525277289E-02  0.10919541150E+00  0.51100000000E-03 0.  1.
</event>
<event>
 8    1  0.1126407E+005  0.1043930E+01  0.7957747E-01            NaN
         13   -1    0    0    0    0  0.00000000000E+00  0.00000000000E+00  0.74505805969E-08  0.10566000000E+00  0.10566000000E+00 0.  1.
     999900   -1    0    0    0    0 -0.00000000000E+00 -0.00000000000E+00 -0.74505805969E-08  0.93827000000E+00  0.93827000000E+00 0.  1.
     999902    2    1    2    0    0  0.22539914355E-01 -0.34964359503E-03 -0.70667780241E-02  0.10203056621E+01  0.10200321244E+01 0.  0.
     999903    2    3    3    0    0 -0.95418431060E-01  0.82510384985E-01 -0.15061274204E-01  0.12854119344E+00  0.19579474303E-01 0.  0.
         14    1    1    2    0    0 -0.22539914355E-01  0.34964359503E-03  0.70667780241E-02  0.23624337904E-01  0.00000000000E+00 0.  1.
     999901    1    3    3    0    0  0.11795834541E+00 -0.82860028580E-01  0.79944961798E-02  0.89176446866E+00  0.88000000000E+00 0. -1.
        -11    1    4    4    0    0 -0.14264891343E-01  0.79881431669E-02 -0.77999941190E-02  0.18121771038E-01  0.51100000000E-03 0.  1.
         11    1    4    4    0    0 -0.81153539717E-01  0.74522241818E-01 -0.72612800850E-02  0.11041942240E+00  0.51100000000E-03 0. -1.
</event>
<event>
 8    1  0.1126407E+005  0.1043930E+01  0.7957747E-01            NaN
         13   -1    0    0    0    0  0.00000000000E+00  0.00000000000E+00  0.74505805969E-08  0.10566000000E+00  0.10566000000E+00 0.  1.
     999900   -1    0    0    0    0 -0.00000000000E+00 -0.00000000000E+00 -0.74505805969E-08  0.93827000000E+00  0.93827000000E+00 0.  1.
     999902    2    1    2    0    0  0.18202028263E-01  0.45054838253E-02 -0.15875815912E-01  0.10193606136E+01  0.10190644758E+01 0.  0.
     999903    2    3    3    0    0 -0.92119563163E-01 -0.83620444535E-01 -0.23107106416E-01  0.12807540428E+00  0.19773167499E-01 0.  0.
         14    1    1    2    0    0 -0.18202028263E-01 -0.45054838253E-02  0.15875815912E-01  0.24569386404E-01  0.00000000000E+00 0.  1.
     999901    1    3    3    0    0  0.11032159143E+00  0.88125928360E-01  0.72312905041E-02  0.89128520932E+00  0.88000000000E+00 0. -1.
        -11    1    4    4    0    0 -0.62592983151E-01 -0.68148499124E-01 -0.19253337116E-01  0.94514822032E-01  0.51100000000E-03 0. -1.
         11    1    4    4    0    0 -0.29526580012E-01 -0.15471945411E-01 -0.38537693003E-02  0.33560582248E-01  0.51100000000E-03 0.  1.
</event>
<event>
 8    1  0.1126407E+005  0.1043930E+01  0.7957747E-01            NaN
         13   -1    0    0    0    0  0.00000000000E+00  0.00000000000E+00  0.74505805969E-08  0.10566000000E+00  0.10566000000E+00 0. -1.
     999900   -1    0    0    0    0 -0.00000000000E+00 -0.00000000000E+00 -0.74505805969E-08  0.93827000000E+00  0.93827000000E+00 0. -1.
     999902    2    1    2    0    0  0.30348091421E-02  0.24324171984E-01  0.47947309514E-02  0.10189527132E+01  0.10186465368E+01 0.  0.
     999903    2    3    3    0    0 -0.34773128623E-01  0.27500462590E-01 -0.12020429966E+00  0.12930992726E+00  0.17508218477E-01 0.  0.
         14    1    1    2    0    0 -0.30348091421E-02 -0.24324171984E-01 -0.47947309514E-02  0.24977286765E-01  0.00000000000E+00 0.  1.
     999901    1    3    3    0    0  0.37807937765E-01 -0.31762906059E-02  0.12499903061E+00  0.88964278597E+00  0.88000000000E+00 0.  1.
        -11    1    4    4    0    0  0.26759643311E-03  0.59126499331E-02 -0.95338341193E-02  0.11233260929E-01  0.51100000000E-03 0.  1.
         11    1    4    4    0    0 -0.35040725056E-01  0.21587812657E-01 -0.11067046554E+00  0.11807666633E+00  0.51100000000E-03 0. -1.
</event>
<event>
 8    1  0.1126407E+005  0.1043930E+01  0.7957747E-01            NaN
         13   -1    0    0    0    0  0.00000000000E+00  0.00000000000E+00  0.74505805969E-08  0.10566000000E+00  0.10566000000E+00 0.  1.
     999900   -1    0    0    0    0 -0.00000000000E+00 -0.00000000000E+00 -0.74505805969E-08  0.93827000000E+00  0.93827000000E+00 0.  1.
     999902    2    1    2    0    0  0.12845196859E-01 -0.93334218914E-02  0.17801998691E-01  0.10200757969E+01  0.10197968467E+01 0.  0.
     999903    2    3    3    0    0  0.71191494210E-02  0.11330329010E+00 -0.57304418843E-01  0.12838441271E+00  0.17619397591E-01 0.  0.
         14    1    1    2    0    0 -0.12845196859E-01  0.93334218914E-02 -0.17801998691E-01  0.23854203067E-01  0.00000000000E+00 0. -1.
     999901    1    3    3    0    0  0.57260474376E-02 -0.12263671199E+00  0.75106417535E-01  0.89169138423E+00  0.88000000000E+00 0.  1.
        -11    1    4    4    0    0  0.26195655222E-02  0.35349821972E-02  0.97639954449E-04  0.44304488735E-02  0.51100000000E-03 0.  1.
         11    1    4    4    0    0  0.44995838988E-02  0.10976830790E+00 -0.57402058798E-01  0.12395396383E+00  0.51100000000E-03 0. -1.
</event>
<event>
 8    1  0.1126407E+005  0.1043930E+01  0.7957747E-01            NaN
         13   -1    0    0    0    0  0.00000000000E+00  0.00000000000E+00  0.74505805969E-08  0.10566000000E+00  0.10566000000E+00 0. -1.
     999900   -1    0    0    0    0 -0.00000000000E+00 -0.00000000000E+00 -0.74505805969E-08  0.93827000000E+00  0.93827000000E+00 0.  1.
     999902    2    1    2    0    0  0.79544540110E-02  0.16539526852E-01 -0.15217139505E-01  0.10200890558E+01  0.10198104192E+01 0.  0.
     999903    2    3    3    0    0  0.23916509158E-01  0.11139401014E+00 -0.66363461252E-01  0.13337145335E+00  0.20080106475E-01 0.  0.
         14    1    1    2    0    0 -0.79544540110E-02 -0.16539526852E-01  0.15217139505E-01  0.23840944231E-01  0.00000000000E+00 0. -1.
     999901    1    3    3    0    0 -0.15962055148E-01 -0.94854483284E-01  0.51146321747E-01  0.88671760241E+00  0.88000000000E+00 0. -1.
        -11    1    4    4    0    0  0.15436152435E-01  0.40649502087E-01 -0.16999132203E-01  0.46689275413E-01  0.51100000000E-03 0. -1.
         11    1    4    4    0    0  0.84803567237E-02  0.70744508049E-01 -0.49364329049E-01  0.86682177942E-01  0.51100000000E-03 0.  1.
</event>
<event>
 8    1  0.1126407E+005  0.1043930E+01  0.7957747E-01            NaN
         13   -1    0    0    0    0  0.00000000000E+00  0.00000000000E+00  0.74505805969E-08  0.10566000000E+00  0.10566000000E+00 0. -1.
     999900   -1    0    0    0    0 -0.00000000000E+00 -0.00000000000E+00 -0.74505805969E-08  0.93827000000E+00  0.93827000000E+00 0. -1.
     999902    2    1    2    0    0  0.14773990908E-01  0.88004679035E-02 -0.15463379943E-01  0.10208034965E+01  0.10205414952E+01 0.  0.
     999903    2    3    3    0    0 -0.15490003556E-01  0.12822420489E+00  0.16406368281E-01  0.13165018065E+00  0.19524707855E-01 0.  0.
         14    1    1    2    0    0 -0.14773990908E-01 -0.88004679035E-02  0.15463379943E-01  0.23126503452E-01  0.00000000000E+00 0. -1.
     999901    1    3    3    0    0  0.30263994464E-01 -0.11942373698E+00 -0.31869748223E-01  0.88915331590E+00  0.88000000000E+00 0. -1.
        -11    1    4    4    0    0 -0.10137503115E-01  0.27568966405E-01  0.82887491935E-02  0.30525093976E-01  0.51100000000E-03 0.  1.
         11    1    4    4    0    0 -0.53525004409E-02  0.10065523848E+00  0.81176190874E-02  0.10112508668E+00  0.51100000000E-03 0. -1.
</event>
<event>
 8    1  0.1126407E+005  0.1043930E+01  0.7957747E-01            NaN
         13   -1    0    0    0    0  0.00000000000E+00  0.00000000000E+00  0.74505805969E-08  0.10566000000E+00  0.10566000000E+00 0.  1.
     999900   -1    0    0    0    0 -0.00000000000E+00 -0.00000000000E+00 -0.74505805969E-08  0.93827000000E+00  0.93827000000E+00 0. -1.
     999902    2    1    2    0    0 -0.50262350604E-02  0.19205059500E-01  0.12517697082E-01  0.10204610825E+01  0.10201911736E+01 0.  0.
     999903    2    3    3    0    0  0.58623147214E-01  0.55386839871E-01 -0.10035159490E+00  0.13023648039E+00  0.19665269030E-01 0.  0.
         14    1    1    2    0    0  0.50262350604E-02 -0.19205059500E-01 -0.12517697082E-01  0.23468917519E-01  0.00000000000E+00 0. -1.
     999901    1    3    3    0    0 -0.63649382274E-01 -0.36181780371E-01  0.11286929198E+00  0.89022460209E+00  0.88000000000E+00 0.  1.
        -11    1    4    4    0    0  0.29706041283E-01  0.20207645829E-01 -0.56874612536E-01  0.67273921476E-01  0.51100000000E-03 0.  1.
         11    1    4    4    0    0  0.28917105931E-01  0.35179194042E-01 -0.43476982362E-01  0.62962558915E-01  0.51100000000E-03 0. -1.
</event>
<event>
 8    1  0.1126407E+005  0.1043930E+01  0.7957747E-01            NaN
         13   -1    0    0    0    0  0.00000000000E+00  0.00000000000E+00  0.74505805969E-08  0.10566000000E+00  0.10566000000E+00 0.  1.
     999900   -1    0    0    0    0 -0.00000000000E+00 -0.00000000000E+00 -0.74505805969E-08  0.93827000000E+00  0.93827000000E+00 0.  1.
     999902    2    1    2    0    0 -0.93662023968E-02 -0.18468378409E-01  0.11408321219E-01  0.10202877382E+01  0.10200137804E+01 0.  0.
     999903    2    3    3    0    0 -0.30179232244E-01  0.65953169385E-01  0.10704722120E+00  0.13084579008E+00  0.20022652274E-01 0.  0.
         14    1    1    2    0    0  0.93662023968E-02  0.18468378409E-01 -0.11408321219E-01  0.23642261767E-01  0.00000000000E+00 0. -1.
     999901    1    3    3    0    0  0.20813029847E-01 -0.84421547794E-01 -0.95638899983E-01  0.88944194815E+00  0.88000000000E+00 0.  1.
        -11    1    4    4    0    0 -0.86172580633E-03  0.13731446888E-01  0.10853454768E-01  0.17531508960E-01  0.51100000000E-03 0. -1.
         11    1    4    4    0    0 -0.29317506438E-01  0.52221722497E-01  0.96193766434E-01  0.11331428112E+00  0.51100000000E-03 0.  1.
</event>
<event>
 8    1  0.1126407E+005  0.1043930E+01  0.7957747E-01            NaN
         13   -1    0    0    0    0  0.00000000000E+00  0.00000000000E+00  0.74505805969E-08  0.10566000000E+00  0.10566000000E+00 0.  1.
     999900   -1    0    0    0    0 -0.00000000000E+00 -0.00000000000E+00 -0.74505805969E-08  0.93827000000E+00  0.93827000000E+00 0.  1.
     999902    2    1    2    0    0 -0.66915646813E-02  0.18784187237E-01 -0.70196375783E-02  0.10227900369E+01  0.10225715435E+01 0.  0.
     999903    2    3    3    0    0 -0.57932428490E-01 -0.84096669156E-01 -0.81725476058E-01  0.13217729332E+00  0.19062198125E-01 0.  0.
         14    1    1    2    0    0  0.66915646813E-02 -0.18784187237E-01  0.70196375783E-02  0.21139963098E-01  0.00000000000E+00 0.  1.
     999901    1    3    3    0    0  0.51240863809E-01  0.10288085639E+00  0.74705838479E-01  0.89061274359E+00  0.88000000000E+00 0. -1.
        -11    1    4    4    0    0 -0.11611824780E-01 -0.29430159221E-01 -0.18736628636E-01  0.36773511120E-01  0.51100000000E-03 0. -1.
         11    1    4    4    0    0 -0.46320603710E-01 -0.54666509936E-01 -0.62988847422E-01  0.95403782195E-01  0.51100000000E-03 0.  1.
</event>
<event>
 8    1  0.1126407E+005  0.1043930E+01  0.7957747E-01            NaN
         13   -1    0    0    0    0  0.00000000000E+00  0.00000000000E+00  0.74505805969E-08  0.10566000000E+00  0.10566000000E+00 0.  1.
     999900   -1    0    0    0    0 -0.00000000000E+00 -0.00000000000E+00 -0.74505805969E-08  0.93827000000E+00  0.93827000000E+00 0.  1.
     999902    2    1    2    0    0 -0.98199614987E-02 -0.11862699379E-01 -0.17859415749E-01  0.10203479303E+01  0.10200753819E+01 0.  0.
     999903    2    3    3    0    0  0.70969906247E-01 -0.64665844651E-01 -0.88793800165E-01  0.13223371367E+00  0.19570820816E-01 0.  0.
         14    1    1    2    0    0  0.98199614987E-02  0.11862699379E-01  0.17859415749E-01  0.23582069699E-01  0.00000000000E+00 0.  1.
     999901    1    3    3    0    0 -0.80789867746E-01  0.52803145271E-01  0.70934384415E-01  0.88811421663E+00  0.88000000000E+00 0. -1.
        -11    1    4    4    0    0  0.25164198176E-01 -0.29385591944E-01 -0.47072639806E-01  0.60933114339E-01  0.51100000000E-03 0.  1.
         11    1    4    4    0    0  0.45805708072E-01 -0.35280252707E-01 -0.41721160359E-01  0.71300599336E-01  0.51100000000E-03 0. -1.
</event>
<event>
 8    1  0.1126407E+005  0.1043930E+01  0.7957747E-01            NaN
         13   -1    0    0    0    0  0.00000000000E+00  0.00000000000E+00  0.74505805969E-08  0.10566000000E+00  0.10566000000E+00 0. -1.
     999900   -1    0    0    0    0 -0.00000000000E+00 -0.00000000000E+00 -0.74505805969E-08  0.93827000000E+00  0.93827000000E+00 0. -1.
     999902    2    1    2    0    0 -0.11573234341E-02  0.13535791127E-01  0.24184995328E-01  0.10161906590E+01  0.10158119828E+01 0.  0.
     999903    2    3    3    0    0 -0.49534982315E-01 -0.12210354348E-01  0.11774765034E+00  0.12953557823E+00  0.17667757075E-01 0.  0.
         14    1    1    2    0    0  0.11573234341E-02 -0.13535791127E-01 -0.24184995328E-01  0.27739340980E-01  0.00000000000E+00 0.  1.
     999901    1    3    3    0    0  0.48377658881E-01  0.25746145476E-01 -0.93562655010E-01  0.88665508079E+00  0.88000000000E+00 0. -1.
        -11    1    4    4    0    0 -0.12641011975E-01  0.39734852803E-02  0.36773376153E-01  0.39091253290E-01  0.51100000000E-03 0.  1.
         11    1    4    4    0    0 -0.36893970339E-01 -0.16183839629E-01  0.80974274185E-01  0.90444324937E-01  0.51100000000E-03 0. -1.
</event>
<event>
 8    1  0.1126407E+005  0.1043930E+01  0.7957747E-01            NaN
         13   -1    0    0    0    0  0.00000000000E+00  0.00000000000E+00  0.74505805969E-08  0.10566000000E+00  0.10566000000E+00 0.  1.
     999900   -1    0    0    0    0 -0.00000000000E+00 -0.00000000000E+00 -0.74505805969E-08  0.93827000000E+00  0.93827000000E+00 0.  1.
     999902    2    1    2    0    0 -0.17280648920E-01 -0.13620456883E-01  0.73600148052E-02  0.10207285455E+01  0.10204648236E+01 0.  0.
     999903    2    3    3    0    0  0.11482922995E+00  0.51865863505E-01 -0.89680897333E-02  0.12831155483E+00  0.22530171364E-01 0.  0.
         14    1    1    2    0    0  0.17280648920E-01  0.13620456883E-01 -0.73600148052E-02  0.23201454496E-01  0.00000000000E+00 0. -1.
     999901    1    3    3    0    0 -0.13210987887E+00 -0.65486320387E-01  0.16328104539E-01  0.89241699068E+00  0.88000000000E+00 0. -1.
        -11    1    4    4    0    0  0.49371919655E-01  0.11768803391E-01  0.18366257797E-02  0.50790998207E-01  0.51100000000E-03 0. -1.
         11    1    4    4    0    0  0.65457310290E-01  0.40097060114E-01 -0.10804715513E-01  0.77520556619E-01  0.51100000000E-03 0.  1.
</event>
<event>
 8    1  0.1126407E+005  0.1043930E+01  0.7957747E-01            NaN
         13   -1    0    0    0    0  0.00000000000E+00  0.00000000000E+00  0.74505805969E-08  0.10566000000E+00  0.10566000000E+00 0.  1.
     999900   -1    0    0    0    0 -0.00000000000E+00 -0.00000000000E+00 -0.74505805969E-08  0.93827000000E+00  0.93827000000E+00 0.  1.
     999902    2    1    2    0    0  0.21177445526E-01  0.65599753768E-02  0.68809192585E-03  0.10217491311E+01  0.10215083435E+01 0.  0.
     999903    2    3    3    0    0 -0.40806353007E-01 -0.62425131005E-01  0.10533842459E+00  0.13070893652E+00  0.20653981768E-01 0.  0.
         14    1    1    2    0    0 -0.21177445526E-01 -0.65599753768E-02 -0.68809192585E-03  0.22180868929E-01  0.00000000000E+00 0.  1.
     999901    1    3    3    0    0  0.61983798533E-01  0.68985106382E-01 -0.10465033267E+00  0.89104019455E+00  0.88000000000E+00 0.  1.
        -11    1    4    4    0    0 -0.30247842314E-01 -0.39240756084E-01  0.83765339071E-01  0.97322464279E-01  0.51100000000E-03 0. -1.
         11    1    4    4    0    0 -0.10558510693E-01 -0.23184374921E-01  0.21573085523E-01  0.33386472238E-01  0.51100000000E-03 0.  1.
</event>
<event>
 8    1  0.1126407E+005  0.1043930E+01  0.7957747E-01            NaN
         13   -1    0    0    0    0  0.00000000000E+00  0.00000000000E+00  0.74505805969E-08  0.10566000000E+00  0.10566000000E+00 0. -1.
     999900   -1    0    0    0    0 -0.00000000000E+00 -0.00000000000E+00 -0.74505805969E-08  0.93827000000E+00  0.93827000000E+00 0. -1.
     999902    2    1    2    0    0  0.22039622262E-01 -0.24614772712E-02  0.70940106105E-02  0.10206463404E+01  0.10203807247E+01 0.  0.
     999903    2    3    3    0    0  0.23439856671E-01  0.12633236209E+00 -0.14833384339E-01  0.13099999244E+00  0.20776817285E-01 0.  0.
         14    1    1    2    0    0 -0.22039622262E-01  0.24614772712E-02 -0.70940106105E-02  0.23283659642E-01  0.00000000000E+00 0.  1.
     999901    1    3    3    0    0 -0.14002344099E-02 -0.12879383936E+00  0.21927394949E-01  0.88964634792E+00  0.88000000000E+00 0. -1.
        -11    1    4    4    0    0  0.10183601184E-01  0.91840258272E-01 -0.17107348656E-01  0.93974790617E-01  0.51100000000E-03 0. -1.
         11    1    4    4    0    0  0.13256255487E-01  0.34492103818E-01  0.22739643176E-02  0.37025201823E-01  0.51100000000E-03 0.  1.
</event>
<event>
 8    1  0.1126407E+005  0.1043930E+01  0.7957747E-01            NaN
         13   -1    0    0    0    0  0.00000000000E+00  0.00000000000E+00  0.74505805969E-08  0.10566000000E+00  0.10566000000E+00 0. -1.
     999900   -1    0    0    0    0 -0.00000000000E+00 -0.00000000000E+00 -0.74505805969E-08  0.93827000000E+00  0.93827000000E+00 0.  1.
     999902    2    1    2    0    0 -0.15771465056E-01  0.17296677833E-01 -0.64985777448E-03  0.10205134142E+01  0.10202447217E+01 0.  0.
     999903    2    3    3    0    0  0.46845009578E-01 -0.11724147691E+00 -0.97968000048E-02  0.12804212364E+00  0.18941734440E-01 0.  0.
         14    1    1    2    0    0  0.15771465056E-01 -0.17296677833E-01  0.64985777448E-03  0.23416585771E-01  0.00000000000E+00 0. -1.
     999901    1    3    3    0    0 -0.62616474634E-01  0.13453815475E+00  0.91469422303E-02  0.89247129059E+00  0.88000000000E+00 0. -1.
        -11    1    4    4    0    0  0.26255901367E-01 -0.76908599228E-01 -0.14354052448E-01  0.82526389321E-01  0.51100000000E-03 0. -1.
         11    1    4    4    0    0  0.20589108211E-01 -0.40332877687E-01  0.45572524431E-02  0.45515734316E-01  0.51100000000E-03 0.  1.
</event>
<event>
 8    1  0.1126407E+005  0.1043930E+01  0.7957747E-01            NaN
         13   -1    0    0    0    0  0.00000000000E+00  0.00000000000E+00  0.74505805969E-08  0.10566000000E+00  0.10566000000E+00 0. -1.
     999900   -1    0    0    0    0 -0.00000000000E+00 -0.00000000000E+00 -0.74505805969E-08  0.93827000000E+00  0.93827000000E+00 0. -1.
     999902    2    1    2    0    0 -0.20078265761E-01 -0.10714071911E-01 -0.57094113772E-02  0.10204667208E+01  0.10201969431E+01 0.  0.
     999903    2    3    3    0    0 -0.85569705483E-01 -0.99776542261E-01  0.14903901307E-01  0.13331049951E+00  0.16493335726E-01 0.  0.
         14    1    1    2    0    0  0.20078265761E-01  0.10714071911E-01  0.57094113772E-02  0.23463279208E-01  0.00000000000E+00 0. -1.
     999901    1    3    3    0    0  0.65491439721E-01  0.89062470349E-01 -0.20613312684E-01  0.88715622128E+00  0.88000000000E+00 0. -1.
        -11    1    4    4    0    0 -0.15992932082E-01 -0.29381537525E-01  0.23319172646E-02  0.33537256642E-01  0.51100000000E-03 0.  1.
         11    1    4    4    0    0 -0.69576773400E-01 -0.70395004735E-01  0.12571984042E-01  0.99773242867E-01  0.51100000000E-03 0. -1.
</event>
<event>
 8    1  0.1126407E+005  0.1043930E+01  0.7957747E-01            NaN
         13   -1    0    0    0    0  0.00000000000E+00  0.00000000000E+00  0.74505805969E-08  0.10566000000E+00  0.10566000000E+00 0.  1.
     999900   -1    0    0    0    0 -0.00000000000E+00 -0.00000000000E+00 -0.74505805969E-08  0.93827000000E+00  0.93827000000E+00 0.  1.
     999902    2    1    2    0    0  0.10737061254E-02  0.19224333295E-02 -0.24299027683E-01  0.10195314070E+01  0.10192394216E+01 0.  0.
     999903    2    3    3    0    0 -0.27104652256E-01  0.11797773886E+00 -0.46458299760E-01  0.13118806843E+00  0.19963132011E-01 0.  0.
         14    1    1    2    0    0 -0.10737061254E-02 -0.19224333295E-02  0.24299027683E-01  0.24398593015E-01  0.00000000000E+00 0.  1.
     999901    1    3    3    0    0  0.28178358381E-01 -0.11605530553E+00  0.22159272076E-01  0.88834333856E+00  0.88000000000E+00 0.  1.
        -11    1    4    4    0    0 -0.28730462087E-01  0.96742621207E-01 -0.33915075164E-01  0.10646627473E+00  0.51100000000E-03 0.  1.
         11    1    4    4    0    0  0.16258098314E-02  0.21235117656E-01 -0.12543224595E-01  0.24721793699E-01  0.51100000000E-03 0. -1.
</event>
<event>
 8    1  0.1175523E+005  0.1043930E+01  0.7957747E-01            NaN
         13   -1    0    0    0    0  0.00000000000E+00  0.00000000000E+00  0.74505805969E-08  0.10566000000E+00  0.10566000000E+00 0.  1.
     999900   -1    0    0    0    0 -0.00000000000E+00 -0.00000000000E+00 -0.74505805969E-08  0.93827000000E+00  0.93827000000E+00 0. -1.
     999902    2    1    2    0    0  0.10400747547E-01 -0.15951289247E-01  0.13592758773E-01  0.10205337980E+01  0.10202655784E+01 0.  0.
     999903    2    3    3    0    0  0.60990830610E-01  0.10401841555E+00  0.45111599359E-01  0.13039587390E+00  0.20695780756E-01 0.  0.
         14    1    1    2    0    0 -0.10400747547E-01  0.15951289247E-01 -0.13592758773E-01  0.23396202026E-01  0.00000000000E+00 0. -1.
     999901    1    3    3    0    0 -0.50590083063E-01 -0.11996970479E+00 -0.31518840587E-01  0.89013792408E+00  0.88000000000E+00 0. -1.
        -11    1    4    4    0    0  0.35446015154E-01  0.65071940079E-01  0.37999937810E-01  0.83276850148E-01  0.51100000000E-03 0.  1.
         11    1    4    4    0    0  0.25544815457E-01  0.38946475466E-01  0.71116615489E-02  0.47119023747E-01  0.51100000000E-03 0. -1.
</event>
<event>
 8    1  0.1126407E+005  0.1043930E+01  0.7957747E-01            NaN
         13   -1    0    0    0    0  0.00000000000E+00  0.00000000000E+00  0.74505805969E-08  0.10566000000E+00  0.10566000000E+00 0. -1.
     999900   -1    0    0    0    0 -0.00000000000E+00 -0.00000000000E+00 -0.74505805969E-08  0.93827000000E+00  0.93827000000E+00 0. -1.
     999902    2    1    2    0    0 -0.64343316009E-02 -0.15756710185E-02  0.22200157576E-01  0.10207625582E+01  0.10204996178E+01 0.  0.
     999903    2    3    3    0    0 -0.18103610234E-02 -0.12949527738E+00 -0.60369107920E-02  0.13105353903E+00  0.19138482956E-01 0.  0.
         14    1    1    2    0    0  0.64343316009E-02  0.15756710185E-02 -0.22200157576E-01  0.23167441782E-01  0.00000000000E+00 0.  1.
     999901    1    3    3    0    0 -0.46239705776E-02  0.12791960636E+00  0.28237068368E-01  0.88970901919E+00  0.88000000000E+00 0.  1.
        -11    1    4    4    0    0 -0.94098743151E-02 -0.97064786441E-01 -0.24978445467E-02  0.97553159097E-01  0.51100000000E-03 0. -1.
         11    1    4    4    0    0  0.75995132917E-02 -0.32430490938E-01 -0.35390662453E-02  0.33500379932E-01  0.51100000000E-03 0.  1.
</event>
<event>
 8    1  0.1126407E+005  0.1043930E+01  0.7957747E-01            NaN
         13   -1    0    0    0    0  0.00000000000E+00  0.00000000000E+00  0.74505805969E-08  0.10566000000E+00  0.10566000000E+00 0. -1.
     999900   -1    0    0    0    0 -0.00000000000E+00 -0.00000000000E+00 -0.74505805969E-08  0.93827000000E+00  0.93827000000E+00 0.  1.
     999902    2    1    2    0    0  0.23439649758E-01  0.44074885992E-02  0.14465980068E-02  0.10200357375E+01  0.10197558384E+01 0.  0.
     999903    2    3    3    0    0  0.66298930103E-01 -0.11121841707E+00 -0.10180286454E-01  0.13136175201E+00  0.19677073735E-01 0.  0.
         14    1    1    2    0    0 -0.23439649758E-01 -0.44074885992E-02 -0.14465980068E-02  0.23894262540E-01  0.00000000000E+00 0.  1.
     999901    1    3    3    0    0 -0.42859280345E-01  0.11562590567E+00  0.11626884461E-01  0.88867398545E+00  0.88000000000E+00 0. -1.
        -11    1    4    4    0    0  0.18414544939E-01 -0.16934400085E-01 -0.47860849167E-02  0.25476206574E-01  0.51100000000E-03 0.  1.
         11    1    4    4    0    0  0.47884385164E-01 -0.94284016984E-01 -0.53942015371E-02  0.10588554544E+00  0.51100000000E-03 0. -1.
</event>
<event>
 8    1  0.1126407E+005  0.1043930E+01  0.7957747E-01            NaN
         13   -1    0    0    0    0  0.00000000000E+00  0.00000000000E+00  0.74505805969E-08  0.10566000000E+00  0.10566000000E+00 0. -1.
     999900   -1    0    0    0    0 -0.00000000000E+00 -0.00000000000E+00 -0.74505805969E-08  0.93827000000E+00  0.93827000000E+00 0. -1.
     999902    2    1    2    0    0  0.34928549234E-02  0.21694056527E-01  0.85763855056E-02  0.10203421533E+01  0.10200694698E+01 0.  0.
     999903    2    3    3    0    0 -0.11354029478E+00  0.34439525442E-03  0.61701040599E-01  0.13074966504E+00  0.19923336851E-01 0.  0.
         14    1    1    2    0    0 -0.34928549234E-02 -0.21694056527E-01 -0.85763855056E-02  0.23587846711E-01  0.00000000000E+00 0. -1.
     999901    1    3    3    0    0  0.11703314970E+00  0.21349661273E-01 -0.53124655093E-01  0.88959248825E+00  0.88000000000E+00 0. -1.
        -11    1    4    4    0    0 -0.56697756124E-01  0.38258654223E-02  0.41313577600E-01  0.70259131868E-01  0.51100000000E-03 0. -1.
         11    1    4    4    0    0 -0.56842538655E-01 -0.34814701679E-02  0.20387462999E-01  0.60490533175E-01  0.51100000000E-03 0.  1.
</event>
<event>
 8    1  0.1126407E+005  0.1043930E+01  0.7957747E-01            NaN
         13   -1    0    0    0    0  0.00000000000E+00  0.00000000000E+00  0.74505805969E-08  0.10566000000E+00  0.10566000000E+00 0. -1.
     999900   -1    0    0    0    0 -0.00000000000E+00 -0.00000000000E+00 -0.74505805969E-08  0.93827000000E+00  0.93827000000E+00 0.  1.
     999902    2    1    2    0    0 -0.56939691125E-02 -0.20690778725E-01 -0.11695143126E-01  0.10194901559E+01  0.10191971703E+01 0.  0.
     999903    2    3    3    0    0  0.35876101197E-01 -0.59818586577E-01  0.10742771199E+00  0.12963100370E+00  0.19953091972E-01 0.  0.
         14    1    1    2    0    0  0.56939691125E-02  0.20690778725E-01  0.11695143126E-01  0.24439844133E-01  0.00000000000E+00 0. -1.
     999901    1    3    3    0    0 -0.41570070310E-01  0.39127807852E-01 -0.11912285511E+00  0.88985915217E+00  0.88000000000E+00 0.  1.
        -11    1    4    4    0    0  0.21255455482E-01 -0.16826747398E-01  0.41735574360E-01  0.49770002048E-01  0.51100000000E-03 0. -1.
         11    1    4    4    0    0  0.14620645716E-01 -0.42991839179E-01  0.65692137627E-01  0.79861001647E-01  0.51100000000E-03 0.  1.
</event>
<event>
 8    1  0.1126407E+005  0.1043930E+01  0.7957747E-01            NaN
         13   -1    0    0    0    0  0.00000000000E+00  0.00000000000E+00  0.74505805969E-08  0.10566000000E+00  0.10566000000E+00 0. -1.
     999900   -1    0    0    0    0 -0.00000000000E+00 -0.00000000000E+00 -0.74505805969E-08  0.93827000000E+00  0.93827000000E+00 0. -1.
     999902    2    1    2    0    0  0.11889365821E-01 -0.20540061723E-01 -0.47172826350E-02  0.10197328119E+01  0.10194456846E+01 0.  0.
     999903    2    3    3    0    0  0.31619757374E-01  0.56282435283E-01  0.10870455418E+00  0.12891549201E+00  0.25199254007E-01 0.  0.
         14    1    1    2    0    0 -0.11889365821E-01  0.20540061723E-01  0.47172826350E-02  0.24197188073E-01  0.00000000000E+00 0. -1.
     999901    1    3    3    0    0 -0.19730391553E-01 -0.76822497006E-01 -0.11342183682E+00  0.89081731992E+00  0.88000000000E+00 0. -1.
        -11    1    4    4    0    0  0.32313205595E-01  0.35692935318E-01  0.83174732113E-01  0.96106326901E-01  0.51100000000E-03 0. -1.
         11    1    4    4    0    0 -0.69344822137E-03  0.20589499965E-01  0.25529822069E-01  0.32809165109E-01  0.51100000000E-03 0.  1.
</event>
<event>
 8    1  0.1126407E+005  0.1043930E+01  0.7957747E-01            NaN
         13   -1    0    0    0    0  0.00000000000E+00  0.00000000000E+00  0.74505805969E-08  0.10566000000E+00  0.10566000000E+00 0. -1.
     999900   -1    0    0    0    0 -0.00000000000E+00 -0.00000000000E+00 -0.74505805969E-08  0.93827000000E+00  0.93827000000E+00 0. -1.
     999902    2    1    2    0    0  0.98871575909E-04 -0.23930209584E-01  0.25248515975E-02  0.10198667587E+01  0.10195828392E+01 0.  0.
     999903    2    3    3    0    0  0.36326644694E-01 -0.10821623797E+00 -0.63855637254E-01  0.13261090190E+00  0.21857026758E-01 0.  0.
         14    1    1    2    0    0 -0.98871575909E-04  0.23930209584E-01 -0.25248515975E-02  0.24063241301E-01  0.00000000000E+00 0.  1.
     999901    1    3    3    0    0 -0.36227773118E-01  0.84286028385E-01  0.66380488852E-01  0.88725585680E+00  0.88000000000E+00 0.  1.
        -11    1    4    4    0    0  0.29758036311E-01 -0.95532331702E-01 -0.63105010258E-01  0.11829822723E+00  0.51100000000E-03 0. -1.
         11    1    4    4    0    0  0.65686083832E-02 -0.12683906266E-01 -0.75062699662E-03  0.14312674668E-01  0.51100000000E-03 0.  1.
</event>
<event>
 8    1  0.1126407E+005  0.1043930E+01  0.7957747E-01            NaN
         13   -1    0    0    0    0  0.00000000000E+00  0.00000000000E+00  0.74505805969E-08  0.10566000000E+00  0.10566000000E+00 0.  1.
     999900   -1    0    0    0    0 -0.00000000000E+00 -0.00000000000E+00 -0.74505805969E-08  0.93827000000E+00  0.93827000000E+00 0. -1.
     999902    2    1    2    0    0  0.21604958902E-01  0.59940099292E-02  0.28218145931E-02  0.10213321009E+01  0.10210820708E+01 0.  0.
     999903    2    3    3    0    0 -0.69402044028E-01  0.10853623187E+00 -0.90696044201E-02  0.13063653695E+00  0.19669512460E-01 0.  0.
         14    1    1    2    0    0 -0.21604958902E-01 -0.59940099292E-02 -0.28218145931E-02  0.22597899057E-01  0.00000000000E+00 0.  1.
     999901    1    3    3    0    0  0.91007002930E-01 -0.10254222194E+00  0.11891419013E-01  0.89069556399E+00  0.88000000000E+00 0.  1.
        -11    1    4    4    0    0  0.79060454004E-04  0.85321697265E-02 -0.67084612653E-03  0.85741079025E-02  0.51100000000E-03 0. -1.
         11    1    4    4    0    0 -0.69481104482E-01  0.10000406214E+00 -0.83987582936E-02  0.12206242905E+00  0.51100000000E-03 0.  1.
</event>
<event>
 8    1  0.1126407E+005  0.1043930E+01  0.7957747E-01            NaN
         13   -1    0    0    0    0  0.00000000000E+00  0.00000000000E+00  0.74505805969E-08  0.10566000000E+00  0.10566000000E+00 0. -1.
     999900   -1    0    0    0    0 -0.00000000000E+00 -0.00000000000E+00 -0.74505805969E-08  0.93827000000E+00  0.93827000000E+00 0.  1.
     999902    2    1    2    0    0 -0.10637302307E-01  0.19394930256E-01  0.86565999167E-02  0.10201760058E+01  0.10198994218E+01 0.  0.
     999903    2    3    3    0    0  0.16400052773E-01 -0.37111568924E-01 -0.11921465784E+00  0.12873051580E+00  0.26705444666E-01 0.  0.
         14    1    1    2    0    0  0.10637302307E-01 -0.19394930256E-01 -0.86565999167E-02  0.23753994236E-01  0.00000000000E+00 0. -1.
     999901    1    3    3    0    0 -0.27037355080E-01  0.56506499180E-01  0.12787125776E+00  0.89144548997E+00  0.88000000000E+00 0. -1.
        -11    1    4    4    0    0 -0.22342327459E-02 -0.10211715367E-01 -0.61484320351E-01  0.62368691639E-01  0.51100000000E-03 0. -1.
         11    1    4    4    0    0  0.18634285519E-01 -0.26899853557E-01 -0.57730337489E-01  0.66361824160E-01  0.51100000000E-03 0.  1.
</event>
<event>
 8    1  0.1126407E+005  0.1043930E+01  0.7957747E-01            NaN
         13   -1    0    0    0    0  0.00000000000E+00  0.00000000000E+00  0.74505805969E-08  0.10566000000E+00  0.10566000000E+00 0. -1.
     999900   -1    0    0    0    0 -0.00000000000E+00 -0.00000000000E+00 -0.74505805969E-08  0.93827000000E+00  0.93827000000E+00 0.  1.
     999902    2    1    2    0    0  0.12073523039E-02  0.55902070024E-02  0.24556656323E-01  0.10187161648E+01  0.10184040883E+01 0.  0.
     999903    2    3    3    0    0 -0.10096632138E+00  0.76833007268E-01  0.18179830909E-01  0.12992166660E+00  0.21251450363E-01 0.  0.
         14    1    1    2    0    0 -0.12073523039E-02 -0.55902070024E-02 -0.24556656323E-01  0.25213835164E-01  0.00000000000E+00 0.  1.
     999901    1    3    3    0    0  0.10217367368E+00 -0.71242800266E-01  0.63768254133E-02  0.88879449823E+00  0.88000000000E+00 0. -1.
        -11    1    4    4    0    0 -0.10019012868E-01  0.12284026116E-01 -0.36592567176E-02  0.16276645760E-01  0.51100000000E-03 0. -1.
         11    1    4    4    0    0 -0.90947308513E-01  0.64548981152E-01  0.21839087627E-01  0.11364502085E+00  0.51100000000E-03 0.  1.
</event>
<event>
 8    1  0.1126407E+005  0.1043930E+01  0.7957747E-01            NaN
         13   -1    0    0    0    0  0.00000000000E+00  0.00000000000E+00  0.74505805969E-08  0.10566000000E+00  0.10566000000E+00 0.  1.
     999900   -1    0    0    0    0 -0.00000000000E+00 -0.00000000000E+00 -0.74505805969E-08  0.93827000000E+00  0.93827000000E+00 0. -1.
     999902    2    1    2    0    0 -0.17317085103E-01 -0.52883685288E-02 -0.15368236539E-01  0.10201806637E+01  0.10199041895E+01 0.  0.
     999903    2    3    3    0    0 -0.84688931357E-01 -0.26860956933E-01  0.93727689972E-01  0.13062669494E+00  0.19614470725E-01 0.  0.
         14    1    1    2    0    0  0.17317085103E-01  0.52883685288E-02  0.15368236539E-01  0.23749336253E-01  0.00000000000E+00 0.  1.
     999901    1    3    3    0    0  0.67371846254E-01  0.21572588405E-01 -0.10909592651E+00  0.88955396881E+00  0.88000000000E+00 0. -1.
        -11    1    4    4    0    0 -0.57456592748E-01 -0.16224648416E-01  0.49244141328E-01  0.77393448318E-01  0.51100000000E-03 0. -1.
         11    1    4    4    0    0 -0.27232338609E-01 -0.10636308518E-01  0.44483548644E-01  0.53233246622E-01  0.51100000000E-03 0.  1.
</event>
<event>
 8    1  0.1126407E+005  0.1043930E+01  0.7957747E-01            NaN
         13   -1    0    0    0    0  0.00000000000E+00  0.00000000000E+00  0.74505805969E-08  0.10566000000E+00  0.10566000000E+00 0. -1.
     999900   -1    0    0    0    0 -0.00000000000E+00 -0.00000000000E+00 -0.74505805969E-08  0.93827000000E+00  0.93827000000E+00 0.  1.
     999902    2    1    2    0    0  0.16647033842E-01  0.12371458386E-01 -0.11070067661E-01  0.10204199358E+01  0.10201490687E+01 0.  0.
     999903    2    3    3    0    0  0.60285223403E-01  0.22043812499E-03  0.11316162216E+00  0.13054047680E+00  0.24513396312E-01 0.  0.
         14    1    1    2    0    0 -0.16647033842E-01 -0.12371458386E-01  0.11070067661E-01  0.23510064150E-01  0.00000000000E+00 0. -1.
     999901    1    3    3    0    0 -0.43638189561E-01  0.12151020261E-01 -0.12423168982E+00  0.88987945905E+00  0.88000000000E+00 0.  1.
        -11    1    4    4    0    0  0.49662448706E-01 -0.81260439350E-02  0.77540200198E-01  0.92439900310E-01  0.51100000000E-03 0.  1.
         11    1    4    4    0    0  0.10622774697E-01  0.83464820599E-02  0.35621421966E-01  0.38100576490E-01  0.51100000000E-03 0. -1.
</event>
<event>
 8    1  0.1126407E+005  0.1043930E+01  0.7957747E-01            NaN
         13   -1    0    0    0    0  0.00000000000E+00  0.00000000000E+00  0.74505805969E-08  0.10566000000E+00  0.10566000000E+00 0.  1.
     999900   -1    0    0    0    0 -0.00000000000E+00 -0.00000000000E+00 -0.74505805969E-08  0.93827000000E+00  0.93827000000E+00 0. -1.
     999902    2    1    2    0    0  0.13797224211E-01  0.32631880499E-02 -0.15175475829E-01  0.10231620714E+01  0.10229512782E+01 0.  0.
     999903    2    3    3    0    0 -0.74149333200E-02 -0.10004114093E+00  0.82167461425E-01  0.13153581143E+00  0.22067325555E-01 0.  0.
         14    1    1    2    0    0 -0.13797224211E-01 -0.32631880499E-02  0.15175475829E-01  0.20767928612E-01  0.00000000000E+00 0.  1.
     999901    1    3    3    0    0  0.21212157531E-01  0.10330432898E+00 -0.97342937254E-01  0.89162625996E+00  0.88000000000E+00 0. -1.
        -11    1    4    4    0    0 -0.38974516741E-03 -0.62517546184E-01  0.63220599745E-01  0.88914008094E-01  0.51100000000E-03 0. -1.
         11    1    4    4    0    0 -0.70251881526E-02 -0.37523594745E-01  0.18946861680E-01  0.42621803337E-01  0.51100000000E-03 0.  1.
</event>
<event>
 8    1  0.1126407E+005  0.1043930E+01  0.7957747E-01            NaN
         13   -1    0    0    0    0  0.00000000000E+00  0.00000000000E+00  0.74505805969E-08  0.10566000000E+00  0.10566000000E+00 0.  1.
     999900   -1    0    0    0    0 -0.00000000000E+00 -0.00000000000E+00 -0.74505805969E-08  0.93827000000E+00  0.93827000000E+00 0. -1.
     999902    2    1    2    0    0 -0.12727452567E-01  0.33571184839E-02  0.19524334393E-01  0.10203830697E+01  0.10201113424E+01 0.  0.
     999903    2    3    3    0    0 -0.12550735478E+00 -0.35085949262E-01 -0.76098503704E-02  0.13193867651E+00  0.19151621278E-01 0.  0.
         14    1    1    2    0    0  0.12727452567E-01 -0.33571184839E-02 -0.19524334393E-01  0.23546930306E-01  0.00000000000E+00 0. -1.
     999901    1    3    3    0    0  0.11277990221E+00  0.38443067746E-01  0.27134184763E-01  0.88844439319E+00  0.88000000000E+00 0. -1.
        -11    1    4    4    0    0 -0.64861651625E-01 -0.10029555819E-01 -0.93408637329E-02  0.66295842235E-01  0.51100000000E-03 0.  1.
         11    1    4    4    0    0 -0.60645703151E-01 -0.25056393444E-01  0.17310133624E-02  0.65642834273E-01  0.51100000000E-03 0. -1.
</event>
<event>
 8    1  0.1126407E+005  0.1043930E+01  0.7957747E-01            NaN
         13   -1    0    0    0    0  0.00000000000E+00  0.00000000000E+00  0.74505805969E-08  0.10566000000E+00  0.10566000000E+00 0. -1.
     999900   -1    0    0    0    0 -0.00000000000E+00 -0.00000000000E+00 -0.74505805969E-08  0.93827000000E+00  0.93827000000E+00 0. -1.
     999902    2    1    2    0    0 -0.14718484068E-01  0.17857972594E-01 -0.21539185324E-02  0.10206882203E+01  0.10204235703E+01 0.  0.
     999903    2    3    3    0    0  0.96963036241E-01  0.69660577310E-01  0.49238400426E-01  0.13063347913E+00  0.19653482268E-01 0.  0.
         14    1    1    2    0    0  0.14718484068E-01 -0.17857972594E-01  0.21539185324E-02  0.23241779697E-01  0.00000000000E+00 0. -1.
     999901    1    3    3    0    0 -0.11168152031E+00 -0.51802604716E-01 -0.51392318959E-01  0.89005474117E+00  0.88000000000E+00 0.  1.
        -11    1    4    4    0    0  0.88575985712E-02  0.14815188293E-02  0.73390177953E-02  0.11609231400E-01  0.51100000000E-03 0.  1.
         11    1    4    4    0    0  0.88105437670E-01  0.68179058481E-01  0.41899382631E-01  0.11902424773E+00  0.51100000000E-03 0. -1.
</event>
<event>
 8    1  0.1126407E+005  0.1043930E+01  0.7957747E-01            NaN
         13   -1    0    0    0    0  0.00000000000E+00  0.00000000000E+00  0.74505805969E-08  0.10566000000E+00  0.10566000000E+00 0. -1.
     999900   -1    0    0    0    0 -0.00000000000E+00 -0.00000000000E+00 -0.74505805969E-08  0.93827000000E+00  0.93827000000E+00 0.  1.
     999902    2    1    2    0    0  0.17395376365E-01 -0.94435622850E-02  0.24627072509E-01  0.10123345464E+01  0.10118413715E+01 0.  0.
     999903    2    3    3    0    0 -0.11069544853E+00 -0.41667401739E-01  0.24632047858E-01  0.12247745941E+00  0.20108097612E-01 0.  0.
         14    1    1    2    0    0 -0.17395376365E-01  0.94435622850E-02 -0.24627072509E-01  0.31595453595E-01  0.00000000000E+00 0.  1.
     999901    1    3    3    0    0  0.12809082489E+00  0.32223839454E-01 -0.49753487856E-05  0.88985708700E+00  0.88000000000E+00 0.  1.
        -11    1    4    4    0    0 -0.88105188042E-01 -0.28520957689E-01  0.26335986311E-01  0.96279875796E-01  0.51100000000E-03 0. -1.
         11    1    4    4    0    0 -0.22590260485E-01 -0.13146444050E-01 -0.17039384529E-02  0.26197583613E-01  0.51100000000E-03 0.  1.
</event>
<event>
 8    1  0.1126407E+005  0.1043930E+01  0.7957747E-01            NaN
         13   -1    0    0    0    0  0.00000000000E+00  0.00000000000E+00  0.74505805969E-08  0.10566000000E+00  0.10566000000E+00 0.  1.
     999900   -1    0    0    0    0 -0.00000000000E+00 -0.00000000000E+00 -0.74505805969E-08  0.93827000000E+00  0.93827000000E+00 0.  1.
     999902    2    1    2    0    0  0.58238646767E-02 -0.22771929402E-01  0.37022791344E-02  0.10201353569E+01  0.10198578143E+01 0.  0.
     999903    2    3    3    0    0  0.12260426993E+00 -0.12942832214E-01 -0.40507526177E-01  0.13126597333E+00  0.19762898762E-01 0.  0.
         14    1    1    2    0    0 -0.58238646767E-02  0.22771929402E-01 -0.37022791344E-02  0.23794643078E-01  0.00000000000E+00 0. -1.
     999901    1    3    3    0    0 -0.11678040525E+00 -0.98290971879E-02  0.44209805311E-01  0.88886938359E+00  0.88000000000E+00 0. -1.
        -11    1    4    4    0    0  0.71744676606E-01 -0.15931190238E-01 -0.18635424199E-01  0.75819796886E-01  0.51100000000E-03 0. -1.
         11    1    4    4    0    0  0.50859593320E-01  0.29883580247E-02 -0.21872101978E-01  0.55446176444E-01  0.51100000000E-03 0.  1.
</event>
<event>
 8    1  0.1126407E+005  0.1043930E+01  0.7957747E-01            NaN
         13   -1    0    0    0    0  0.00000000000E+00  0.00000000000E+00  0.74505805969E-08  0.10566000000E+00  0.10566000000E+00 0. -1.
     999900   -1    0    0    0    0 -0.00000000000E+00 -0.00000000000E+00 -0.74505805969E-08  0.93827000000E+00  0.93827000000E+00 0.  1.
     999902    2    1    2    0    0  0.13153775678E-01 -0.54694144092E-03 -0.19810841677E-01  0.10201436508E+01  0.10198663039E+01 0.  0.
     999903    2    3    3    0    0  0.10445230194E+00 -0.33799671481E-01  0.69254909449E-01  0.13032688711E+00  0.11668498091E-01 0.  0.
         14    1    1    2    0    0 -0.13153775678E-01  0.54694144092E-03  0.19810841677E-01  0.23786349183E-01  0.00000000000E+00 0. -1.
     999901    1    3    3    0    0 -0.91298526262E-01  0.33252730040E-01 -0.89065751125E-01  0.88981676371E+00  0.88000000000E+00 0.  1.
        -11    1    4    4    0    0  0.49488652926E-01 -0.99331741276E-02  0.31391496711E-01  0.59443098031E-01  0.51100000000E-03 0. -1.
         11    1    4    4    0    0  0.54963649014E-01 -0.23866497354E-01  0.37863412738E-01  0.70883789078E-01  0.51100000000E-03 0.  1.
</event>
<event>
 8    1  0.1126407E+005  0.1043930E+01  0.7957747E-01            NaN
         13   -1    0    0    0    0  0.00000000000E+00  0.00000000000E+00  0.74505805969E-08  0.10566000000E+00  0.10566000000E+00 0. -1.
     999900   -1    0    0    0    0 -0.00000000000E+00 -0.00000000000E+00 -0.74505805969E-08  0.93827000000E+00  0.93827000000E+00 0.  1.
     999902    2    1    2    0    0  0.16895359947E-01  0.89727379440E-02  0.14698496266E-01  0.10198051372E+01  0.10195197442E+01 0.  0.
     999903    2    3    3    0    0 -0.32709857745E-01  0.75648079986E-01 -0.96986179411E-01  0.12886195961E+00  0.20162312349E-01 0.  0.
         14    1    1    2    0    0 -0.16895359947E-01 -0.89727379440E-02 -0.14698496266E-01  0.24124862827E-01  0.00000000000E+00 0.  1.
     999901    1    3    3    0    0  0.49605217691E-01 -0.66675342042E-01  0.11168467568E+00  0.89094317756E+00  0.88000000000E+00 0. -1.
        -11    1    4    4    0    0 -0.35682776484E-02  0.14452886708E-01 -0.30362579963E-01  0.33819608552E-01  0.51100000000E-03 0. -1.
         11    1    4    4    0    0 -0.29141580096E-01  0.61195193278E-01 -0.66623599448E-01  0.95042351061E-01  0.51100000000E-03 0.  1.
</event>
<event>
 8    1  0.1126407E+005  0.1043930E+01  0.7957747E-01            NaN
         13   -1    0    0    0    0  0.00000000000E+00  0.00000000000E+00  0.74505805969E-08  0.10566000000E+00  0.10566000000E+00 0.  1.
     999900   -1    0    0    0    0 -0.00000000000E+00 -0.00000000000E+00 -0.74505805969E-08  0.93827000000E+00  0.93827000000E+00 0. -1.
     999902    2    1    2    0    0  0.86340804784E-02 -0.19347319986E-02 -0.25816990231E-01  0.10166388381E+01  0.10162724633E+01 0.  0.
     999903    2    3    3    0    0  0.83303519026E-01  0.94928863324E-01 -0.11005889294E-02  0.12783684572E+00  0.19750505156E-01 0.  0.
         14    1    1    2    0    0 -0.86340804784E-02  0.19347319986E-02  0.25816990231E-01  0.27291161906E-01  0.00000000000E+00 0.  1.
     999901    1    3    3    0    0 -0.74669438548E-01 -0.96863595323E-01 -0.24716401301E-01  0.88880199237E+00  0.88000000000E+00 0. -1.
        -11    1    4    4    0    0  0.70226344172E-01  0.70351743891E-01 -0.59081798521E-02  0.99580495050E-01  0.51100000000E-03 0. -1.
         11    1    4    4    0    0  0.13077174854E-01  0.24577119433E-01  0.48075909227E-02  0.28256350672E-01  0.51100000000E-03 0.  1.
</event>
<event>
 8    1  0.1126407E+005  0.1043930E+01  0.7957747E-01            NaN
         13   -1    0    0    0    0  0.00000000000E+00  0.00000000000E+00  0.74505805969E-08  0.10566000000E+00  0.10566000000E+00 0.  1.
     999900   -1    0    0    0    0 -0.00000000000E+00 -0.00000000000E+00 -0.74505805969E-08  0.93827000000E+00  0.93827000000E+00 0.  1.
     999902    2    1    2    0    0 -0.14503813307E-01  0.18503016446E-01  0.42626272064E-02  0.10200366493E+01  0.10197567718E+01 0.  0.
     999903    2    3    3    0    0  0.66198625300E-01  0.91457803809E-01  0.64271130034E-01  0.13130929794E+00  0.19093603686E-01 0.  0.
         14    1    1    2    0    0  0.14503813307E-01 -0.18503016446E-01 -0.42626272064E-02  0.23893350722E-01  0.00000000000E+00 0.  1.
     999901    1    3    3    0    0 -0.80702438607E-01 -0.72954787363E-01 -0.60008502827E-01  0.88872735133E+00  0.88000000000E+00 0.  1.
        -11    1    4    4    0    0  0.33288114390E-01  0.35500243358E-01  0.35816201934E-01  0.60427040968E-01  0.51100000000E-03 0.  1.
         11    1    4    4    0    0  0.32910510910E-01  0.55957560451E-01  0.28454928099E-01  0.70882256976E-01  0.51100000000E-03 0. -1.
</event>
<event>
 8    1  0.1126407E+005  0.1043930E+01  0.7957747E-01            NaN
         13   -1    0    0    0    0  0.00000000000E+00  0.00000000000E+00  0.74505805969E-08  0.10566000000E+00  0.10566000000E+00 0.  1.
     999900   -1    0    0    0    0 -0.00000000000E+00 -0.00000000000E+00 -0.74505805969E-08  0.93827000000E+00  0.93827000000E+00 0. -1.
     999902    2    1    2    0    0 -0.34664760893E-02 -0.10412179824E-01  0.20271808169E-01  0.10208784024E+01  0.10206181148E+01 0.  0.
     999903    2    3    3    0    0  0.10997299864E+00  0.51243888971E-01  0.45777341956E-01  0.13109162036E+00  0.19221116141E-01 0.  0.
         14    1    1    2    0    0  0.34664760893E-02  0.10412179824E-01 -0.20271808169E-01  0.23051597593E-01  0.00000000000E+00 0. -1.
     999901    1    3    3    0    0 -0.11343947473E+00 -0.61656068795E-01 -0.25505533787E-01  0.88978678204E+00  0.88000000000E+00 0. -1.
        -11    1    4    4    0    0  0.21730234087E-01  0.17594324042E-01  0.15164789526E-01  0.31811873166E-01  0.51100000000E-03 0. -1.
         11    1    4    4    0    0  0.88242764555E-01  0.33649564929E-01  0.30612552430E-01  0.99279747197E-01  0.51100000000E-03 0.  1.
</event>
<event>
 8    1  0.1126407E+005  0.1043930E+01  0.7957747E-01            NaN
         13   -1    0    0    0    0  0.00000000000E+00  0.00000000000E+00  0.74505805969E-08  0.10566000000E+00  0.10566000000E+00 0. -1.
     999900   -1    0    0    0    0 -0.00000000000E+00 -0.00000000000E+00 -0.74505805969E-08  0.93827000000E+00  0.93827000000E+00 0. -1.
     999902    2    1    2    0    0 -0.62977587730E-02 -0.12450183011E-01  0.18328935284E-01  0.10208948379E+01  0.10206349256E+01 0.  0.
     999903    2    3    3    0    0  0.75832151920E-01  0.99538283136E-01 -0.24011953169E-01  0.12899826904E+00  0.20139375497E-01 0.  0.
         14    1    1    2    0    0  0.62977587730E-02  0.12450183011E-01 -0.18328935284E-01  0.23035162062E-01  0.00000000000E+00 0.  1.
     999901    1    3    3    0    0 -0.82129910693E-01 -0.11198846615E+00  0.42340888454E-01  0.89189656890E+00  0.88000000000E+00 0. -1.
        -11    1    4    4    0    0  0.29033936867E-01  0.51627326419E-01 -0.17179947601E-01  0.61674646685E-01  0.51100000000E-03 0.  1.
         11    1    4    4    0    0  0.46798215052E-01  0.47910956717E-01 -0.68320055682E-02  0.67323622353E-01  0.51100000000E-03 0. -1.
</event>
<event>
 8    1  0.1126407E+005  0.1043930E+01  0.7957747E-01            NaN
         13   -1    0    0    0    0  0.00000000000E+00  0.00000000000E+00  0.74505805969E-08  0.10566000000E+00  0.10566000000E+00 0.  1.
     999900   -1    0    0    0    0 -0.00000000000E+00 -0.00000000000E+00 -0.74505805969E-08  0.93827000000E+00  0.93827000000E+00 0. -1.
     999902    2    1    2    0    0 -0.32744663536E-02  0.87296484095E-02 -0.21642345597E-01  0.10203647711E+01  0.10200926164E+01 0.  0.
     999903    2    3    3    0    0  0.27296369319E-01 -0.79589329034E-01 -0.99695971536E-01  0.13198017739E+00  0.19998185177E-01 0.  0.
         14    1    1    2    0    0  0.32744663536E-02 -0.87296484095E-02  0.21642345597E-01  0.23565228923E-01  0.00000000000E+00 0.  1.
     999901    1    3    3    0    0 -0.30570835673E-01  0.88318977443E-01  0.78053625939E-01  0.88838459368E+00  0.88000000000E+00 0. -1.
        -11    1    4    4    0    0  0.17209734926E-01 -0.28511887014E-01 -0.28884096005E-01  0.44086900553E-01  0.51100000000E-03 0. -1.
         11    1    4    4    0    0  0.10086634393E-01 -0.51077442019E-01 -0.70811875532E-01  0.87893276841E-01  0.51100000000E-03 0.  1.
</event>
<event>
 8    1  0.1126407E+005  0.1043930E+01  0.7957747E-01            NaN
         13   -1    0    0    0    0  0.00000000000E+00  0.00000000000E+00  0.74505805969E-08  0.10566000000E+00  0.10566000000E+00 0.  1.
     999900   -1    0    0    0    0 -0.00000000000E+00 -0.00000000000E+00 -0.74505805969E-08  0.93827000000E+00  0.93827000000E+00 0.  1.
     999902    2    1    2    0    0  0.49022413460E-02  0.42941144418E-02 -0.20124257976E-01  0.10227768171E+01  0.10225580474E+01 0.  0.
     999903    2    3    3    0    0 -0.82654846749E-01  0.73750906277E-01  0.68174696953E-01  0.13132452163E+00  0.18092009509E-01 0.  0.
         14    1    1    2    0    0 -0.49022413460E-02 -0.42941144418E-02  0.20124257976E-01  0.21153182931E-01  0.00000000000E+00 0.  1.
     999901    1    3    3    0    0  0.87557088095E-01 -0.69456791835E-01 -0.88298954929E-01  0.89145229544E+00  0.88000000000E+00 0. -1.
        -11    1    4    4    0    0 -0.63686350745E-01  0.51035162691E-01  0.57604137469E-01  0.99895129394E-01  0.51100000000E-03 0.  1.
         11    1    4    4    0    0 -0.18968496004E-01  0.22715743586E-01  0.10570559484E-01  0.31429392233E-01  0.51100000000E-03 0. -1.
</event>
<event>
 8    1  0.1126407E+005  0.1043930E+01  0.7957747E-01            NaN
         13   -1    0    0    0    0  0.00000000000E+00  0.00000000000E+00  0.74505805969E-08  0.10566000000E+00  0.10566000000E+00 0. -1.
     999900   -1    0    0    0    0 -0.00000000000E+00 -0.00000000000E+00 -0.74505805969E-08  0.93827000000E+00  0.93827000000E+00 0.  1.
     999902    2    1    2    0    0  0.19147008965E-01 -0.72272332101E-02  0.11692266212E-01  0.10203598931E+01  0.10200876244E+01 0.  0.
     999903    2    3    3    0    0 -0.33871617276E-01 -0.12480387993E+00  0.25844853987E-02  0.13091164034E+00  0.20196116209E-01 0.  0.
         14    1    1    2    0    0 -0.19147008965E-01  0.72272332101E-02 -0.11692266212E-01  0.23570106944E-01  0.00000000000E+00 0.  1.
     999901    1    3    3    0    0  0.53018626241E-01  0.11757664672E+00  0.91077808131E-02  0.88944825271E+00  0.88000000000E+00 0. -1.
        -11    1    4    4    0    0 -0.21171662476E-01 -0.51323148420E-01 -0.60141310838E-02  0.55845642170E-01  0.51100000000E-03 0.  1.
         11    1    4    4    0    0 -0.12699954800E-01 -0.73480731511E-01  0.85986164825E-02  0.75065998173E-01  0.51100000000E-03 0. -1.
</event>
<event>
 8    1  0.1126407E+005  0.1043930E+01  0.7957747E-01            NaN
         13   -1    0    0    0    0  0.00000000000E+00  0.00000000000E+00  0.74505805969E-08  0.10566000000E+00  0.10566000000E+00 0. -1.
     999900   -1    0    0    0    0 -0.00000000000E+00 -0.00000000000E+00 -0.74505805969E-08  0.93827000000E+00  0.93827000000E+00 0.  1.
     999902    2    1    2    0    0  0.22719878136E-01  0.17514543871E-03 -0.56763351171E-02  0.10205111119E+01  0.10202423659E+01 0.  0.
     999903    2    3    3    0    0  0.86499285888E-01 -0.59080298819E-01  0.78351291332E-01  0.13223206650E+00  0.19333556061E-01 0.  0.
         14    1    1    2    0    0 -0.22719878136E-01 -0.17514543871E-03  0.56763351171E-02  0.23418888078E-01  0.00000000000E+00 0.  1.
     999901    1    3    3    0    0 -0.63779407752E-01  0.59255444258E-01 -0.84027626449E-01  0.88827904542E+00  0.88000000000E+00 0.  1.
        -11    1    4    4    0    0  0.14195575507E-01 -0.14389092115E-01  0.74724334338E-02  0.21555943920E-01  0.51100000000E-03 0. -1.
         11    1    4    4    0    0  0.72303710381E-01 -0.44691206705E-01  0.70878857898E-01  0.11067612258E+00  0.51100000000E-03 0.  1.
</event>
<event>
 8    1  0.1126407E+005  0.1043930E+01  0.7957747E-01            NaN
         13   -1    0    0    0    0  0.00000000000E+00  0.00000000000E+00  0.74505805969E-08  0.10566000000E+00  0.10566000000E+00 0.  1.
     999900   -1    0    0    0    0 -0.00000000000E+00 -0.00000000000E+00 -0.74505805969E-08  0.93827000000E+00  0.93827000000E+00 0. -1.
     999902    2    1    2    0    0 -0.90655475560E-02 -0.23119711995E-01  0.40213964733E-02  0.10187729560E+01  0.10184623012E+01 0.  0.
     999903    2    3    3    0    0  0.11711894216E+00  0.99301493113E-02 -0.46193509822E-01  0.12774189276E+00  0.19201467048E-01 0.  0.
         14    1    1    2    0    0  0.90655475560E-02  0.23119711995E-01 -0.40213964733E-02  0.25157044040E-01  0.00000000000E+00 0. -1.
     999901    1    3    3    0    0 -0.12618448972E+00 -0.33049861307E-01  0.50214906295E-01  0.89103106320E+00  0.88000000000E+00 0.  1.
        -11    1    4    4    0    0  0.62941878688E-01  0.96572346125E-02 -0.34070954331E-01  0.72222111040E-01  0.51100000000E-03 0.  1.
         11    1    4    4    0    0  0.54177063475E-01  0.27291469876E-03 -0.12122555491E-01  0.55519781717E-01  0.51100000000E-03 0. -1.
</event>
<event>
 8    1  0.1126407E+005  0.1043930E+01  0.7957747E-01            NaN
         13   -1    0    0    0    0  0.00000000000E+00  0.00000000000E+00  0.74505805969E-08  0.10566000000E+00  0.10566000000E+00 0. -1.
     999900   -1    0    0    0    0 -0.00000000000E+00 -0.00000000000E+00 -0.74505805969E-08  0.93827000000E+00  0.93827000000E+00 0.  1.
     999902    2    1    2    0    0  0.25560466681E-02 -0.74420829788E-02 -0.22037139815E-01  0.10205301388E+01  0.10202618344E+01 0.  0.
     999903    2    3    3    0    0  0.11797302512E+00 -0.25773347124E-01  0.44416801031E-01  0.13032047785E+00  0.20704459803E-01 0.  0.
         14    1    1    2    0    0 -0.25560466681E-02  0.74420829788E-02  0.22037139815E-01  0.23399861215E-01  0.00000000000E+00 0. -1.
     999901    1    3    3    0    0 -0.11541697845E+00  0.18331264145E-01 -0.66453940846E-01  0.89020966093E+00  0.88000000000E+00 0.  1.
        -11    1    4    4    0    0  0.58333050756E-01 -0.15846281272E-01  0.11691014224E-01  0.61569394794E-01  0.51100000000E-03 0.  1.
         11    1    4    4    0    0  0.59639974367E-01 -0.99270658521E-02  0.32725786807E-01  0.68751083061E-01  0.51100000000E-03 0. -1.
</event>
<event>
 8    1  0.1126407E+005  0.1043930E+01  0.7957747E-01            NaN
         13   -1    0    0    0    0  0.00000000000E+00  0.00000000000E+00  0.74505805969E-08  0.10566000000E+00  0.10566000000E+00 0.  1.
     999900   -1    0    0    0    0 -0.00000000000E+00 -0.00000000000E+00 -0.74505805969E-08  0.93827000000E+00  0.93827000000E+00 0. -1.
     999902    2    1    2    0    0  0.33502268701E-02  0.22501038039E-01  0.59089021308E-02  0.10204260459E+01  0.10201553212E+01 0.  0.
     999903    2    3    3    0    0  0.55316595949E-02 -0.53380686566E-01 -0.11547637526E+00  0.12885598118E+00  0.19722415846E-01 0.  0.
         14    1    1    2    0    0 -0.33502268701E-02 -0.22501038039E-01 -0.59089021308E-02  0.23503954078E-01  0.00000000000E+00 0.  1.
     999901    1    3    3    0    0 -0.21814327248E-02  0.75881724605E-01  0.12138527739E+00  0.89157006474E+00  0.88000000000E+00 0.  1.
        -11    1    4    4    0    0  0.83293579763E-02 -0.29229877996E-01 -0.82204205063E-01  0.87644488835E-01  0.51100000000E-03 0.  1.
         11    1    4    4    0    0 -0.27976983814E-02 -0.24150808570E-01 -0.33272170195E-01  0.41211492345E-01  0.51100000000E-03 0. -1.
</event>
<event>
 8    1  0.1126407E+005  0.1043930E+01  0.7957747E-01            NaN
         13   -1    0    0    0    0  0.00000000000E+00  0.00000000000E+00  0.74505805969E-08  0.10566000000E+00  0.10566000000E+00 0. -1.
     999900   -1    0    0    0    0 -0.00000000000E+00 -0.00000000000E+00 -0.74505805969E-08  0.93827000000E+00  0.93827000000E+00 0. -1.
     999902    2    1    2    0    0  0.19967193019E-01 -0.27689881949E-02  0.15373923514E-01  0.10185782029E+01  0.10182626585E+01 0.  0.
     999903    2    3    3    0    0  0.32901840323E-01  0.71480628266E-01  0.10284339650E+00  0.13103596764E+00  0.20041190023E-01 0.  0.
         14    1    1    2    0    0 -0.19967193019E-01  0.27689881949E-02 -0.15373923514E-01  0.25351797114E-01  0.00000000000E+00 0.  1.
     999901    1    3    3    0    0 -0.12934647304E-01 -0.74249616461E-01 -0.87469472984E-01  0.88754223525E+00  0.88000000000E+00 0. -1.
        -11    1    4    4    0    0  0.40690979997E-02  0.31364061352E-01  0.36120380491E-01  0.48012549514E-01  0.51100000000E-03 0. -1.
         11    1    4    4    0    0  0.28832742323E-01  0.40116566914E-01  0.66723016007E-01  0.83023418124E-01  0.51100000000E-03 0.  1.
</event>
<event>
 8    1  0.1126407E+005  0.1043930E+01  0.7957747E-01            NaN
         13   -1    0    0    0    0  0.00000000000E+00  0.00000000000E+00  0.74505805969E-08  0.10566000000E+00  0.10566000000E+00 0.  1.
     999900   -1    0    0    0    0 -0.00000000000E+00 -0.00000000000E+00 -0.74505805969E-08  0.93827000000E+00  0.93827000000E+00 0. -1.
     999902    2    1    2    0    0 -0.17296620330E-01  0.15471783468E-01  0.40630482441E-02  0.10203703413E+01  0.10200983167E+01 0.  0.
     999903    2    3    3    0    0 -0.10425377540E+00 -0.14602138202E-01  0.76983905266E-01  0.13257338308E+00  0.23814031698E-01 0.  0.
         14    1    1    2    0    0  0.17296620330E-01 -0.15471783468E-01 -0.40630482441E-02  0.23559658731E-01  0.00000000000E+00 0. -1.
     999901    1    3    3    0    0  0.86957155070E-01  0.30073921670E-01 -0.72920857021E-01  0.88779695819E+00  0.88000000000E+00 0. -1.
        -11    1    4    4    0    0 -0.77160907991E-01 -0.21165971523E-01  0.55555045254E-01  0.97408563518E-01  0.51100000000E-03 0. -1.
         11    1    4    4    0    0 -0.27092867410E-01  0.65638333211E-02  0.21428860011E-01  0.35164819560E-01  0.51100000000E-03 0.  1.
</event>
<event>
 8    1  0.1126407E+005  0.1043930E+01  0.7957747E-01            NaN
         13   -1    0    0    0    0  0.00000000000E+00  0.00000000000E+00  0.74505805969E-08  0.10566000000E+00  0.10566000000E+00 0. -1.
     999900   -1    0    0    0    0 -0.00000000000E+00 -0.00000000000E+00 -0.74505805969E-08  0.93827000000E+00  0.93827000000E+00 0. -1.
     999902    2    1    2    0    0 -0.16160862857E-01 -0.15457989410E-01  0.65298241438E-02  0.10206327571E+01  0.10203668278E+01 0.  0.
     999903    2    3    3    0    0  0.97612459430E-01  0.65401352367E-01  0.48399736170E-01  0.12864862517E+00  0.20060039150E-01 0.  0.
         14    1    1    2    0    0  0.16160862857E-01  0.15457989410E-01 -0.65298241438E-02  0.23297242932E-01  0.00000000000E+00 0. -1.
     999901    1    3    3    0    0 -0.11377332229E+00 -0.80859341777E-01 -0.41869912026E-01  0.89198413189E+00  0.88000000000E+00 0.  1.
        -11    1    4    4    0    0  0.35510779085E-01  0.23094235281E-01  0.72643341031E-02  0.42981284362E-01  0.51100000000E-03 0. -1.
         11    1    4    4    0    0  0.62101680344E-01  0.42307117086E-01  0.41135402067E-01  0.85667340812E-01  0.51100000000E-03 0.  1.
</event>
<event>
 8    1  0.1126407E+005  0.1043930E+01  0.7957747E-01            NaN
         13   -1    0    0    0    0  0.00000000000E+00  0.00000000000E+00  0.74505805969E-08  0.10566000000E+00  0.10566000000E+00 0.  1.
     999900   -1    0    0    0    0 -0.00000000000E+00 -0.00000000000E+00 -0.74505805969E-08  0.93827000000E+00  0.93827000000E+00 0. -1.
     999902    2    1    2    0    0 -0.50638799166E-02 -0.82151630131E-02  0.20943615163E-01  0.10208699306E+01  0.10206094495E+01 0.  0.
     999903    2    3    3    0    0  0.50934096281E-02 -0.64936068302E-01  0.11537978558E+00  0.13394342753E+00  0.19639528232E-01 0.  0.
         14    1    1    2    0    0  0.50638799166E-02  0.82151630131E-02 -0.20943615163E-01  0.23060069368E-01  0.00000000000E+00 0. -1.
     999901    1    3    3    0    0 -0.10157289545E-01  0.56720905289E-01 -0.94436170417E-01  0.88692650311E+00  0.88000000000E+00 0. -1.
        -11    1    4    4    0    0 -0.68627694944E-02 -0.32524039352E-01  0.51000036842E-01  0.60878367420E-01  0.51100000000E-03 0. -1.
         11    1    4    4    0    0  0.11956179122E-01 -0.32412028950E-01  0.64379748738E-01  0.73065060107E-01  0.51100000000E-03 0.  1.
</event>
<event>
 8    1  0.1126407E+005  0.1043930E+01  0.7957747E-01            NaN
         13   -1    0    0    0    0  0.00000000000E+00  0.00000000000E+00  0.74505805969E-08  0.10566000000E+00  0.10566000000E+00 0.  1.
     999900   -1    0    0    0    0 -0.00000000000E+00 -0.00000000000E+00 -0.74505805969E-08  0.93827000000E+00  0.93827000000E+00 0. -1.
     999902    2    1    2    0    0  0.43815320221E-02  0.23232232952E-01  0.51460977594E-02  0.10197346122E+01  0.10194475280E+01 0.  0.
     999903    2    3    3    0    0  0.25278611583E-01  0.94637498773E-02 -0.12529765501E+00  0.12976729158E+00  0.20284892097E-01 0.  0.
         14    1    1    2    0    0 -0.43815320221E-02 -0.23232232952E-01 -0.51460977594E-02  0.24195387844E-01  0.00000000000E+00 0. -1.
     999901    1    3    3    0    0 -0.20897079561E-01  0.13768483074E-01  0.13044375277E+00  0.88996732058E+00  0.88000000000E+00 0.  1.
        -11    1    4    4    0    0  0.49485589420E-03  0.68383413853E-02 -0.49516632176E-01  0.49991657087E-01  0.51100000000E-03 0.  1.
         11    1    4    4    0    0  0.24783755689E-01  0.26254084920E-02 -0.75781022833E-01  0.79775634491E-01  0.51100000000E-03 0. -1.
</event>
<event>
 8    1  0.1126407E+005  0.1043930E+01  0.7957747E-01            NaN
         13   -1    0    0    0    0  0.00000000000E+00  0.00000000000E+00  0.74505805969E-08  0.10566000000E+00  0.10566000000E+00 0. -1.
     999900   -1    0    0    0    0 -0.00000000000E+00 -0.00000000000E+00 -0.74505805969E-08  0.93827000000E+00  0.93827000000E+00 0.  1.
     999902    2    1    2    0    0  0.20524671971E-02 -0.17227859328E-01 -0.15748451317E-01  0.10204987073E+01  0.10202296732E+01 0.  0.
     999903    2    3    3    0    0  0.24473373816E-01 -0.88184139734E-01 -0.95532378217E-01  0.13376144871E+00  0.19756045828E-01 0.  0.
         14    1    1    2    0    0 -0.20524671971E-02  0.17227859328E-01  0.15748451317E-01  0.23431292698E-01  0.00000000000E+00 0. -1.
     999901    1    3    3    0    0 -0.22420906619E-01  0.70956280406E-01  0.79783926899E-01  0.88673725859E+00  0.88000000000E+00 0. -1.
        -11    1    4    4    0    0  0.11486286517E-01 -0.42876589221E-01 -0.32321697189E-01  0.54911655515E-01  0.51100000000E-03 0.  1.
         11    1    4    4    0    0  0.12987087299E-01 -0.45307550513E-01 -0.63210681028E-01  0.78849793195E-01  0.51100000000E-03 0. -1.
</event>
<event>
 8    1  0.1126407E+005  0.1043930E+01  0.7957747E-01            NaN
         13   -1    0    0    0    0  0.00000000000E+00  0.00000000000E+00  0.74505805969E-08  0.10566000000E+00  0.10566000000E+00 0. -1.
     999900   -1    0    0    0    0 -0.00000000000E+00 -0.00000000000E+00 -0.74505805969E-08  0.93827000000E+00  0.93827000000E+00 0. -1.
     999902    2    1    2    0    0 -0.77592842424E-02  0.98063142517E-02  0.19557185823E-01  0.10207167751E+01  0.10204527825E+01 0.  0.
     999903    2    3    3    0    0 -0.86726736520E-01  0.11447386472E-01 -0.94010991958E-01  0.12991024023E+00  0.19647758710E-01 0.  0.
         14    1    1    2    0    0  0.77592842424E-02 -0.98063142517E-02 -0.19557185823E-01  0.23213224862E-01  0.00000000000E+00 0.  1.
     999901    1    3    3    0    0  0.78967452277E-01 -0.16410722206E-02  0.11356817778E+00  0.89080653491E+00  0.88000000000E+00 0.  1.
        -11    1    4    4    0    0 -0.38730097595E-01  0.10756414243E-01 -0.31370975041E-01  0.50991372830E-01  0.51100000000E-03 0.  1.
         11    1    4    4    0    0 -0.47996638924E-01  0.69097222905E-03 -0.62640016918E-01  0.78918867396E-01  0.51100000000E-03 0. -1.
</event>
<event>
 8    1  0.1126407E+005  0.1043930E+01  0.7957747E-01            NaN
         13   -1    0    0    0    0  0.00000000000E+00  0.00000000000E+00  0.74505805969E-08  0.10566000000E+00  0.10566000000E+00 0.  1.
     999900   -1    0    0    0    0 -0.00000000000E+00 -0.00000000000E+00 -0.74505805969E-08  0.93827000000E+00  0.93827000000E+00 0. -1.
     999902    2    1    2    0    0 -0.12517473127E-01 -0.96961567255E-02 -0.20411271081E-01  0.10180974125E+01  0.10177696295E+01 0.  0.
     999903    2    3    3    0    0  0.34088330351E-01 -0.12263513091E+00 -0.14757998178E-01  0.12963848139E+00  0.19670987465E-01 0.  0.
         14    1    1    2    0    0  0.12517473127E-01  0.96961567255E-02  0.20411271081E-01  0.25832587479E-01  0.00000000000E+00 0.  1.
     999901    1    3    3    0    0 -0.46605803478E-01  0.11293897419E+00 -0.56532729031E-02  0.88845893113E+00  0.88000000000E+00 0.  1.
        -11    1    4    4    0    0  0.29377429457E-01 -0.79656947776E-01 -0.35804775943E-02  0.84978489227E-01  0.51100000000E-03 0. -1.
         11    1    4    4    0    0  0.47109008939E-02 -0.42978183134E-01 -0.11177520584E-01  0.44659992165E-01  0.51100000000E-03 0.  1.
</event>
<event>
 8    1  0.1126407E+005  0.1043930E+01  0.7957747E-01            NaN
         13   -1    0    0    0    0  0.00000000000E+00  0.00000000000E+00  0.74505805969E-08  0.10566000000E+00  0.10566000000E+00 0.  1.
     999900   -1    0    0    0    0 -0.00000000000E+00 -0.00000000000E+00 -0.74505805969E-08  0.93827000000E+00  0.93827000000E+00 0.  1.
     999902    2    1    2    0    0  0.12082410944E-01  0.60718913736E-02  0.19791051967E-01  0.10199604723E+01  0.10196787861E+01 0.  0.
     999903    2    3    3    0    0  0.14029881596E-01 -0.11938726913E+00 -0.42395646575E-01  0.12888753531E+00  0.19090529138E-01 0.  0.
         14    1    1    2    0    0 -0.12082410944E-01 -0.60718913736E-02 -0.19791051967E-01  0.23969527677E-01  0.00000000000E+00 0. -1.
     999901    1    3    3    0    0 -0.19474706520E-02  0.12545916050E+00  0.62186698542E-01  0.89107293701E+00  0.88000000000E+00 0. -1.
        -11    1    4    4    0    0  0.10779354689E-01 -0.43804417256E-01 -0.81548626092E-02  0.45845221821E-01  0.51100000000E-03 0. -1.
         11    1    4    4    0    0  0.32505269070E-02 -0.75582851874E-01 -0.34240783966E-01  0.83042313492E-01  0.51100000000E-03 0.  1.
</event>
<event>
 8    1  0.1126407E+005  0.1043930E+01  0.7957747E-01            NaN
         13   -1    0    0    0    0  0.00000000000E+00  0.00000000000E+00  0.74505805969E-08  0.10566000000E+00  0.10566000000E+00 0. -1.
     999900   -1    0    0    0    0 -0.00000000000E+00 -0.00000000000E+00 -0.74505805969E-08  0.93827000000E+00  0.93827000000E+00 0. -1.
     999902    2    1    2    0    0 -0.15926983711E-01  0.11715242565E-01  0.12629066679E-01  0.10204692020E+01  0.10201994820E+01 0.  0.
     999903    2    3    3    0    0  0.10564995235E+00 -0.67353611975E-01  0.20213099105E-01  0.12856654323E+00  0.20551525117E-01 0.  0.
         14    1    1    2    0    0  0.15926983711E-01 -0.11715242565E-01 -0.12629066679E-01  0.23460798019E-01  0.00000000000E+00 0.  1.
     999901    1    3    3    0    0 -0.12157693606E+00  0.79068854540E-01 -0.75840324263E-02  0.89190265875E+00  0.88000000000E+00 0. -1.
        -11    1    4    4    0    0  0.53795785902E-01 -0.39574948801E-01  0.20074220000E-01  0.69738071260E-01  0.51100000000E-03 0.  1.
         11    1    4    4    0    0  0.51854166449E-01 -0.27778663175E-01  0.13887910477E-03  0.58828471970E-01  0.51100000000E-03 0. -1.
</event>
<event>
 8    1  0.1126407E+005  0.1043930E+01  0.7957747E-01            NaN
         13   -1    0    0    0    0  0.00000000000E+00  0.00000000000E+00  0.74505805969E-08  0.10566000000E+00  0.10566000000E+00 0.  1.
     999900   -1    0    0    0    0 -0.00000000000E+00 -0.00000000000E+00 -0.74505805969E-08  0.93827000000E+00  0.93827000000E+00 0. -1.
     999902    2    1    2    0    0  0.16310793278E-01 -0.18302785384E-02 -0.13603377510E-01  0.10226123131E+01  0.10223900914E+01 0.  0.
     999903    2    3    3    0    0  0.36188832843E-01  0.12384179740E+00 -0.27375434214E-01  0.13335516427E+00  0.19691699562E-01 0.  0.
         14    1    1    2    0    0 -0.16310793278E-01  0.18302785384E-02  0.13603377510E-01  0.21317686942E-01  0.00000000000E+00 0.  1.
     999901    1    3    3    0    0 -0.19878039564E-01 -0.12567207594E+00  0.13772056704E-01  0.88925714879E+00  0.88000000000E+00 0. -1.
        -11    1    4    4    0    0 -0.11163200271E-02  0.20495077233E-01 -0.23448616625E-02  0.20665281474E-01  0.51100000000E-03 0.  1.
         11    1    4    4    0    0  0.37305152870E-01  0.10334672017E+00 -0.25030572551E-01  0.11268988279E+00  0.51100000000E-03 0. -1.
</event>
<event>
 8    1  0.1126407E+005  0.1043930E+01  0.7957747E-01            NaN
         13   -1    0    0    0    0  0.00000000000E+00  0.00000000000E+00  0.74505805969E-08  0.10566000000E+00  0.10566000000E+00 0.  1.
     999900   -1    0    0    0    0 -0.00000000000E+00 -0.00000000000E+00 -0.74505805969E-08  0.93827000000E+00  0.93827000000E+00 0. -1.
     999902    2    1    2    0    0 -0.74421927271E-02  0.11292962228E-01  0.19261201459E-01  0.10203946838E+01  0.10201232276E+01 0.  0.
     999903    2    3    3    0    0  0.23230000041E-01  0.73859528678E-01  0.10645583236E+00  0.13334436823E+00  0.21284111786E-01 0.  0.
         14    1    1    2    0    0  0.74421927271E-02 -0.11292962228E-01 -0.19261201459E-01  0.23535316231E-01  0.00000000000E+00 0. -1.
     999901    1    3    3    0    0 -0.30672192768E-01 -0.62566566451E-01 -0.87194630906E-01  0.88705031554E+00  0.88000000000E+00 0. -1.
        -11    1    4    4    0    0 -0.13229512161E-02  0.17139972361E-01  0.34038879810E-01  0.38137059564E-01  0.51100000000E-03 0. -1.
         11    1    4    4    0    0  0.24552951257E-01  0.56719556318E-01  0.72416952554E-01  0.95207308662E-01  0.51100000000E-03 0.  1.
</event>
<event>
 8    1  0.1126407E+005  0.1043930E+01  0.7957747E-01            NaN
         13   -1    0    0    0    0  0.00000000000E+00  0.00000000000E+00  0.74505805969E-08  0.10566000000E+00  0.10566000000E+00 0.  1.
     999900   -1    0    0    0    0 -0.00000000000E+00 -0.00000000000E+00 -0.74505805969E-08  0.93827000000E+00  0.93827000000E+00 0.  1.
     999902    2    1    2    0    0 -0.18218745174E-02  0.20747877963E-01 -0.11529890977E-01  0.10201238652E+01  0.10198460513E+01 0.  0.
     999903    2    3    3    0    0 -0.75563887123E-01  0.89396655570E-01  0.57128363724E-01  0.13171827372E+00  0.19605882420E-01 0.  0.
         14    1    1    2    0    0  0.18218745174E-02 -0.20747877963E-01  0.11529890977E-01  0.23806134770E-01  0.00000000000E+00 0.  1.
     999901    1    3    3    0    0  0.73742012606E-01 -0.68648777606E-01 -0.68658254701E-01  0.88840559151E+00  0.88000000000E+00 0.  1.
        -11    1    4    4    0    0 -0.69918149206E-01  0.77651318130E-01  0.56192657025E-01  0.11864295436E+00  0.51100000000E-03 0. -1.
         11    1    4    4    0    0 -0.56457379166E-02  0.11745337440E-01  0.93570669937E-03  0.13075319355E-01  0.51100000000E-03 0.  1.
</event>
<event>
 8    1  0.1126407E+005  0.1043930E+01  0.7957747E-01            NaN
         13   -1    0    0    0    0  0.00000000000E+00  0.00000000000E+00  0.74505805969E-08  0.10566000000E+00  0.10566000000E+00 0. -1.
     999900   -1    0    0    0    0 -0.00000000000E+00 -0.00000000000E+00 -0.74505805969E-08  0.93827000000E+00  0.93827000000E+00 0. -1.
     999902    2    1    2    0    0  0.67209653340E-02  0.12132823949E-01 -0.19226854237E-01  0.10202224334E+01  0.10199469422E+01 0.  0.
     999903    2    3    3    0    0  0.61458737547E-01  0.81329492106E-01  0.78641283792E-01  0.13041201814E+00  0.20764880275E-01 0.  0.
         14    1    1    2    0    0 -0.67209653340E-02 -0.12132823949E-01  0.19226854237E-01  0.23707566637E-01  0.00000000000E+00 0. -1.
     999901    1    3    3    0    0 -0.54737772213E-01 -0.69196668156E-01 -0.97868138029E-01  0.88981041522E+00  0.88000000000E+00 0. -1.
        -11    1    4    4    0    0  0.45432318358E-01  0.46107486248E-01  0.42329029660E-01  0.77343414150E-01  0.51100000000E-03 0.  1.
         11    1    4    4    0    0  0.16026419189E-01  0.35222005858E-01  0.36312254132E-01  0.53068603994E-01  0.51100000000E-03 0. -1.
</event>
<event>
 8    1  0.1126407E+005  0.1043930E+01  0.7957747E-01            NaN
         13   -1    0    0    0    0  0.00000000000E+00  0.00000000000E+00  0.74505805969E-08  0.10566000000E+00  0.10566000000E+00 0. -1.
     999900   -1    0    0    0    0 -0.00000000000E+00 -0.00000000000E+00 -0.74505805969E-08  0.93827000000E+00  0.93827000000E+00 0. -1.
     999902    2    1    2    0    0  0.38394494969E-02 -0.59640424717E-03  0.23173468200E-01  0.10204330492E+01  0.10201624876E+01 0.  0.
     999903    2    3    3    0    0 -0.12606972172E+00 -0.21680543686E-01 -0.10042864583E-01  0.13002625535E+00  0.21032052718E-01 0.  0.
         14    1    1    2    0    0 -0.38394494969E-02  0.59640424717E-03 -0.23173468200E-01  0.23496950842E-01  0.00000000000E+00 0.  1.
     999901    1    3    3    0    0  0.12990917122E+00  0.21084139439E-01  0.33216332784E-01  0.89040679381E+00  0.88000000000E+00 0. -1.
        -11    1    4    4    0    0 -0.60756826690E-01 -0.20867635882E-01 -0.71949757410E-02  0.64644249657E-01  0.51100000000E-03 0.  1.
         11    1    4    4    0    0 -0.65312895029E-01 -0.81290780381E-03 -0.28478888424E-02  0.65382005690E-01  0.51100000000E-03 0. -1.
</event>
<event>
 8    1  0.1126407E+005  0.1043930E+01  0.7957747E-01            NaN
         13   -1    0    0    0    0  0.00000000000E+00  0.00000000000E+00  0.74505805969E-08  0.10566000000E+00  0.10566000000E+00 0. -1.
     999900   -1    0    0    0    0 -0.00000000000E+00 -0.00000000000E+00 -0.74505805969E-08  0.93827000000E+00  0.93827000000E+00 0.  1.
     999902    2    1    2    0    0  0.18689306913E-01 -0.12843493544E-01  0.70282846072E-02  0.10201888479E+01  0.10199125664E+01 0.  0.
     999903    2    3    3    0    0  0.12460846640E+00 -0.23883027142E-01 -0.33948016421E-01  0.13282207090E+00  0.19788022040E-01 0.  0.
         14    1    1    2    0    0 -0.18689306913E-01  0.12843493544E-01 -0.70282846072E-02  0.23741152117E-01  0.00000000000E+00 0.  1.
     999901    1    3    3    0    0 -0.10591915948E+00  0.11039533598E-01  0.40976301029E-01  0.88736677698E+00  0.88000000000E+00 0.  1.
        -11    1    4    4    0    0  0.70729263611E-01 -0.21024038655E-01 -0.26243113177E-01  0.78317309980E-01  0.51100000000E-03 0.  1.
         11    1    4    4    0    0  0.53879202785E-01 -0.28589884866E-02 -0.77049032439E-02  0.54504760920E-01  0.51100000000E-03 0. -1.
</event>
<event>
 8    1  0.1126407E+005  0.1043930E+01  0.7957747E-01            NaN
         13   -1    0    0    0    0  0.00000000000E+00  0.00000000000E+00  0.74505805969E-08  0.10566000000E+00  0.10566000000E+00 0. -1.
     999900   -1    0    0    0    0 -0.00000000000E+00 -0.00000000000E+00 -0.74505805969E-08  0.93827000000E+00  0.93827000000E+00 0.  1.
     999902    2    1    2    0    0  0.54648457637E-02  0.55374959458E-02  0.22629145024E-01  0.10200008002E+01  0.10197200722E+01 0.  0.
     999903    2    3    3    0    0 -0.11758225869E-01  0.69407843903E-01 -0.10535223545E+00  0.12828599749E+00  0.20062376928E-01 0.  0.
         14    1    1    2    0    0 -0.54648457637E-02 -0.55374959458E-02 -0.22629145024E-01  0.23929199842E-01  0.00000000000E+00 0.  1.
     999901    1    3    3    0    0  0.17223071632E-01 -0.63870347957E-01  0.12798138047E+00  0.89171480267E+00  0.88000000000E+00 0. -1.
        -11    1    4    4    0    0 -0.85440046830E-02  0.20951876118E-01 -0.48456944163E-01  0.53481937956E-01  0.51100000000E-03 0.  1.
         11    1    4    4    0    0 -0.32142211856E-02  0.48455967785E-01 -0.56895291285E-01  0.74804059537E-01  0.51100000000E-03 0. -1.
</event>
<event>
 8    1  0.1126407E+005  0.1043930E+01  0.7957747E-01            NaN
         13   -1    0    0    0    0  0.00000000000E+00  0.00000000000E+00  0.74505805969E-08  0.10566000000E+00  0.10566000000E+00 0. -1.
     999900   -1    0    0    0    0 -0.00000000000E+00 -0.00000000000E+00 -0.74505805969E-08  0.93827000000E+00  0.93827000000E+00 0. -1.
     999902    2    1    2    0    0 -0.28765866323E-01 -0.34709108903E-02  0.83766754835E-03  0.10149433828E+01  0.10145293719E+01 0.  0.
     999903    2    3    3    0    0 -0.51629553681E-01  0.11176143049E+00  0.23806511759E-01  0.12683933009E+00  0.19111187763E-01 0.  0.
         14    1    1    2    0    0  0.28765866323E-01  0.34709108903E-02 -0.83766754835E-03  0.28986617165E-01  0.00000000000E+00 0. -1.
     999901    1    3    3    0    0  0.22863687358E-01 -0.11523234138E+00 -0.22968844211E-01  0.88810405275E+00  0.88000000000E+00 0. -1.
        -11    1    4    4    0    0 -0.46648131499E-01  0.92590176350E-01  0.26041950245E-01  0.10689917316E+00  0.51100000000E-03 0. -1.
         11    1    4    4    0    0 -0.49814221828E-02  0.19171254136E-01 -0.22354384860E-02  0.19940156929E-01  0.51100000000E-03 0.  1.
</event>
<event>
 8    1  0.1126407E+005  0.1043930E+01  0.7957747E-01            NaN
         13   -1    0    0    0    0  0.00000000000E+00  0.00000000000E+00  0.74505805969E-08  0.10566000000E+00  0.10566000000E+00 0.  1.
     999900   -1    0    0    0    0 -0.00000000000E+00 -0.00000000000E+00 -0.74505805969E-08  0.93827000000E+00  0.93827000000E+00 0.  1.
     999902    2    1    2    0    0 -0.67961683346E-02  0.21688254642E-01  0.14504328000E-01  0.10169681042E+01  0.10166106340E+01 0.  0.
     999903    2    3    3    0    0 -0.11168961838E+00 -0.27900276111E-01 -0.49781421840E-01  0.12702747930E+00  0.20119499891E-01 0.  0.
         14    1    1    2    0    0  0.67961683346E-02 -0.21688254642E-01 -0.14504328000E-01  0.26961895782E-01  0.00000000000E+00 0. -1.
     999901    1    3    3    0    0  0.10489345005E+00  0.49588530753E-01  0.64285749840E-01  0.88994062492E+00  0.88000000000E+00 0.  1.
        -11    1    4    4    0    0 -0.65975456296E-01 -0.62557256486E-02 -0.29106467394E-01  0.72383302647E-01  0.51100000000E-03 0. -1.
         11    1    4    4    0    0 -0.45714162085E-01 -0.21644550462E-01 -0.20674954446E-01  0.54644176654E-01  0.51100000000E-03 0.  1.
</event>
<event>
 8    1  0.1126407E+005  0.1043930E+01  0.7957747E-01            NaN
         13   -1    0    0    0    0  0.00000000000E+00  0.00000000000E+00  0.74505805969E-08  0.10566000000E+00  0.10566000000E+00 0.  1.
     999900   -1    0    0    0    0 -0.00000000000E+00 -0.00000000000E+00 -0.74505805969E-08  0.93827000000E+00  0.93827000000E+00 0. -1.
     999902    2    1    2    0    0 -0.45293174294E-02  0.10486060175E-01 -0.20035713267E-01  0.10208669998E+01  0.10206064517E+01 0.  0.
     999903    2    3    3    0    0 -0.10625534256E+00  0.21546525996E-01  0.69113539217E-01  0.13046366007E+00  0.22127690581E-01 0.  0.
         14    1    1    2    0    0  0.45293174294E-02 -0.10486060175E-01  0.20035713267E-01  0.23063000249E-01  0.00000000000E+00 0.  1.
     999901    1    3    3    0    0  0.10172602513E+00 -0.11060465821E-01 -0.89149252485E-01  0.89040333968E+00  0.88000000000E+00 0. -1.
        -11    1    4    4    0    0 -0.34533239522E-01  0.13061414940E-02  0.32451005061E-01  0.47408643600E-01  0.51100000000E-03 0. -1.
         11    1    4    4    0    0 -0.71722103041E-01  0.20240384502E-01  0.36662534157E-01  0.83055016472E-01  0.51100000000E-03 0.  1.
</event>
<event>
 8    1  0.1126407E+005  0.1043930E+01  0.7957747E-01            NaN
         13   -1    0    0    0    0  0.00000000000E+00  0.00000000000E+00  0.74505805969E-08  0.10566000000E+00  0.10566000000E+00 0. -1.
     999900   -1    0    0    0    0 -0.00000000000E+00 -0.00000000000E+00 -0.74505805969E-08  0.93827000000E+00  0.93827000000E+00 0. -1.
     999902    2    1    2    0    0 -0.99006493913E-02 -0.23813551800E-02  0.20300800893E-01  0.10212184120E+01  0.10209658314E+01 0.  0.
     999903    2    3    3    0    0 -0.62460584095E-02 -0.12249383689E+00  0.46408968640E-01  0.13266790660E+00  0.20080531593E-01 0.  0.
         14    1    1    2    0    0  0.99006493913E-02  0.23813551800E-02 -0.20300800893E-01  0.22711587962E-01  0.00000000000E+00 0.  1.
     999901    1    3    3    0    0 -0.36545909818E-02  0.12011248171E+00 -0.26108167746E-01  0.88855050544E+00  0.88000000000E+00 0.  1.
        -11    1    4    4    0    0 -0.10319255818E-01 -0.37584387971E-01  0.18899973928E-01  0.43319088117E-01  0.51100000000E-03 0.  1.
         11    1    4    4    0    0  0.40731974084E-02 -0.84909448917E-01  0.27508994712E-01  0.89348818479E-01  0.51100000000E-03 0. -1.
</event>
<event>
 8    1  0.1126407E+005  0.1043930E+01  0.7957747E-01            NaN
         13   -1    0    0    0    0  0.00000000000E+00  0.00000000000E+00  0.74505805969E-08  0.10566000000E+00  0.10566000000E+00 0.  1.
     999900   -1    0    0    0    0 -0.00000000000E+00 -0.00000000000E+00 -0.74505805969E-08  0.93827000000E+00  0.93827000000E+00 0. -1.
     999902    2    1    2    0    0 -0.10217261414E-01 -0.21363847747E-01 -0.32499634358E-02  0.10200266805E+01  0.10197465667E+01 0.  0.
     999903    2    3    3    0    0  0.35792633190E-01  0.11828309904E+00 -0.24432845015E-01  0.12757674093E+00  0.20170691640E-01 0.  0.
         14    1    1    2    0    0  0.10217261414E-01  0.21363847747E-01  0.32499634358E-02  0.23903319512E-01  0.00000000000E+00 0.  1.
     999901    1    3    3    0    0 -0.46009894605E-01 -0.13964694679E+00  0.21182881579E-01  0.89244993956E+00  0.88000000000E+00 0.  1.
        -11    1    4    4    0    0  0.19694376395E-01  0.63457304322E-01 -0.28895537340E-02  0.66507958736E-01  0.51100000000E-03 0. -1.
         11    1    4    4    0    0  0.16098256795E-01  0.54825794717E-01 -0.21543291281E-01  0.61068782192E-01  0.51100000000E-03 0.  1.
</event>
<event>
 8    1  0.1126407E+005  0.1043930E+01  0.7957747E-01            NaN
         13   -1    0    0    0    0  0.00000000000E+00  0.00000000000E+00  0.74505805969E-08  0.10566000000E+00  0.10566000000E+00 0.  1.
     999900   -1    0    0    0    0 -0.00000000000E+00 -0.00000000000E+00 -0.74505805969E-08  0.93827000000E+00  0.93827000000E+00 0.  1.
     999902    2    1    2    0    0 -0.17768010095E-01 -0.14810870318E-01  0.33563928492E-02  0.10205563089E+01  0.10202886112E+01 0.  0.
     999903    2    3    3    0    0  0.59301055091E-01 -0.15195888198E-01  0.11313035214E+00  0.13039334002E+00  0.21363903973E-01 0.  0.
         14    1    1    2    0    0  0.17768010095E-01  0.14810870318E-01 -0.33563928492E-02  0.23373691092E-01  0.00000000000E+00 0. -1.
     999901    1    3    3    0    0 -0.77069065186E-01  0.38501787999E-03 -0.10977395929E+00  0.89016296889E+00  0.88000000000E+00 0.  1.
        -11    1    4    4    0    0  0.19125057562E-01 -0.14809343975E-01  0.50253296041E-01  0.55774002722E-01  0.51100000000E-03 0. -1.
         11    1    4    4    0    0  0.40175997529E-01 -0.38654422341E-03  0.62877056096E-01  0.74619337294E-01  0.51100000000E-03 0.  1.
</event>
<event>
 8    1  0.1126407E+005  0.1043930E+01  0.7957747E-01            NaN
         13   -1    0    0    0    0  0.00000000000E+00  0.00000000000E+00  0.74505805969E-08  0.10566000000E+00  0.10566000000E+00 0. -1.
     999900   -1    0    0    0    0 -0.00000000000E+00 -0.00000000000E+00 -0.74505805969E-08  0.93827000000E+00  0.93827000000E+00 0. -1.
     999902    2    1    2    0    0 -0.19473833531E-01  0.15494097133E-01  0.47864748321E-02  0.10185881852E+01  0.10182728924E+01 0.  0.
     999903    2    3    3    0    0 -0.25645152986E-01 -0.11753627288E+00 -0.37799047430E-01  0.12755019986E+00  0.19179055837E-01 0.  0.
         14    1    1    2    0    0  0.19473833531E-01 -0.15494097133E-01 -0.47864748321E-02  0.25341814846E-01  0.00000000000E+00 0.  1.
     999901    1    3    3    0    0  0.61713194550E-02  0.13303037002E+00  0.42585522262E-01  0.89103798529E+00  0.88000000000E+00 0. -1.
        -11    1    4    4    0    0 -0.82506219313E-02 -0.73109417111E-01 -0.28712003900E-01  0.78979110665E-01  0.51100000000E-03 0. -1.
         11    1    4    4    0    0 -0.17394531055E-01 -0.44426855772E-01 -0.90870435293E-02  0.48571089194E-01  0.51100000000E-03 0.  1.
</event>
<event>
 8    1  0.1126407E+005  0.1043930E+01  0.7957747E-01            NaN
         13   -1    0    0    0    0  0.00000000000E+00  0.00000000000E+00  0.74505805969E-08  0.10566000000E+00  0.10566000000E+00 0. -1.
     999900   -1    0    0    0    0 -0.00000000000E+00 -0.00000000000E+00 -0.74505805969E-08  0.93827000000E+00  0.93827000000E+00 0. -1.
     999902    2    1    2    0    0  0.27624653653E-02  0.23232856883E-01  0.60636583722E-02  0.10197604984E+01  0.10194740356E+01 0.  0.
     999903    2    3    3    0    0 -0.44050573535E-01  0.11493965701E+00  0.45581479356E-01  0.13287648347E+00  0.20661820270E-01 0.  0.
         14    1    1    2    0    0 -0.27624653653E-02 -0.23232856883E-01 -0.60636583722E-02  0.24169501581E-01  0.00000000000E+00 0.  1.
     999901    1    3    3    0    0  0.46813038900E-01 -0.91706800125E-01 -0.39517820984E-01  0.88688401495E+00  0.88000000000E+00 0. -1.
        -11    1    4    4    0    0 -0.13791693289E-01  0.63329573444E-01  0.27156348345E-01  0.70274988814E-01  0.51100000000E-03 0. -1.
         11    1    4    4    0    0 -0.30258880246E-01  0.51610083563E-01  0.18425131011E-01  0.62601494654E-01  0.51100000000E-03 0.  1.
</event>
<event>
 7    1  0.1126407E+005  0.1043930E+01  0.7957747E-01            NaN
         13   -1    0    0    0    0  0.00000000000E+00  0.00000000000E+00  0.74505805969E-08  0.10566000000E+00  0.10566000000E+00 0. -1.
     999900   -1    0    0    0    0 -0.00000000000E+00 -0.00000000000E+00 -0.74505805969E-08  0.93827000000E+00  0.93827000000E+00 0. -1.
     999902    2    1    2    0    0  0.16885911244E-01  0.12909478381E-01  0.10354190304E-01  0.10202868638E+01  0.10200128855E+01 0.  0.
         14    1    1    2    0    0 -0.16885911244E-01 -0.12909478381E-01 -0.10354190304E-01  0.23643136160E-01  0.00000000000E+00 0.  1.
     999901    1    3    3    0    0  0.14583358686E-01  0.13324406428E+00 -0.20905651852E-01  0.89039525004E+00  0.88000000000E+00 0.  1.
        -11    1    3    3    0    0 -0.17581970339E-01 -0.54209530311E-01  0.15551208258E-01  0.59075376061E-01  0.51100000000E-03 0. -1.
         11    1    3    3    0    0  0.19884522898E-01 -0.66125055588E-01  0.15708633898E-01  0.70816237738E-01  0.51100000000E-03 0.  1.
</event>
<event>
 7    1  0.1126407E+005  0.1043930E+01  0.7957747E-01            NaN
         13   -1    0    0    0    0  0.00000000000E+00  0.00000000000E+00  0.74505805969E-08  0.10566000000E+00  0.10566000000E+00 0. -1.
     999900   -1    0    0    0    0 -0.00000000000E+00 -0.00000000000E+00 -0.74505805969E-08  0.93827000000E+00  0.93827000000E+00 0. -1.
     999903    2    1    2    0    0 -0.31031768432E-02 -0.11520217617E+00  0.22682194141E-01  0.11881541910E+00  0.17929048604E-01 0.  0.
         14    1    1    2    0    0 -0.12447684823E-01  0.32952812843E-01 -0.21254903138E-01  0.41141264432E-01  0.00000000000E+00 0.  1.
     999901    1    1    2    0    0  0.15550861666E-01  0.82249363328E-01 -0.14272910034E-02  0.88397331647E+00  0.88000000000E+00 0.  1.
        -11    1    3    3    0    0 -0.77816693492E-02 -0.33334171479E-01  0.22670033045E-02  0.34309208546E-01  0.51100000000E-03 0.  1.
         11    1    3    3    0    0  0.46784925060E-02 -0.81868004692E-01  0.20415190837E-01  0.84506210554E-01  0.51100000000E-03 0. -1.
</event>
<event>
 8    1  0.1126407E+005  0.1043930E+01  0.7957747E-01            NaN
         13   -1    0    0    0    0  0.00000000000E+00  0.00000000000E+00  0.74505805969E-08  0.10566000000E+00  0.10566000000E+00 0. -1.
     999900   -1    0    0    0    0 -0.00000000000E+00 -0.00000000000E+00 -0.74505805969E-08  0.93827000000E+00  0.93827000000E+00 0.  1.
     999902    2    1    2    0    0  0.41061567090E-02  0.12680951281E-01  0.22537360776E-01  0.10177460416E+01  0.10174091632E+01 0.  0.
     999903    2    3    3    0    0  0.83714064805E-01  0.92344507129E-01 -0.28063977634E-01  0.12912677742E+00  0.18723919577E-01 0.  0.
         14    1    1    2    0    0 -0.41061567090E-02 -0.12680951281E-01 -0.22537360776E-01  0.26183958430E-01  0.00000000000E+00 0.  1.
     999901    1    3    3    0    0 -0.79607908096E-01 -0.79663555847E-01  0.50601338410E-01  0.88861926415E+00  0.88000000000E+00 0. -1.
        -11    1    4    4    0    0  0.55678853617E-01  0.50575122095E-01 -0.11102416765E-01  0.76036192002E-01  0.51100000000E-03 0.  1.
         11    1    4    4    0    0  0.28035211188E-01  0.41769385034E-01 -0.16961560869E-01  0.53090585423E-01  0.51100000000E-03 0. -1.
</event>
<event>
 8    1  0.1126407E+005  0.1043930E+01  0.7957747E-01            NaN
         13   -1    0    0    0    0  0.00000000000E+00  0.00000000000E+00  0.74505805969E-08  0.10566000000E+00  0.10566000000E+00 0. -1.
     999900   -1    0    0    0    0 -0.00000000000E+00 -0.00000000000E+00 -0.74505805969E-08  0.93827000000E+00  0.93827000000E+00 0.  1.
     999902    2    1    2    0    0 -0.71061612616E-02 -0.19938425063E-01  0.68616155490E-02  0.10216787059E+01  0.10214363700E+01 0.  0.
     999903    2    3    3    0    0  0.68145032704E-01 -0.83721910605E-01 -0.74081547228E-01  0.13247520228E+00  0.20211377539E-01 0.  0.
         14    1    1    2    0    0  0.71061612616E-02  0.19938425063E-01 -0.68616155490E-02  0.22251294115E-01  0.00000000000E+00 0.  1.
     999901    1    3    3    0    0 -0.75251193966E-01  0.63783485542E-01  0.80943162777E-01  0.88920350360E+00  0.88000000000E+00 0. -1.
        -11    1    4    4    0    0  0.49981513833E-01 -0.73298175884E-01 -0.57067874910E-01  0.10548828267E+00  0.51100000000E-03 0.  1.
         11    1    4    4    0    0  0.18163518871E-01 -0.10423734720E-01 -0.17013672318E-01  0.26986919610E-01  0.51100000000E-03 0. -1.
</event>
<event>
 8    1  0.1126407E+005  0.1043930E+01  0.7957747E-01            NaN
         13   -1    0    0    0    0  0.00000000000E+00  0.00000000000E+00  0.74505805969E-08  0.10566000000E+00  0.10566000000E+00 0.  1.
     999900   -1    0    0    0    0 -0.00000000000E+00 -0.00000000000E+00 -0.74505805969E-08  0.93827000000E+00  0.93827000000E+00 0.  1.
     999902    2    1    2    0    0  0.11640635338E-01 -0.19515707870E-01  0.12923755514E-01  0.10177882575E+01  0.10174524787E+01 0.  0.
     999903    2    3    3    0    0  0.12387976773E+00 -0.16038241018E-01 -0.28615897459E-01  0.12968057349E+00  0.19868556185E-01 0.  0.
         14    1    1    2    0    0 -0.11640635338E-01  0.19515707870E-01 -0.12923755514E-01  0.26141742508E-01  0.00000000000E+00 0. -1.
     999901    1    3    3    0    0 -0.11223913239E+00 -0.34774668528E-02  0.41539652973E-01  0.88810768400E+00  0.88000000000E+00 0. -1.
        -11    1    4    4    0    0  0.68274123448E-01 -0.18241046076E-01 -0.19257953855E-01  0.73247673016E-01  0.51100000000E-03 0. -1.
         11    1    4    4    0    0  0.55605644284E-01  0.22028050587E-02 -0.93579436041E-02  0.56432900473E-01  0.51100000000E-03 0.  1.
</event>
<event>
 8    1  0.1126407E+005  0.1043930E+01  0.7957747E-01            NaN
         13   -1    0    0    0    0  0.00000000000E+00  0.00000000000E+00  0.74505805969E-08  0.10566000000E+00  0.10566000000E+00 0. -1.
     999900   -1    0    0    0    0 -0.00000000000E+00 -0.00000000000E+00 -0.74505805969E-08  0.93827000000E+00  0.93827000000E+00 0. -1.
     999902    2    1    2    0    0 -0.19485782711E-01 -0.13175830037E-01  0.13514103884E-02  0.10203689191E+01  0.10200968613E+01 0.  0.
     999903    2    3    3    0    0  0.11253570319E+00  0.24781061784E-01  0.52151692801E-01  0.12826406700E+00  0.21295217898E-01 0.  0.
         14    1    1    2    0    0  0.19485782711E-01  0.13175830037E-01 -0.13514103884E-02  0.23561080940E-01  0.00000000000E+00 0.  1.
     999901    1    3    3    0    0 -0.13202148590E+00 -0.37956891822E-01 -0.50800282413E-01  0.89210485206E+00  0.88000000000E+00 0. -1.
        -11    1    4    4    0    0  0.32803480078E-01  0.11073271743E-01  0.25786681866E-01  0.43172905103E-01  0.51100000000E-03 0.  1.
         11    1    4    4    0    0  0.79732223113E-01  0.13707790041E-01  0.26365010935E-01  0.85091161897E-01  0.51100000000E-03 0. -1.
</event>
<event>
 8    1  0.1126407E+005  0.1043930E+01  0.7957747E-01            NaN
         13   -1    0    0    0    0  0.00000000000E+00  0.00000000000E+00  0.74505805969E-08  0.10566000000E+00  0.10566000000E+00 0. -1.
     999900   -1    0    0    0    0 -0.00000000000E+00 -0.00000000000E+00 -0.74505805969E-08  0.93827000000E+00  0.93827000000E+00 0.  1.
     999902    2    1    2    0    0  0.97086719052E-03 -0.22665725427E-01  0.17805943553E-02  0.10211737216E+01  0.10209201347E+01 0.  0.
     999903    2    3    3    0    0  0.30331222255E-01  0.21158916903E-01 -0.12441071432E+00  0.13060824047E+00  0.14587797362E-01 0.  0.
         14    1    1    2    0    0 -0.97086719052E-03  0.22665725427E-01 -0.17805943553E-02  0.22756278442E-01  0.00000000000E+00 0.  1.
     999901    1    3    3    0    0 -0.29360355064E-01 -0.43824642330E-01  0.12619130868E+00  0.89056548109E+00  0.88000000000E+00 0. -1.
        -11    1    4    4    0    0  0.27057959818E-01  0.23380324618E-01 -0.11240316419E+00  0.11795552217E+00  0.51100000000E-03 0. -1.
         11    1    4    4    0    0  0.32732624365E-02 -0.22214077149E-02 -0.12007550133E-01  0.12652718301E-01  0.51100000000E-03 0.  1.
</event>
<event>
 8    1  0.1126407E+005  0.1043930E+01  0.7957747E-01            NaN
         13   -1    0    0    0    0  0.00000000000E+00  0.00000000000E+00  0.74505805969E-08  0.10566000000E+00  0.10566000000E+00 0. -1.
     999900   -1    0    0    0    0 -0.00000000000E+00 -0.00000000000E+00 -0.74505805969E-08  0.93827000000E+00  0.93827000000E+00 0. -1.
     999902    2    1    2    0    0 -0.21243191993E-01 -0.38196597061E-02  0.97678896125E-02  0.10202387638E+01  0.10199636564E+01 0.  0.
     999903    2    3    3    0    0  0.95925298318E-03  0.14358041312E-01  0.12896422718E+00  0.13173938602E+00  0.22724885509E-01 0.  0.
         14    1    1    2    0    0  0.21243191993E-01  0.38196597061E-02 -0.97678896125E-02  0.23691236224E-01  0.00000000000E+00 0.  1.
     999901    1    3    3    0    0 -0.22202444976E-01 -0.18177701018E-01 -0.11919633757E+00  0.88849937775E+00  0.88000000000E+00 0. -1.
        -11    1    4    4    0    0 -0.80594290112E-03  0.18793076991E-01  0.67083164943E-01  0.69672386399E-01  0.51100000000E-03 0.  1.
         11    1    4    4    0    0  0.17651958843E-02 -0.44350356784E-02  0.61881062236E-01  0.62066999625E-01  0.51100000000E-03 0. -1.
</event>
<event>
 8    1  0.1126407E+005  0.1043930E+01  0.7957747E-01            NaN
         13   -1    0    0    0    0  0.00000000000E+00  0.00000000000E+00  0.74505805969E-08  0.10566000000E+00  0.10566000000E+00 0. -1.
     999900   -1    0    0    0    0 -0.00000000000E+00 -0.00000000000E+00 -0.74505805969E-08  0.93827000000E+00  0.93827000000E+00 0.  1.
     999902    2    1    2    0    0 -0.17793853351E-01  0.26026567313E-02  0.16689386227E-01  0.10193957250E+01  0.10191004432E+01 0.  0.
     999903    2    3    3    0    0  0.12037392079E+00 -0.36388219053E-01 -0.82741278864E-02  0.12741265380E+00  0.18749396306E-01 0.  0.
         14    1    1    2    0    0  0.17793853351E-01 -0.26026567313E-02 -0.16689386227E-01  0.24534275040E-01  0.00000000000E+00 0.  1.
     999901    1    3    3    0    0 -0.13816777414E+00  0.38990875784E-01  0.24963514113E-01  0.89198307116E+00  0.88000000000E+00 0. -1.
        -11    1    4    4    0    0  0.32628161167E-01 -0.31813807321E-02 -0.72876417827E-02  0.33587035121E-01  0.51100000000E-03 0.  1.
         11    1    4    4    0    0  0.87745759627E-01 -0.33206838321E-01 -0.98648610374E-03  0.93825618674E-01  0.51100000000E-03 0. -1.
</event>
<event>
 8    1  0.1126407E+005  0.1043930E+01  0.7957747E-01            NaN
         13   -1    0    0    0    0  0.00000000000E+00  0.00000000000E+00  0.74505805969E-08  0.10566000000E+00  0.10566000000E+00 0.  1.
     999900   -1    0    0    0    0 -0.00000000000E+00 -0.00000000000E+00 -0.74505805969E-08  0.93827000000E+00  0.93827000000E+00 0. -1.
     999902    2    1    2    0    0  0.59725871670E-02 -0.10689216784E-01  0.19283561047E-01  0.10210873452E+01  0.10208318077E+01 0.  0.
     999903    2    3    3    0    0  0.10611162749E+00  0.34994257198E-01  0.68983955164E-01  0.13283910489E+00  0.20078998778E-01 0.  0.
         14    1    1    2    0    0 -0.59725871670E-02  0.10689216784E-01 -0.19283561047E-01  0.22842654827E-01  0.00000000000E+00 0. -1.
     999901    1    3    3    0    0 -0.10013904032E+00 -0.45683473982E-01 -0.49700394118E-01  0.88824824028E+00  0.88000000000E+00 0. -1.
        -11    1    4    4    0    0  0.79783689890E-01  0.20979565495E-01  0.58841431196E-01  0.10133190261E+00  0.51100000000E-03 0.  1.
         11    1    4    4    0    0  0.26327937601E-01  0.14014691703E-01  0.10142523968E-01  0.31507202276E-01  0.51100000000E-03 0. -1.
</event>
<event>
 8    1  0.1126407E+005  0.1043930E+01  0.7957747E-01            NaN
         13   -1    0    0    0    0  0.00000000000E+00  0.00000000000E+00  0.74505805969E-08  0.10566000000E+00  0.10566000000E+00 0. -1.
     999900   -1    0    0    0    0 -0.00000000000E+00 -0.00000000000E+00 -0.74505805969E-08  0.93827000000E+00  0.93827000000E+00 0. -1.
     999902    2    1    2    0    0 -0.14827596364E-01 -0.31204570271E-02 -0.16683764015E-01  0.10213924126E+01  0.10211437301E+01 0.  0.
     999903    2    3    3    0    0  0.94384469785E-01 -0.61044636327E-01 -0.65550548389E-01  0.13140901465E+00  0.18346088846E-01 0.  0.
         14    1    1    2    0    0  0.14827596364E-01  0.31204570271E-02  0.16683764015E-01  0.22537587442E-01  0.00000000000E+00 0. -1.
     999901    1    3    3    0    0 -0.10921206615E+00  0.57924179300E-01  0.48866784374E-01  0.88998339791E+00  0.88000000000E+00 0.  1.
        -11    1    4    4    0    0  0.61517248411E-01 -0.29543691113E-01 -0.36370898689E-01  0.77332431289E-01  0.51100000000E-03 0. -1.
         11    1    4    4    0    0  0.32867221374E-01 -0.31500945214E-01 -0.29179649700E-01  0.54076583359E-01  0.51100000000E-03 0.  1.
</event>
<event>
 8    1  0.1126407E+005  0.1043930E+01  0.7957747E-01            NaN
         13   -1    0    0    0    0  0.00000000000E+00  0.00000000000E+00  0.74505805969E-08  0.10566000000E+00  0.10566000000E+00 0.  1.
     999900   -1    0    0    0    0 -0.00000000000E+00 -0.00000000000E+00 -0.74505805969E-08  0.93827000000E+00  0.93827000000E+00 0.  1.
     999902    2    1    2    0    0  0.56116411018E-03 -0.28041921234E-01  0.15732525386E-01  0.10117713836E+01  0.10112601822E+01 0.  0.
     999903    2    3    3    0    0 -0.97909567311E-01 -0.17933120989E-01 -0.67151467101E-01  0.12235110671E+00  0.23507309079E-01 0.  0.
         14    1    1    2    0    0 -0.56116411018E-03  0.28041921234E-01 -0.15732525386E-01  0.32158616367E-01  0.00000000000E+00 0. -1.
     999901    1    3    3    0    0  0.98470731421E-01 -0.10108800245E-01  0.82883992488E-01  0.88942027692E+00  0.88000000000E+00 0. -1.
        -11    1    4    4    0    0 -0.58998518109E-01 -0.20631194589E-01 -0.48498914714E-01  0.79113065790E-01  0.51100000000E-03 0. -1.
         11    1    4    4    0    0 -0.38911049202E-01  0.26980736000E-02 -0.18652552387E-01  0.43238040921E-01  0.51100000000E-03 0.  1.
</event>
<event>
 8    1  0.1126407E+005  0.1043930E+01  0.7957747E-01            NaN
         13   -1    0    0    0    0  0.00000000000E+00  0.00000000000E+00  0.74505805969E-08  0.10566000000E+00  0.10566000000E+00 0.  1.
     999900   -1    0    0    0    0 -0.00000000000E+00 -0.00000000000E+00 -0.74505805969E-08  0.93827000000E+00  0.93827000000E+00 0. -1.
     999902    2    1    2    0    0  0.13383575803E-01 -0.19386512162E-01  0.93167247334E-02  0.10185970508E+01  0.10182819814E+01 0.  0.
     999903    2    3    3    0    0  0.56810274197E-01  0.64704382889E-01  0.94739409741E-01  0.12940967355E+00  0.18900884375E-01 0.  0.
         14    1    1    2    0    0 -0.13383575803E-01  0.19386512162E-01 -0.93167247334E-02  0.25332949193E-01  0.00000000000E+00 0. -1.
     999901    1    3    3    0    0 -0.43426698394E-01 -0.84090895051E-01 -0.85422685008E-01  0.88918737726E+00  0.88000000000E+00 0. -1.
        -11    1    4    4    0    0  0.40433229292E-01  0.44195301911E-01  0.52369568894E-01  0.79566975619E-01  0.51100000000E-03 0.  1.
         11    1    4    4    0    0  0.16377044905E-01  0.20509080978E-01  0.42369840847E-01  0.49842697928E-01  0.51100000000E-03 0. -1.
</event>
<event>
 8    1  0.1126407E+005  0.1043930E+01  0.7957747E-01            NaN
         13   -1    0    0    0    0  0.00000000000E+00  0.00000000000E+00  0.74505805969E-08  0.10566000000E+00  0.10566000000E+00 0. -1.
     999900   -1    0    0    0    0 -0.00000000000E+00 -0.00000000000E+00 -0.74505805969E-08  0.93827000000E+00  0.93827000000E+00 0.  1.
     999902    2    1    2    0    0 -0.19208476159E-01  0.60006721793E-03  0.11182397227E-01  0.10216955303E+01  0.10214535647E+01 0.  0.
     999903    2    3    3    0    0  0.12662503307E+00  0.13496843948E-01 -0.99609099301E-02  0.12934986926E+00  0.20398655731E-01 0.  0.
         14    1    1    2    0    0  0.19208476159E-01 -0.60006721793E-03 -0.11182397227E-01  0.22234469743E-01  0.00000000000E+00 0.  1.
     999901    1    3    3    0    0 -0.14583350922E+00 -0.12896776730E-01  0.21143307157E-01  0.89234566100E+00  0.88000000000E+00 0. -1.
        -11    1    4    4    0    0  0.70080515795E-01  0.21668870850E-02  0.32284780456E-02  0.70190158037E-01  0.51100000000E-03 0.  1.
         11    1    4    4    0    0  0.56544517270E-01  0.11329956863E-01 -0.13189387976E-01  0.59159711223E-01  0.51100000000E-03 0. -1.
</event>
<event>
 8    1  0.1126407E+005  0.1043930E+01  0.7957747E-01            NaN
         13   -1    0    0    0    0  0.00000000000E+00  0.00000000000E+00  0.74505805969E-08  0.10566000000E+00  0.10566000000E+00 0.  1.
     999900   -1    0    0    0    0 -0.00000000000E+00 -0.00000000000E+00 -0.74505805969E-08  0.93827000000E+00  0.93827000000E+00 0. -1.
     999902    2    1    2    0    0 -0.16246627028E-01 -0.60596444574E-02  0.15096397154E-01  0.10209392760E+01  0.10206803770E+01 0.  0.
     999903    2    3    3    0    0 -0.92753196517E-01 -0.82361042093E-01 -0.42034598566E-01  0.13249169227E+00  0.20016101635E-01 0.  0.
         14    1    1    2    0    0  0.16246627028E-01  0.60596444574E-02 -0.15096397154E-01  0.22990723950E-01  0.00000000000E+00 0. -1.
     999901    1    3    3    0    0  0.76506569489E-01  0.76301397636E-01  0.57130995719E-01  0.88844758378E+00  0.88000000000E+00 0.  1.
        -11    1    4    4    0    0 -0.37805743575E-01 -0.41288792174E-01 -0.10385882582E-01  0.56940023572E-01  0.51100000000E-03 0.  1.
         11    1    4    4    0    0 -0.54947452942E-01 -0.41072249920E-01 -0.31648715984E-01  0.75551668696E-01  0.51100000000E-03 0. -1.
</event>
<event>
 8    1  0.1126407E+005  0.1043930E+01  0.7957747E-01            NaN
         13   -1    0    0    0    0  0.00000000000E+00  0.00000000000E+00  0.74505805969E-08  0.10566000000E+00  0.10566000000E+00 0. -1.
     999900   -1    0    0    0    0 -0.00000000000E+00 -0.00000000000E+00 -0.74505805969E-08  0.93827000000E+00  0.93827000000E+00 0. -1.
     999902    2    1    2    0    0 -0.77688596665E-04 -0.23376046818E-01 -0.38825155159E-02  0.10202335967E+01  0.10199583680E+01 0.  0.
     999903    2    3    3    0    0 -0.93695144241E-01 -0.72827113296E-01  0.53259495916E-01  0.13204732943E+00  0.22745435139E-01 0.  0.
         14    1    1    2    0    0  0.77688596665E-04  0.23376046818E-01  0.38825155159E-02  0.23696403253E-01  0.00000000000E+00 0.  1.
     999901    1    3    3    0    0  0.93617455644E-01  0.49451066477E-01 -0.57142011432E-01  0.88818626732E+00  0.88000000000E+00 0. -1.
        -11    1    4    4    0    0 -0.57911581380E-01 -0.56758202460E-01  0.30124058859E-01  0.86504131968E-01  0.51100000000E-03 0.  1.
         11    1    4    4    0    0 -0.35783562860E-01 -0.16068910836E-01  0.23135437057E-01  0.45543197464E-01  0.51100000000E-03 0. -1.
</event>
<event>
 8    1  0.1126407E+005  0.1043930E+01  0.7957747E-01            NaN
         13   -1    0    0    0    0  0.00000000000E+00  0.00000000000E+00  0.74505805969E-08  0.10566000000E+00  0.10566000000E+00 0.  1.
     999900   -1    0    0    0    0 -0.00000000000E+00 -0.00000000000E+00 -0.74505805969E-08  0.93827000000E+00  0.93827000000E+00 0. -1.
     999902    2    1    2    0    0  0.37243480271E-02 -0.14797319395E-01  0.18099647154E-01  0.10202566256E+01  0.10199819378E+01 0.  0.
     999903    2    3    3    0    0  0.10945672503E+00  0.64242530775E-02  0.70831982832E-01  0.13210664392E+00  0.20321168626E-01 0.  0.
         14    1    1    2    0    0 -0.37243480271E-02  0.14797319395E-01 -0.18099647154E-01  0.23673374424E-01  0.00000000000E+00 0. -1.
     999901    1    3    3    0    0 -0.10573237700E+00 -0.21221572473E-01 -0.52732335679E-01  0.88814998165E+00  0.88000000000E+00 0. -1.
        -11    1    4    4    0    0  0.61822709694E-01 -0.51345042546E-02  0.33609655796E-01  0.70556931988E-01  0.51100000000E-03 0. -1.
         11    1    4    4    0    0  0.47634015338E-01  0.11558757332E-01  0.37222327036E-01  0.61549711935E-01  0.51100000000E-03 0.  1.
</event>
<event>
 8    1  0.1126407E+005  0.1043930E+01  0.7957747E-01            NaN
         13   -1    0    0    0    0  0.00000000000E+00  0.00000000000E+00  0.74505805969E-08  0.10566000000E+00  0.10566000000E+00 0.  1.
     999900   -1    0    0    0    0 -0.00000000000E+00 -0.00000000000E+00 -0.74505805969E-08  0.93827000000E+00  0.93827000000E+00 0.  1.
     999902    2    1    2    0    0 -0.20530704699E-01  0.17598843542E-03 -0.10072597643E-01  0.10210608498E+01  0.10208047125E+01 0.  0.
     999903    2    3    3    0    0 -0.88423898635E-01 -0.92524332687E-01 -0.31777632214E-01  0.13332556052E+00  0.19655767330E-01 0.  0.
         14    1    1    2    0    0  0.20530704699E-01 -0.17598843542E-03  0.10072597643E-01  0.22869150195E-01  0.00000000000E+00 0.  1.
     999901    1    3    3    0    0  0.67893193935E-01  0.92700321123E-01  0.21705034571E-01  0.88773528929E+00  0.88000000000E+00 0. -1.
        -11    1    4    4    0    0 -0.77242969221E-01 -0.78062468599E-01 -0.33856520673E-01  0.11492062657E+00  0.51100000000E-03 0.  1.
         11    1    4    4    0    0 -0.11180929414E-01 -0.14461864088E-01  0.20788884589E-02  0.18404933950E-01  0.51100000000E-03 0. -1.
</event>
<event>
 8    1  0.1126407E+005  0.1043930E+01  0.7957747E-01            NaN
         13   -1    0    0    0    0  0.00000000000E+00  0.00000000000E+00  0.74505805969E-08  0.10566000000E+00  0.10566000000E+00 0.  1.
     999900   -1    0    0    0    0 -0.00000000000E+00 -0.00000000000E+00 -0.74505805969E-08  0.93827000000E+00  0.93827000000E+00 0. -1.
     999902    2    1    2    0    0 -0.60462430786E-02  0.57880644136E-02 -0.24337861944E-01  0.10181930563E+01  0.10178677270E+01 0.  0.
     999903    2    3    3    0    0 -0.10939684181E+00  0.40258958238E-01 -0.55651200526E-01  0.13092189488E+00  0.21331519485E-01 0.  0.
         14    1    1    2    0    0  0.60462430786E-02 -0.57880644136E-02  0.24337861944E-01  0.25736943662E-01  0.00000000000E+00 0.  1.
     999901    1    3    3    0    0  0.10335059873E+00 -0.34470893824E-01  0.31313338582E-01  0.88727116146E+00  0.88000000000E+00 0.  1.
        -11    1    4    4    0    0 -0.28345062992E-01  0.13425362696E-01 -0.25329438018E-01  0.40317793973E-01  0.51100000000E-03 0. -1.
         11    1    4    4    0    0 -0.81051778816E-01  0.26833595542E-01 -0.30321762508E-01  0.90604100909E-01  0.51100000000E-03 0.  1.
</event>
<event>
 8    1  0.1126407E+005  0.1043930E+01  0.7957747E-01            NaN
         13   -1    0    0    0    0  0.00000000000E+00  0.00000000000E+00  0.74505805969E-08  0.10566000000E+00  0.10566000000E+00 0.  1.
     999900   -1    0    0    0    0 -0.00000000000E+00 -0.00000000000E+00 -0.74505805969E-08  0.93827000000E+00  0.93827000000E+00 0. -1.
     999902    2    1    2    0    0 -0.52653340944E-03  0.16598505045E-02 -0.23270215813E-01  0.10205947202E+01  0.10203279118E+01 0.  0.
     999903    2    3    3    0    0 -0.37859331038E-01 -0.68418301743E-01 -0.10587316859E+00  0.13316701437E+00  0.20246800476E-01 0.  0.
         14    1    1    2    0    0  0.52653340944E-03 -0.16598505045E-02  0.23270215813E-01  0.23335279838E-01  0.00000000000E+00 0.  1.
     999901    1    3    3    0    0  0.37332797628E-01  0.70078152247E-01  0.82602952773E-01  0.88742770579E+00  0.88000000000E+00 0.  1.
        -11    1    4    4    0    0 -0.22509457918E-01 -0.39265235521E-01 -0.77184068628E-01  0.89476678454E-01  0.51100000000E-03 0.  1.
         11    1    4    4    0    0 -0.15349873120E-01 -0.29153066222E-01 -0.28689099959E-01  0.43690335915E-01  0.51100000000E-03 0. -1.
</event>
<event>
 8    1  0.1126407E+005  0.1043930E+01  0.7957747E-01            NaN
         13   -1    0    0    0    0  0.00000000000E+00  0.00000000000E+00  0.74505805969E-08  0.10566000000E+00  0.10566000000E+00 0.  1.
     999900   -1    0    0    0    0 -0.00000000000E+00 -0.00000000000E+00 -0.74505805969E-08  0.93827000000E+00  0.93827000000E+00 0. -1.
     999902    2    1    2    0    0  0.14820585449E-01  0.44251274549E-02  0.16062594383E-01  0.10216311560E+01  0.10213877718E+01 0.  0.
     999903    2    3    3    0    0  0.14128358408E-02 -0.12628974479E+00 -0.26766747697E-01  0.13084470676E+00  0.21278692654E-01 0.  0.
         14    1    1    2    0    0 -0.14820585449E-01 -0.44251274549E-02 -0.16062594383E-01  0.22298844014E-01  0.00000000000E+00 0. -1.
     999901    1    3    3    0    0  0.13407749608E-01  0.13071487225E+00  0.42829342079E-01  0.89078644922E+00  0.88000000000E+00 0. -1.
        -11    1    4    4    0    0  0.39617485305E-02 -0.73043769507E-01 -0.25663292396E-01  0.77523889305E-01  0.51100000000E-03 0. -1.
         11    1    4    4    0    0 -0.25489126896E-02 -0.53245975284E-01 -0.11034553003E-02  0.53320817459E-01  0.51100000000E-03 0.  1.
</event>
<event>
 8    1  0.1126407E+005  0.1043930E+01  0.7957747E-01            NaN
         13   -1    0    0    0    0  0.00000000000E+00  0.00000000000E+00  0.74505805969E-08  0.10566000000E+00  0.10566000000E+00 0. -1.
     999900   -1    0    0    0    0 -0.00000000000E+00 -0.00000000000E+00 -0.74505805969E-08  0.93827000000E+00  0.93827000000E+00 0. -1.
     999902    2    1    2    0    0 -0.32876287288E-02 -0.28100049913E-03  0.22677296179E-01  0.10210139090E+01  0.10207567071E+01 0.  0.
     999903    2    3    3    0    0  0.23373538613E-02 -0.11100682349E+00 -0.64175033606E-01  0.12981517950E+00  0.20138714109E-01 0.  0.
         14    1    1    2    0    0  0.32876287288E-02  0.28100049913E-03 -0.22677296179E-01  0.22916090983E-01  0.00000000000E+00 0.  1.
     999901    1    3    3    0    0 -0.56249825900E-02  0.11072582299E+00  0.86852329785E-01  0.89119872952E+00  0.88000000000E+00 0.  1.
        -11    1    4    4    0    0 -0.77894281323E-02 -0.53619273310E-01 -0.25594822910E-01  0.59925434848E-01  0.51100000000E-03 0. -1.
         11    1    4    4    0    0  0.10126781994E-01 -0.57387550178E-01 -0.38580210696E-01  0.69889744651E-01  0.51100000000E-03 0.  1.
</event>
<event>
 8    1  0.1126407E+005  0.1043930E+01  0.7957747E-01            NaN
         13   -1    0    0    0    0  0.00000000000E+00  0.00000000000E+00  0.74505805969E-08  0.10566000000E+00  0.10566000000E+00 0. -1.
     999900   -1    0    0    0    0 -0.00000000000E+00 -0.00000000000E+00 -0.74505805969E-08  0.93827000000E+00  0.93827000000E+00 0. -1.
     999902    2    1    2    0    0 -0.19084437599E-01  0.12546797923E-01  0.14060133035E-02  0.10210473697E+01  0.10207909269E+01 0.  0.
     999903    2    3    3    0    0  0.76270183957E-01  0.85858170966E-01 -0.60792253249E-01  0.13069031455E+00  0.13981909014E-01 0.  0.
         14    1    1    2    0    0  0.19084437599E-01 -0.12546797923E-01 -0.14060133035E-02  0.22882630313E-01  0.00000000000E+00 0.  1.
     999901    1    3    3    0    0 -0.95354621556E-01 -0.73311373043E-01  0.62198266553E-01  0.89035705514E+00  0.88000000000E+00 0.  1.
        -11    1    4    4    0    0  0.55595313899E-01  0.65000524231E-01 -0.38416204109E-01  0.93765521046E-01  0.51100000000E-03 0.  1.
         11    1    4    4    0    0  0.20674870058E-01  0.20857646736E-01 -0.22376049140E-01  0.36924793505E-01  0.51100000000E-03 0. -1.
</event>
<event>
 8    1  0.1126407E+005  0.1043930E+01  0.7957747E-01            NaN
         13   -1    0    0    0    0  0.00000000000E+00  0.00000000000E+00  0.74505805969E-08  0.10566000000E+00  0.10566000000E+00 0. -1.
     999900   -1    0    0    0    0 -0.00000000000E+00 -0.00000000000E+00 -0.74505805969E-08  0.93827000000E+00  0.93827000000E+00 0.  1.
     999902    2    1    2    0    0  0.22689144424E-01  0.29296201853E-02  0.47167363780E-02  0.10205713281E+01  0.10203039784E+01 0.  0.
     999903    2    3    3    0    0  0.37476930807E-01 -0.11598214220E+00  0.45476354312E-01  0.13151563117E+00  0.19284314579E-01 0.  0.
         14    1    1    2    0    0 -0.22689144424E-01 -0.29296201853E-02 -0.47167363780E-02  0.23358671863E-01  0.00000000000E+00 0.  1.
     999901    1    3    3    0    0 -0.14787786383E-01  0.11891176238E+00 -0.40759617934E-01  0.88905569697E+00  0.88000000000E+00 0.  1.
        -11    1    4    4    0    0  0.81280032853E-02 -0.52866250093E-01  0.15192973420E-01  0.55605686747E-01  0.51100000000E-03 0.  1.
         11    1    4    4    0    0  0.29348927522E-01 -0.63115892104E-01  0.30283380892E-01  0.75909944422E-01  0.51100000000E-03 0. -1.
</event>
<event>
 8    1  0.1126407E+005  0.1043930E+01  0.7957747E-01            NaN
         13   -1    0    0    0    0  0.00000000000E+00  0.00000000000E+00  0.74505805969E-08  0.10566000000E+00  0.10566000000E+00 0. -1.
     999900   -1    0    0    0    0 -0.00000000000E+00 -0.00000000000E+00 -0.74505805969E-08  0.93827000000E+00  0.93827000000E+00 0. -1.
     999902    2    1    2    0    0 -0.12457200487E-01 -0.34609077002E-03  0.20454060080E-01  0.10199785868E+01  0.10196973312E+01 0.  0.
     999903    2    3    3    0    0 -0.12520258912E+00 -0.96058618766E-02 -0.31753267735E-01  0.13120253448E+00  0.20925442318E-01 0.  0.
         14    1    1    2    0    0  0.12457200487E-01  0.34609077002E-03 -0.20454060080E-01  0.23951413247E-01  0.00000000000E+00 0.  1.
     999901    1    3    3    0    0  0.11274538864E+00  0.92597711066E-02  0.52207327815E-01  0.88877605227E+00  0.88000000000E+00 0.  1.
        -11    1    4    4    0    0 -0.70478335136E-01  0.47463903458E-02 -0.15247041323E-01  0.72266571352E-01  0.51100000000E-03 0. -1.
         11    1    4    4    0    0 -0.54724253987E-01 -0.14352252222E-01 -0.16506226412E-01  0.58935963126E-01  0.51100000000E-03 0.  1.
</event>
<event>
 8    1  0.1126407E+005  0.1043930E+01  0.7957747E-01            NaN
         13   -1    0    0    0    0  0.00000000000E+00  0.00000000000E+00  0.74505805969E-08  0.10566000000E+00  0.10566000000E+00 0. -1.
     999900   -1    0    0    0    0 -0.00000000000E+00 -0.00000000000E+00 -0.74505805969E-08  0.93827000000E+00  0.93827000000E+00 0. -1.
     999902    2    1    2    0    0  0.85989444012E-02  0.18748011879E-02 -0.22646579243E-01  0.10196334102E+01  0.10193438904E+01 0.  0.
     999903    2    3    3    0    0 -0.52913235155E-01 -0.49713232413E-01 -0.10832718981E+00  0.13183487423E+00  0.19350402582E-01 0.  0.
         14    1    1    2    0    0 -0.85989444012E-02 -0.18748011879E-02  0.22646579243E-01  0.24296589797E-01  0.00000000000E+00 0. -1.
     999901    1    3    3    0    0  0.61512179556E-01  0.51588033601E-01  0.85680610568E-01  0.88779853597E+00  0.88000000000E+00 0.  1.
        -11    1    4    4    0    0 -0.45980657314E-01 -0.36793921678E-01 -0.96226398169E-01  0.11281752676E+00  0.51100000000E-03 0.  1.
         11    1    4    4    0    0 -0.69325778410E-02 -0.12919310736E-01 -0.12100791642E-01  0.19017347469E-01  0.51100000000E-03 0. -1.
</event>
<event>
 8    1  0.1126407E+005  0.1043930E+01  0.7957747E-01            NaN
         13   -1    0    0    0    0  0.00000000000E+00  0.00000000000E+00  0.74505805969E-08  0.10566000000E+00  0.10566000000E+00 0. -1.
     999900   -1    0    0    0    0 -0.00000000000E+00 -0.00000000000E+00 -0.74505805969E-08  0.93827000000E+00  0.93827000000E+00 0.  1.
     999902    2    1    2    0    0 -0.15717867980E-01  0.11143007009E-01  0.14162477348E-01  0.10200177909E+01  0.10197374662E+01 0.  0.
     999903    2    3    3    0    0  0.46953022361E-01 -0.75223974529E-01 -0.89419673191E-01  0.12754025175E+00  0.20184281245E-01 0.  0.
         14    1    1    2    0    0  0.15717867980E-01 -0.11143007009E-01 -0.14162477348E-01  0.23912209092E-01  0.00000000000E+00 0.  1.
     999901    1    3    3    0    0 -0.62670890341E-01  0.86366981539E-01  0.10358215054E+00  0.89247753916E+00  0.88000000000E+00 0. -1.
        -11    1    4    4    0    0  0.89243089342E-04 -0.12091834883E-01 -0.15059621840E-01  0.19320294152E-01  0.51100000000E-03 0.  1.
         11    1    4    4    0    0  0.46863779272E-01 -0.63132139646E-01 -0.74360051351E-01  0.10821995759E+00  0.51100000000E-03 0. -1.
</event>
<event>
 8    1  0.1126407E+005  0.1043930E+01  0.7957747E-01            NaN
         13   -1    0    0    0    0  0.00000000000E+00  0.00000000000E+00  0.74505805969E-08  0.10566000000E+00  0.10566000000E+00 0.  1.
     999900   -1    0    0    0    0 -0.00000000000E+00 -0.00000000000E+00 -0.74505805969E-08  0.93827000000E+00  0.93827000000E+00 0. -1.
     999902    2    1    2    0    0  0.96788636353E-02  0.74033424548E-02 -0.20537983238E-01  0.10200490738E+01  0.10197694908E+01 0.  0.
     999903    2    3    3    0    0 -0.99024574522E-01  0.79698602213E-01  0.15950605335E-01  0.12967024479E+00  0.20055348896E-01 0.  0.
         14    1    1    2    0    0 -0.96788636353E-02 -0.74033424548E-02  0.20537983238E-01  0.23880926202E-01  0.00000000000E+00 0.  1.
     999901    1    3    3    0    0  0.10870343816E+00 -0.72295259758E-01 -0.36488588573E-01  0.89037882901E+00  0.88000000000E+00 0. -1.
        -11    1    4    4    0    0 -0.76578752408E-01  0.69038233719E-01  0.73397802751E-02  0.10336690249E+00  0.51100000000E-03 0. -1.
         11    1    4    4    0    0 -0.22445822114E-01  0.10660368494E-01  0.86108250595E-02  0.26303342297E-01  0.51100000000E-03 0.  1.
</event>
<event>
 8    1  0.1126407E+005  0.1043930E+01  0.7957747E-01            NaN
         13   -1    0    0    0    0  0.00000000000E+00  0.00000000000E+00  0.74505805969E-08  0.10566000000E+00  0.10566000000E+00 0.  1.
     999900   -1    0    0    0    0 -0.00000000000E+00 -0.00000000000E+00 -0.74505805969E-08  0.93827000000E+00  0.93827000000E+00 0.  1.
     999902    2    1    2    0    0 -0.16984136897E-01 -0.10233604066E-01  0.13491675263E-01  0.10199464044E+01  0.10196643835E+01 0.  0.
     999903    2    3    3    0    0 -0.12204029653E+00 -0.32739102236E-02  0.48558791481E-01  0.13297688028E+00  0.20502243628E-01 0.  0.
         14    1    1    2    0    0  0.16984136897E-01  0.10233604066E-01 -0.13491675263E-01  0.23983595638E-01  0.00000000000E+00 0. -1.
     999901    1    3    3    0    0  0.10505615963E+00 -0.69596938424E-02 -0.35067116218E-01  0.88696952408E+00  0.88000000000E+00 0.  1.
        -11    1    4    4    0    0 -0.48643974530E-01 -0.11040287321E-02  0.87153008015E-02  0.49433518250E-01  0.51100000000E-03 0. -1.
         11    1    4    4    0    0 -0.73396321997E-01 -0.21698814915E-02  0.39843490679E-01  0.83543362028E-01  0.51100000000E-03 0.  1.
</event>
<event>
 8    1  0.1126407E+005  0.1043930E+01  0.7957747E-01            NaN
         13   -1    0    0    0    0  0.00000000000E+00  0.00000000000E+00  0.74505805969E-08  0.10566000000E+00  0.10566000000E+00 0.  1.
     999900   -1    0    0    0    0 -0.00000000000E+00 -0.00000000000E+00 -0.74505805969E-08  0.93827000000E+00  0.93827000000E+00 0. -1.
     999902    2    1    2    0    0 -0.11815182263E-01  0.14131442558E-01 -0.11861069445E-01  0.10220215275E+01  0.10217866810E+01 0.  0.
     999903    2    3    3    0    0  0.18557050063E-01  0.81725790632E-01 -0.10309568116E+00  0.13420666908E+00  0.18953669552E-01 0.  0.
         14    1    1    2    0    0  0.11815182263E-01 -0.14131442558E-01  0.11861069445E-01  0.21908472541E-01  0.00000000000E+00 0. -1.
     999901    1    3    3    0    0 -0.30372232327E-01 -0.67594348074E-01  0.91234611716E-01  0.88781485838E+00  0.88000000000E+00 0.  1.
        -11    1    4    4    0    0  0.13443404696E-01  0.32651974197E-01 -0.31935003740E-01  0.47612835807E-01  0.51100000000E-03 0. -1.
         11    1    4    4    0    0  0.51136453673E-02  0.49073816435E-01 -0.71160677421E-01  0.86593833270E-01  0.51100000000E-03 0.  1.
</event>
<event>
 8    1  0.1126407E+005  0.1043930E+01  0.7957747E-01            NaN
         13   -1    0    0    0    0  0.00000000000E+00  0.00000000000E+00  0.74505805969E-08  0.10566000000E+00  0.10566000000E+00 0.  1.
     999900   -1    0    0    0    0 -0.00000000000E+00 -0.00000000000E+00 -0.74505805969E-08  0.93827000000E+00  0.93827000000E+00 0.  1.
     999902    2    1    2    0    0 -0.84192013677E-02 -0.79203635446E-02  0.20606973472E-01  0.10203024215E+01  0.10200288078E+01 0.  0.
     999903    2    3    3    0    0 -0.50777765497E-01  0.48480751241E-01  0.11102160873E+00  0.13286220381E+00  0.19944996519E-01 0.  0.
         14    1    1    2    0    0  0.84192013677E-02  0.79203635446E-02 -0.20606973472E-01  0.23627578505E-01  0.00000000000E+00 0. -1.
     999901    1    3    3    0    0  0.42358564129E-01 -0.56401114786E-01 -0.90414635254E-01  0.88744021769E+00  0.88000000000E+00 0. -1.
        -11    1    4    4    0    0 -0.40156020160E-01  0.45939287014E-01  0.10116295387E+00  0.11814029119E+00  0.51100000000E-03 0. -1.
         11    1    4    4    0    0 -0.10621745338E-01  0.25414642273E-02  0.98586548607E-02  0.14721912617E-01  0.51100000000E-03 0.  1.
</event>
<event>
 8    1  0.1126407E+005  0.1043930E+01  0.7957747E-01            NaN
         13   -1    0    0    0    0  0.00000000000E+00  0.00000000000E+00  0.74505805969E-08  0.10566000000E+00  0.10566000000E+00 0. -1.
     999900   -1    0    0    0    0 -0.00000000000E+00 -0.00000000000E+00 -0.74505805969E-08  0.93827000000E+00  0.93827000000E+00 0.  1.
     999902    2    1    2    0    0  0.19385196859E-01  0.55462498772E-02 -0.11108660000E-01  0.10209093772E+01  0.10206497967E+01 0.  0.
     999903    2    3    3    0    0 -0.80142214403E-01 -0.48413254802E-01 -0.88581956805E-01  0.13028069735E+00  0.18965211857E-01 0.  0.
         14    1    1    2    0    0 -0.19385196859E-01 -0.55462498772E-02  0.11108660000E-01  0.23020622753E-01  0.00000000000E+00 0.  1.
     999901    1    3    3    0    0  0.99527411261E-01  0.53959504679E-01  0.77473296805E-01  0.89062867990E+00  0.88000000000E+00 0.  1.
        -11    1    4    4    0    0 -0.19000028512E-01 -0.18188021066E-01 -0.33593401603E-01  0.42668289701E-01  0.51100000000E-03 0.  1.
         11    1    4    4    0    0 -0.61142185891E-01 -0.30225233736E-01 -0.54988555202E-01  0.87612407649E-01  0.51100000000E-03 0. -1.
</event>
<event>
 8    1  0.1126407E+005  0.1043930E+01  0.7957747E-01            NaN
         13   -1    0    0    0    0  0.00000000000E+00  0.00000000000E+00  0.74505805969E-08  0.10566000000E+00  0.10566000000E+00 0.  1.
     999900   -1    0    0    0    0 -0.00000000000E+00 -0.00000000000E+00 -0.74505805969E-08  0.93827000000E+00  0.93827000000E+00 0. -1.
     999902    2    1    2    0    0  0.13098625136E-01 -0.89080873177E-02 -0.14639169729E-01  0.10223607327E+01  0.10221331785E+01 0.  0.
     999903    2    3    3    0    0  0.28843539967E-01 -0.12761427294E+00  0.18251624508E-01  0.13364206792E+00  0.20241740615E-01 0.  0.
         14    1    1    2    0    0 -0.13098625136E-01  0.89080873177E-02  0.14639169729E-01  0.21569267268E-01  0.00000000000E+00 0.  1.
     999901    1    3    3    0    0 -0.15744914831E-01  0.11870618562E+00 -0.32890794238E-01  0.88871866482E+00  0.88000000000E+00 0. -1.
        -11    1    4    4    0    0  0.27588698984E-01 -0.11420298850E+00  0.10177222623E-01  0.11792919857E+00  0.51100000000E-03 0.  1.
         11    1    4    4    0    0  0.12548409839E-02 -0.13411284442E-01  0.80744018848E-02  0.15712869346E-01  0.51100000000E-03 0. -1.
</event>
<event>
 8    1  0.1126407E+005  0.1043930E+01  0.7957747E-01            NaN
         13   -1    0    0    0    0  0.00000000000E+00  0.00000000000E+00  0.74505805969E-08  0.10566000000E+00  0.10566000000E+00 0. -1.
     999900   -1    0    0    0    0 -0.00000000000E+00 -0.00000000000E+00 -0.74505805969E-08  0.93827000000E+00  0.93827000000E+00 0.  1.
     999902    2    1    2    0    0 -0.15915457675E-01 -0.55175276891E-02  0.19127849728E-01  0.10184423650E+01  0.10181233870E+01 0.  0.
     999903    2    3    3    0    0 -0.20969613460E-01 -0.11546231149E+00  0.56362033655E-01  0.13080517307E+00  0.12729666095E-01 0.  0.
         14    1    1    2    0    0  0.15915457675E-01  0.55175276891E-02 -0.19127849728E-01  0.25487635042E-01  0.00000000000E+00 0.  1.
     999901    1    3    3    0    0  0.50541557851E-02  0.10994478381E+00 -0.37234183927E-01  0.88763719189E+00  0.88000000000E+00 0.  1.
        -11    1    4    4    0    0 -0.20187738181E-01 -0.10708083523E+00  0.55610981007E-01  0.12233843376E+00  0.51100000000E-03 0.  1.
         11    1    4    4    0    0 -0.78187527916E-03 -0.83814762663E-02  0.75105264857E-03  0.84667393037E-02  0.51100000000E-03 0. -1.
</event>
<event>
 8    1  0.1126407E+005  0.1043930E+01  0.7957747E-01            NaN
         13   -1    0    0    0    0  0.00000000000E+00  0.00000000000E+00  0.74505805969E-08  0.10566000000E+00  0.10566000000E+00 0. -1.
     999900   -1    0    0    0    0 -0.00000000000E+00 -0.00000000000E+00 -0.74505805969E-08  0.93827000000E+00  0.93827000000E+00 0. -1.
     999902    2    1    2    0    0  0.68054182336E-02 -0.11582991364E-02  0.22196646681E-01  0.10206846457E+01  0.10204199133E+01 0.  0.
     999903    2    3    3    0    0 -0.20397952541E-01  0.26641955328E-01  0.12704027478E+00  0.13360795006E+00  0.24207078548E-01 0.  0.
         14    1    1    2    0    0 -0.68054182336E-02  0.11582991364E-02 -0.22196646681E-01  0.23245354333E-01  0.00000000000E+00 0.  1.
     999901    1    3    3    0    0  0.27203370775E-01 -0.27800254464E-01 -0.10484362810E+00  0.88707669560E+00  0.88000000000E+00 0. -1.
        -11    1    4    4    0    0 -0.25392174103E-01  0.17233911381E-01  0.95994464792E-01  0.10078178704E+00  0.51100000000E-03 0. -1.
         11    1    4    4    0    0  0.49942215618E-02  0.94080439472E-02  0.31045809990E-01  0.32826163023E-01  0.51100000000E-03 0.  1.
</event>
<event>
 8    1  0.1126407E+005  0.1043930E+01  0.7957747E-01            NaN
         13   -1    0    0    0    0  0.00000000000E+00  0.00000000000E+00  0.74505805969E-08  0.10566000000E+00  0.10566000000E+00 0.  1.
     999900   -1    0    0    0    0 -0.00000000000E+00 -0.00000000000E+00 -0.74505805969E-08  0.93827000000E+00  0.93827000000E+00 0. -1.
     999902    2    1    2    0    0 -0.21711896675E-01  0.96014412560E-02  0.74230371022E-02  0.10190564074E+01  0.10187527991E+01 0.  0.
     999903    2    3    3    0    0 -0.39634758449E-01 -0.11923114531E+00  0.23679547031E-01  0.12934671400E+00  0.19567099573E-01 0.  0.
         14    1    1    2    0    0  0.21711896675E-01 -0.96014412560E-02 -0.74230371022E-02  0.24873592648E-01  0.00000000000E+00 0.  1.
     999901    1    3    3    0    0  0.17922861775E-01  0.12883258656E+00 -0.16256509929E-01  0.88970969335E+00  0.88000000000E+00 0. -1.
        -11    1    4    4    0    0 -0.21031412953E-01 -0.73557545344E-01  0.52162988281E-02  0.76684442375E-01  0.51100000000E-03 0.  1.
         11    1    4    4    0    0 -0.18603345497E-01 -0.45673599962E-01  0.18463248203E-01  0.52662271622E-01  0.51100000000E-03 0. -1.
</event>
<event>
 8    1  0.1126407E+005  0.1043930E+01  0.7957747E-01            NaN
         13   -1    0    0    0    0  0.00000000000E+00  0.00000000000E+00  0.74505805969E-08  0.10566000000E+00  0.10566000000E+00 0. -1.
     999900   -1    0    0    0    0 -0.00000000000E+00 -0.00000000000E+00 -0.74505805969E-08  0.93827000000E+00  0.93827000000E+00 0. -1.
     999902    2    1    2    0    0 -0.17619021750E-01  0.15276727347E-01  0.37234597796E-02  0.10203149099E+01  0.10200415888E+01 0.  0.
     999903    2    3    3    0    0  0.90810194271E-01 -0.33790486033E-01 -0.81698905220E-01  0.12820422916E+00  0.19321618223E-01 0.  0.
         14    1    1    2    0    0  0.17619021750E-01 -0.15276727347E-01 -0.37234597796E-02  0.23615090061E-01  0.00000000000E+00 0. -1.
     999901    1    3    3    0    0 -0.10842921602E+00  0.49067213380E-01  0.85422365000E-01  0.89211068078E+00  0.88000000000E+00 0.  1.
        -11    1    4    4    0    0  0.22520273624E-01 -0.16635584619E-01 -0.28484897486E-01  0.39944410191E-01  0.51100000000E-03 0. -1.
         11    1    4    4    0    0  0.68289920647E-01 -0.17154901413E-01 -0.53214007734E-01  0.88259818970E-01  0.51100000000E-03 0.  1.
</event>
<event>
 8    1  0.1126407E+005  0.1043930E+01  0.7957747E-01            NaN
         13   -1    0    0    0    0  0.00000000000E+00  0.00000000000E+00  0.74505805969E-08  0.10566000000E+00  0.10566000000E+00 0.  1.
     999900   -1    0    0    0    0 -0.00000000000E+00 -0.00000000000E+00 -0.74505805969E-08  0.93827000000E+00  0.93827000000E+00 0.  1.
     999902    2    1    2    0    0  0.10953620963E-01 -0.13593734769E-01  0.16242930559E-01  0.10200845763E+01  0.10198058338E+01 0.  0.
     999903    2    3    3    0    0  0.99065807512E-01 -0.61695634552E-01 -0.56979947525E-01  0.13135562999E+00  0.19677438055E-01 0.  0.
         14    1    1    2    0    0 -0.10953620963E-01  0.13593734769E-01 -0.16242930559E-01  0.23845423677E-01  0.00000000000E+00 0. -1.
     999901    1    3    3    0    0 -0.88112186549E-01  0.48101899782E-01  0.73222878085E-01  0.88872894634E+00  0.88000000000E+00 0. -1.
        -11    1    4    4    0    0  0.65967662829E-01 -0.32437229292E-01 -0.28794330438E-01  0.78951130262E-01  0.51100000000E-03 0.  1.
         11    1    4    4    0    0  0.33098144684E-01 -0.29258405259E-01 -0.28185617087E-01  0.52404499725E-01  0.51100000000E-03 0. -1.
</event>
<event>
 8    1  0.1126407E+005  0.1043930E+01  0.7957747E-01            NaN
         13   -1    0    0    0    0  0.00000000000E+00  0.00000000000E+00  0.74505805969E-08  0.10566000000E+00  0.10566000000E+00 0.  1.
     999900   -1    0    0    0    0 -0.00000000000E+00 -0.00000000000E+00 -0.74505805969E-08  0.93827000000E+00  0.93827000000E+00 0. -1.
     999902    2    1    2    0    0 -0.23054734037E-03 -0.12600940730E-01 -0.17774407649E-01  0.10221408645E+01  0.10219085969E+01 0.  0.
     999903    2    3    3    0    0  0.93756010741E-01  0.88704129652E-01  0.89820887403E-02  0.13095508111E+00  0.20247053682E-01 0.  0.
         14    1    1    2    0    0  0.23054734037E-03  0.12600940730E-01  0.17774407649E-01  0.21789135519E-01  0.00000000000E+00 0.  1.
     999901    1    3    3    0    0 -0.93986558082E-01 -0.10130507038E+00 -0.26756496390E-01  0.89118578337E+00  0.88000000000E+00 0. -1.
        -11    1    4    4    0    0  0.27796136145E-01  0.25461967429E-01 -0.65489437150E-02  0.38263386608E-01  0.51100000000E-03 0. -1.
         11    1    4    4    0    0  0.65959874597E-01  0.63242162223E-01  0.15531032455E-01  0.92691694501E-01  0.51100000000E-03 0.  1.
</event>
<event>
 8    1  0.1126407E+005  0.1043930E+01  0.7957747E-01            NaN
         13   -1    0    0    0    0  0.00000000000E+00  0.00000000000E+00  0.74505805969E-08  0.10566000000E+00  0.10566000000E+00 0. -1.
     999900   -1    0    0    0    0 -0.00000000000E+00 -0.00000000000E+00 -0.74505805969E-08  0.93827000000E+00  0.93827000000E+00 0.  1.
     999902    2    1    2    0    0  0.92146918288E-02  0.16922265844E-02 -0.21231781845E-01  0.10207230455E+01  0.10204591971E+01 0.  0.
     999903    2    3    3    0    0 -0.37691468327E-01 -0.10667912814E+00  0.58989121846E-01  0.12921873718E+00  0.20412799320E-01 0.  0.
         14    1    1    2    0    0 -0.92146918288E-02 -0.16922265844E-02  0.21231781845E-01  0.23206954489E-01  0.00000000000E+00 0. -1.
     999901    1    3    3    0    0  0.46906160156E-01  0.10837135473E+00 -0.80220903691E-01  0.89150430833E+00  0.88000000000E+00 0.  1.
        -11    1    4    4    0    0 -0.19620826998E-01 -0.72430609911E-01  0.29884586191E-01  0.80774499175E-01  0.51100000000E-03 0.  1.
         11    1    4    4    0    0 -0.18070641329E-01 -0.34248518231E-01  0.29104535654E-01  0.48444238004E-01  0.51100000000E-03 0. -1.
</event>
<event>
 8    1  0.1126407E+005  0.1043930E+01  0.7957747E-01            NaN
         13   -1    0    0    0    0  0.00000000000E+00  0.00000000000E+00  0.74505805969E-08  0.10566000000E+00  0.10566000000E+00 0. -1.
     999900   -1    0    0    0    0 -0.00000000000E+00 -0.00000000000E+00 -0.74505805969E-08  0.93827000000E+00  0.93827000000E+00 0.  1.
     999902    2    1    2    0    0 -0.84194886819E-03 -0.96842683827E-02 -0.21651194509E-01  0.10201967289E+01  0.10199206330E+01 0.  0.
     999903    2    3    3    0    0 -0.96383657286E-01  0.60178899179E-01  0.57252050247E-01  0.12877382017E+00  0.19839107982E-01 0.  0.
         14    1    1    2    0    0  0.84194886819E-03  0.96842683827E-02  0.21651194509E-01  0.23733271070E-01  0.00000000000E+00 0. -1.
     999901    1    3    3    0    0  0.95541708418E-01 -0.69863167562E-01 -0.78903244756E-01  0.89142290876E+00  0.88000000000E+00 0. -1.
        -11    1    4    4    0    0 -0.41790514417E-01  0.15863372465E-01  0.17567018317E-01  0.48030770707E-01  0.51100000000E-03 0.  1.
         11    1    4    4    0    0 -0.54593142869E-01  0.44315526714E-01  0.39685031930E-01  0.80743049463E-01  0.51100000000E-03 0. -1.
</event>
<event>
 8    1  0.1126407E+005  0.1043930E+01  0.7957747E-01            NaN
         13   -1    0    0    0    0  0.00000000000E+00  0.00000000000E+00  0.74505805969E-08  0.10566000000E+00  0.10566000000E+00 0. -1.
     999900   -1    0    0    0    0 -0.00000000000E+00 -0.00000000000E+00 -0.74505805969E-08  0.93827000000E+00  0.93827000000E+00 0. -1.
     999902    2    1    2    0    0 -0.97782698614E-02 -0.24599830183E-01  0.82760660175E-03  0.10174450771E+01  0.10171003067E+01 0.  0.
     999903    2    3    3    0    0 -0.11343411268E+00 -0.53501550443E-01  0.29414257399E-01  0.13042927131E+00  0.20417699570E-01 0.  0.
         14    1    1    2    0    0  0.97782698614E-02  0.24599830183E-01 -0.82760660175E-03  0.26484922865E-01  0.00000000000E+00 0.  1.
     999901    1    3    3    0    0  0.10365584282E+00  0.28901720261E-01 -0.28586650798E-01  0.88701580583E+00  0.88000000000E+00 0. -1.
        -11    1    4    4    0    0 -0.44979582466E-01 -0.30960618128E-01  0.17746979224E-01  0.57418978624E-01  0.51100000000E-03 0.  1.
         11    1    4    4    0    0 -0.68454530215E-01 -0.22540932316E-01  0.11667278176E-01  0.73010292683E-01  0.51100000000E-03 0. -1.
</event>
<event>
 8    1  0.1126407E+005  0.1043930E+01  0.7957747E-01            NaN
         13   -1    0    0    0    0  0.00000000000E+00  0.00000000000E+00  0.74505805969E-08  0.10566000000E+00  0.10566000000E+00 0.  1.
     999900   -1    0    0    0    0 -0.00000000000E+00 -0.00000000000E+00 -0.74505805969E-08  0.93827000000E+00  0.93827000000E+00 0. -1.
     999902    2    1    2    0    0  0.66198440412E-02 -0.20795728986E-01 -0.30215526262E-02  0.10218978766E+01  0.10216603427E+01 0.  0.
     999903    2    3    3    0    0 -0.27560706330E-01  0.84463367064E-01  0.92708164226E-01  0.12981493991E+00  0.19064679402E-01 0.  0.
         14    1    1    2    0    0 -0.66198440412E-02  0.20795728986E-01  0.30215526262E-02  0.22032123354E-01  0.00000000000E+00 0.  1.
     999901    1    3    3    0    0  0.34180550372E-01 -0.10525909605E+00 -0.95729716853E-01  0.89208293673E+00  0.88000000000E+00 0. -1.
        -11    1    4    4    0    0 -0.16918026385E-01  0.35572986973E-01  0.52426167038E-01  0.65577596252E-01  0.51100000000E-03 0.  1.
         11    1    4    4    0    0 -0.10642679946E-01  0.48890380091E-01  0.40281997189E-01  0.64237343659E-01  0.51100000000E-03 0. -1.
</event>
<event>
 8    1  0.1126407E+005  0.1043930E+01  0.7957747E-01            NaN
         13   -1    0    0    0    0  0.00000000000E+00  0.00000000000E+00  0.74505805969E-08  0.10566000000E+00  0.10566000000E+00 0. -1.
     999900   -1    0    0    0    0 -0.00000000000E+00 -0.00000000000E+00 -0.74505805969E-08  0.93827000000E+00  0.93827000000E+00 0.  1.
     999902    2    1    2    0    0  0.91169907325E-02 -0.45315544228E-02 -0.27473298072E-01  0.10146309111E+01  0.10142077938E+01 0.  0.
     999903    2    3    3    0    0 -0.74755076105E-01 -0.12877106320E-01  0.93883656790E-01  0.12231276022E+00  0.19802248096E-01 0.  0.
         14    1    1    2    0    0 -0.91169907325E-02  0.45315544228E-02  0.27473298072E-01  0.29299088936E-01  0.00000000000E+00 0. -1.
     999901    1    3    3    0    0  0.83872066838E-01  0.83455518973E-02 -0.12135695486E+00  0.89231815084E+00  0.88000000000E+00 0.  1.
        -11    1    4    4    0    0 -0.59101702415E-01 -0.11265431629E-01  0.60109055826E-01  0.85048697176E-01  0.51100000000E-03 0. -1.
         11    1    4    4    0    0 -0.15653373690E-01 -0.16116746907E-02  0.33774600965E-01  0.37264063044E-01  0.51100000000E-03 0.  1.
</event>
<event>
 8    1  0.1126407E+005  0.1043930E+01  0.7957747E-01            NaN
         13   -1    0    0    0    0  0.00000000000E+00  0.00000000000E+00  0.74505805969E-08  0.10566000000E+00  0.10566000000E+00 0. -1.
     999900   -1    0    0    0    0 -0.00000000000E+00 -0.00000000000E+00 -0.74505805969E-08  0.93827000000E+00  0.93827000000E+00 0. -1.
     999902    2    1    2    0    0  0.46589552750E-02  0.11765770724E-01 -0.20812220968E-01  0.10195725008E+01  0.10192815100E+01 0.  0.
     999903    2    3    3    0    0  0.99651204797E-01 -0.68368851803E-01  0.39780029341E-01  0.12877706639E+00  0.19910288256E-01 0.  0.
         14    1    1    2    0    0 -0.46589552750E-02 -0.11765770724E-01  0.20812220968E-01  0.24357499187E-01  0.00000000000E+00 0. -1.
     999901    1    3    3    0    0 -0.94992249522E-01  0.80134622528E-01 -0.60592250309E-01  0.89079543443E+00  0.88000000000E+00 0. -1.
        -11    1    4    4    0    0  0.40947430337E-01 -0.16654767161E-01  0.12868545954E-01  0.46042740105E-01  0.51100000000E-03 0.  1.
         11    1    4    4    0    0  0.58703774460E-01 -0.51714084643E-01  0.26911483386E-01  0.82734326282E-01  0.51100000000E-03 0. -1.
</event>
<event>
 8    1  0.1126407E+005  0.1043930E+01  0.7957747E-01            NaN
         13   -1    0    0    0    0  0.00000000000E+00  0.00000000000E+00  0.74505805969E-08  0.10566000000E+00  0.10566000000E+00 0.  1.
     999900   -1    0    0    0    0 -0.00000000000E+00 -0.00000000000E+00 -0.74505805969E-08  0.93827000000E+00  0.93827000000E+00 0.  1.
     999902    2    1    2    0    0 -0.21211132701E-01 -0.96802336452E-02  0.25712986598E-02  0.10204730042E+01  0.10202033727E+01 0.  0.
     999903    2    3    3    0    0 -0.41128275461E-01  0.52859000234E-01  0.11123119682E+00  0.13136399976E+00  0.19962773868E-01 0.  0.
         14    1    1    2    0    0  0.21211132701E-01  0.96802336452E-02 -0.25712986598E-02  0.23456995773E-01  0.00000000000E+00 0. -1.
     999901    1    3    3    0    0  0.19917142760E-01 -0.62539233879E-01 -0.10865989816E+00  0.88910900446E+00  0.88000000000E+00 0.  1.
        -11    1    4    4    0    0 -0.19415156607E-01  0.10043387761E-01  0.35948109684E-01  0.42075475691E-01  0.51100000000E-03 0.  1.
         11    1    4    4    0    0 -0.21713118854E-01  0.42815612473E-01  0.75283087134E-01  0.89288524073E-01  0.51100000000E-03 0. -1.
</event>
<event>
 8    1  0.1126407E+005  0.1043930E+01  0.7957747E-01            NaN
         13   -1    0    0    0    0  0.00000000000E+00  0.00000000000E+00  0.74505805969E-08  0.10566000000E+00  0.10566000000E+00 0.  1.
     999900   -1    0    0    0    0 -0.00000000000E+00 -0.00000000000E+00 -0.74505805969E-08  0.93827000000E+00  0.93827000000E+00 0. -1.
     999902    2    1    2    0    0 -0.79828321613E-02 -0.19728257254E-01 -0.66509609938E-02  0.10216328023E+01  0.10213894545E+01 0.  0.
     999903    2    3    3    0    0 -0.78870291002E-01 -0.10603573807E+00 -0.13842461043E-01  0.13454445791E+00  0.21130472675E-01 0.  0.
         14    1    1    2    0    0  0.79828321613E-02  0.19728257254E-01  0.66509609938E-02  0.22297197710E-01  0.00000000000E+00 0. -1.
     999901    1    3    3    0    0  0.70887458840E-01  0.86307480815E-01  0.71915000496E-02  0.88708834438E+00  0.88000000000E+00 0.  1.
        -11    1    4    4    0    0 -0.32202871751E-01 -0.38556169095E-01 -0.15199050416E-01  0.52486906737E-01  0.51100000000E-03 0. -1.
         11    1    4    4    0    0 -0.46667419251E-01 -0.67479568974E-01  0.13565893723E-02  0.82057551171E-01  0.51100000000E-03 0.  1.
</event>
<event>
 8    1  0.1126407E+005  0.1043930E+01  0.7957747E-01            NaN
         13   -1    0    0    0    0  0.00000000000E+00  0.00000000000E+00  0.74505805969E-08  0.10566000000E+00  0.10566000000E+00 0.  1.
     999900   -1    0    0    0    0 -0.00000000000E+00 -0.00000000000E+00 -0.74505805969E-08  0.93827000000E+00  0.93827000000E+00 0.  1.
     999902    2    1    2    0    0 -0.63197186129E-02  0.23311961538E-01  0.32411369453E-02  0.10195601136E+01  0.10192688232E+01 0.  0.
     999903    2    3    3    0    0 -0.71410390070E-02  0.34704479005E-01  0.12462883315E+00  0.13115399206E+00  0.20337853374E-01 0.  0.
         14    1    1    2    0    0  0.63197186129E-02 -0.23311961538E-01 -0.32411369453E-02  0.24369886393E-01  0.00000000000E+00 0. -1.
     999901    1    3    3    0    0  0.82132039412E-03 -0.11392517467E-01 -0.12138769620E+00  0.88840612155E+00  0.88000000000E+00 0.  1.
        -11    1    4    4    0    0 -0.11052725188E-01  0.13774308859E-01  0.76654430410E-01  0.78664204954E-01  0.51100000000E-03 0. -1.
         11    1    4    4    0    0  0.39116861814E-02  0.20930170146E-01  0.47974402736E-01  0.52489787101E-01  0.51100000000E-03 0.  1.
</event>
<event>
 8    1  0.1126407E+005  0.1043930E+01  0.7957747E-01            NaN
         13   -1    0    0    0    0  0.00000000000E+00  0.00000000000E+00  0.74505805969E-08  0.10566000000E+00  0.10566000000E+00 0.  1.
     999900   -1    0    0    0    0 -0.00000000000E+00 -0.00000000000E+00 -0.74505805969E-08  0.93827000000E+00  0.93827000000E+00 0. -1.
     999902    2    1    2    0    0 -0.95509870896E-02 -0.19331448396E-01  0.89065521911E-02  0.10206007711E+01  0.10203341026E+01 0.  0.
     999903    2    3    3    0    0  0.12258178900E+00  0.25398195358E-01 -0.23986424230E-01  0.12900570632E+00  0.19893727544E-01 0.  0.
         14    1    1    2    0    0  0.95509870896E-02  0.19331448396E-01 -0.89065521911E-02  0.23329228950E-01  0.00000000000E+00 0.  1.
     999901    1    3    3    0    0 -0.13213277609E+00 -0.44729643753E-01  0.32892976421E-01  0.89159506473E+00  0.88000000000E+00 0.  1.
        -11    1    4    4    0    0  0.47797917291E-01  0.19800994878E-01 -0.86166975067E-02  0.52452158130E-01  0.51100000000E-03 0. -1.
         11    1    4    4    0    0  0.74783871706E-01  0.55972004792E-02 -0.15369726723E-01  0.76553548194E-01  0.51100000000E-03 0.  1.
</event>
<event>
 8    1  0.1126407E+005  0.1043930E+01  0.7957747E-01            NaN
         13   -1    0    0    0    0  0.00000000000E+00  0.00000000000E+00  0.74505805969E-08  0.10566000000E+00  0.10566000000E+00 0.  1.
     999900   -1    0    0    0    0 -0.00000000000E+00 -0.00000000000E+00 -0.74505805969E-08  0.93827000000E+00  0.93827000000E+00 0.  1.
     999902    2    1    2    0    0  0.99101174753E-02  0.16991285538E-01  0.11466766558E-01  0.10211615800E+01  0.10209077194E+01 0.  0.
     999903    2    3    3    0    0  0.37108017286E-01  0.40922512835E-02 -0.12333443760E+00  0.13038805355E+00  0.19897475767E-01 0.  0.
         14    1    1    2    0    0 -0.99101174753E-02 -0.16991285538E-01 -0.11466766558E-01  0.22768419969E-01  0.00000000000E+00 0.  1.
     999901    1    3    3    0    0 -0.27197899811E-01  0.12899034254E-01  0.13480120416E+00  0.89077352648E+00  0.88000000000E+00 0. -1.
        -11    1    4    4    0    0  0.25836292042E-01  0.10657012494E-01 -0.67721423164E-01  0.73263484617E-01  0.51100000000E-03 0.  1.
         11    1    4    4    0    0  0.11271725245E-01 -0.65647612102E-02 -0.55613014438E-01  0.57124568932E-01  0.51100000000E-03 0. -1.
</event>
<event>
 8    1  0.1126407E+005  0.1043930E+01  0.7957747E-01            NaN
         13   -1    0    0    0    0  0.00000000000E+00  0.00000000000E+00  0.74505805969E-08  0.10566000000E+00  0.10566000000E+00 0.  1.
     999900   -1    0    0    0    0 -0.00000000000E+00 -0.00000000000E+00 -0.74505805969E-08  0.93827000000E+00  0.93827000000E+00 0. -1.
     999902    2    1    2    0    0 -0.20240636069E-01 -0.10361144148E-01 -0.23331763788E-02  0.10210721705E+01  0.10208162896E+01 0.  0.
     999903    2    3    3    0    0  0.56676815054E-01  0.97343270080E-01  0.59864738760E-01  0.12900428309E+00  0.19244337215E-01 0.  0.
         14    1    1    2    0    0  0.20240636069E-01  0.10361144148E-01  0.23331763788E-02  0.22857829480E-01  0.00000000000E+00 0. -1.
     999901    1    3    3    0    0 -0.76917451123E-01 -0.10770441423E+00 -0.62197915139E-01  0.89206788743E+00  0.88000000000E+00 0. -1.
        -11    1    4    4    0    0  0.25246126634E-01  0.36289499978E-01  0.33406317386E-01  0.55412434353E-01  0.51100000000E-03 0.  1.
         11    1    4    4    0    0  0.31430688420E-01  0.61053770103E-01  0.26458421374E-01  0.73591848740E-01  0.51100000000E-03 0. -1.
</event>
<event>
 8    1  0.1126407E+005  0.1043930E+01  0.7957747E-01            NaN
         13   -1    0    0    0    0  0.00000000000E+00  0.00000000000E+00  0.74505805969E-08  0.10566000000E+00  0.10566000000E+00 0. -1.
     999900   -1    0    0    0    0 -0.00000000000E+00 -0.00000000000E+00 -0.74505805969E-08  0.93827000000E+00  0.93827000000E+00 0.  1.
     999902    2    1    2    0    0  0.61237505206E-02  0.47851117779E-02  0.19313833409E-01  0.10231112158E+01  0.10228993783E+01 0.  0.
     999903    2    3    3    0    0 -0.16189472138E-02 -0.10693196648E+00 -0.74023194527E-01  0.13111768682E+00  0.16593613916E-01 0.  0.
         14    1    1    2    0    0 -0.61237505206E-02 -0.47851117779E-02 -0.19313833409E-01  0.20818784214E-01  0.00000000000E+00 0.  1.
     999901    1    3    3    0    0  0.77426977344E-02  0.11171707826E+00  0.93337027936E-01  0.89199352897E+00  0.88000000000E+00 0. -1.
        -11    1    4    4    0    0  0.16512058290E-02 -0.45723479932E-01 -0.22240201943E-01  0.50874854312E-01  0.51100000000E-03 0.  1.
         11    1    4    4    0    0 -0.32701530427E-02 -0.61208486547E-01 -0.51782992584E-01  0.80242832504E-01  0.51100000000E-03 0. -1.
</event>
<event>
 8    1  0.1126407E+005  0.1043930E+01  0.7957747E-01            NaN
         13   -1    0    0    0    0  0.00000000000E+00  0.00000000000E+00  0.74505805969E-08  0.10566000000E+00  0.10566000000E+00 0. -1.
     999900   -1    0    0    0    0 -0.00000000000E+00 -0.00000000000E+00 -0.74505805969E-08  0.93827000000E+00  0.93827000000E+00 0.  1.
     999902    2    1    2    0    0 -0.98080849252E-02 -0.44073575435E-02  0.22129796519E-01  0.10193261136E+01  0.10190291334E+01 0.  0.
     999903    2    3    3    0    0 -0.55408558850E-01  0.33063742847E-01  0.11409648862E+00  0.13256720669E+00  0.19817570224E-01 0.  0.
         14    1    1    2    0    0  0.98080849252E-02  0.44073575435E-02 -0.22129796519E-01  0.24603886368E-01  0.00000000000E+00 0.  1.
     999901    1    3    3    0    0  0.45600473925E-01 -0.37471100390E-01 -0.91966692099E-01  0.88675890694E+00  0.88000000000E+00 0.  1.
        -11    1    4    4    0    0 -0.38047927655E-01  0.27850664239E-01  0.65584194402E-01  0.80776555842E-01  0.51100000000E-03 0. -1.
         11    1    4    4    0    0 -0.17360631195E-01  0.52130786076E-02  0.48512294216E-01  0.51790650847E-01  0.51100000000E-03 0.  1.
</event>
<event>
 8    1  0.1126407E+005  0.1043930E+01  0.7957747E-01            NaN
         13   -1    0    0    0    0  0.00000000000E+00  0.00000000000E+00  0.74505805969E-08  0.10566000000E+00  0.10566000000E+00 0. -1.
     999900   -1    0    0    0    0 -0.00000000000E+00 -0.00000000000E+00 -0.74505805969E-08  0.93827000000E+00  0.93827000000E+00 0.  1.
     999902    2    1    2    0    0 -0.22190071895E-01 -0.40092385168E-02 -0.40280540874E-02  0.10210237017E+01  0.10207667220E+01 0.  0.
     999903    2    3    3    0    0 -0.12216409645E+00 -0.49925749636E-01  0.11832897986E-01  0.13403176179E+00  0.20195265713E-01 0.  0.
         14    1    1    2    0    0  0.22190071895E-01  0.40092385168E-02  0.40280540874E-02  0.22906298346E-01  0.00000000000E+00 0.  1.
     999901    1    3    3    0    0  0.99974024551E-01  0.45916511119E-01 -0.15860952073E-01  0.88699193986E+00  0.88000000000E+00 0.  1.
        -11    1    4    4    0    0 -0.52774114382E-01 -0.11447996718E-01  0.80009607720E-02  0.54593408686E-01  0.51100000000E-03 0. -1.
         11    1    4    4    0    0 -0.69389982064E-01 -0.38477752918E-01  0.38319372139E-02  0.79438353106E-01  0.51100000000E-03 0.  1.
</event>
<event>
 8    1  0.1126407E+005  0.1043930E+01  0.7957747E-01            NaN
         13   -1    0    0    0    0  0.00000000000E+00  0.00000000000E+00  0.74505805969E-08  0.10566000000E+00  0.10566000000E+00 0. -1.
     999900   -1    0    0    0    0 -0.00000000000E+00 -0.00000000000E+00 -0.74505805969E-08  0.93827000000E+00  0.93827000000E+00 0. -1.
     999902    2    1    2    0    0 -0.82201194948E-03 -0.16804729598E-01 -0.17372567687E-01  0.10197456921E+01  0.10194588740E+01 0.  0.
     999903    2    3    3    0    0  0.64098814762E-01  0.50587266027E-01 -0.10000227448E+00  0.13093521553E+00  0.21813899850E-01 0.  0.
         14    1    1    2    0    0  0.82201194948E-03  0.16804729598E-01  0.17372567687E-01  0.24184307899E-01  0.00000000000E+00 0. -1.
     999901    1    3    3    0    0 -0.64920826712E-01 -0.67391995625E-01  0.82629706794E-01  0.88881047657E+00  0.88000000000E+00 0. -1.
        -11    1    4    4    0    0  0.29726192580E-01  0.10198873261E-01 -0.39426519144E-01  0.50421970151E-01  0.51100000000E-03 0. -1.
         11    1    4    4    0    0  0.34372622182E-01  0.40388392766E-01 -0.60575755338E-01  0.80513245380E-01  0.51100000000E-03 0.  1.
</event>
<event>
 8    1  0.1126407E+005  0.1043930E+01  0.7957747E-01            NaN
         13   -1    0    0    0    0  0.00000000000E+00  0.00000000000E+00  0.74505805969E-08  0.10566000000E+00  0.10566000000E+00 0. -1.
     999900   -1    0    0    0    0 -0.00000000000E+00 -0.00000000000E+00 -0.74505805969E-08  0.93827000000E+00  0.93827000000E+00 0. -1.
     999902    2    1    2    0    0  0.10357897850E-01 -0.93130022981E-02  0.19255665365E-01  0.10201645059E+01  0.10198876509E+01 0.  0.
     999903    2    3    3    0    0 -0.12475492700E+00 -0.12509906503E-01 -0.21955567797E-01  0.12889346894E+00  0.20277815630E-01 0.  0.
         14    1    1    2    0    0 -0.10357897850E-01  0.93130022981E-02 -0.19255665365E-01  0.23765494068E-01  0.00000000000E+00 0.  1.
     999901    1    3    3    0    0  0.13511282485E+00  0.31969042050E-02  0.41211233161E-01  0.89127103699E+00  0.88000000000E+00 0.  1.
        -11    1    4    4    0    0 -0.73728471751E-02  0.38741707618E-02 -0.29933682212E-02  0.88650690277E-02  0.51100000000E-03 0. -1.
         11    1    4    4    0    0 -0.11738207983E+00 -0.16384077265E-01 -0.18962199576E-01  0.12002839992E+00  0.51100000000E-03 0.  1.
</event>
<event>
 8    1  0.1126407E+005  0.1043930E+01  0.7957747E-01            NaN
         13   -1    0    0    0    0  0.00000000000E+00  0.00000000000E+00  0.74505805969E-08  0.10566000000E+00  0.10566000000E+00 0.  1.
     999900   -1    0    0    0    0 -0.00000000000E+00 -0.00000000000E+00 -0.74505805969E-08  0.93827000000E+00  0.93827000000E+00 0. -1.
     999902    2    1    2    0    0 -0.12654047039E-01  0.19364451308E-01 -0.10062193546E-01  0.10187039298E+01  0.10183915465E+01 0.  0.
     999903    2    3    3    0    0  0.11028238516E+00  0.52432417305E-01  0.35393523935E-01  0.12838203348E+00  0.17829249127E-01 0.  0.
         14    1    1    2    0    0  0.12654047039E-01 -0.19364451308E-01  0.10062193546E-01  0.25226070243E-01  0.00000000000E+00 0. -1.
     999901    1    3    3    0    0 -0.12293643219E+00 -0.33067965997E-01 -0.45455717481E-01  0.89032189628E+00  0.88000000000E+00 0. -1.
        -11    1    4    4    0    0  0.34117548849E-01  0.25581111113E-01  0.12299785369E-01  0.44384076270E-01  0.51100000000E-03 0.  1.
         11    1    4    4    0    0  0.76164836307E-01  0.26851306192E-01  0.23093738567E-01  0.83997957212E-01  0.51100000000E-03 0. -1.
</event>
<event>
 8    1  0.1126407E+005  0.1043930E+01  0.7957747E-01            NaN
         13   -1    0    0    0    0  0.00000000000E+00  0.00000000000E+00  0.74505805969E-08  0.10566000000E+00  0.10566000000E+00 0.  1.
     999900   -1    0    0    0    0 -0.00000000000E+00 -0.00000000000E+00 -0.74505805969E-08  0.93827000000E+00  0.93827000000E+00 0.  1.
     999902    2    1    2    0    0  0.91168209966E-02  0.16282293441E-01 -0.14914356010E-01  0.10200413517E+01  0.10197615856E+01 0.  0.
     999903    2    3    3    0    0 -0.34189246047E-02  0.11477439738E+00  0.60532033200E-01  0.13125003919E+00  0.19431788492E-01 0.  0.
         14    1    1    2    0    0 -0.91168209966E-02 -0.16282293441E-01  0.14914356010E-01  0.23888648350E-01  0.00000000000E+00 0. -1.
     999901    1    3    3    0    0  0.12535745601E-01 -0.98492103944E-01 -0.75446389210E-01  0.88879131246E+00  0.88000000000E+00 0. -1.
        -11    1    4    4    0    0  0.92048799950E-03  0.40117179083E-01  0.31540668138E-01  0.51042239599E-01  0.51100000000E-03 0. -1.
         11    1    4    4    0    0 -0.43394126042E-02  0.74657218301E-01  0.28991365063E-01  0.80207799592E-01  0.51100000000E-03 0.  1.
</event>
<event>
 7    1  0.1126407E+005  0.1043930E+01  0.7957747E-01            NaN
         13   -1    0    0    0    0  0.00000000000E+00  0.00000000000E+00  0.74505805969E-08  0.10566000000E+00  0.10566000000E+00 0.  1.
     999900   -1    0    0    0    0 -0.00000000000E+00 -0.00000000000E+00 -0.74505805969E-08  0.93827000000E+00  0.93827000000E+00 0.  1.
     999903    2    1    2    0    0  0.22166974170E-01  0.60692071850E-01 -0.89903656749E-01  0.11261620670E+00  0.20611651696E-01 0.  0.
         14    1    1    2    0    0  0.27889623026E-01 -0.21986278693E-01 -0.22301488749E-01  0.41935473335E-01  0.00000000000E+00 0. -1.
     999901    1    1    2    0    0 -0.50056597197E-01 -0.38705793156E-01  0.11220514550E+00  0.88937831996E+00  0.88000000000E+00 0. -1.
        -11    1    3    3    0    0  0.60002752381E-02  0.35129364395E-01 -0.61716805618E-01  0.71269213286E-01  0.51100000000E-03 0.  1.
         11    1    3    3    0    0  0.16166698932E-01  0.25562707455E-01 -0.28186851130E-01  0.41346993414E-01  0.51100000000E-03 0. -1.
</event>
<event>
 8    1  0.1126407E+005  0.1043930E+01  0.7957747E-01            NaN
         13   -1    0    0    0    0  0.00000000000E+00  0.00000000000E+00  0.74505805969E-08  0.10566000000E+00  0.10566000000E+00 0.  1.
     999900   -1    0    0    0    0 -0.00000000000E+00 -0.00000000000E+00 -0.74505805969E-08  0.93827000000E+00  0.93827000000E+00 0. -1.
     999902    2    1    2    0    0 -0.20281523501E-01 -0.79640040736E-03 -0.12500108170E-01  0.10200924843E+01  0.10198139288E+01 0.  0.
     999903    2    3    3    0    0 -0.32306868721E-01  0.45018518726E-01 -0.11857684239E+00  0.13245748655E+00  0.20349874602E-01 0.  0.
         14    1    1    2    0    0  0.20281523501E-01  0.79640040736E-03  0.12500108170E-01  0.23837515672E-01  0.00000000000E+00 0.  1.
     999901    1    3    3    0    0  0.12025345220E-01 -0.45814919133E-01  0.10607673422E+00  0.88763499778E+00  0.88000000000E+00 0.  1.
        -11    1    4    4    0    0 -0.59408451301E-02  0.21773295734E-01 -0.33421440171E-01  0.40331424871E-01  0.51100000000E-03 0. -1.
         11    1    4    4    0    0 -0.26366023591E-01  0.23245222992E-01 -0.85155402219E-01  0.92126061676E-01  0.51100000000E-03 0.  1.
</event>
<event>
 8    1  0.1126407E+005  0.1043930E+01  0.7957747E-01            NaN
         13   -1    0    0    0    0  0.00000000000E+00  0.00000000000E+00  0.74505805969E-08  0.10566000000E+00  0.10566000000E+00 0.  1.
     999900   -1    0    0    0    0 -0.00000000000E+00 -0.00000000000E+00 -0.74505805969E-08  0.93827000000E+00  0.93827000000E+00 0.  1.
     999902    2    1    2    0    0 -0.80324833749E-02 -0.12213446964E-01  0.17548803440E-01  0.10210903507E+01  0.10208348813E+01 0.  0.
     999903    2    3    3    0    0  0.58862286398E-01  0.51037649609E-01 -0.10009428816E+00  0.12850113479E+00  0.20592830831E-01 0.  0.
         14    1    1    2    0    0  0.80324833749E-02  0.12213446964E-01 -0.17548803440E-01  0.22839649255E-01  0.00000000000E+00 0.  1.
     999901    1    3    3    0    0 -0.66894769773E-01 -0.63251096573E-01  0.11764309160E+00  0.89258921596E+00  0.88000000000E+00 0. -1.
        -11    1    4    4    0    0  0.19039205002E-01  0.15903968483E-01 -0.17720122907E-01  0.30490841534E-01  0.51100000000E-03 0.  1.
         11    1    4    4    0    0  0.39823081396E-01  0.35133681127E-01 -0.82374165255E-01  0.98010293254E-01  0.51100000000E-03 0. -1.
</event>
<event>
 8    1  0.1126407E+005  0.1043930E+01  0.7957747E-01            NaN
         13   -1    0    0    0    0  0.00000000000E+00  0.00000000000E+00  0.74505805969E-08  0.10566000000E+00  0.10566000000E+00 0. -1.
     999900   -1    0    0    0    0 -0.00000000000E+00 -0.00000000000E+00 -0.74505805969E-08  0.93827000000E+00  0.93827000000E+00 0.  1.
     999902    2    1    2    0    0 -0.78199164945E-02 -0.12454325064E-02  0.25299308999E-01  0.10174204313E+01  0.10170750104E+01 0.  0.
     999903    2    3    3    0    0  0.10294963451E-01 -0.12536335764E+00 -0.11009719515E-01  0.12778468913E+00  0.19640650252E-01 0.  0.
         14    1    1    2    0    0  0.78199164945E-02  0.12454325064E-02 -0.25299308999E-01  0.26509568686E-01  0.00000000000E+00 0.  1.
     999901    1    3    3    0    0 -0.18114879946E-01  0.12411792513E+00  0.36309028514E-01  0.88963574218E+00  0.88000000000E+00 0. -1.
        -11    1    4    4    0    0  0.12450496878E-01 -0.12416909328E+00 -0.10777628046E-01  0.12525732308E+00  0.51100000000E-03 0.  1.
         11    1    4    4    0    0 -0.21555334263E-02 -0.11942643597E-02 -0.23209146933E-03  0.25273660524E-02  0.51100000000E-03 0. -1.
</event>
<event>
 8    1  0.1126407E+005  0.1043930E+01  0.7957747E-01            NaN
         13   -1    0    0    0    0  0.00000000000E+00  0.00000000000E+00  0.74505805969E-08  0.10566000000E+00  0.10566000000E+00 0. -1.
     999900   -1    0    0    0    0 -0.00000000000E+00 -0.00000000000E+00 -0.74505805969E-08  0.93827000000E+00  0.93827000000E+00 0. -1.
     999902    2    1    2    0    0  0.48866482703E-02  0.20040869561E-01  0.11880379880E-01  0.10201253952E+01  0.10198476174E+01 0.  0.
     999903    2    3    3    0    0 -0.26353627350E-02 -0.70763237683E-02 -0.12698353042E+00  0.12879206337E+00  0.20138497870E-01 0.  0.
         14    1    1    2    0    0 -0.48866482703E-02 -0.20040869561E-01 -0.11880379880E-01  0.23804604810E-01  0.00000000000E+00 0. -1.
     999901    1    3    3    0    0  0.75220110053E-02  0.27117193329E-01  0.13886391030E+00  0.89133333182E+00  0.88000000000E+00 0.  1.
        -11    1    4    4    0    0  0.21033677824E-02  0.10550289659E-02 -0.10292506971E+00  0.10295323374E+00  0.51100000000E-03 0.  1.
         11    1    4    4    0    0 -0.47387305173E-02 -0.81313527342E-02 -0.24058460703E-01  0.25838829629E-01  0.51100000000E-03 0. -1.
</event>
<event>
 8    1  0.1126407E+005  0.1043930E+01  0.7957747E-01            NaN
         13   -1    0    0    0    0  0.00000000000E+00  0.00000000000E+00  0.74505805969E-08  0.10566000000E+00  0.10566000000E+00 0.  1.
     999900   -1    0    0    0    0 -0.00000000000E+00 -0.00000000000E+00 -0.74505805969E-08  0.93827000000E+00  0.93827000000E+00 0. -1.
     999902    2    1    2    0    0  0.18568466756E-01 -0.13287893149E-01 -0.43731038999E-02  0.10206817721E+01  0.10204169735E+01 0.  0.
     999903    2    3    3    0    0  0.12846062055E+00 -0.17860250049E-01  0.21974071027E-01  0.13344371751E+00  0.22433153621E-01 0.  0.
         14    1    1    2    0    0 -0.18568466756E-01  0.13287893149E-01  0.43731038999E-02  0.23248227883E-01  0.00000000000E+00 0.  1.
     999901    1    3    3    0    0 -0.10989215380E+00  0.45723569001E-02 -0.26347174927E-01  0.88723805461E+00  0.88000000000E+00 0. -1.
        -11    1    4    4    0    0  0.64910019713E-01 -0.60891464077E-02  0.62640949737E-04  0.65197035270E-01  0.51100000000E-03 0. -1.
         11    1    4    4    0    0  0.63550600839E-01 -0.11771103641E-01  0.21911430077E-01  0.68246682241E-01  0.51100000000E-03 0.  1.
</event>
<event>
 8    1  0.1126407E+005  0.1043930E+01  0.7957747E-01            NaN
         13   -1    0    0    0    0  0.00000000000E+00  0.00000000000E+00  0.74505805969E-08  0.10566000000E+00  0.10566000000E+00 0.  1.
     999900   -1    0    0    0    0 -0.00000000000E+00 -0.00000000000E+00 -0.74505805969E-08  0.93827000000E+00  0.93827000000E+00 0. -1.
     999902    2    1    2    0    0  0.67875341994E-02 -0.21731785182E-01 -0.50704502065E-02  0.10206051083E+01  0.10203385401E+01 0.  0.
     999903    2    3    3    0    0  0.27141606203E-01  0.82489253864E-01  0.92846776321E-01  0.12882929764E+00  0.20864329993E-01 0.  0.
         14    1    1    2    0    0 -0.67875341994E-02  0.21731785182E-01  0.50704502065E-02  0.23324891704E-01  0.00000000000E+00 0.  1.
     999901    1    3    3    0    0 -0.20354072004E-01 -0.10422103905E+00 -0.97917226528E-01  0.89177581066E+00  0.88000000000E+00 0. -1.
        -11    1    4    4    0    0  0.87239138087E-02  0.14389933565E-01  0.84720946003E-02  0.18847131561E-01  0.51100000000E-03 0.  1.
         11    1    4    4    0    0  0.18417692394E-01  0.68099320298E-01  0.84374681721E-01  0.10998216608E+00  0.51100000000E-03 0. -1.
</event>
<event>
 8    1  0.1126407E+005  0.1043930E+01  0.7957747E-01            NaN
         13   -1    0    0    0    0  0.00000000000E+00  0.00000000000E+00  0.74505805969E-08  0.10566000000E+00  0.10566000000E+00 0. -1.
     999900   -1    0    0    0    0 -0.00000000000E+00 -0.00000000000E+00 -0.74505805969E-08  0.93827000000E+00  0.93827000000E+00 0.  1.
     999902    2    1    2    0    0 -0.21347075944E-01 -0.12176137224E-01 -0.43461728514E-02  0.10189731335E+01  0.10186674637E+01 0.  0.
     999903    2    3    3    0    0 -0.85737399683E-01  0.72627121769E-01  0.62656298873E-01  0.13002598219E+00  0.18850563288E-01 0.  0.
         14    1    1    2    0    0  0.21347075944E-01  0.12176137224E-01  0.43461728514E-02  0.24956866540E-01  0.00000000000E+00 0. -1.
     999901    1    3    3    0    0  0.64390323740E-01 -0.84803258992E-01 -0.67002471724E-01  0.88894715127E+00  0.88000000000E+00 0.  1.
        -11    1    4    4    0    0 -0.45624056384E-01  0.50543633929E-01  0.39327117330E-01  0.78632669611E-01  0.51100000000E-03 0. -1.
         11    1    4    4    0    0 -0.40113343299E-01  0.22083487840E-01  0.23329181543E-01  0.51393312583E-01  0.51100000000E-03 0.  1.
</event>
<event>
 8    1  0.1126407E+005  0.1043930E+01  0.7957747E-01            NaN
         13   -1    0    0    0    0  0.00000000000E+00  0.00000000000E+00  0.74505805969E-08  0.10566000000E+00  0.10566000000E+00 0. -1.
     999900   -1    0    0    0    0 -0.00000000000E+00 -0.00000000000E+00 -0.74505805969E-08  0.93827000000E+00  0.93827000000E+00 0.  1.
     999902    2    1    2    0    0  0.97988372098E-02  0.79805681933E-02  0.20640950720E-01  0.10197276132E+01  0.10194403610E+01 0.  0.
     999903    2    3    3    0    0  0.52419771694E-01  0.63818239383E-02 -0.11533625097E+00  0.12826314426E+00  0.18984816179E-01 0.  0.
         14    1    1    2    0    0 -0.97988372098E-02 -0.79805681933E-02 -0.20640950720E-01  0.24202386783E-01  0.00000000000E+00 0.  1.
     999901    1    3    3    0    0 -0.42620934484E-01  0.15987442549E-02  0.13597720169E+00  0.89146446896E+00  0.88000000000E+00 0. -1.
        -11    1    4    4    0    0  0.44652335678E-02  0.83496573482E-03 -0.28894244687E-01  0.29253614744E-01  0.51100000000E-03 0.  1.
         11    1    4    4    0    0  0.47954538126E-01  0.55468582035E-02 -0.86442006285E-01  0.99009529512E-01  0.51100000000E-03 0. -1.
</event>
<event>
 8    1  0.1126407E+005  0.1043930E+01  0.7957747E-01            NaN
         13   -1    0    0    0    0  0.00000000000E+00  0.00000000000E+00  0.74505805969E-08  0.10566000000E+00  0.10566000000E+00 0. -1.
     999900   -1    0    0    0    0 -0.00000000000E+00 -0.00000000000E+00 -0.74505805969E-08  0.93827000000E+00  0.93827000000E+00 0. -1.
     999902    2    1    2    0    0 -0.25842051740E-01 -0.93178949904E-02 -0.23911087370E-02  0.10163555153E+01  0.10159813883E+01 0.  0.
     999903    2    3    3    0    0  0.10263376049E+00  0.62568676799E-01 -0.21285864287E-01  0.12392584003E+00  0.21354102642E-01 0.  0.
         14    1    1    2    0    0  0.25842051740E-01  0.93178949904E-02  0.23911087370E-02  0.27574484695E-01  0.00000000000E+00 0. -1.
     999901    1    3    3    0    0 -0.12847581223E+00 -0.71886571790E-01  0.18894755550E-01  0.89242967528E+00  0.88000000000E+00 0.  1.
        -11    1    4    4    0    0  0.44499685136E-01  0.21215739008E-01 -0.18075477645E-01  0.52510128280E-01  0.51100000000E-03 0.  1.
         11    1    4    4    0    0  0.58134075350E-01  0.41352937791E-01 -0.32103866424E-02  0.71415711746E-01  0.51100000000E-03 0. -1.
</event>
<event>
 8    1  0.1126407E+005  0.1043930E+01  0.7957747E-01            NaN
         13   -1    0    0    0    0  0.00000000000E+00  0.00000000000E+00  0.74505805969E-08  0.10566000000E+00  0.10566000000E+00 0.  1.
     999900   -1    0    0    0    0 -0.00000000000E+00 -0.00000000000E+00 -0.74505805969E-08  0.93827000000E+00  0.93827000000E+00 0. -1.
     999902    2    1    2    0    0  0.47786084831E-02  0.17479375292E-01  0.15737215401E-01  0.10199295082E+01  0.10196470850E+01 0.  0.
     999903    2    3    3    0    0  0.39823242725E-01 -0.26927450577E-01  0.12108640664E+00  0.13184249404E+00  0.20237270176E-01 0.  0.
         14    1    1    2    0    0 -0.47786084831E-02 -0.17479375292E-01 -0.15737215401E-01  0.24000491833E-01  0.00000000000E+00 0. -1.
     999901    1    3    3    0    0 -0.35044634242E-01  0.44406825869E-01 -0.10534919124E+00  0.88808701413E+00  0.88000000000E+00 0. -1.
        -11    1    4    4    0    0  0.37583539215E-01 -0.15961023333E-01  0.98517100787E-01  0.10664500436E+00  0.51100000000E-03 0.  1.
         11    1    4    4    0    0  0.22397035100E-02 -0.10966427244E-01  0.22569305856E-01  0.25197489679E-01  0.51100000000E-03 0. -1.
</event>
<event>
 8    1  0.1126407E+005  0.1043930E+01  0.7957747E-01            NaN
         13   -1    0    0    0    0  0.00000000000E+00  0.00000000000E+00  0.74505805969E-08  0.10566000000E+00  0.10566000000E+00 0. -1.
     999900   -1    0    0    0    0 -0.00000000000E+00 -0.00000000000E+00 -0.74505805969E-08  0.93827000000E+00  0.93827000000E+00 0. -1.
     999902    2    1    2    0    0 -0.17683984441E-01  0.24804613941E-02 -0.15809323006E-01  0.10200802476E+01  0.10198014027E+01 0.  0.
     999903    2    3    3    0    0 -0.78750307232E-01  0.10356118037E+00 -0.11931907445E-01  0.13218304531E+00  0.20086266028E-01 0.  0.
         14    1    1    2    0    0  0.17683984441E-01 -0.24804613941E-02  0.15809323006E-01  0.23849752375E-01  0.00000000000E+00 0. -1.
     999901    1    3    3    0    0  0.61066322791E-01 -0.10108071898E+00 -0.38774155611E-02  0.88789720232E+00  0.88000000000E+00 0. -1.
        -11    1    4    4    0    0 -0.51077511889E-01  0.71749553864E-01  0.99170662402E-03  0.88080391141E-01  0.51100000000E-03 0.  1.
         11    1    4    4    0    0 -0.27672795342E-01  0.31811626508E-01 -0.12923614069E-01  0.44102654169E-01  0.51100000000E-03 0. -1.
</event>
<event>
 8    1  0.1305969E+005  0.1043930E+01  0.7957747E-01            NaN
         13   -1    0    0    0    0  0.00000000000E+00  0.00000000000E+00  0.74505805969E-08  0.10566000000E+00  0.10566000000E+00 0. -1.
     999900   -1    0    0    0    0 -0.00000000000E+00 -0.00000000000E+00 -0.74505805969E-08  0.93827000000E+00  0.93827000000E+00 0. -1.
     999902    2    1    2    0    0  0.89755103700E-02 -0.16578439240E-01  0.14449736700E-01  0.10201771197E+01  0.10199005619E+01 0.  0.
     999903    2    3    3    0    0 -0.52471256672E-02 -0.12641992627E+00  0.35710580520E-01  0.13297958859E+00  0.19969860669E-01 0.  0.
         14    1    1    2    0    0 -0.89755103700E-02  0.16578439240E-01 -0.14449736700E-01  0.23752880346E-01  0.00000000000E+00 0.  1.
     999901    1    3    3    0    0  0.14222636037E-01  0.10984148703E+00 -0.21260843820E-01  0.88719753107E+00  0.88000000000E+00 0. -1.
        -11    1    4    4    0    0 -0.11806267137E-01 -0.67543013009E-01  0.23555097636E-01  0.72502070975E-01  0.51100000000E-03 0.  1.
         11    1    4    4    0    0  0.65591414694E-02 -0.58876913258E-01  0.12155482883E-01  0.60477517614E-01  0.51100000000E-03 0. -1.
</event>
<event>
 8    1  0.1126407E+005  0.1043930E+01  0.7957747E-01            NaN
         13   -1    0    0    0    0  0.00000000000E+00  0.00000000000E+00  0.74505805969E-08  0.10566000000E+00  0.10566000000E+00 0.  1.
     999900   -1    0    0    0    0 -0.00000000000E+00 -0.00000000000E+00 -0.74505805969E-08  0.93827000000E+00  0.93827000000E+00 0.  1.
     999902    2    1    2    0    0  0.13326234582E-01 -0.20834079817E-01  0.67960324482E-03  0.10191891578E+01  0.10188888213E+01 0.  0.
     999903    2    3    3    0    0 -0.11910814143E+00 -0.44482652445E-01 -0.90872142161E-02  0.12891194840E+00  0.19242069922E-01 0.  0.
         14    1    1    2    0    0 -0.13326234582E-01  0.20834079817E-01 -0.67960324482E-03  0.24740842155E-01  0.00000000000E+00 0.  1.
     999901    1    3    3    0    0  0.13243437601E+00  0.23648572627E-01  0.97668174610E-02  0.89027720945E+00  0.88000000000E+00 0.  1.
        -11    1    4    4    0    0 -0.61200168712E-01 -0.21628704298E-01  0.49237370512E-02  0.65098124455E-01  0.51100000000E-03 0. -1.
         11    1    4    4    0    0 -0.57907972715E-01 -0.22853948147E-01 -0.14010951267E-01  0.63813823944E-01  0.51100000000E-03 0.  1.
</event>
<event>
 8    1  0.1126407E+005  0.1043930E+01  0.7957747E-01            NaN
         13   -1    0    0    0    0  0.00000000000E+00  0.00000000000E+00  0.74505805969E-08  0.10566000000E+00  0.10566000000E+00 0. -1.
     999900   -1    0    0    0    0 -0.00000000000E+00 -0.00000000000E+00 -0.74505805969E-08  0.93827000000E+00  0.93827000000E+00 0.  1.
     999902    2    1    2    0    0 -0.71409459663E-02  0.18536422865E-01 -0.13354019668E-01  0.10199942125E+01  0.10197133282E+01 0.  0.
     999903    2    3    3    0    0 -0.79337489329E-01 -0.30570359371E-02 -0.10368484057E+00  0.13216637134E+00  0.20337671115E-01 0.  0.
         14    1    1    2    0    0  0.71409459663E-02 -0.18536422865E-01  0.13354019668E-01  0.23935787500E-01  0.00000000000E+00 0. -1.
     999901    1    3    3    0    0  0.72196543363E-01  0.21593458802E-01  0.90330820905E-01  0.88782784116E+00  0.88000000000E+00 0. -1.
        -11    1    4    4    0    0 -0.45163239881E-01 -0.77113480846E-02 -0.45809574800E-01  0.64791676859E-01  0.51100000000E-03 0.  1.
         11    1    4    4    0    0 -0.34174249448E-01  0.46543121475E-02 -0.57875265773E-01  0.67374694480E-01  0.51100000000E-03 0. -1.
</event>
<event>
 8    1  0.1126407E+005  0.1043930E+01  0.7957747E-01            NaN
         13   -1    0    0    0    0  0.00000000000E+00  0.00000000000E+00  0.74505805969E-08  0.10566000000E+00  0.10566000000E+00 0. -1.
     999900   -1    0    0    0    0 -0.00000000000E+00 -0.00000000000E+00 -0.74505805969E-08  0.93827000000E+00  0.93827000000E+00 0.  1.
     999902    2    1    2    0    0  0.42650902139E-02 -0.21812060570E-01 -0.79527442126E-02  0.10203248497E+01  0.10200517613E+01 0.  0.
     999903    2    3    3    0    0  0.48937363960E-01 -0.81547227910E-01  0.89185491248E-01  0.13184314529E+00  0.19589465018E-01 0.  0.
         14    1    1    2    0    0 -0.42650902139E-02  0.21812060570E-01  0.79527442126E-02  0.23605150314E-01  0.00000000000E+00 0. -1.
     999901    1    3    3    0    0 -0.44672273746E-01  0.59735167340E-01 -0.97138235460E-01  0.88848170440E+00  0.88000000000E+00 0.  1.
        -11    1    4    4    0    0  0.29809873356E-01 -0.52438981079E-01  0.43396243800E-01  0.74309961533E-01  0.51100000000E-03 0. -1.
         11    1    4    4    0    0  0.19127490604E-01 -0.29108246831E-01  0.45789247447E-01  0.57533183757E-01  0.51100000000E-03 0.  1.
</event>
<event>
 8    1  0.1126407E+005  0.1043930E+01  0.7957747E-01            NaN
         13   -1    0    0    0    0  0.00000000000E+00  0.00000000000E+00  0.74505805969E-08  0.10566000000E+00  0.10566000000E+00 0.  1.
     999900   -1    0    0    0    0 -0.00000000000E+00 -0.00000000000E+00 -0.74505805969E-08  0.93827000000E+00  0.93827000000E+00 0. -1.
     999902    2    1    2    0    0 -0.14886185398E-01 -0.14640034233E-01  0.11051791025E-01  0.10203064693E+01  0.10200329505E+01 0.  0.
     999903    2    3    3    0    0 -0.85701647927E-01  0.71946032152E-01 -0.63276156391E-01  0.13011737680E+00  0.20140898164E-01 0.  0.
         14    1    1    2    0    0  0.14886185398E-01  0.14640034233E-01 -0.11051791025E-01  0.23623530704E-01  0.00000000000E+00 0. -1.
     999901    1    3    3    0    0  0.70815462529E-01 -0.86586066385E-01  0.74327947416E-01  0.89018909249E+00  0.88000000000E+00 0. -1.
        -11    1    4    4    0    0 -0.48947794269E-01  0.28233687239E-01 -0.29132209718E-01  0.63576524150E-01  0.51100000000E-03 0.  1.
         11    1    4    4    0    0 -0.36753853658E-01  0.43712344913E-01 -0.34143946673E-01  0.66540852653E-01  0.51100000000E-03 0. -1.
</event>
<event>
 8    1  0.1126407E+005  0.1043930E+01  0.7957747E-01            NaN
         13   -1    0    0    0    0  0.00000000000E+00  0.00000000000E+00  0.74505805969E-08  0.10566000000E+00  0.10566000000E+00 0. -1.
     999900   -1    0    0    0    0 -0.00000000000E+00 -0.00000000000E+00 -0.74505805969E-08  0.93827000000E+00  0.93827000000E+00 0.  1.
     999902    2    1    2    0    0 -0.40043569010E-02 -0.15477939857E-02  0.23333061170E-01  0.10202052812E+01  0.10199293865E+01 0.  0.
     999903    2    3    3    0    0 -0.73847742816E-01 -0.10008434109E+00 -0.33481898780E-01  0.13014040187E+00  0.18577464894E-01 0.  0.
         14    1    1    2    0    0  0.40043569010E-02  0.15477939857E-02 -0.23333061170E-01  0.23724718839E-01  0.00000000000E+00 0.  1.
     999901    1    3    3    0    0  0.69843385915E-01  0.98536547108E-01  0.56814959950E-01  0.89006487929E+00  0.88000000000E+00 0.  1.
        -11    1    4    4    0    0 -0.47285179745E-01 -0.67005907772E-01 -0.30884399700E-01  0.87634394878E-01  0.51100000000E-03 0. -1.
         11    1    4    4    0    0 -0.26562563072E-01 -0.33078433322E-01 -0.25974990793E-02  0.42506006992E-01  0.51100000000E-03 0.  1.
</event>
<event>
 8    1  0.1126407E+005  0.1043930E+01  0.7957747E-01            NaN
         13   -1    0    0    0    0  0.00000000000E+00  0.00000000000E+00  0.74505805969E-08  0.10566000000E+00  0.10566000000E+00 0.  1.
     999900   -1    0    0    0    0 -0.00000000000E+00 -0.00000000000E+00 -0.74505805969E-08  0.93827000000E+00  0.93827000000E+00 0. -1.
     999902    2    1    2    0    0  0.82819587826E-02 -0.12780019120E-03  0.23830842921E-01  0.10187007264E+01  0.10183882627E+01 0.  0.
     999903    2    3    3    0    0 -0.46574367866E-01  0.10800413669E+00 -0.45482906859E-01  0.12768662532E+00  0.20027835215E-01 0.  0.
         14    1    1    2    0    0 -0.82819587826E-02  0.12780019120E-03 -0.23830842921E-01  0.25229273642E-01  0.00000000000E+00 0. -1.
     999901    1    3    3    0    0  0.54856326649E-01 -0.10813193688E+00  0.69313749780E-01  0.89101410104E+00  0.88000000000E+00 0.  1.
        -11    1    4    4    0    0 -0.16150150139E-01  0.51304689074E-01 -0.29646911140E-01  0.61418229636E-01  0.51100000000E-03 0.  1.
         11    1    4    4    0    0 -0.30424217727E-01  0.56699447618E-01 -0.15835995719E-01  0.66268395679E-01  0.51100000000E-03 0. -1.
</event>
<event>
 8    1  0.1126407E+005  0.1043930E+01  0.7957747E-01            NaN
         13   -1    0    0    0    0  0.00000000000E+00  0.00000000000E+00  0.74505805969E-08  0.10566000000E+00  0.10566000000E+00 0. -1.
     999900   -1    0    0    0    0 -0.00000000000E+00 -0.00000000000E+00 -0.74505805969E-08  0.93827000000E+00  0.93827000000E+00 0. -1.
     999902    2    1    2    0    0 -0.15243185969E-01 -0.17958651596E-01 -0.36568912676E-02  0.10200921994E+01  0.10198136371E+01 0.  0.
     999903    2    3    3    0    0 -0.30308259771E-01 -0.12725488966E+00 -0.13532666256E-01  0.13314791980E+00  0.20804757625E-01 0.  0.
         14    1    1    2    0    0  0.15243185969E-01  0.17958651596E-01  0.36568912676E-02  0.23837800641E-01  0.00000000000E+00 0.  1.
     999901    1    3    3    0    0  0.15065073802E-01  0.10929623806E+00  0.98757749883E-02  0.88694427955E+00  0.88000000000E+00 0.  1.
        -11    1    4    4    0    0  0.20760575574E-02 -0.13406035001E-01 -0.50275664876E-02  0.14476509774E-01  0.51100000000E-03 0. -1.
         11    1    4    4    0    0 -0.32384317329E-01 -0.11384885466E+00 -0.85050997683E-02  0.11867141003E+00  0.51100000000E-03 0.  1.
</event>
<event>
 8    1  0.1126407E+005  0.1043930E+01  0.7957747E-01            NaN
         13   -1    0    0    0    0  0.00000000000E+00  0.00000000000E+00  0.74505805969E-08  0.10566000000E+00  0.10566000000E+00 0.  1.
     999900   -1    0    0    0    0 -0.00000000000E+00 -0.00000000000E+00 -0.74505805969E-08  0.93827000000E+00  0.93827000000E+00 0.  1.
     999902    2    1    2    0    0 -0.35269852724E-02 -0.22983383969E-01  0.35112860684E-02  0.10204139482E+01  0.10201429414E+01 0.  0.
     999903    2    3    3    0    0 -0.10581380061E+00  0.68498205401E-01 -0.17297512472E-01  0.12953546045E+00  0.24324206751E-01 0.  0.
         14    1    1    2    0    0  0.35269852724E-02  0.22983383969E-01 -0.35112860684E-02  0.23516051830E-01  0.00000000000E+00 0. -1.
     999901    1    3    3    0    0  0.10228681534E+00 -0.91481589370E-01  0.20808798541E-01  0.89087848772E+00  0.88000000000E+00 0. -1.
        -11    1    4    4    0    0 -0.56494956331E-01  0.37824960681E-01 -0.21482683232E-01  0.71303397824E-01  0.51100000000E-03 0.  1.
         11    1    4    4    0    0 -0.49318844277E-01  0.30673244720E-01  0.41851707591E-02  0.58232062627E-01  0.51100000000E-03 0. -1.
</event>
<event>
 8    1  0.1126407E+005  0.1043930E+01  0.7957747E-01            NaN
         13   -1    0    0    0    0  0.00000000000E+00  0.00000000000E+00  0.74505805969E-08  0.10566000000E+00  0.10566000000E+00 0.  1.
     999900   -1    0    0    0    0 -0.00000000000E+00 -0.00000000000E+00 -0.74505805969E-08  0.93827000000E+00  0.93827000000E+00 0.  1.
     999902    2    1    2    0    0  0.96709794598E-02 -0.10557793414E-01  0.18580654410E-01  0.10204728995E+01  0.10202032656E+01 0.  0.
     999903    2    3    3    0    0 -0.91557937223E-01 -0.35724996525E-01 -0.80913705198E-01  0.12874434816E+00  0.19208025635E-01 0.  0.
         14    1    1    2    0    0 -0.96709794598E-02  0.10557793414E-01 -0.18580654410E-01  0.23457100498E-01  0.00000000000E+00 0. -1.
     999901    1    3    3    0    0  0.10122891668E+00  0.25167203111E-01  0.99494359609E-01  0.89172855134E+00  0.88000000000E+00 0. -1.
        -11    1    4    4    0    0 -0.55369738983E-01 -0.22012192108E-01 -0.60786237995E-01  0.85120928373E-01  0.51100000000E-03 0.  1.
         11    1    4    4    0    0 -0.36188198240E-01 -0.13712804417E-01 -0.20127467203E-01  0.43623419787E-01  0.51100000000E-03 0. -1.
</event>
<event>
 8    1  0.1126407E+005  0.1043930E+01  0.7957747E-01            NaN
         13   -1    0    0    0    0  0.00000000000E+00  0.00000000000E+00  0.74505805969E-08  0.10566000000E+00  0.10566000000E+00 0. -1.
     999900   -1    0    0    0    0 -0.00000000000E+00 -0.00000000000E+00 -0.74505805969E-08  0.93827000000E+00  0.93827000000E+00 0. -1.
     999902    2    1    2    0    0 -0.23963499045E-01 -0.45266315753E-02  0.22413434640E-02  0.10194399347E+01  0.10191457291E+01 0.  0.
     999903    2    3    3    0    0  0.42407026151E-01 -0.94470960371E-01 -0.74504920595E-01  0.12905517628E+00  0.19522733226E-01 0.  0.
         14    1    1    2    0    0  0.23963499045E-01  0.45266315753E-02 -0.22413434640E-02  0.24490065342E-01  0.00000000000E+00 0.  1.
     999901    1    3    3    0    0 -0.66370525196E-01  0.89944328796E-01  0.76746264059E-01  0.89038475837E+00  0.88000000000E+00 0.  1.
        -11    1    4    4    0    0  0.18681305673E-01 -0.45436722681E-01 -0.23626630775E-01  0.54515738575E-01  0.51100000000E-03 0.  1.
         11    1    4    4    0    0  0.23725720478E-01 -0.49034237691E-01 -0.50878289819E-01  0.74539437710E-01  0.51100000000E-03 0. -1.
</event>
<event>
 8    1  0.1126407E+005  0.1043930E+01  0.7957747E-01            NaN
         13   -1    0    0    0    0  0.00000000000E+00  0.00000000000E+00  0.74505805969E-08  0.10566000000E+00  0.10566000000E+00 0. -1.
     999900   -1    0    0    0    0 -0.00000000000E+00 -0.00000000000E+00 -0.74505805969E-08  0.93827000000E+00  0.93827000000E+00 0.  1.
     999902    2    1    2    0    0 -0.37772983323E-02 -0.13659665263E-01  0.18869219924E-01  0.10203312310E+01  0.10200582920E+01 0.  0.
     999903    2    3    3    0    0  0.91691502202E-01 -0.18942711498E-01 -0.86321431570E-01  0.12892376210E+00  0.20094501492E-01 0.  0.
         14    1    1    2    0    0  0.37772983323E-02  0.13659665263E-01 -0.18869219924E-01  0.23598769000E-01  0.00000000000E+00 0.  1.
     999901    1    3    3    0    0 -0.95468800535E-01  0.52830462347E-02  0.10519065149E+00  0.89140746890E+00  0.88000000000E+00 0. -1.
        -11    1    4    4    0    0  0.27494088234E-01 -0.86499193108E-03 -0.15241791898E-01  0.31452288313E-01  0.51100000000E-03 0.  1.
         11    1    4    4    0    0  0.64197413969E-01 -0.18077719567E-01 -0.71079639672E-01  0.97471473785E-01  0.51100000000E-03 0. -1.
</event>
<event>
 8    1  0.1126407E+005  0.1043930E+01  0.7957747E-01            NaN
         13   -1    0    0    0    0  0.00000000000E+00  0.00000000000E+00  0.74505805969E-08  0.10566000000E+00  0.10566000000E+00 0.  1.
     999900   -1    0    0    0    0 -0.00000000000E+00 -0.00000000000E+00 -0.74505805969E-08  0.93827000000E+00  0.93827000000E+00 0.  1.
     999902    2    1    2    0    0  0.17508931340E-01 -0.42507921969E-02 -0.14450307732E-01  0.10208336084E+01  0.10205722967E+01 0.  0.
     999903    2    3    3    0    0  0.77752974804E-01  0.94811118572E-01  0.42649857759E-01  0.13139387698E+00  0.20264926509E-01 0.  0.
         14    1    1    2    0    0 -0.17508931340E-01  0.42507921969E-02  0.14450307732E-01  0.23096391591E-01  0.00000000000E+00 0.  1.
     999901    1    3    3    0    0 -0.60244043464E-01 -0.99061910769E-01 -0.57100165491E-01  0.88943973142E+00  0.88000000000E+00 0. -1.
        -11    1    4    4    0    0  0.48565920210E-01  0.62090536063E-01  0.37332725168E-01  0.87223143511E-01  0.51100000000E-03 0.  1.
         11    1    4    4    0    0  0.29187054594E-01  0.32720582509E-01  0.53171325906E-02  0.44170733473E-01  0.51100000000E-03 0. -1.
</event>
<event>
 8    1  0.1126407E+005  0.1043930E+01  0.7957747E-01            NaN
         13   -1    0    0    0    0  0.00000000000E+00  0.00000000000E+00  0.74505805969E-08  0.10566000000E+00  0.10566000000E+00 0. -1.
     999900   -1    0    0    0    0 -0.00000000000E+00 -0.00000000000E+00 -0.74505805969E-08  0.93827000000E+00  0.93827000000E+00 0. -1.
     999902    2    1    2    0    0 -0.17123769671E-01 -0.16883835573E-01 -0.29320109928E-03  0.10198806059E+01  0.10195970169E+01 0.  0.
     999903    2    3    3    0    0  0.66200736686E-01 -0.93723608212E-01 -0.59222881603E-01  0.13065620715E+00  0.19925925034E-01 0.  0.
         14    1    1    2    0    0  0.17123769671E-01  0.16883835573E-01  0.29320109928E-03  0.24049394135E-01  0.00000000000E+00 0. -1.
     999901    1    3    3    0    0 -0.83324506357E-01  0.76839772639E-01  0.58929680504E-01  0.88922439871E+00  0.88000000000E+00 0.  1.
        -11    1    4    4    0    0  0.33345106336E-01 -0.40438961121E-01 -0.37273514272E-01  0.64317817752E-01  0.51100000000E-03 0. -1.
         11    1    4    4    0    0  0.32855630350E-01 -0.53284647091E-01 -0.21949367331E-01  0.66338389402E-01  0.51100000000E-03 0.  1.
</event>
<event>
 8    1  0.1126407E+005  0.1043930E+01  0.7957747E-01            NaN
         13   -1    0    0    0    0  0.00000000000E+00  0.00000000000E+00  0.74505805969E-08  0.10566000000E+00  0.10566000000E+00 0. -1.
     999900   -1    0    0    0    0 -0.00000000000E+00 -0.00000000000E+00 -0.74505805969E-08  0.93827000000E+00  0.93827000000E+00 0.  1.
     999902    2    1    2    0    0 -0.18051936183E-01  0.25765509804E-02 -0.14920179945E-01  0.10203689562E+01  0.10200968993E+01 0.  0.
     999903    2    3    3    0    0  0.77286839682E-01  0.44975788868E-01 -0.93176453668E-01  0.13075599434E+00  0.20474407541E-01 0.  0.
         14    1    1    2    0    0  0.18051936183E-01 -0.25765509804E-02  0.14920179945E-01  0.23561043791E-01  0.00000000000E+00 0.  1.
     999901    1    3    3    0    0 -0.95338775865E-01 -0.42399237887E-01  0.78256273722E-01  0.88961296187E+00  0.88000000000E+00 0.  1.
        -11    1    4    4    0    0  0.44891469370E-01  0.28186664428E-01 -0.68880147744E-01  0.86916442334E-01  0.51100000000E-03 0.  1.
         11    1    4    4    0    0  0.32395370312E-01  0.16789124440E-01 -0.24296305924E-01  0.43839552001E-01  0.51100000000E-03 0. -1.
</event>
<event>
 8    1  0.1126407E+005  0.1043930E+01  0.7957747E-01            NaN
         13   -1    0    0    0    0  0.00000000000E+00  0.00000000000E+00  0.74505805969E-08  0.10566000000E+00  0.10566000000E+00 0. -1.
     999900   -1    0    0    0    0 -0.00000000000E+00 -0.00000000000E+00 -0.74505805969E-08  0.93827000000E+00  0.93827000000E+00 0. -1.
     999902    2    1    2    0    0 -0.50228178446E-02  0.54786150120E-02  0.22172456274E-01  0.10205449249E+01  0.10202769633E+01 0.  0.
     999903    2    3    3    0    0  0.11223873809E+00  0.51769601270E-01  0.39695302879E-01  0.13138792070E+00  0.20234690343E-01 0.  0.
         14    1    1    2    0    0  0.50228178446E-02 -0.54786150120E-02 -0.22172456274E-01  0.23385075129E-01  0.00000000000E+00 0.  1.
     999901    1    3    3    0    0 -0.11726155593E+00 -0.46290986259E-01 -0.17522846605E-01  0.88915700417E+00  0.88000000000E+00 0. -1.
        -11    1    4    4    0    0  0.10464640327E+00  0.52976461674E-01  0.35168517547E-01  0.12245187200E+00  0.51100000000E-03 0. -1.
         11    1    4    4    0    0  0.75923348147E-02 -0.12068604032E-02  0.45267853323E-02  0.89360487026E-02  0.51100000000E-03 0.  1.
</event>
<event>
 8    1  0.1126407E+005  0.1043930E+01  0.7957747E-01            NaN
         13   -1    0    0    0    0  0.00000000000E+00  0.00000000000E+00  0.74505805969E-08  0.10566000000E+00  0.10566000000E+00 0.  1.
     999900   -1    0    0    0    0 -0.00000000000E+00 -0.00000000000E+00 -0.74505805969E-08  0.93827000000E+00  0.93827000000E+00 0. -1.
     999902    2    1    2    0    0 -0.10083596040E-01 -0.65060388670E-02  0.19387967246E-01  0.10211286684E+01  0.10208740650E+01 0.  0.
     999903    2    3    3    0    0 -0.57890689938E-01  0.10953810752E+00  0.40668372952E-01  0.13196916759E+00  0.20298168779E-01 0.  0.
         14    1    1    2    0    0  0.10083596040E-01  0.65060388670E-02 -0.19387967246E-01  0.22801331645E-01  0.00000000000E+00 0. -1.
     999901    1    3    3    0    0  0.47807093898E-01 -0.11604414638E+00 -0.21280405705E-01  0.88915950077E+00  0.88000000000E+00 0. -1.
        -11    1    4    4    0    0 -0.69920005589E-02  0.30266243847E-01  0.63779981589E-02  0.31715509927E-01  0.51100000000E-03 0.  1.
         11    1    4    4    0    0 -0.50898689379E-01  0.79271863669E-01  0.34290374793E-01  0.10025365766E+00  0.51100000000E-03 0. -1.
</event>
<event>
 7    1  0.1126407E+005  0.1043930E+01  0.7957747E-01            NaN
         13   -1    0    0    0    0  0.00000000000E+00  0.00000000000E+00  0.74505805969E-08  0.10566000000E+00  0.10566000000E+00 0.  1.
     999900   -1    0    0    0    0 -0.00000000000E+00 -0.00000000000E+00 -0.74505805969E-08  0.93827000000E+00  0.93827000000E+00 0. -1.
     999903    2    1    2    0    0 -0.89354286063E-01  0.34724920205E-01  0.10718842372E-01  0.97571971281E-01  0.14676085200E-01 0.  0.
         14    1    1    2    0    0 -0.43856286277E-01 -0.32958199425E-01 -0.12778580422E-01  0.56328579540E-01  0.00000000000E+00 0. -1.
     999901    1    1    2    0    0  0.13321057234E+00 -0.17667207799E-02  0.20597380500E-02  0.89002944918E+00  0.88000000000E+00 0. -1.
        -11    1    3    3    0    0 -0.22283896989E-01  0.10715205296E-01 -0.33453896277E-02  0.24956771473E-01  0.51100000000E-03 0. -1.
         11    1    3    3    0    0 -0.67070389074E-01  0.24009714909E-01  0.14064231999E-01  0.72615199809E-01  0.51100000000E-03 0.  1.
</event>
<event>
 8    1  0.1126407E+005  0.1043930E+01  0.7957747E-01            NaN
         13   -1    0    0    0    0  0.00000000000E+00  0.00000000000E+00  0.74505805969E-08  0.10566000000E+00  0.10566000000E+00 0. -1.
     999900   -1    0    0    0    0 -0.00000000000E+00 -0.00000000000E+00 -0.74505805969E-08  0.93827000000E+00  0.93827000000E+00 0.  1.
     999902    2    1    2    0    0  0.19292293875E-01 -0.39463618256E-02  0.12419349354E-01  0.10206489645E+01  0.10203834094E+01 0.  0.
     999903    2    3    3    0    0  0.71890717969E-01 -0.10935578198E+00 -0.74182214421E-02  0.13257730678E+00  0.19868313471E-01 0.  0.
         14    1    1    2    0    0 -0.19292293875E-01  0.39463618256E-02 -0.12419349354E-01  0.23281035479E-01  0.00000000000E+00 0.  1.
     999901    1    3    3    0    0 -0.52598424094E-01  0.10540942015E+00  0.19837570796E-01  0.88807165774E+00  0.88000000000E+00 0. -1.
        -11    1    4    4    0    0  0.16909707796E-01 -0.23603578126E-01  0.65184373939E-02  0.29762699225E-01  0.51100000000E-03 0. -1.
         11    1    4    4    0    0  0.54981010173E-01 -0.85752203853E-01 -0.13936658836E-01  0.10281460755E+00  0.51100000000E-03 0.  1.
</event>
<event>
 8    1  0.1126407E+005  0.1043930E+01  0.7957747E-01            NaN
         13   -1    0    0    0    0  0.00000000000E+00  0.00000000000E+00  0.74505805969E-08  0.10566000000E+00  0.10566000000E+00 0. -1.
     999900   -1    0    0    0    0 -0.00000000000E+00 -0.00000000000E+00 -0.74505805969E-08  0.93827000000E+00  0.93827000000E+00 0.  1.
     999902    2    1    2    0    0  0.90049595941E-02  0.15526369461E-01  0.15298506626E-01  0.10203460701E+01  0.10200734782E+01 0.  0.
     999903    2    3    3    0    0 -0.34101157029E-01 -0.57841870389E-01  0.11093393898E+00  0.13108391984E+00  0.19185524313E-01 0.  0.
         14    1    1    2    0    0 -0.90049595941E-02 -0.15526369461E-01 -0.15298506626E-01  0.23583929930E-01  0.00000000000E+00 0.  1.
     999901    1    3    3    0    0  0.43106116623E-01  0.73368239851E-01 -0.95635432351E-01  0.88926215023E+00  0.88000000000E+00 0.  1.
        -11    1    4    4    0    0 -0.16718062711E-01 -0.22973141485E-01  0.64398489355E-01  0.70389526229E-01  0.51100000000E-03 0. -1.
         11    1    4    4    0    0 -0.17383094318E-01 -0.34868728905E-01  0.46535449622E-01  0.60694393613E-01  0.51100000000E-03 0.  1.
</event>
<event>
 8    1  0.1126407E+005  0.1043930E+01  0.7957747E-01            NaN
         13   -1    0    0    0    0  0.00000000000E+00  0.00000000000E+00  0.74505805969E-08  0.10566000000E+00  0.10566000000E+00 0. -1.
     999900   -1    0    0    0    0 -0.00000000000E+00 -0.00000000000E+00 -0.74505805969E-08  0.93827000000E+00  0.93827000000E+00 0. -1.
     999902    2    1    2    0    0  0.93575429982E-02  0.15134620930E-01  0.16449047782E-01  0.10196979647E+01  0.10194099998E+01 0.  0.
     999903    2    3    3    0    0 -0.46058630837E-01 -0.90673181695E-01  0.77359104594E-01  0.12954276563E+00  0.21304312007E-01 0.  0.
         14    1    1    2    0    0 -0.93575429982E-02 -0.15134620930E-01 -0.16449047782E-01  0.24232035296E-01  0.00000000000E+00 0. -1.
     999901    1    3    3    0    0  0.55416173835E-01  0.10580780263E+00 -0.60910056812E-01  0.89015519907E+00  0.88000000000E+00 0.  1.
        -11    1    4    4    0    0 -0.20953414273E-01 -0.30648393490E-01  0.39732755365E-01  0.54381270334E-01  0.51100000000E-03 0.  1.
         11    1    4    4    0    0 -0.25105216564E-01 -0.60024788205E-01  0.37626349228E-01  0.75161495295E-01  0.51100000000E-03 0. -1.
</event>
<event>
 8    1  0.1126407E+005  0.1043930E+01  0.7957747E-01            NaN
         13   -1    0    0    0    0  0.00000000000E+00  0.00000000000E+00  0.74505805969E-08  0.10566000000E+00  0.10566000000E+00 0.  1.
     999900   -1    0    0    0    0 -0.00000000000E+00 -0.00000000000E+00 -0.74505805969E-08  0.93827000000E+00  0.93827000000E+00 0. -1.
     999902    2    1    2    0    0 -0.41071973532E-02 -0.34277890361E-01 -0.51781486615E-02  0.10090207453E+01  0.10084166839E+01 0.  0.
     999903    2    3    3    0    0 -0.87458937422E-01 -0.79200981280E-01  0.29765267041E-01  0.12325179184E+00  0.19574777133E-01 0.  0.
         14    1    1    2    0    0  0.41071973532E-02  0.34277890361E-01  0.51781486615E-02  0.34909254665E-01  0.00000000000E+00 0.  1.
     999901    1    3    3    0    0  0.83351740068E-01  0.44923090920E-01 -0.34943415702E-01  0.88576895349E+00  0.88000000000E+00 0. -1.
        -11    1    4    4    0    0 -0.32257816910E-01 -0.41643558149E-01  0.99960607486E-02  0.53618420703E-01  0.51100000000E-03 0.  1.
         11    1    4    4    0    0 -0.55201120511E-01 -0.37557423131E-01  0.19769206292E-01  0.69633371140E-01  0.51100000000E-03 0. -1.
</event>
<event>
 8    1  0.1126407E+005  0.1043930E+01  0.7957747E-01            NaN
         13   -1    0    0    0    0  0.00000000000E+00  0.00000000000E+00  0.74505805969E-08  0.10566000000E+00  0.10566000000E+00 0. -1.
     999900   -1    0    0    0    0 -0.00000000000E+00 -0.00000000000E+00 -0.74505805969E-08  0.93827000000E+00  0.93827000000E+00 0. -1.
     999902    2    1    2    0    0  0.18991742354E-01 -0.11587233663E-01 -0.72583195964E-02  0.10205284303E+01  0.10202600862E+01 0.  0.
     999903    2    3    3    0    0 -0.46310805200E-01  0.11782521359E+00 -0.82037978404E-02  0.12866919355E+00  0.21470617969E-01 0.  0.
         14    1    1    2    0    0 -0.18991742354E-01  0.11587233663E-01  0.72583195964E-02  0.23401569711E-01  0.00000000000E+00 0.  1.
     999901    1    3    3    0    0  0.65302547554E-01 -0.12941244725E+00  0.94547824396E-03  0.89185923673E+00  0.88000000000E+00 0. -1.
        -11    1    4    4    0    0 -0.24625242883E-01  0.35064022148E-01 -0.25795106879E-02  0.42927884092E-01  0.51100000000E-03 0. -1.
         11    1    4    4    0    0 -0.21685562317E-01  0.82761191438E-01 -0.56242871525E-02  0.85741309462E-01  0.51100000000E-03 0.  1.
</event>
<event>
 8    1  0.1126407E+005  0.1043930E+01  0.7957747E-01            NaN
         13   -1    0    0    0    0  0.00000000000E+00  0.00000000000E+00  0.74505805969E-08  0.10566000000E+00  0.10566000000E+00 0.  1.
     999900   -1    0    0    0    0 -0.00000000000E+00 -0.00000000000E+00 -0.74505805969E-08  0.93827000000E+00  0.93827000000E+00 0. -1.
     999902    2    1    2    0    0 -0.16171225875E-01  0.83993932164E-02  0.11495073810E-01  0.10223848132E+01  0.10221577722E+01 0.  0.
     999903    2    3    3    0    0  0.12084811366E+00  0.32454288109E-01  0.33931683442E-01  0.13117421023E+00  0.19944094312E-01 0.  0.
         14    1    1    2    0    0  0.16171225875E-01 -0.83993932164E-02 -0.11495073810E-01  0.21545186808E-01  0.00000000000E+00 0. -1.
     999901    1    3    3    0    0 -0.13701933953E+00 -0.24054894892E-01 -0.22436609632E-01  0.89121060296E+00  0.88000000000E+00 0. -1.
        -11    1    4    4    0    0  0.11452035001E+00  0.28045536750E-01  0.27382382676E-01  0.12104345790E+00  0.51100000000E-03 0.  1.
         11    1    4    4    0    0  0.63277636431E-02  0.44087513591E-02  0.65493007654E-02  0.10130752331E-01  0.51100000000E-03 0. -1.
</event>
<event>
 8    1  0.1126407E+005  0.1043930E+01  0.7957747E-01            NaN
         13   -1    0    0    0    0  0.00000000000E+00  0.00000000000E+00  0.74505805969E-08  0.10566000000E+00  0.10566000000E+00 0. -1.
     999900   -1    0    0    0    0 -0.00000000000E+00 -0.00000000000E+00 -0.74505805969E-08  0.93827000000E+00  0.93827000000E+00 0.  1.
     999902    2    1    2    0    0  0.47361851440E-02  0.21970033422E-01 -0.76041479450E-02  0.10202037090E+01  0.10199277773E+01 0.  0.
     999903    2    3    3    0    0 -0.10890966843E+00 -0.20221461127E-02 -0.69224717230E-01  0.13043514400E+00  0.18864261514E-01 0.  0.
         14    1    1    2    0    0 -0.47361851440E-02 -0.21970033422E-01  0.76041479450E-02  0.23726290993E-01  0.00000000000E+00 0.  1.
     999901    1    3    3    0    0  0.11364585358E+00  0.23992179535E-01  0.61620569285E-01  0.88976856501E+00  0.88000000000E+00 0. -1.
        -11    1    4    4    0    0 -0.75593248146E-01 -0.10937061687E-05 -0.37508155831E-01  0.84388755420E-01  0.51100000000E-03 0. -1.
         11    1    4    4    0    0 -0.33316420285E-01 -0.20210524065E-02 -0.31716561399E-01  0.46046388581E-01  0.51100000000E-03 0.  1.
</event>
<event>
 8    1  0.1126407E+005  0.1043930E+01  0.7957747E-01            NaN
         13   -1    0    0    0    0  0.00000000000E+00  0.00000000000E+00  0.74505805969E-08  0.10566000000E+00  0.10566000000E+00 0. -1.
     999900   -1    0    0    0    0 -0.00000000000E+00 -0.00000000000E+00 -0.74505805969E-08  0.93827000000E+00  0.93827000000E+00 0.  1.
     999902    2    1    2    0    0 -0.13323417094E-01 -0.20139450894E-01  0.72159991178E-03  0.10197715308E+01  0.10194853327E+01 0.  0.
     999903    2    3    3    0    0 -0.35579286568E-03 -0.31511793334E-01  0.12557463458E+00  0.13079134563E+00  0.18554447816E-01 0.  0.
         14    1    1    2    0    0  0.13323417094E-01  0.20139450894E-01 -0.72159991178E-03  0.24158469153E-01  0.00000000000E+00 0.  1.
     999901    1    3    3    0    0 -0.12967624229E-01  0.11372342439E-01 -0.12485303467E+00  0.88898018522E+00  0.88000000000E+00 0.  1.
        -11    1    4    4    0    0 -0.27594350782E-02 -0.14827846114E-01  0.91891551713E-01  0.93122488688E-01  0.51100000000E-03 0.  1.
         11    1    4    4    0    0  0.24036422125E-02 -0.16683947220E-01  0.33683082865E-01  0.37668856938E-01  0.51100000000E-03 0. -1.
</event>
<event>
 8    1  0.1126407E+005  0.1043930E+01  0.7957747E-01            NaN
         13   -1    0    0    0    0  0.00000000000E+00  0.00000000000E+00  0.74505805969E-08  0.10566000000E+00  0.10566000000E+00 0. -1.
     999900   -1    0    0    0    0 -0.00000000000E+00 -0.00000000000E+00 -0.74505805969E-08  0.93827000000E+00  0.93827000000E+00 0.  1.
     999902    2    1    2    0    0 -0.23713588577E-01  0.30609231791E-02  0.41868166500E-02  0.10196558786E+01  0.10193669005E+01 0.  0.
     999903    2    3    3    0    0 -0.70679013056E-01 -0.22171379597E-01 -0.10588347115E+00  0.13119772631E+00  0.22681291104E-01 0.  0.
         14    1    1    2    0    0  0.23713588577E-01 -0.30609231791E-02 -0.41868166500E-02  0.24274121355E-01  0.00000000000E+00 0.  1.
     999901    1    3    3    0    0  0.46965424479E-01  0.25232302776E-01  0.11007028780E+00  0.88845815234E+00  0.88000000000E+00 0. -1.
        -11    1    4    4    0    0 -0.33119551358E-01 -0.22054405845E-01 -0.57995743237E-01  0.70335402565E-01  0.51100000000E-03 0.  1.
         11    1    4    4    0    0 -0.37559461698E-01 -0.11697375181E-03 -0.47887727910E-01  0.60862323742E-01  0.51100000000E-03 0. -1.
</event>
<event>
 8    1  0.1126407E+005  0.1043930E+01  0.7957747E-01            NaN
         13   -1    0    0    0    0  0.00000000000E+00  0.00000000000E+00  0.74505805969E-08  0.10566000000E+00  0.10566000000E+00 0. -1.
     999900   -1    0    0    0    0 -0.00000000000E+00 -0.00000000000E+00 -0.74505805969E-08  0.93827000000E+00  0.93827000000E+00 0. -1.
     999902    2    1    2    0    0 -0.60403474349E-02 -0.35828911367E-02 -0.21993518359E-01  0.10208423896E+01  0.10205812788E+01 0.  0.
     999903    2    3    3    0    0 -0.79533209522E-01 -0.83916753205E-01 -0.62992579434E-01  0.13318499327E+00  0.20065504836E-01 0.  0.
         14    1    1    2    0    0  0.60403474349E-02  0.35828911367E-02  0.21993518359E-01  0.23087610440E-01  0.00000000000E+00 0. -1.
     999901    1    3    3    0    0  0.73492862087E-01  0.80333862068E-01  0.40999061075E-01  0.88765739629E+00  0.88000000000E+00 0.  1.
        -11    1    4    4    0    0 -0.29760663265E-01 -0.38723843250E-01 -0.36279987806E-01  0.60841858537E-01  0.51100000000E-03 0.  1.
         11    1    4    4    0    0 -0.49772546257E-01 -0.45192909954E-01 -0.26712591628E-01  0.72343134737E-01  0.51100000000E-03 0. -1.
</event>
<event>
 8    1  0.1126407E+005  0.1043930E+01  0.7957747E-01            NaN
         13   -1    0    0    0    0  0.00000000000E+00  0.00000000000E+00  0.74505805969E-08  0.10566000000E+00  0.10566000000E+00 0. -1.
     999900   -1    0    0    0    0 -0.00000000000E+00 -0.00000000000E+00 -0.74505805969E-08  0.93827000000E+00  0.93827000000E+00 0.  1.
     999902    2    1    2    0    0  0.12676215814E-01 -0.11557095078E-01  0.16432798698E-01  0.10201752159E+01  0.10198986133E+01 0.  0.
     999903    2    3    3    0    0  0.10602799924E+00  0.13051406883E-01 -0.74203352529E-01  0.13026789167E+00  0.71631157268E-02 0.  0.
         14    1    1    2    0    0 -0.12676215814E-01  0.11557095078E-01 -0.16432798698E-01  0.23754784088E-01  0.00000000000E+00 0.  1.
     999901    1    3    3    0    0 -0.93351783431E-01 -0.24608501961E-01  0.90636151227E-01  0.88990732425E+00  0.88000000000E+00 0. -1.
        -11    1    4    4    0    0  0.40374170397E-01  0.81785108538E-02 -0.26960352567E-01  0.49234981533E-01  0.51100000000E-03 0. -1.
         11    1    4    4    0    0  0.65653828848E-01  0.48728960291E-02 -0.47242999962E-01  0.81032910132E-01  0.51100000000E-03 0.  1.
</event>
<event>
 8    1  0.1126407E+005  0.1043930E+01  0.7957747E-01            NaN
         13   -1    0    0    0    0  0.00000000000E+00  0.00000000000E+00  0.74505805969E-08  0.10566000000E+00  0.10566000000E+00 0. -1.
     999900   -1    0    0    0    0 -0.00000000000E+00 -0.00000000000E+00 -0.74505805969E-08  0.93827000000E+00  0.93827000000E+00 0.  1.
     999902    2    1    2    0    0 -0.14080585556E-01  0.13837199228E-01  0.12707976836E-01  0.10204518474E+01  0.10201817237E+01 0.  0.
     999903    2    3    3    0    0  0.64002024533E-01 -0.98643719671E-01 -0.46361157859E-01  0.12790604258E+00  0.19589696145E-01 0.  0.
         14    1    1    2    0    0  0.14080585556E-01 -0.13837199228E-01 -0.12707976836E-01  0.23478152553E-01  0.00000000000E+00 0.  1.
     999901    1    3    3    0    0 -0.78082610089E-01  0.11248091890E+00  0.59069134695E-01  0.89254580487E+00  0.88000000000E+00 0. -1.
        -11    1    4    4    0    0  0.53834834574E-01 -0.71050638711E-01 -0.28946420238E-01  0.93725871777E-01  0.51100000000E-03 0. -1.
         11    1    4    4    0    0  0.10167189959E-01 -0.27593080960E-01 -0.17414737621E-01  0.34180170801E-01  0.51100000000E-03 0.  1.
</event>
<event>
 7    1  0.1126407E+005  0.1043930E+01  0.7957747E-01            NaN
         13   -1    0    0    0    0  0.00000000000E+00  0.00000000000E+00  0.74505805969E-08  0.10566000000E+00  0.10566000000E+00 0.  1.
     999900   -1    0    0    0    0 -0.00000000000E+00 -0.00000000000E+00 -0.74505805969E-08  0.93827000000E+00  0.93827000000E+00 0.  1.
     999902    2    1    2    0    0 -0.31338078981E-02  0.11512924931E-01  0.23262625495E-01  0.10177858240E+01  0.10174499819E+01 0.  0.
         14    1    1    2    0    0  0.31338078981E-02 -0.11512924931E-01 -0.23262625495E-01  0.26144175973E-01  0.00000000000E+00 0. -1.
     999901    1    3    3    0    0  0.36578669459E-01  0.84318290567E-01 -0.70193341511E-01  0.88756671770E+00  0.88000000000E+00 0. -1.
        -11    1    3    3    0    0 -0.24698811774E-01 -0.69952307968E-01  0.68635089310E-01  0.10106628171E+00  0.51100000000E-03 0.  1.
         11    1    3    3    0    0 -0.15013665584E-01 -0.28530576683E-02  0.24820877696E-01  0.29152824613E-01  0.51100000000E-03 0. -1.
</event>
<event>
 8    1  0.1126407E+005  0.1043930E+01  0.7957747E-01            NaN
         13   -1    0    0    0    0  0.00000000000E+00  0.00000000000E+00  0.74505805969E-08  0.10566000000E+00  0.10566000000E+00 0. -1.
     999900   -1    0    0    0    0 -0.00000000000E+00 -0.00000000000E+00 -0.74505805969E-08  0.93827000000E+00  0.93827000000E+00 0. -1.
     999902    2    1    2    0    0 -0.94103406457E-02  0.12759051507E-02 -0.21144262673E-01  0.10207510809E+01  0.10204878769E+01 0.  0.
     999903    2    3    3    0    0 -0.72887886955E-01  0.10585356638E+00 -0.26500606049E-01  0.13227228179E+00  0.16614837589E-01 0.  0.
         14    1    1    2    0    0  0.94103406457E-02 -0.12759051507E-02  0.21144262673E-01  0.23178919064E-01  0.00000000000E+00 0. -1.
     999901    1    3    3    0    0  0.63477546310E-01 -0.10457766123E+00  0.53563433769E-02  0.88847879914E+00  0.88000000000E+00 0.  1.
        -11    1    4    4    0    0 -0.39427415980E-01  0.61661851085E-01 -0.23038843913E-01  0.76731704399E-01  0.51100000000E-03 0.  1.
         11    1    4    4    0    0 -0.33460470975E-01  0.44191715299E-01 -0.34617621369E-02  0.55540577392E-01  0.51100000000E-03 0. -1.
</event>
<event>
 8    1  0.1126407E+005  0.1043930E+01  0.7957747E-01            NaN
         13   -1    0    0    0    0  0.00000000000E+00  0.00000000000E+00  0.74505805969E-08  0.10566000000E+00  0.10566000000E+00 0. -1.
     999900   -1    0    0    0    0 -0.00000000000E+00 -0.00000000000E+00 -0.74505805969E-08  0.93827000000E+00  0.93827000000E+00 0. -1.
     999902    2    1    2    0    0  0.24750861559E-01  0.15746910893E-01  0.16678975206E-01  0.10101845030E+01  0.10096207068E+01 0.  0.
     999903    2    3    3    0    0  0.69044204794E-01  0.88580616376E-01 -0.47692463792E-01  0.12372506739E+00  0.20486419520E-01 0.  0.
         14    1    1    2    0    0 -0.24750861559E-01 -0.15746910893E-01 -0.16678975206E-01  0.33745496952E-01  0.00000000000E+00 0. -1.
     999901    1    3    3    0    0 -0.44293343235E-01 -0.72833705484E-01  0.64371438998E-01  0.88645943566E+00  0.88000000000E+00 0.  1.
        -11    1    4    4    0    0  0.58548818583E-01  0.67493107224E-01 -0.44905677898E-01  0.10000032354E+00  0.51100000000E-03 0. -1.
         11    1    4    4    0    0  0.10495386211E-01  0.21087509153E-01 -0.27867858941E-02  0.23724743847E-01  0.51100000000E-03 0.  1.
</event>
<event>
 8    1  0.1126407E+005  0.1043930E+01  0.7957747E-01            NaN
         13   -1    0    0    0    0  0.00000000000E+00  0.00000000000E+00  0.74505805969E-08  0.10566000000E+00  0.10566000000E+00 0. -1.
     999900   -1    0    0    0    0 -0.00000000000E+00 -0.00000000000E+00 -0.74505805969E-08  0.93827000000E+00  0.93827000000E+00 0. -1.
     999902    2    1    2    0    0 -0.13477188085E-01  0.12910243754E-01 -0.13333889431E-01  0.10209930952E+01  0.10207354206E+01 0.  0.
     999903    2    3    3    0    0  0.90925462861E-01 -0.86786340835E-01 -0.21114891960E-01  0.12919722931E+00  0.21137091707E-01 0.  0.
         14    1    1    2    0    0  0.13477188085E-01 -0.12910243754E-01  0.13333889431E-01  0.22936904757E-01  0.00000000000E+00 0.  1.
     999901    1    3    3    0    0 -0.10440265095E+00  0.99696584589E-01  0.77810025285E-02  0.89179586594E+00  0.88000000000E+00 0.  1.
        -11    1    4    4    0    0  0.49346030200E-01 -0.35442130250E-01 -0.16540072794E-01  0.62968328724E-01  0.51100000000E-03 0. -1.
         11    1    4    4    0    0  0.41579432660E-01 -0.51344210585E-01 -0.45748191658E-02  0.66228900582E-01  0.51100000000E-03 0.  1.
</event>
<event>
 8    1  0.1126407E+005  0.1043930E+01  0.7957747E-01            NaN
         13   -1    0    0    0    0  0.00000000000E+00  0.00000000000E+00  0.74505805969E-08  0.10566000000E+00  0.10566000000E+00 0.  1.
     999900   -1    0    0    0    0 -0.00000000000E+00 -0.00000000000E+00 -0.74505805969E-08  0.93827000000E+00  0.93827000000E+00 0.  1.
     999902    2    1    2    0    0 -0.15678619440E-01 -0.40476352393E-03  0.17302807462E-01  0.10205768399E+01  0.10203096177E+01 0.  0.
     999903    2    3    3    0    0  0.62537802027E-01  0.11103226263E+00 -0.12169297463E-01  0.12961970043E+00  0.20347847829E-01 0.  0.
         14    1    1    2    0    0  0.15678619440E-01  0.40476352393E-03 -0.17302807462E-01  0.23353160110E-01  0.00000000000E+00 0. -1.
     999901    1    3    3    0    0 -0.78216421467E-01 -0.11143702616E+00  0.29472104925E-01  0.89095713946E+00  0.88000000000E+00 0. -1.
        -11    1    4    4    0    0  0.48796134888E-01  0.67121173157E-01 -0.95187671405E-02  0.83529531992E-01  0.51100000000E-03 0. -1.
         11    1    4    4    0    0  0.13741667140E-01  0.43911089475E-01 -0.26505303224E-02  0.46090168438E-01  0.51100000000E-03 0.  1.
</event>
<event>
 8    1  0.1126407E+005  0.1043930E+01  0.7957747E-01            NaN
         13   -1    0    0    0    0  0.00000000000E+00  0.00000000000E+00  0.74505805969E-08  0.10566000000E+00  0.10566000000E+00 0. -1.
     999900   -1    0    0    0    0 -0.00000000000E+00 -0.00000000000E+00 -0.74505805969E-08  0.93827000000E+00  0.93827000000E+00 0.  1.
     999902    2    1    2    0    0  0.84140214660E-02  0.82071400592E-02 -0.20509011872E-01  0.10202916313E+01  0.10200177648E+01 0.  0.
     999903    2    3    3    0    0 -0.12490457895E+00 -0.14204591457E-01  0.20999574902E-01  0.12900093930E+00  0.19933287045E-01 0.  0.
         14    1    1    2    0    0 -0.84140214660E-02 -0.82071400592E-02  0.20509011872E-01  0.23638368665E-01  0.00000000000E+00 0. -1.
     999901    1    3    3    0    0  0.13331860042E+00  0.22411731516E-01 -0.41508586775E-01  0.89129069203E+00  0.88000000000E+00 0. -1.
        -11    1    4    4    0    0 -0.22475549857E-01  0.50729812716E-02  0.33597435464E-02  0.23290222799E-01  0.51100000000E-03 0.  1.
         11    1    4    4    0    0 -0.10242902910E+00 -0.19277572728E-01  0.17639831356E-01  0.10571071650E+00  0.51100000000E-03 0. -1.
</event>
<event>
 8    1  0.1126407E+005  0.1043930E+01  0.7957747E-01            NaN
         13   -1    0    0    0    0  0.00000000000E+00  0.00000000000E+00  0.74505805969E-08  0.10566000000E+00  0.10566000000E+00 0. -1.
     999900   -1    0    0    0    0 -0.00000000000E+00 -0.00000000000E+00 -0.74505805969E-08  0.93827000000E+00  0.93827000000E+00 0. -1.
     999902    2    1    2    0    0 -0.15088237940E-02  0.18414473978E-01  0.15402775686E-01  0.10198755846E+01  0.10195918758E+01 0.  0.
     999903    2    3    3    0    0 -0.10905215216E-01 -0.41696273027E-01  0.12246075954E+00  0.13130200522E+00  0.19648817909E-01 0.  0.
         14    1    1    2    0    0  0.15088237940E-02 -0.18414473978E-01 -0.15402775686E-01  0.24054415394E-01  0.00000000000E+00 0. -1.
     999901    1    3    3    0    0  0.93963914221E-02  0.60110747005E-01 -0.10705798385E+00  0.88857357939E+00  0.88000000000E+00 0. -1.
        -11    1    4    4    0    0  0.37517044567E-02 -0.52091713725E-02  0.79728892030E-02  0.10248845592E-01  0.51100000000E-03 0.  1.
         11    1    4    4    0    0 -0.14656919673E-01 -0.36487101655E-01  0.11448787033E+00  0.12105315963E+00  0.51100000000E-03 0. -1.
</event>
<event>
 8    1  0.1126407E+005  0.1043930E+01  0.7957747E-01            NaN
         13   -1    0    0    0    0  0.00000000000E+00  0.00000000000E+00  0.74505805969E-08  0.10566000000E+00  0.10566000000E+00 0.  1.
     999900   -1    0    0    0    0 -0.00000000000E+00 -0.00000000000E+00 -0.74505805969E-08  0.93827000000E+00  0.93827000000E+00 0. -1.
     999902    2    1    2    0    0 -0.21089502479E-01 -0.27611055162E-02 -0.11472538212E-01  0.10197637022E+01  0.10194773162E+01 0.  0.
     999903    2    3    3    0    0  0.63167685272E-01  0.10503614994E+00  0.31702717638E-01  0.12814516001E+00  0.19833569347E-01 0.  0.
         14    1    1    2    0    0  0.21089502479E-01  0.27611055162E-02  0.11472538212E-01  0.24166297845E-01  0.00000000000E+00 0.  1.
     999901    1    3    3    0    0 -0.84257187751E-01 -0.10779725545E+00 -0.43175255850E-01  0.89161854214E+00  0.88000000000E+00 0. -1.
        -11    1    4    4    0    0  0.59657375095E-01  0.86671577082E-01  0.24032833717E-01  0.10792962010E+00  0.51100000000E-03 0.  1.
         11    1    4    4    0    0  0.35103101767E-02  0.18364572857E-01  0.76698839214E-02  0.20215539916E-01  0.51100000000E-03 0. -1.
</event>
<event>
 7    1  0.1126407E+005  0.1043930E+01  0.7957747E-01            NaN
         13   -1    0    0    0    0  0.00000000000E+00  0.00000000000E+00  0.74505805969E-08  0.10566000000E+00  0.10566000000E+00 0.  1.
     999900   -1    0    0    0    0 -0.00000000000E+00 -0.00000000000E+00 -0.74505805969E-08  0.93827000000E+00  0.93827000000E+00 0.  1.
     999903    2    1    2    0    0 -0.51556761927E-01  0.82244574550E-01 -0.10798732763E+00  0.14656235558E+00  0.19924643034E-01 0.  0.
         14    1    1    2    0    0  0.54972254952E-04 -0.62695385343E-03  0.62308696096E-02  0.62625736862E-02  0.00000000000E+00 0.  1.
     999901    1    1    2    0    0  0.51501789672E-01 -0.81617620696E-01  0.10175645802E+00  0.89110507074E+00  0.88000000000E+00 0. -1.
        -11    1    3    3    0    0 -0.29287325163E-01  0.50486489759E-01 -0.78570228841E-01  0.97878368624E-01  0.51100000000E-03 0.  1.
         11    1    3    3    0    0 -0.22269436764E-01  0.31758084790E-01 -0.29417098789E-01  0.48683986951E-01  0.51100000000E-03 0. -1.
</event>
<event>
 8    1  0.1126407E+005  0.1043930E+01  0.7957747E-01            NaN
         13   -1    0    0    0    0  0.00000000000E+00  0.00000000000E+00  0.74505805969E-08  0.10566000000E+00  0.10566000000E+00 0. -1.
     999900   -1    0    0    0    0 -0.00000000000E+00 -0.00000000000E+00 -0.74505805969E-08  0.93827000000E+00  0.93827000000E+00 0. -1.
     999902    2    1    2    0    0  0.23473960867E-01 -0.15683940724E-01 -0.14162162725E-01  0.10123455151E+01  0.10118526880E+01 0.  0.
     999903    2    3    3    0    0 -0.96165976743E-01  0.37053319141E-01 -0.62693694754E-01  0.12136277514E+00  0.13325925297E-01 0.  0.
         14    1    1    2    0    0 -0.23473960867E-01  0.15683940724E-01  0.14162162725E-01  0.31584484933E-01  0.00000000000E+00 0. -1.
     999901    1    3    3    0    0  0.11963993761E+00 -0.52737259865E-01  0.48531532030E-01  0.89098273993E+00  0.88000000000E+00 0.  1.
        -11    1    4    4    0    0 -0.63668679506E-01  0.30844797812E-01 -0.44887873046E-01  0.83787138450E-01  0.51100000000E-03 0.  1.
         11    1    4    4    0    0 -0.32497297237E-01  0.62085213292E-02 -0.17805821708E-01  0.37575636688E-01  0.51100000000E-03 0. -1.
</event>
<event>
 8    1  0.1126407E+005  0.1043930E+01  0.7957747E-01            NaN
         13   -1    0    0    0    0  0.00000000000E+00  0.00000000000E+00  0.74505805969E-08  0.10566000000E+00  0.10566000000E+00 0. -1.
     999900   -1    0    0    0    0 -0.00000000000E+00 -0.00000000000E+00 -0.74505805969E-08  0.93827000000E+00  0.93827000000E+00 0. -1.
     999902    2    1    2    0    0  0.10853263401E-01  0.56359841569E-02  0.20746209833E-01  0.10198475818E+01  0.10195632041E+01 0.  0.
     999903    2    3    3    0    0  0.95197975753E-01  0.56136262423E-01  0.71236112800E-01  0.13293521922E+00  0.19576879082E-01 0.  0.
         14    1    1    2    0    0 -0.10853263401E-01 -0.56359841569E-02 -0.20746209833E-01  0.24082418199E-01  0.00000000000E+00 0.  1.
     999901    1    3    3    0    0 -0.84344712352E-01 -0.50500278266E-01 -0.50489902968E-01  0.88691236259E+00  0.88000000000E+00 0.  1.
        -11    1    4    4    0    0  0.62730347874E-01  0.45253065406E-01  0.42679008661E-01  0.88344186987E-01  0.51100000000E-03 0.  1.
         11    1    4    4    0    0  0.32467627878E-01  0.10883197017E-01  0.28557104139E-01  0.44591032228E-01  0.51100000000E-03 0. -1.
</event>
<event>
 8    1  0.1126407E+005  0.1043930E+01  0.7957747E-01            NaN
         13   -1    0    0    0    0  0.00000000000E+00  0.00000000000E+00  0.74505805969E-08  0.10566000000E+00  0.10566000000E+00 0. -1.
     999900   -1    0    0    0    0 -0.00000000000E+00 -0.00000000000E+00 -0.74505805969E-08  0.93827000000E+00  0.93827000000E+00 0. -1.
     999902    2    1    2    0    0  0.39420514513E-02  0.21382676797E-01  0.56569884620E-02  0.10214631321E+01  0.10212160251E+01 0.  0.
     999903    2    3    3    0    0  0.11576830228E+00 -0.59440798703E-01  0.56998724898E-03  0.13069749389E+00  0.12083114590E-01 0.  0.
         14    1    1    2    0    0 -0.39420514513E-02 -0.21382676797E-01 -0.56569884620E-02  0.22466867942E-01  0.00000000000E+00 0.  1.
     999901    1    3    3    0    0 -0.11182625083E+00  0.80823475500E-01  0.50870012131E-02  0.89076563817E+00  0.88000000000E+00 0. -1.
        -11    1    4    4    0    0  0.39331090736E-01 -0.24015492315E-01  0.48456605208E-02  0.46340264527E-01  0.51100000000E-03 0. -1.
         11    1    4    4    0    0  0.76437211549E-01 -0.35425306388E-01 -0.42756732718E-02  0.84357229358E-01  0.51100000000E-03 0.  1.
</event>
<event>
 8    1  0.1126407E+005  0.1043930E+01  0.7957747E-01            NaN
         13   -1    0    0    0    0  0.00000000000E+00  0.00000000000E+00  0.74505805969E-08  0.10566000000E+00  0.10566000000E+00 0. -1.
     999900   -1    0    0    0    0 -0.00000000000E+00 -0.00000000000E+00 -0.74505805969E-08  0.93827000000E+00  0.93827000000E+00 0.  1.
     999902    2    1    2    0    0 -0.58818669318E-02 -0.20690483265E-01  0.79848194692E-02  0.10209855061E+01  0.10207276591E+01 0.  0.
     999903    2    3    3    0    0  0.77305904396E-01  0.66010436122E-01 -0.76596103043E-01  0.12880212411E+00  0.19734326511E-01 0.  0.
         14    1    1    2    0    0  0.58818669318E-02  0.20690483265E-01 -0.79848194692E-02  0.22944493856E-01  0.00000000000E+00 0. -1.
     999901    1    3    3    0    0 -0.83187771328E-01 -0.86700919388E-01  0.84580922512E-01  0.89218338203E+00  0.88000000000E+00 0. -1.
        -11    1    4    4    0    0  0.49062817659E-01  0.31206299610E-01 -0.49940759533E-01  0.76650725996E-01  0.51100000000E-03 0.  1.
         11    1    4    4    0    0  0.28243086737E-01  0.34804136512E-01 -0.26655343510E-01  0.52151398116E-01  0.51100000000E-03 0. -1.
</event>
<event>
 8    1  0.1126407E+005  0.1043930E+01  0.7957747E-01            NaN
         13   -1    0    0    0    0  0.00000000000E+00  0.00000000000E+00  0.74505805969E-08  0.10566000000E+00  0.10566000000E+00 0.  1.
     999900   -1    0    0    0    0 -0.00000000000E+00 -0.00000000000E+00 -0.74505805969E-08  0.93827000000E+00  0.93827000000E+00 0. -1.
     999902    2    1    2    0    0 -0.39580879053E-02 -0.10862871539E-01  0.21163110503E-01  0.10198147417E+01  0.10195295786E+01 0.  0.
     999903    2    3    3    0    0 -0.47123043280E-01 -0.11272166981E+00  0.46177683964E-01  0.13253566661E+00  0.22507073875E-01 0.  0.
         14    1    1    2    0    0  0.39580879053E-02  0.10862871539E-01 -0.21163110503E-01  0.24115258326E-01  0.00000000000E+00 0. -1.
     999901    1    3    3    0    0  0.43164955374E-01  0.10185879827E+00 -0.25014573461E-01  0.88727907506E+00  0.88000000000E+00 0. -1.
        -11    1    4    4    0    0 -0.43332356379E-01 -0.78821822392E-01  0.30384241428E-01  0.94942277426E-01  0.51100000000E-03 0. -1.
         11    1    4    4    0    0 -0.37906869008E-02 -0.33899847421E-01  0.15793442536E-01  0.37593389186E-01  0.51100000000E-03 0.  1.
</event>
<event>
 8    1  0.1126407E+005  0.1043930E+01  0.7957747E-01            NaN
         13   -1    0    0    0    0  0.00000000000E+00  0.00000000000E+00  0.74505805969E-08  0.10566000000E+00  0.10566000000E+00 0. -1.
     999900   -1    0    0    0    0 -0.00000000000E+00 -0.00000000000E+00 -0.74505805969E-08  0.93827000000E+00  0.93827000000E+00 0.  1.
     999902    2    1    2    0    0  0.19042923026E-01 -0.72933214299E-02  0.13100850394E-01  0.10196924726E+01  0.10194043755E+01 0.  0.
     999903    2    3    3    0    0 -0.46885339321E-01  0.11382891497E+00 -0.28563836351E-01  0.12797890979E+00  0.20185432335E-01 0.  0.
         14    1    1    2    0    0 -0.19042923026E-01  0.72933214299E-02 -0.13100850394E-01  0.24237527429E-01  0.00000000000E+00 0.  1.
     999901    1    3    3    0    0  0.65928262346E-01 -0.12112223640E+00  0.41664686745E-01  0.89171356278E+00  0.88000000000E+00 0. -1.
        -11    1    4    4    0    0 -0.31560533228E-01  0.63051921202E-01 -0.75051310045E-02  0.70909802829E-01  0.51100000000E-03 0.  1.
         11    1    4    4    0    0 -0.15324806093E-01  0.50776993763E-01 -0.21058705347E-01  0.57069106961E-01  0.51100000000E-03 0. -1.
</event>
<event>
 8    1  0.1126407E+005  0.1043930E+01  0.7957747E-01            NaN
         13   -1    0    0    0    0  0.00000000000E+00  0.00000000000E+00  0.74505805969E-08  0.10566000000E+00  0.10566000000E+00 0.  1.
     999900   -1    0    0    0    0 -0.00000000000E+00 -0.00000000000E+00 -0.74505805969E-08  0.93827000000E+00  0.93827000000E+00 0.  1.
     999902    2    1    2    0    0 -0.20471540596E-01  0.20675655801E-01 -0.88321889410E-02  0.10135231870E+01  0.10130669653E+01 0.  0.
     999903    2    3    3    0    0 -0.14651125009E-01 -0.20465351380E-01 -0.12131568975E+00  0.12539087832E+00  0.19284442353E-01 0.  0.
         14    1    1    2    0    0  0.20471540596E-01 -0.20675655801E-01  0.88321889410E-02  0.30406813030E-01  0.00000000000E+00 0. -1.
     999901    1    3    3    0    0 -0.58204155867E-02  0.41141007181E-01  0.11248350080E+00  0.88813230865E+00  0.88000000000E+00 0. -1.
        -11    1    4    4    0    0 -0.80538517064E-02 -0.22880573213E-01 -0.84826805705E-01  0.88228301836E-01  0.51100000000E-03 0.  1.
         11    1    4    4    0    0 -0.65972733030E-02  0.24152218330E-02 -0.36488884041E-01  0.37162576486E-01  0.51100000000E-03 0. -1.
</event>
<event>
 8    1  0.1126407E+005  0.1043930E+01  0.7957747E-01            NaN
         13   -1    0    0    0    0  0.00000000000E+00  0.00000000000E+00  0.74505805969E-08  0.10566000000E+00  0.10566000000E+00 0. -1.
     999900   -1    0    0    0    0 -0.00000000000E+00 -0.00000000000E+00 -0.74505805969E-08  0.93827000000E+00  0.93827000000E+00 0.  1.
     999902    2    1    2    0    0 -0.20281012680E-03 -0.22279783573E-01 -0.82868577204E-02  0.10201581280E+01  0.10198811226E+01 0.  0.
     999903    2    3    3    0    0  0.93213620026E-02 -0.84806253388E-01 -0.10021454829E+00  0.13311192312E+00  0.19920842939E-01 0.  0.
         14    1    1    2    0    0  0.20281012680E-03  0.22279783573E-01  0.82868577204E-02  0.23771872010E-01  0.00000000000E+00 0. -1.
     999901    1    3    3    0    0 -0.95241721294E-02  0.62526469816E-01  0.91927690573E-01  0.88704620487E+00  0.88000000000E+00 0. -1.
        -11    1    4    4    0    0  0.79118276750E-02 -0.64492468034E-01 -0.87901015641E-01  0.10931022423E+00  0.51100000000E-03 0.  1.
         11    1    4    4    0    0  0.14095343277E-02 -0.20313785354E-01 -0.12313532652E-01  0.23801698885E-01  0.51100000000E-03 0. -1.
</event>
<event>
 8    1  0.1126407E+005  0.1043930E+01  0.7957747E-01            NaN
         13   -1    0    0    0    0  0.00000000000E+00  0.00000000000E+00  0.74505805969E-08  0.10566000000E+00  0.10566000000E+00 0.  1.
     999900   -1    0    0    0    0 -0.00000000000E+00 -0.00000000000E+00 -0.74505805969E-08  0.93827000000E+00  0.93827000000E+00 0. -1.
     999902    2    1    2    0    0  0.47447896570E-02 -0.21804328902E-01  0.78228548727E-02  0.10202838831E+01  0.10200098349E+01 0.  0.
     999903    2    3    3    0    0 -0.37969197228E-01  0.10509228451E+00  0.60633002454E-01  0.12859102851E+00  0.19319508946E-01 0.  0.
         14    1    1    2    0    0 -0.47447896570E-02  0.21804328902E-01 -0.78228548727E-02  0.23646116936E-01  0.00000000000E+00 0.  1.
     999901    1    3    3    0    0  0.42713986885E-01 -0.12689661341E+00 -0.52810147581E-01  0.89169285455E+00  0.88000000000E+00 0. -1.
        -11    1    4    4    0    0 -0.31092771674E-01  0.60235048643E-01  0.40273130000E-01  0.78849271755E-01  0.51100000000E-03 0.  1.
         11    1    4    4    0    0 -0.68764255542E-02  0.44857235867E-01  0.20359872454E-01  0.49741756758E-01  0.51100000000E-03 0. -1.
</event>
<event>
 8    1  0.1126407E+005  0.1043930E+01  0.7957747E-01            NaN
         13   -1    0    0    0    0  0.00000000000E+00  0.00000000000E+00  0.74505805969E-08  0.10566000000E+00  0.10566000000E+00 0. -1.
     999900   -1    0    0    0    0 -0.00000000000E+00 -0.00000000000E+00 -0.74505805969E-08  0.93827000000E+00  0.93827000000E+00 0.  1.
     999902    2    1    2    0    0 -0.19214188527E-01 -0.90338288918E-02 -0.11525935425E-01  0.10197713102E+01  0.10194851067E+01 0.  0.
     999903    2    3    3    0    0 -0.10088454450E+00 -0.68232713188E-01 -0.49844297625E-01  0.13318073286E+00  0.20475818256E-01 0.  0.
         14    1    1    2    0    0  0.19214188527E-01  0.90338288918E-02  0.11525935425E-01  0.24158689795E-01  0.00000000000E+00 0. -1.
     999901    1    3    3    0    0  0.81670355970E-01  0.59198884296E-01  0.38318362200E-01  0.88659057734E+00  0.88000000000E+00 0. -1.
        -11    1    4    4    0    0 -0.58538922151E-01 -0.51247723354E-01 -0.29244160444E-01  0.83118088264E-01  0.51100000000E-03 0.  1.
         11    1    4    4    0    0 -0.42345622346E-01 -0.16984989834E-01 -0.20600137181E-01  0.50062644601E-01  0.51100000000E-03 0. -1.
</event>
<event>
 8    1  0.1126407E+005  0.1043930E+01  0.7957747E-01            NaN
         13   -1    0    0    0    0  0.00000000000E+00  0.00000000000E+00  0.74505805969E-08  0.10566000000E+00  0.10566000000E+00 0. -1.
     999900   -1    0    0    0    0 -0.00000000000E+00 -0.00000000000E+00 -0.74505805969E-08  0.93827000000E+00  0.93827000000E+00 0.  1.
     999902    2    1    2    0    0  0.64524070411E-02  0.18141120721E-01  0.85907448557E-02  0.10228460081E+01  0.10226286821E+01 0.  0.
     999903    2    3    3    0    0 -0.80665987761E-02 -0.12599390527E+00  0.27793129517E-01  0.13079531512E+00  0.19885226372E-01 0.  0.
         14    1    1    2    0    0 -0.64524070411E-02 -0.18141120721E-01 -0.85907448557E-02  0.21083991909E-01  0.00000000000E+00 0. -1.
     999901    1    3    3    0    0  0.14519005817E-01  0.14413502599E+00 -0.19202384662E-01  0.89205069297E+00  0.88000000000E+00 0.  1.
        -11    1    4    4    0    0 -0.10013887783E-01 -0.52294542771E-01  0.43206488814E-02  0.53422151585E-01  0.51100000000E-03 0. -1.
         11    1    4    4    0    0  0.19472890066E-02 -0.73699362502E-01  0.23472480636E-01  0.77373163538E-01  0.51100000000E-03 0.  1.
</event>
<event>
 8    1  0.1275025E+005  0.1043930E+01  0.7957747E-01            NaN
         13   -1    0    0    0    0  0.00000000000E+00  0.00000000000E+00  0.74505805969E-08  0.10566000000E+00  0.10566000000E+00 0.  1.
     999900   -1    0    0    0    0 -0.00000000000E+00 -0.00000000000E+00 -0.74505805969E-08  0.93827000000E+00  0.93827000000E+00 0.  1.
     999902    2    1    2    0    0  0.89752159754E-02 -0.15710790911E-01 -0.11712057635E-01  0.10223764447E+01  0.10221492254E+01 0.  0.
     999903    2    3    3    0    0  0.82442602690E-01 -0.73145372508E-01 -0.75502936166E-01  0.13515298678E+00  0.20459917080E-01 0.  0.
         14    1    1    2    0    0 -0.89752159754E-02  0.15710790911E-01  0.11712057635E-01  0.21553555319E-01  0.00000000000E+00 0.  1.
     999901    1    3    3    0    0 -0.73467386714E-01  0.57434581597E-01  0.63790878531E-01  0.88722345791E+00  0.88000000000E+00 0. -1.
        -11    1    4    4    0    0  0.40950949386E-01 -0.23659117986E-01 -0.36110156334E-01  0.59505786533E-01  0.51100000000E-03 0.  1.
         11    1    4    4    0    0  0.41491653304E-01 -0.49486254522E-01 -0.39392779832E-01  0.75647200242E-01  0.51100000000E-03 0. -1.
</event>
<event>
 8    1  0.1126407E+005  0.1043930E+01  0.7957747E-01            NaN
         13   -1    0    0    0    0  0.00000000000E+00  0.00000000000E+00  0.74505805969E-08  0.10566000000E+00  0.10566000000E+00 0. -1.
     999900   -1    0    0    0    0 -0.00000000000E+00 -0.00000000000E+00 -0.74505805969E-08  0.93827000000E+00  0.93827000000E+00 0.  1.
     999902    2    1    2    0    0 -0.87192213592E-02 -0.21968577846E-01  0.10136074280E-03  0.10202941478E+01  0.10200203403E+01 0.  0.
     999903    2    3    3    0    0 -0.19919593832E-01 -0.64274574198E-01 -0.11186784223E+00  0.13212054538E+00  0.20332566979E-01 0.  0.
         14    1    1    2    0    0  0.87192213592E-02  0.21968577846E-01 -0.10136074280E-03  0.23635852168E-01  0.00000000000E+00 0.  1.
     999901    1    3    3    0    0  0.11200372473E-01  0.42305996351E-01  0.11196920298E+00  0.88817360245E+00  0.88000000000E+00 0. -1.
        -11    1    4    4    0    0 -0.93099413518E-02 -0.12057381950E-01 -0.38798319272E-01  0.41684843370E-01  0.51100000000E-03 0. -1.
         11    1    4    4    0    0 -0.10609652480E-01 -0.52217192248E-01 -0.73069522961E-01  0.90435702014E-01  0.51100000000E-03 0.  1.
</event>
<event>
 8    1  0.1126407E+005  0.1043930E+01  0.7957747E-01            NaN
         13   -1    0    0    0    0  0.00000000000E+00  0.00000000000E+00  0.74505805969E-08  0.10566000000E+00  0.10566000000E+00 0.  1.
     999900   -1    0    0    0    0 -0.00000000000E+00 -0.00000000000E+00 -0.74505805969E-08  0.93827000000E+00  0.93827000000E+00 0.  1.
     999902    2    1    2    0    0  0.15073464780E-01  0.45053747785E-02 -0.16864196948E-01  0.10208668501E+01  0.10206062987E+01 0.  0.
     999903    2    3    3    0    0  0.12286297153E-01 -0.44983505349E-01 -0.12316518933E+00  0.13308488449E+00  0.19169083617E-01 0.  0.
         14    1    1    2    0    0 -0.15073464780E-01 -0.45053747785E-02  0.16864196948E-01  0.23063149852E-01  0.00000000000E+00 0.  1.
     999901    1    3    3    0    0  0.27871676268E-02  0.49488880128E-01  0.10630099238E+00  0.88778196565E+00  0.88000000000E+00 0. -1.
        -11    1    4    4    0    0 -0.23157398014E-02 -0.43364173639E-02 -0.29868611604E-01  0.30274779050E-01  0.51100000000E-03 0. -1.
         11    1    4    4    0    0  0.14602036954E-01 -0.40647087985E-01 -0.93296577726E-01  0.10281010544E+00  0.51100000000E-03 0.  1.
</event>
<event>
 8    1  0.1126407E+005  0.1043930E+01  0.7957747E-01            NaN
         13   -1    0    0    0    0  0.00000000000E+00  0.00000000000E+00  0.74505805969E-08  0.10566000000E+00  0.10566000000E+00 0. -1.
     999900   -1    0    0    0    0 -0.00000000000E+00 -0.00000000000E+00 -0.74505805969E-08  0.93827000000E+00  0.93827000000E+00 0. -1.
     999902    2    1    2    0    0  0.45145888880E-02 -0.19592083566E-01 -0.10261781084E-01  0.10213571091E+01  0.10211076383E+01 0.  0.
     999903    2    3    3    0    0  0.86857919924E-01  0.84507107996E-01 -0.44699741984E-01  0.13073763988E+00  0.20211729100E-01 0.  0.
         14    1    1    2    0    0 -0.45145888880E-02  0.19592083566E-01  0.10261781084E-01  0.22572890871E-01  0.00000000000E+00 0. -1.
     999901    1    3    3    0    0 -0.82343331036E-01 -0.10409919156E+00  0.34437960901E-01  0.89061946925E+00  0.88000000000E+00 0.  1.
        -11    1    4    4    0    0  0.19756747817E-01  0.31639275055E-01 -0.16335775952E-01  0.40724581119E-01  0.51100000000E-03 0. -1.
         11    1    4    4    0    0  0.67101172106E-01  0.52867832941E-01 -0.28363966033E-01  0.90013058764E-01  0.51100000000E-03 0.  1.
</event>
<event>
 8    1  0.1126407E+005  0.1043930E+01  0.7957747E-01            NaN
         13   -1    0    0    0    0  0.00000000000E+00  0.00000000000E+00  0.74505805969E-08  0.10566000000E+00  0.10566000000E+00 0.  1.
     999900   -1    0    0    0    0 -0.00000000000E+00 -0.00000000000E+00 -0.74505805969E-08  0.93827000000E+00  0.93827000000E+00 0.  1.
     999902    2    1    2    0    0 -0.17693752662E-01 -0.43876156368E-03 -0.16434637338E-01  0.10197771803E+01  0.10194911176E+01 0.  0.
     999903    2    3    3    0    0  0.89132100535E-01  0.50435258510E-01 -0.77137014657E-01  0.12978577167E+00  0.20148966487E-01 0.  0.
         14    1    1    2    0    0  0.17693752662E-01  0.43876156368E-03  0.16434637338E-01  0.24152819698E-01  0.00000000000E+00 0.  1.
     999901    1    3    3    0    0 -0.10682585320E+00 -0.50874020074E-01  0.60702377319E-01  0.88999140863E+00  0.88000000000E+00 0. -1.
        -11    1    4    4    0    0  0.19512067012E-01  0.38649660550E-02 -0.21133807533E-01  0.29026843844E-01  0.51100000000E-03 0.  1.
         11    1    4    4    0    0  0.69620033523E-01  0.46570292455E-01 -0.56003207124E-01  0.10075892782E+00  0.51100000000E-03 0. -1.
</event>
<event>
 8    1  0.1126407E+005  0.1043930E+01  0.7957747E-01            NaN
         13   -1    0    0    0    0  0.00000000000E+00  0.00000000000E+00  0.74505805969E-08  0.10566000000E+00  0.10566000000E+00 0.  1.
     999900   -1    0    0    0    0 -0.00000000000E+00 -0.00000000000E+00 -0.74505805969E-08  0.93827000000E+00  0.93827000000E+00 0. -1.
     999902    2    1    2    0    0 -0.68086613287E-02  0.51792793033E-02 -0.21364489833E-01  0.10209164338E+01  0.10206570142E+01 0.  0.
     999903    2    3    3    0    0  0.39477258862E-01 -0.48879751251E-02  0.12052112910E+00  0.12829374483E+00  0.18750896897E-01 0.  0.
         14    1    1    2    0    0  0.68086613287E-02 -0.51792793033E-02  0.21364489833E-01  0.23013566195E-01  0.00000000000E+00 0.  1.
     999901    1    3    3    0    0 -0.46285920191E-01  0.10067254428E-01 -0.14188561893E+00  0.89262268898E+00  0.88000000000E+00 0. -1.
        -11    1    4    4    0    0  0.71164592024E-02  0.29876054068E-02  0.46289693035E-01  0.46931509457E-01  0.51100000000E-03 0. -1.
         11    1    4    4    0    0  0.32360799660E-01 -0.78755805319E-02  0.74231436064E-01  0.81362235370E-01  0.51100000000E-03 0.  1.
</event>
<event>
 8    1  0.1126407E+005  0.1043930E+01  0.7957747E-01            NaN
         13   -1    0    0    0    0  0.00000000000E+00  0.00000000000E+00  0.74505805969E-08  0.10566000000E+00  0.10566000000E+00 0. -1.
     999900   -1    0    0    0    0 -0.00000000000E+00 -0.00000000000E+00 -0.74505805969E-08  0.93827000000E+00  0.93827000000E+00 0.  1.
     999902    2    1    2    0    0  0.22784762704E-01 -0.12349848640E-02 -0.58446349779E-02  0.10203751628E+01  0.10201032509E+01 0.  0.
     999903    2    3    3    0    0  0.10305237270E+00 -0.72964245269E-01 -0.36970839824E-01  0.13326929725E+00  0.21220037305E-01 0.  0.
         14    1    1    2    0    0 -0.22784762704E-01  0.12349848640E-02  0.58446349779E-02  0.23554837234E-01  0.00000000000E+00 0.  1.
     999901    1    3    3    0    0 -0.80267610001E-01  0.71729260405E-01  0.31126204846E-01  0.88710586552E+00  0.88000000000E+00 0.  1.
        -11    1    4    4    0    0  0.92873690055E-02 -0.12217182099E-01  0.68355884754E-03  0.15370202835E-01  0.51100000000E-03 0. -1.
         11    1    4    4    0    0  0.93765003699E-01 -0.60747063170E-01 -0.37654398672E-01  0.11789909441E+00  0.51100000000E-03 0.  1.
</event>
<event>
 8    1  0.1126407E+005  0.1043930E+01  0.7957747E-01            NaN
         13   -1    0    0    0    0  0.00000000000E+00  0.00000000000E+00  0.74505805969E-08  0.10566000000E+00  0.10566000000E+00 0. -1.
     999900   -1    0    0    0    0 -0.00000000000E+00 -0.00000000000E+00 -0.74505805969E-08  0.93827000000E+00  0.93827000000E+00 0.  1.
     999902    2    1    2    0    0 -0.92158949137E-02  0.20783022445E-01  0.75184385248E-02  0.10199843603E+01  0.10197032420E+01 0.  0.
     999903    2    3    3    0    0  0.11418304246E+00 -0.49119413743E-01 -0.22799921312E-01  0.12811393742E+00  0.21044252343E-01 0.  0.
         14    1    1    2    0    0  0.92158949137E-02 -0.20783022445E-01 -0.75184385248E-02  0.23945639663E-01  0.00000000000E+00 0.  1.
     999901    1    3    3    0    0 -0.12339893738E+00  0.69902436188E-01  0.30318359836E-01  0.89187042292E+00  0.88000000000E+00 0. -1.
        -11    1    4    4    0    0  0.11003149424E+00 -0.51076265647E-01 -0.20792200598E-01  0.12307839520E+00  0.51100000000E-03 0. -1.
         11    1    4    4    0    0  0.41515482210E-02  0.19568519042E-02 -0.20077207140E-02  0.50355422222E-02  0.51100000000E-03 0.  1.
</event>
<event>
 8    1  0.1126407E+005  0.1043930E+01  0.7957747E-01            NaN
         13   -1    0    0    0    0  0.00000000000E+00  0.00000000000E+00  0.74505805969E-08  0.10566000000E+00  0.10566000000E+00 0. -1.
     999900   -1    0    0    0    0 -0.00000000000E+00 -0.00000000000E+00 -0.74505805969E-08  0.93827000000E+00  0.93827000000E+00 0. -1.
     999902    2    1    2    0    0  0.17919826113E-02 -0.13491207582E-01 -0.19379595305E-01  0.10202489401E+01  0.10199740718E+01 0.  0.
     999903    2    3    3    0    0 -0.11974281610E+00  0.46798122900E-02 -0.50061972825E-01  0.13118071913E+00  0.18491546622E-01 0.  0.
         14    1    1    2    0    0 -0.17919826113E-02  0.13491207582E-01  0.19379595305E-01  0.23681059898E-01  0.00000000000E+00 0.  1.
     999901    1    3    3    0    0  0.12153479871E+00 -0.18171019872E-01  0.30682377520E-01  0.88906822098E+00  0.88000000000E+00 0. -1.
        -11    1    4    4    0    0 -0.56398079684E-01  0.11282390410E-01 -0.21976943575E-01  0.61573394378E-01  0.51100000000E-03 0.  1.
         11    1    4    4    0    0 -0.63344736416E-01 -0.66025781195E-02 -0.28085029250E-01  0.69607324747E-01  0.51100000000E-03 0. -1.
</event>
<event>
 8    1  0.1126407E+005  0.1043930E+01  0.7957747E-01            NaN
         13   -1    0    0    0    0  0.00000000000E+00  0.00000000000E+00  0.74505805969E-08  0.10566000000E+00  0.10566000000E+00 0.  1.
     999900   -1    0    0    0    0 -0.00000000000E+00 -0.00000000000E+00 -0.74505805969E-08  0.93827000000E+00  0.93827000000E+00 0.  1.
     999902    2    1    2    0    0  0.19421959984E-01 -0.38468919015E-02  0.12061943990E-01  0.10207459193E+01  0.10204825967E+01 0.  0.
     999903    2    3    3    0    0 -0.68950702997E-01 -0.10809533482E+00 -0.85720173395E-02  0.12995793900E+00  0.19410965327E-01 0.  0.
         14    1    1    2    0    0 -0.19421959984E-01  0.38468919015E-02 -0.12061943990E-01  0.23184080739E-01  0.00000000000E+00 0. -1.
     999901    1    3    3    0    0  0.88372662981E-01  0.10424844292E+00  0.20633961329E-01  0.89078798026E+00  0.88000000000E+00 0. -1.
        -11    1    4    4    0    0 -0.43789897316E-01 -0.60434604976E-01 -0.13468794009E-01  0.75839080418E-01  0.51100000000E-03 0.  1.
         11    1    4    4    0    0 -0.25160805681E-01 -0.47660729843E-01  0.48967766698E-02  0.54118858584E-01  0.51100000000E-03 0. -1.
</event>
<event>
 8    1  0.1126407E+005  0.1043930E+01  0.7957747E-01            NaN
         13   -1    0    0    0    0  0.00000000000E+00  0.00000000000E+00  0.74505805969E-08  0.10566000000E+00  0.10566000000E+00 0. -1.
     999900   -1    0    0    0    0 -0.00000000000E+00 -0.00000000000E+00 -0.74505805969E-08  0.93827000000E+00  0.93827000000E+00 0. -1.
     999902    2    1    2    0    0 -0.14134533254E-02  0.10624554615E-01 -0.21397978656E-01  0.10199977518E+01  0.10197169515E+01 0.  0.
     999903    2    3    3    0    0 -0.12701344758E+00  0.24193224194E-01  0.31948123715E-02  0.13063602976E+00  0.18380355885E-01 0.  0.
         14    1    1    2    0    0  0.14134533254E-02 -0.10624554615E-01  0.21397978656E-01  0.23932248152E-01  0.00000000000E+00 0. -1.
     999901    1    3    3    0    0  0.12559999425E+00 -0.13568669580E-01 -0.24592791027E-01  0.88936172209E+00  0.88000000000E+00 0.  1.
        -11    1    4    4    0    0 -0.57358399039E-01  0.81949323787E-02 -0.72924405035E-02  0.58400202623E-01  0.51100000000E-03 0.  1.
         11    1    4    4    0    0 -0.69655048538E-01  0.15998291816E-01  0.10487252875E-01  0.72235827134E-01  0.51100000000E-03 0. -1.
</event>
<event>
 8    1  0.1126407E+005  0.1043930E+01  0.7957747E-01            NaN
         13   -1    0    0    0    0  0.00000000000E+00  0.00000000000E+00  0.74505805969E-08  0.10566000000E+00  0.10566000000E+00 0. -1.
     999900   -1    0    0    0    0 -0.00000000000E+00 -0.00000000000E+00 -0.74505805969E-08  0.93827000000E+00  0.93827000000E+00 0. -1.
     999902    2    1    2    0    0 -0.21261738524E-01 -0.89902082764E-02  0.42954254039E-02  0.10204494538E+01  0.10201792743E+01 0.  0.
     999903    2    3    3    0    0 -0.65413162016E-02 -0.80773538210E-01 -0.10113294385E+00  0.13113248089E+00  0.20017540289E-01 0.  0.
         14    1    1    2    0    0  0.21261738524E-01  0.89902082764E-02 -0.42954254039E-02  0.23480546189E-01  0.00000000000E+00 0. -1.
     999901    1    3    3    0    0 -0.14720422322E-01  0.71783329934E-01  0.10542836925E+00  0.88931697293E+00  0.88000000000E+00 0.  1.
        -11    1    4    4    0    0  0.22522028530E-02 -0.67305387610E-01 -0.83117833123E-01  0.10697627271E+00  0.51100000000E-03 0. -1.
         11    1    4    4    0    0 -0.87935190546E-02 -0.13468150601E-01 -0.18015110725E-01  0.24156208175E-01  0.51100000000E-03 0.  1.
</event>
<event>
 8    1  0.1126407E+005  0.1043930E+01  0.7957747E-01            NaN
         13   -1    0    0    0    0  0.00000000000E+00  0.00000000000E+00  0.74505805969E-08  0.10566000000E+00  0.10566000000E+00 0.  1.
     999900   -1    0    0    0    0 -0.00000000000E+00 -0.00000000000E+00 -0.74505805969E-08  0.93827000000E+00  0.93827000000E+00 0. -1.
     999902    2    1    2    0    0 -0.19202040450E-01  0.75160658610E-02  0.11467732093E-01  0.10203351174E+01  0.10200622694E+01 0.  0.
     999903    2    3    3    0    0 -0.70550489540E-01  0.63141224278E-03 -0.10820013114E+00  0.13072595654E+00  0.20105647900E-01 0.  0.
         14    1    1    2    0    0  0.19202040450E-01 -0.75160658610E-02 -0.11467732093E-01  0.23594882556E-01  0.00000000000E+00 0. -1.
     999901    1    3    3    0    0  0.51348449090E-01  0.68846536182E-02  0.11966786324E+00  0.88960916091E+00  0.88000000000E+00 0.  1.
        -11    1    4    4    0    0 -0.28045037853E-01 -0.94784514887E-02 -0.46316341776E-01  0.54971172693E-01  0.51100000000E-03 0. -1.
         11    1    4    4    0    0 -0.42505451687E-01  0.10109863732E-01 -0.61883789367E-01  0.75754783844E-01  0.51100000000E-03 0.  1.
</event>
<event>
 8    1  0.1126407E+005  0.1043930E+01  0.7957747E-01            NaN
         13   -1    0    0    0    0  0.00000000000E+00  0.00000000000E+00  0.74505805969E-08  0.10566000000E+00  0.10566000000E+00 0. -1.
     999900   -1    0    0    0    0 -0.00000000000E+00 -0.00000000000E+00 -0.74505805969E-08  0.93827000000E+00  0.93827000000E+00 0.  1.
     999902    2    1    2    0    0  0.39202885132E-02  0.10997732022E-02  0.22678512970E-01  0.10208888821E+01  0.10206288339E+01 0.  0.
     999903    2    3    3    0    0 -0.45581388997E-01 -0.73149974175E-01  0.99060087728E-01  0.13308395645E+00  0.21676179072E-01 0.  0.
         14    1    1    2    0    0 -0.39202885132E-02 -0.10997732022E-02 -0.22678512970E-01  0.23041117890E-01  0.00000000000E+00 0.  1.
     999901    1    3    3    0    0  0.49501677510E-01  0.74249747377E-01 -0.76381574758E-01  0.88780492566E+00  0.88000000000E+00 0. -1.
        -11    1    4    4    0    0 -0.67303893708E-02 -0.25841654985E-01  0.21579691348E-01  0.34337056850E-01  0.51100000000E-03 0.  1.
         11    1    4    4    0    0 -0.38850999627E-01 -0.47308319190E-01  0.77480396380E-01  0.98746899601E-01  0.51100000000E-03 0. -1.
</event>
<event>
 8    1  0.1126407E+005  0.1043930E+01  0.7957747E-01            NaN
         13   -1    0    0    0    0  0.00000000000E+00  0.00000000000E+00  0.74505805969E-08  0.10566000000E+00  0.10566000000E+00 0. -1.
     999900   -1    0    0    0    0 -0.00000000000E+00 -0.00000000000E+00 -0.74505805969E-08  0.93827000000E+00  0.93827000000E+00 0.  1.
     999902    2    1    2    0    0  0.94289340669E-03  0.15221636867E-01 -0.17664200040E-01  0.10205930928E+01  0.10203262467E+01 0.  0.
     999903    2    3    3    0    0 -0.30594652296E-01 -0.73971074506E-01 -0.10220815082E+00  0.13149375288E+00  0.20888952557E-01 0.  0.
         14    1    1    2    0    0 -0.94289340669E-03 -0.15221636867E-01  0.17664200040E-01  0.23336907249E-01  0.00000000000E+00 0.  1.
     999901    1    3    3    0    0  0.31537545703E-01  0.89192711373E-01  0.84543950780E-01  0.88909933987E+00  0.88000000000E+00 0. -1.
        -11    1    4    4    0    0 -0.85466352790E-02 -0.14119908629E-01 -0.97768654392E-02  0.19190232231E-01  0.51100000000E-03 0. -1.
         11    1    4    4    0    0 -0.22048017017E-01 -0.59851165877E-01 -0.92431285381E-01  0.11230352065E+00  0.51100000000E-03 0.  1.
</event>
<event>
 8    1  0.1126407E+005  0.1043930E+01  0.7957747E-01            NaN
         13   -1    0    0    0    0  0.00000000000E+00  0.00000000000E+00  0.74505805969E-08  0.10566000000E+00  0.10566000000E+00 0.  1.
     999900   -1    0    0    0    0 -0.00000000000E+00 -0.00000000000E+00 -0.74505805969E-08  0.93827000000E+00  0.93827000000E+00 0. -1.
     999902    2    1    2    0    0  0.11537916852E-01 -0.20640929320E-02 -0.13566109624E-01  0.10260017169E+01  0.10258450661E+01 0.  0.
     999903    2    3    3    0    0  0.71452761300E-01  0.10916422028E+00  0.32012138849E-01  0.13581134232E+00  0.19940400724E-01 0.  0.
         14    1    1    2    0    0 -0.11537916852E-01  0.20640929320E-02  0.13566109624E-01  0.17928283109E-01  0.00000000000E+00 0.  1.
     999901    1    3    3    0    0 -0.59914844448E-01 -0.11122831322E+00 -0.45578248473E-01  0.89019037457E+00  0.88000000000E+00 0.  1.
        -11    1    4    4    0    0  0.91905202747E-02  0.55234373648E-02 -0.17338827736E-04  0.10734777356E-01  0.51100000000E-03 0. -1.
         11    1    4    4    0    0  0.62262241025E-01  0.10364078292E+00  0.32029477676E-01  0.12507656496E+00  0.51100000000E-03 0.  1.
</event>
<event>
 8    1  0.1126407E+005  0.1043930E+01  0.7957747E-01            NaN
         13   -1    0    0    0    0  0.00000000000E+00  0.00000000000E+00  0.74505805969E-08  0.10566000000E+00  0.10566000000E+00 0. -1.
     999900   -1    0    0    0    0 -0.00000000000E+00 -0.00000000000E+00 -0.74505805969E-08  0.93827000000E+00  0.93827000000E+00 0.  1.
     999902    2    1    2    0    0  0.74611510029E-02 -0.20159647713E-01  0.99508272541E-02  0.10202424688E+01  0.10199674485E+01 0.  0.
     999903    2    3    3    0    0 -0.55320401812E-01 -0.51299377376E-01 -0.10450937776E+00  0.13006701159E+00  0.17413916472E-01 0.  0.
         14    1    1    2    0    0 -0.74611510029E-02  0.20159647713E-01 -0.99508272541E-02  0.23687531176E-01  0.00000000000E+00 0.  1.
     999901    1    3    3    0    0  0.62781552814E-01  0.31139729664E-01  0.11446020502E+00  0.89017545724E+00  0.88000000000E+00 0. -1.
        -11    1    4    4    0    0 -0.23783393896E-03 -0.11441087009E-02 -0.82447486149E-02  0.83428142989E-02  0.51100000000E-03 0. -1.
         11    1    4    4    0    0 -0.55082567873E-01 -0.50155268675E-01 -0.96264629146E-01  0.12172419729E+00  0.51100000000E-03 0.  1.
</event>
<event>
 8    1  0.1126407E+005  0.1043930E+01  0.7957747E-01            NaN
         13   -1    0    0    0    0  0.00000000000E+00  0.00000000000E+00  0.74505805969E-08  0.10566000000E+00  0.10566000000E+00 0. -1.
     999900   -1    0    0    0    0 -0.00000000000E+00 -0.00000000000E+00 -0.74505805969E-08  0.93827000000E+00  0.93827000000E+00 0. -1.
     999902    2    1    2    0    0  0.13168822132E-01 -0.18949933628E-01 -0.10087104686E-01  0.10187453312E+01  0.10184339853E+01 0.  0.
     999903    2    3    3    0    0  0.74880220600E-02  0.11916658125E-01 -0.12823120152E+00  0.13029553207E+00  0.18319591143E-01 0.  0.
         14    1    1    2    0    0 -0.13168822132E-01  0.18949933628E-01  0.10087104686E-01  0.25184668785E-01  0.00000000000E+00 0. -1.
     999901    1    3    3    0    0  0.56808000723E-02 -0.30866591753E-01  0.11814409684E+00  0.88844979914E+00  0.88000000000E+00 0.  1.
        -11    1    4    4    0    0 -0.30955125487E-02  0.90706099464E-02 -0.31117898065E-01  0.32564441708E-01  0.51100000000E-03 0.  1.
         11    1    4    4    0    0  0.10583534609E-01  0.28460481784E-02 -0.97113303456E-01  0.97731090367E-01  0.51100000000E-03 0. -1.
</event>
<event>
 8    1  0.1126407E+005  0.1043930E+01  0.7957747E-01            NaN
         13   -1    0    0    0    0  0.00000000000E+00  0.00000000000E+00  0.74505805969E-08  0.10566000000E+00  0.10566000000E+00 0. -1.
     999900   -1    0    0    0    0 -0.00000000000E+00 -0.00000000000E+00 -0.74505805969E-08  0.93827000000E+00  0.93827000000E+00 0.  1.
     999902    2    1    2    0    0  0.91251444556E-02 -0.16919968598E-01  0.14442644276E-01  0.10198853837E+01  0.10196019088E+01 0.  0.
     999903    2    3    3    0    0  0.66874698519E-01  0.10769124135E+00 -0.11715312002E-01  0.12884823336E+00  0.19874353764E-01 0.  0.
         14    1    1    2    0    0 -0.91251444556E-02  0.16919968598E-01 -0.14442644276E-01  0.24044616286E-01  0.00000000000E+00 0.  1.
     999901    1    3    3    0    0 -0.57749554063E-01 -0.12461120995E+00  0.26157956278E-01  0.89103715036E+00  0.88000000000E+00 0.  1.
        -11    1    4    4    0    0  0.48749983787E-01  0.72347479610E-01 -0.16662712500E-01  0.88817936443E-01  0.51100000000E-03 0.  1.
         11    1    4    4    0    0  0.18124714732E-01  0.35343761744E-01  0.49474004976E-02  0.40030296914E-01  0.51100000000E-03 0. -1.
</event>
<event>
 8    1  0.1126407E+005  0.1043930E+01  0.7957747E-01            NaN
         13   -1    0    0    0    0  0.00000000000E+00  0.00000000000E+00  0.74505805969E-08  0.10566000000E+00  0.10566000000E+00 0.  1.
     999900   -1    0    0    0    0 -0.00000000000E+00 -0.00000000000E+00 -0.74505805969E-08  0.93827000000E+00  0.93827000000E+00 0. -1.
     999902    2    1    2    0    0 -0.15965022143E-01 -0.53733252896E-02 -0.16140698630E-01  0.10206002613E+01  0.10203335810E+01 0.  0.
     999903    2    3    3    0    0 -0.84740198919E-01 -0.82015202158E-01 -0.59452604303E-01  0.13353773619E+00  0.19756521242E-01 0.  0.
         14    1    1    2    0    0  0.15965022143E-01  0.53733252896E-02  0.16140698630E-01  0.23329738725E-01  0.00000000000E+00 0.  1.
     999901    1    3    3    0    0  0.68775176776E-01  0.76641876868E-01  0.43311905673E-01  0.88706252508E+00  0.88000000000E+00 0.  1.
        -11    1    4    4    0    0 -0.34372193653E-01 -0.21711621391E-01 -0.25111071513E-01  0.47787751919E-01  0.51100000000E-03 0. -1.
         11    1    4    4    0    0 -0.50368005266E-01 -0.60303580767E-01 -0.34341532790E-01  0.85749984275E-01  0.51100000000E-03 0.  1.
</event>
<event>
 8    1  0.1126407E+005  0.1043930E+01  0.7957747E-01            NaN
         13   -1    0    0    0    0  0.00000000000E+00  0.00000000000E+00  0.74505805969E-08  0.10566000000E+00  0.10566000000E+00 0. -1.
     999900   -1    0    0    0    0 -0.00000000000E+00 -0.00000000000E+00 -0.74505805969E-08  0.93827000000E+00  0.93827000000E+00 0. -1.
     999902    2    1    2    0    0  0.14491595812E-01  0.15967887261E-01 -0.10180727537E-01  0.10200840992E+01  0.10198053454E+01 0.  0.
     999903    2    3    3    0    0 -0.56508925901E-02 -0.10810255127E+00 -0.66625598179E-01  0.12936235982E+00  0.24032387036E-01 0.  0.
         14    1    1    2    0    0 -0.14491595812E-01 -0.15967887261E-01  0.10180727537E-01  0.23845900820E-01  0.00000000000E+00 0. -1.
     999901    1    3    3    0    0  0.20142488402E-01  0.12407043853E+00  0.56444870642E-01  0.89072173937E+00  0.88000000000E+00 0.  1.
        -11    1    4    4    0    0  0.27474183661E-03 -0.15922966144E-01 -0.83260859371E-03  0.15955271604E-01  0.51100000000E-03 0.  1.
         11    1    4    4    0    0 -0.59256344267E-02 -0.92179585124E-01 -0.65792989585E-01  0.11340708821E+00  0.51100000000E-03 0. -1.
</event>
<event>
 8    1  0.1126407E+005  0.1043930E+01  0.7957747E-01            NaN
         13   -1    0    0    0    0  0.00000000000E+00  0.00000000000E+00  0.74505805969E-08  0.10566000000E+00  0.10566000000E+00 0. -1.
     999900   -1    0    0    0    0 -0.00000000000E+00 -0.00000000000E+00 -0.74505805969E-08  0.93827000000E+00  0.93827000000E+00 0. -1.
     999902    2    1    2    0    0  0.22691124184E-01  0.19926438465E-02  0.38868981482E-03  0.10211482348E+01  0.10208940731E+01 0.  0.
     999903    2    3    3    0    0  0.80311090972E-01 -0.94634206651E-01  0.43373196885E-01  0.13294528689E+00  0.19690370667E-01 0.  0.
         14    1    1    2    0    0 -0.22691124184E-01 -0.19926438465E-02 -0.38868981482E-03  0.22781765209E-01  0.00000000000E+00 0. -1.
     999901    1    3    3    0    0 -0.57619966788E-01  0.96626850498E-01 -0.42984507070E-01  0.88820294790E+00  0.88000000000E+00 0. -1.
        -11    1    4    4    0    0  0.48428195806E-01 -0.68065355251E-01  0.35162167134E-01  0.90635654425E-01  0.51100000000E-03 0. -1.
         11    1    4    4    0    0  0.31882895166E-01 -0.26568851400E-01  0.82110297513E-02  0.42309632467E-01  0.51100000000E-03 0.  1.
</event>
<event>
 8    1  0.1126407E+005  0.1043930E+01  0.7957747E-01            NaN
         13   -1    0    0    0    0  0.00000000000E+00  0.00000000000E+00  0.74505805969E-08  0.10566000000E+00  0.10566000000E+00 0.  1.
     999900   -1    0    0    0    0 -0.00000000000E+00 -0.00000000000E+00 -0.74505805969E-08  0.93827000000E+00  0.93827000000E+00 0.  1.
     999902    2    1    2    0    0  0.80126012601E-03  0.23083039647E-01 -0.11141174114E-02  0.10208062028E+01  0.10205442635E+01 0.  0.
     999903    2    3    3    0    0 -0.85891827410E-01 -0.30768421429E-01 -0.90127785835E-01  0.13044722780E+00  0.23861259136E-01 0.  0.
         14    1    1    2    0    0 -0.80126012601E-03 -0.23083039647E-01  0.11141174114E-02  0.23123797152E-01  0.00000000000E+00 0.  1.
     999901    1    3    3    0    0  0.86693087536E-01  0.53851461076E-01  0.89013668423E-01  0.89035897505E+00  0.88000000000E+00 0. -1.
        -11    1    4    4    0    0 -0.13470692884E-01 -0.51589619569E-02 -0.28565892333E-01  0.32005402373E-01  0.51100000000E-03 0.  1.
         11    1    4    4    0    0 -0.72421134526E-01 -0.25609459473E-01 -0.61561893501E-01  0.98441825425E-01  0.51100000000E-03 0. -1.
</event>
<event>
 8    1  0.1126407E+005  0.1043930E+01  0.7957747E-01            NaN
         13   -1    0    0    0    0  0.00000000000E+00  0.00000000000E+00  0.74505805969E-08  0.10566000000E+00  0.10566000000E+00 0. -1.
     999900   -1    0    0    0    0 -0.00000000000E+00 -0.00000000000E+00 -0.74505805969E-08  0.93827000000E+00  0.93827000000E+00 0. -1.
     999902    2    1    2    0    0  0.11530377588E-01  0.90944778169E-02 -0.18022315160E-01  0.10206821404E+01  0.10204173502E+01 0.  0.
     999903    2    3    3    0    0  0.10237017420E+00  0.37001934040E-01 -0.75224481181E-01  0.13371946778E+00  0.19322986439E-01 0.  0.
         14    1    1    2    0    0 -0.11530377588E-01 -0.90944778169E-02  0.18022315160E-01  0.23247859640E-01  0.00000000000E+00 0.  1.
     999901    1    3    3    0    0 -0.90839796611E-01 -0.27907456223E-01  0.57202166021E-01  0.88696267258E+00  0.88000000000E+00 0.  1.
        -11    1    4    4    0    0  0.39186407198E-01  0.15245134110E-01 -0.18005727509E-01  0.45743370746E-01  0.51100000000E-03 0.  1.
         11    1    4    4    0    0  0.63183767002E-01  0.21756799930E-01 -0.57218753673E-01  0.87976097029E-01  0.51100000000E-03 0. -1.
</event>
<event>
 8    1  0.1126407E+005  0.1043930E+01  0.7957747E-01            NaN
         13   -1    0    0    0    0  0.00000000000E+00  0.00000000000E+00  0.74505805969E-08  0.10566000000E+00  0.10566000000E+00 0.  1.
     999900   -1    0    0    0    0 -0.00000000000E+00 -0.00000000000E+00 -0.74505805969E-08  0.93827000000E+00  0.93827000000E+00 0. -1.
     999902    2    1    2    0    0 -0.31711465030E-02 -0.22667927893E-01 -0.47560020832E-02  0.10205524321E+01  0.10202846446E+01 0.  0.
     999903    2    3    3    0    0 -0.12853617163E+00  0.14334173749E-01  0.37332630869E-02  0.13085719626E+00  0.19561508281E-01 0.  0.
         14    1    1    2    0    0  0.31711465030E-02  0.22667927893E-01  0.47560020832E-02  0.23377567900E-01  0.00000000000E+00 0.  1.
     999901    1    3    3    0    0  0.12536502512E+00 -0.37002101642E-01 -0.84892651702E-02  0.88969523584E+00  0.88000000000E+00 0.  1.
        -11    1    4    4    0    0 -0.59280608048E-01 -0.16924434590E-02 -0.34523089404E-02  0.59407359927E-01  0.51100000000E-03 0.  1.
         11    1    4    4    0    0 -0.69255563580E-01  0.16026617208E-01  0.71855720273E-02  0.71449836334E-01  0.51100000000E-03 0. -1.
</event>
<event>
 8    1  0.1126407E+005  0.1043930E+01  0.7957747E-01            NaN
         13   -1    0    0    0    0  0.00000000000E+00  0.00000000000E+00  0.74505805969E-08  0.10566000000E+00  0.10566000000E+00 0. -1.
     999900   -1    0    0    0    0 -0.00000000000E+00 -0.00000000000E+00 -0.74505805969E-08  0.93827000000E+00  0.93827000000E+00 0.  1.
     999902    2    1    2    0    0 -0.12358054159E-01 -0.20098663516E-01  0.61868054890E-02  0.10195383141E+01  0.10192464960E+01 0.  0.
     999903    2    3    3    0    0  0.82017411545E-01 -0.14263347835E-01  0.97553969687E-01  0.12976939012E+00  0.19824699783E-01 0.  0.
         14    1    1    2    0    0  0.12358054159E-01  0.20098663516E-01 -0.61868054890E-02  0.24391685876E-01  0.00000000000E+00 0. -1.
     999901    1    3    3    0    0 -0.94375465704E-01 -0.58353156812E-02 -0.91367164198E-01  0.88976892401E+00  0.88000000000E+00 0.  1.
        -11    1    4    4    0    0  0.61164495428E-01 -0.44210428884E-02  0.79910631962E-01  0.10073038937E+00  0.51100000000E-03 0. -1.
         11    1    4    4    0    0  0.20852916117E-01 -0.98423049461E-02  0.17643337725E-01  0.29039000746E-01  0.51100000000E-03 0.  1.
</event>
<event>
 8    1  0.1126407E+005  0.1043930E+01  0.7957747E-01            NaN
         13   -1    0    0    0    0  0.00000000000E+00  0.00000000000E+00  0.74505805969E-08  0.10566000000E+00  0.10566000000E+00 0.  1.
     999900   -1    0    0    0    0 -0.00000000000E+00 -0.00000000000E+00 -0.74505805969E-08  0.93827000000E+00  0.93827000000E+00 0.  1.
     999902    2    1    2    0    0  0.21543426344E-01 -0.59522678769E-02 -0.37108532786E-02  0.10212734525E+01  0.10210221083E+01 0.  0.
     999903    2    3    3    0    0 -0.57816519626E-01 -0.11286041514E+00 -0.25894401036E-01  0.13098166734E+00  0.20135886517E-01 0.  0.
         14    1    1    2    0    0 -0.21543426344E-01  0.59522678769E-02  0.37108532786E-02  0.22656547477E-01  0.00000000000E+00 0.  1.
     999901    1    3    3    0    0  0.79359945970E-01  0.10690814727E+00  0.22183547758E-01  0.89029178518E+00  0.88000000000E+00 0. -1.
        -11    1    4    4    0    0 -0.39993742885E-01 -0.94492361781E-01 -0.23543338929E-01  0.10527514348E+00  0.51100000000E-03 0.  1.
         11    1    4    4    0    0 -0.17822776741E-01 -0.18368053362E-01 -0.23510621073E-02  0.25706523863E-01  0.51100000000E-03 0. -1.
</event>
<event>
 8    1  0.1126407E+005  0.1043930E+01  0.7957747E-01            NaN
         13   -1    0    0    0    0  0.00000000000E+00  0.00000000000E+00  0.74505805969E-08  0.10566000000E+00  0.10566000000E+00 0.  1.
     999900   -1    0    0    0    0 -0.00000000000E+00 -0.00000000000E+00 -0.74505805969E-08  0.93827000000E+00  0.93827000000E+00 0. -1.
     999902    2    1    2    0    0  0.19101741113E-01 -0.61036924138E-02 -0.11962735383E-01  0.10205796550E+01  0.10203124980E+01 0.  0.
     999903    2    3    3    0    0  0.10302219093E+00 -0.81395306621E-01  0.97800653014E-02  0.13312023707E+00  0.19661639696E-01 0.  0.
         14    1    1    2    0    0 -0.19101741113E-01  0.61036924138E-02  0.11962735383E-01  0.23350345018E-01  0.00000000000E+00 0.  1.
     999901    1    3    3    0    0 -0.83920449815E-01  0.75291614208E-01 -0.21742800685E-01  0.88745941792E+00  0.88000000000E+00 0. -1.
        -11    1    4    4    0    0  0.36289381087E-01 -0.25980262927E-01  0.12445612090E-01  0.46336245238E-01  0.51100000000E-03 0. -1.
         11    1    4    4    0    0  0.66732809841E-01 -0.55415043694E-01 -0.26655467884E-02  0.86783991828E-01  0.51100000000E-03 0.  1.
</event>
<event>
 8    1  0.1126407E+005  0.1043930E+01  0.7957747E-01            NaN
         13   -1    0    0    0    0  0.00000000000E+00  0.00000000000E+00  0.74505805969E-08  0.10566000000E+00  0.10566000000E+00 0. -1.
     999900   -1    0    0    0    0 -0.00000000000E+00 -0.00000000000E+00 -0.74505805969E-08  0.93827000000E+00  0.93827000000E+00 0.  1.
     999902    2    1    2    0    0  0.76631506072E-02 -0.10914919578E-01 -0.19189574126E-01  0.10205612366E+01  0.10202936531E+01 0.  0.
     999903    2    3    3    0    0 -0.17427156182E-01 -0.82838742134E-01 -0.10130976855E+00  0.13346130647E+00  0.19552190415E-01 0.  0.
         14    1    1    2    0    0 -0.76631506072E-02  0.10914919578E-01  0.19189574126E-01  0.23368763377E-01  0.00000000000E+00 0. -1.
     999901    1    3    3    0    0  0.25090306790E-01  0.71923822556E-01  0.82120194424E-01  0.88709993015E+00  0.88000000000E+00 0. -1.
        -11    1    4    4    0    0 -0.24739727536E-02 -0.17012431639E-01 -0.34160468720E-01  0.38245811739E-01  0.51100000000E-03 0. -1.
         11    1    4    4    0    0 -0.14953183429E-01 -0.65826310495E-01 -0.67149299830E-01  0.95215494731E-01  0.51100000000E-03 0.  1.
</event>
<event>
 8    1  0.1126407E+005  0.1043930E+01  0.7957747E-01            NaN
         13   -1    0    0    0    0  0.00000000000E+00  0.00000000000E+00  0.74505805969E-08  0.10566000000E+00  0.10566000000E+00 0.  1.
     999900   -1    0    0    0    0 -0.00000000000E+00 -0.00000000000E+00 -0.74505805969E-08  0.93827000000E+00  0.93827000000E+00 0. -1.
     999902    2    1    2    0    0  0.22208941618E-01 -0.33032715298E-02  0.78615333060E-02  0.10201402460E+01  0.10198628187E+01 0.  0.
     999903    2    3    3    0    0 -0.11505536331E+00 -0.50229465004E-01  0.16254944255E-01  0.12822432708E+00  0.20408798599E-01 0.  0.
         14    1    1    2    0    0 -0.22208941618E-01  0.33032715298E-02 -0.78615333060E-02  0.23789754024E-01  0.00000000000E+00 0. -1.
     999901    1    3    3    0    0  0.13726430493E+00  0.46926193475E-01 -0.83934109493E-02  0.89191591890E+00  0.88000000000E+00 0. -1.
        -11    1    4    4    0    0 -0.49175964855E-01 -0.31817541405E-01  0.11173643889E-01  0.59630050304E-01  0.51100000000E-03 0. -1.
         11    1    4    4    0    0 -0.65879398455E-01 -0.18411923599E-01  0.50813003665E-02  0.68594276771E-01  0.51100000000E-03 0.  1.
</event>
<event>
 8    1  0.1126407E+005  0.1043930E+01  0.7957747E-01            NaN
         13   -1    0    0    0    0  0.00000000000E+00  0.00000000000E+00  0.74505805969E-08  0.10566000000E+00  0.10566000000E+00 0. -1.
     999900   -1    0    0    0    0 -0.00000000000E+00 -0.00000000000E+00 -0.74505805969E-08  0.93827000000E+00  0.93827000000E+00 0. -1.
     999902    2    1    2    0    0 -0.15395303133E-01 -0.16574019190E-01 -0.68214206056E-02  0.10203027858E+01  0.10200291807E+01 0.  0.
     999903    2    3    3    0    0  0.23419025393E-01  0.17512785282E-01  0.12374071422E+00  0.12917151974E+00  0.22767713061E-01 0.  0.
         14    1    1    2    0    0  0.15395303133E-01  0.16574019190E-01  0.68214206056E-02  0.23627214177E-01  0.00000000000E+00 0. -1.
     999901    1    3    3    0    0 -0.38814328527E-01 -0.34086804472E-01 -0.13056213483E+00  0.89113126608E+00  0.88000000000E+00 0. -1.
        -11    1    4    4    0    0  0.20739657346E-01  0.75793268289E-02  0.49301677957E-01  0.54023107578E-01  0.51100000000E-03 0.  1.
         11    1    4    4    0    0  0.26793680473E-02  0.99334584532E-02  0.74439036262E-01  0.75148412163E-01  0.51100000000E-03 0. -1.
</event>
<event>
 8    1  0.1126407E+005  0.1043930E+01  0.7957747E-01            NaN
         13   -1    0    0    0    0  0.00000000000E+00  0.00000000000E+00  0.74505805969E-08  0.10566000000E+00  0.10566000000E+00 0.  1.
     999900   -1    0    0    0    0 -0.00000000000E+00 -0.00000000000E+00 -0.74505805969E-08  0.93827000000E+00  0.93827000000E+00 0.  1.
     999902    2    1    2    0    0 -0.13522906213E-01 -0.52392211599E-02  0.18692013459E-01  0.10202718133E+01  0.10199974820E+01 0.  0.
     999903    2    3    3    0    0 -0.39626810965E-01  0.12030446067E+00  0.25783806729E-01  0.13095020476E+00  0.20969120881E-01 0.  0.
         14    1    1    2    0    0  0.13522906213E-01  0.52392211599E-02 -0.18692013459E-01  0.23658186701E-01  0.00000000000E+00 0. -1.
     999901    1    3    3    0    0  0.26103904752E-01 -0.12554368183E+00 -0.70917932695E-02  0.88932160854E+00  0.88000000000E+00 0. -1.
        -11    1    4    4    0    0 -0.17961972565E-01  0.28773667287E-01  0.22989959389E-02  0.34001513068E-01  0.51100000000E-03 0.  1.
         11    1    4    4    0    0 -0.21664838400E-01  0.91530793387E-01  0.23484810790E-01  0.96948691687E-01  0.51100000000E-03 0. -1.
</event>
<event>
 8    1  0.1126407E+005  0.1043930E+01  0.7957747E-01            NaN
         13   -1    0    0    0    0  0.00000000000E+00  0.00000000000E+00  0.74505805969E-08  0.10566000000E+00  0.10566000000E+00 0. -1.
     999900   -1    0    0    0    0 -0.00000000000E+00 -0.00000000000E+00 -0.74505805969E-08  0.93827000000E+00  0.93827000000E+00 0. -1.
     999902    2    1    2    0    0  0.97888328275E-02  0.15597316616E-01 -0.16815348626E-01  0.10189930097E+01  0.10186878327E+01 0.  0.
     999903    2    3    3    0    0  0.92132786689E-01  0.89141638669E-01 -0.24813145133E-01  0.13205825521E+00  0.19723297659E-01 0.  0.
         14    1    1    2    0    0 -0.97888328275E-02 -0.15597316616E-01  0.16815348626E-01  0.24936990259E-01  0.00000000000E+00 0.  1.
     999901    1    3    3    0    0 -0.82343953861E-01 -0.73544322053E-01  0.79977965068E-02  0.88693475453E+00  0.88000000000E+00 0. -1.
        -11    1    4    4    0    0  0.49550172036E-01  0.61311984807E-01 -0.14902198478E-01  0.80229144768E-01  0.51100000000E-03 0.  1.
         11    1    4    4    0    0  0.42582614653E-01  0.27829653862E-01 -0.99109466551E-02  0.51829110444E-01  0.51100000000E-03 0. -1.
</event>
<event>
 8    1  0.1126407E+005  0.1043930E+01  0.7957747E-01            NaN
         13   -1    0    0    0    0  0.00000000000E+00  0.00000000000E+00  0.74505805969E-08  0.10566000000E+00  0.10566000000E+00 0.  1.
     999900   -1    0    0    0    0 -0.00000000000E+00 -0.00000000000E+00 -0.74505805969E-08  0.93827000000E+00  0.93827000000E+00 0.  1.
     999902    2    1    2    0    0  0.32529836995E-02 -0.16442231519E-01 -0.17286234757E-01  0.10198521514E+01  0.10195678830E+01 0.  0.
     999903    2    3    3    0    0 -0.13204765657E-01  0.12041192681E+00  0.34826417304E-01  0.12759902216E+00  0.19880471798E-01 0.  0.
         14    1    1    2    0    0 -0.32529836995E-02  0.16442231519E-01  0.17286234757E-01  0.24077848582E-01  0.00000000000E+00 0. -1.
     999901    1    3    3    0    0  0.16457749356E-01 -0.13685415833E+00 -0.52112652061E-01  0.89225312926E+00  0.88000000000E+00 0. -1.
        -11    1    4    4    0    0 -0.17571339383E-01  0.10804116593E+00  0.33101806185E-01  0.11435749297E+00  0.51100000000E-03 0. -1.
         11    1    4    4    0    0  0.43665737261E-02  0.12370760881E-01  0.17246111194E-02  0.13241529194E-01  0.51100000000E-03 0.  1.
</event>
<event>
 8    1  0.1126407E+005  0.1043930E+01  0.7957747E-01            NaN
         13   -1    0    0    0    0  0.00000000000E+00  0.00000000000E+00  0.74505805969E-08  0.10566000000E+00  0.10566000000E+00 0.  1.
     999900   -1    0    0    0    0 -0.00000000000E+00 -0.00000000000E+00 -0.74505805969E-08  0.93827000000E+00  0.93827000000E+00 0. -1.
     999902    2    1    2    0    0  0.96653626014E-02 -0.22099932846E-01  0.43322059844E-02  0.10194229750E+01  0.10191283568E+01 0.  0.
     999903    2    3    3    0    0 -0.87339078935E-01 -0.65792847492E-01 -0.67676949862E-01  0.13009499781E+00  0.19690744606E-01 0.  0.
         14    1    1    2    0    0 -0.96653626014E-02  0.22099932846E-01 -0.43322059844E-02  0.24507025007E-01  0.00000000000E+00 0.  1.
     999901    1    3    3    0    0  0.97004441537E-01  0.43692914646E-01  0.72009155846E-01  0.88932797718E+00  0.88000000000E+00 0.  1.
        -11    1    4    4    0    0 -0.73862644137E-01 -0.55361663431E-01 -0.47944085052E-01  0.10401682743E+00  0.51100000000E-03 0.  1.
         11    1    4    4    0    0 -0.13476434798E-01 -0.10431184061E-01 -0.19732864810E-01  0.26078170381E-01  0.51100000000E-03 0. -1.
</event>
<event>
 8    1  0.1126407E+005  0.1043930E+01  0.7957747E-01            NaN
         13   -1    0    0    0    0  0.00000000000E+00  0.00000000000E+00  0.74505805969E-08  0.10566000000E+00  0.10566000000E+00 0. -1.
     999900   -1    0    0    0    0 -0.00000000000E+00 -0.00000000000E+00 -0.74505805969E-08  0.93827000000E+00  0.93827000000E+00 0. -1.
     999902    2    1    2    0    0  0.21047271176E-01 -0.10105274565E-01  0.22845164020E-02  0.10204710313E+01  0.10202013539E+01 0.  0.
     999903    2    3    3    0    0 -0.55654942612E-01  0.33343391467E-01 -0.10957594486E+00  0.12902065186E+00  0.20740938341E-01 0.  0.
         14    1    1    2    0    0 -0.21047271176E-01  0.10105274565E-01 -0.22845164020E-02  0.23458968715E-01  0.00000000000E+00 0. -1.
     999901    1    3    3    0    0  0.76702213788E-01 -0.43448666032E-01  0.11186046126E+00  0.89145037942E+00  0.88000000000E+00 0.  1.
        -11    1    4    4    0    0 -0.10440519485E-01  0.65365471806E-02 -0.81401955282E-02  0.14773449170E-01  0.51100000000E-03 0. -1.
         11    1    4    4    0    0 -0.45214423127E-01  0.26806844286E-01 -0.10143574933E+00  0.11424720269E+00  0.51100000000E-03 0.  1.
</event>
<event>
 8    1  0.1126407E+005  0.1043930E+01  0.7957747E-01            NaN
         13   -1    0    0    0    0  0.00000000000E+00  0.00000000000E+00  0.74505805969E-08  0.10566000000E+00  0.10566000000E+00 0. -1.
     999900   -1    0    0    0    0 -0.00000000000E+00 -0.00000000000E+00 -0.74505805969E-08  0.93827000000E+00  0.93827000000E+00 0.  1.
     999902    2    1    2    0    0 -0.21662824261E-01  0.93764754663E-02  0.46549983280E-02  0.10198703812E+01  0.10195865482E+01 0.  0.
     999903    2    3    3    0    0  0.74226629496E-01  0.85324436743E-02  0.10423699923E+00  0.12907743409E+00  0.14602631998E-01 0.  0.
         14    1    1    2    0    0  0.21662824261E-01 -0.93764754663E-02 -0.46549983280E-02  0.24059618795E-01  0.00000000000E+00 0.  1.
     999901    1    3    3    0    0 -0.95889453757E-01  0.84403179198E-03 -0.99582000900E-01  0.89079294712E+00  0.88000000000E+00 0. -1.
        -11    1    4    4    0    0  0.59685018367E-01  0.12562951520E-01  0.85098327798E-01  0.10470012265E+00  0.51100000000E-03 0.  1.
         11    1    4    4    0    0  0.14541611129E-01 -0.40305078461E-02  0.19138671430E-01  0.24377311436E-01  0.51100000000E-03 0. -1.
</event>
<event>
 8    1  0.1126407E+005  0.1043930E+01  0.7957747E-01            NaN
         13   -1    0    0    0    0  0.00000000000E+00  0.00000000000E+00  0.74505805969E-08  0.10566000000E+00  0.10566000000E+00 0. -1.
     999900   -1    0    0    0    0 -0.00000000000E+00 -0.00000000000E+00 -0.74505805969E-08  0.93827000000E+00  0.93827000000E+00 0. -1.
     999902    2    1    2    0    0 -0.20901570033E-01  0.46790376251E-02 -0.96406530749E-02  0.10204414663E+01  0.10201711008E+01 0.  0.
     999903    2    3    3    0    0  0.30860458582E-01 -0.12386654799E+00 -0.11147342334E-01  0.12959605588E+00  0.19380011417E-01 0.  0.
         14    1    1    2    0    0  0.20901570033E-01 -0.46790376251E-02  0.96406530749E-02  0.23488533685E-01  0.00000000000E+00 0. -1.
     999901    1    3    3    0    0 -0.51762028616E-01  0.12854558562E+00  0.15066892594E-02  0.89084541044E+00  0.88000000000E+00 0. -1.
        -11    1    4    4    0    0  0.99863495813E-02 -0.73600227457E-01 -0.13370431512E-02  0.74288420801E-01  0.51100000000E-03 0.  1.
         11    1    4    4    0    0  0.20874109001E-01 -0.50266320533E-01 -0.98102991831E-02  0.55307635075E-01  0.51100000000E-03 0. -1.
</event>
<event>
 8    1  0.1126407E+005  0.1043930E+01  0.7957747E-01            NaN
         13   -1    0    0    0    0  0.00000000000E+00  0.00000000000E+00  0.74505805969E-08  0.10566000000E+00  0.10566000000E+00 0.  1.
     999900   -1    0    0    0    0 -0.00000000000E+00 -0.00000000000E+00 -0.74505805969E-08  0.93827000000E+00  0.93827000000E+00 0. -1.
     999902    2    1    2    0    0 -0.17402182447E-01 -0.13196783614E-01 -0.35506553222E-02  0.10218031339E+01  0.10215635302E+01 0.  0.
     999903    2    3    3    0    0  0.10954429027E+00  0.63393013298E-01  0.17285610799E-01  0.12915787739E+00  0.19087673616E-01 0.  0.
         14    1    1    2    0    0  0.17402182447E-01  0.13196783614E-01  0.35506553222E-02  0.22126866133E-01  0.00000000000E+00 0.  1.
     999901    1    3    3    0    0 -0.12694647272E+00 -0.76589796912E-01 -0.20836266121E-01  0.89264525648E+00  0.88000000000E+00 0.  1.
        -11    1    4    4    0    0  0.99437184057E-01  0.50740068740E-01  0.12942200121E-01  0.11238358338E+00  0.51100000000E-03 0.  1.
         11    1    4    4    0    0  0.10107106217E-01  0.12652944559E-01  0.43434106779E-02  0.16774294006E-01  0.51100000000E-03 0. -1.
</event>
<event>
 8    1  0.1126407E+005  0.1043930E+01  0.7957747E-01            NaN
         13   -1    0    0    0    0  0.00000000000E+00  0.00000000000E+00  0.74505805969E-08  0.10566000000E+00  0.10566000000E+00 0. -1.
     999900   -1    0    0    0    0 -0.00000000000E+00 -0.00000000000E+00 -0.74505805969E-08  0.93827000000E+00  0.93827000000E+00 0. -1.
     999902    2    1    2    0    0  0.18135806630E-01  0.28980879677E-02 -0.15528953877E-01  0.10198789126E+01  0.10195952832E+01 0.  0.
     999903    2    3    3    0    0  0.68146644342E-01  0.53034550365E-01  0.95265365965E-01  0.13010920642E+00  0.19906957960E-01 0.  0.
         14    1    1    2    0    0 -0.18135806630E-01 -0.28980879677E-02  0.15528953877E-01  0.24051087387E-01  0.00000000000E+00 0. -1.
     999901    1    3    3    0    0 -0.50010837712E-01 -0.50136462398E-01 -0.11079431984E+00  0.88976970619E+00  0.88000000000E+00 0. -1.
        -11    1    4    4    0    0  0.43759222864E-01  0.30142474934E-01  0.44487128038E-01  0.69302265929E-01  0.51100000000E-03 0. -1.
         11    1    4    4    0    0  0.24387421478E-01  0.22892075431E-01  0.50778237927E-01  0.60806940491E-01  0.51100000000E-03 0.  1.
</event>
<event>
 8    1  0.1126407E+005  0.1043930E+01  0.7957747E-01            NaN
         13   -1    0    0    0    0  0.00000000000E+00  0.00000000000E+00  0.74505805969E-08  0.10566000000E+00  0.10566000000E+00 0. -1.
     999900   -1    0    0    0    0 -0.00000000000E+00 -0.00000000000E+00 -0.74505805969E-08  0.93827000000E+00  0.93827000000E+00 0.  1.
     999902    2    1    2    0    0 -0.14927313068E-01  0.21761701167E-01 -0.13948256370E-02  0.10175038415E+01  0.10171606194E+01 0.  0.
     999903    2    3    3    0    0  0.28004054645E-01  0.54022938839E-01 -0.11180024969E+00  0.12898077067E+00  0.20833587604E-01 0.  0.
         14    1    1    2    0    0  0.14927313068E-01 -0.21761701167E-01  0.13948256370E-02  0.26426158473E-01  0.00000000000E+00 0.  1.
     999901    1    3    3    0    0 -0.42931367714E-01 -0.32261237672E-01  0.11040542406E+00  0.88852307086E+00  0.88000000000E+00 0. -1.
        -11    1    4    4    0    0  0.16265657494E-01  0.44216503986E-01 -0.69220169236E-01  0.83733886740E-01  0.51100000000E-03 0. -1.
         11    1    4    4    0    0  0.11738397152E-01  0.98064348532E-02 -0.42580080459E-01  0.45246883927E-01  0.51100000000E-03 0.  1.
</event>
<event>
 8    1  0.1126407E+005  0.1043930E+01  0.7957747E-01            NaN
         13   -1    0    0    0    0  0.00000000000E+00  0.00000000000E+00  0.74505805969E-08  0.10566000000E+00  0.10566000000E+00 0. -1.
     999900   -1    0    0    0    0 -0.00000000000E+00 -0.00000000000E+00 -0.74505805969E-08  0.93827000000E+00  0.93827000000E+00 0.  1.
     999902    2    1    2    0    0 -0.70895362247E-02 -0.12930689039E-01  0.15875049519E-01  0.10222624796E+01  0.10220328252E+01 0.  0.
     999903    2    3    3    0    0  0.75714923955E-01 -0.34993525639E-01 -0.98539798715E-01  0.13072778881E+00  0.20551552042E-01 0.  0.
         14    1    1    2    0    0  0.70895362247E-02  0.12930689039E-01 -0.15875049519E-01  0.21667520397E-01  0.00000000000E+00 0.  1.
     999901    1    3    3    0    0 -0.82804460179E-01  0.22062836600E-01  0.11441484823E+00  0.89153469079E+00  0.88000000000E+00 0. -1.
        -11    1    4    4    0    0  0.64602254264E-02 -0.91889547152E-02 -0.19552020246E-01  0.22554689490E-01  0.51100000000E-03 0.  1.
         11    1    4    4    0    0  0.69254698528E-01 -0.25804570924E-01 -0.78987778469E-01  0.10817309932E+00  0.51100000000E-03 0. -1.
</event>
<event>
 8    1  0.1126407E+005  0.1043930E+01  0.7957747E-01            NaN
         13   -1    0    0    0    0  0.00000000000E+00  0.00000000000E+00  0.74505805969E-08  0.10566000000E+00  0.10566000000E+00 0.  1.
     999900   -1    0    0    0    0 -0.00000000000E+00 -0.00000000000E+00 -0.74505805969E-08  0.93827000000E+00  0.93827000000E+00 0.  1.
     999902    2    1    2    0    0 -0.13662758554E-01  0.14842502021E-01  0.11675223031E-01  0.10206215966E+01  0.10203554095E+01 0.  0.
     999903    2    3    3    0    0  0.11469584231E+00  0.45900162025E-01 -0.34059088982E-01  0.12959290121E+00  0.19296045867E-01 0.  0.
         14    1    1    2    0    0  0.13662758554E-01 -0.14842502021E-01 -0.11675223031E-01  0.23308403428E-01  0.00000000000E+00 0. -1.
     999901    1    3    3    0    0 -0.12835860086E+00 -0.31057660004E-01  0.45734312012E-01  0.89102869536E+00  0.88000000000E+00 0.  1.
        -11    1    4    4    0    0  0.85868492297E-01  0.42861185421E-01 -0.28016034191E-01  0.99978190011E-01  0.51100000000E-03 0.  1.
         11    1    4    4    0    0  0.28827350008E-01  0.30389766044E-02 -0.60430547906E-02  0.29614711201E-01  0.51100000000E-03 0. -1.
</event>
<event>
 8    1  0.1126407E+005  0.1043930E+01  0.7957747E-01            NaN
         13   -1    0    0    0    0  0.00000000000E+00  0.00000000000E+00  0.74505805969E-08  0.10566000000E+00  0.10566000000E+00 0. -1.
     999900   -1    0    0    0    0 -0.00000000000E+00 -0.00000000000E+00 -0.74505805969E-08  0.93827000000E+00  0.93827000000E+00 0.  1.
     999902    2    1    2    0    0  0.25137526767E-02  0.15484821297E-01 -0.16801731941E-01  0.10209431159E+01  0.10206843043E+01 0.  0.
     999903    2    3    3    0    0 -0.86755303698E-01  0.79109990962E-01 -0.55526474312E-01  0.13329637746E+00  0.29997691656E-01 0.  0.
         14    1    1    2    0    0 -0.25137526767E-02 -0.15484821297E-01  0.16801731941E-01  0.22986884072E-01  0.00000000000E+00 0. -1.
     999901    1    3    3    0    0  0.89269056374E-01 -0.63625169665E-01  0.38724742371E-01  0.88764673847E+00  0.88000000000E+00 0.  1.
        -11    1    4    4    0    0 -0.54533005070E-01  0.30262662696E-01 -0.33257879849E-01  0.70682565662E-01  0.51100000000E-03 0. -1.
         11    1    4    4    0    0 -0.32222298628E-01  0.48847328266E-01 -0.22268594463E-01  0.62613811799E-01  0.51100000000E-03 0.  1.
</event>
<event>
 8    1  0.1126407E+005  0.1043930E+01  0.7957747E-01            NaN
         13   -1    0    0    0    0  0.00000000000E+00  0.00000000000E+00  0.74505805969E-08  0.10566000000E+00  0.10566000000E+00 0.  1.
     999900   -1    0    0    0    0 -0.00000000000E+00 -0.00000000000E+00 -0.74505805969E-08  0.93827000000E+00  0.93827000000E+00 0. -1.
     999902    2    1    2    0    0 -0.13346000143E-01 -0.11657300154E-01  0.16177490965E-01  0.10199358428E+01  0.10196535705E+01 0.  0.
     999903    2    3    3    0    0  0.80881453383E-01  0.88092683166E-01 -0.39213814473E-01  0.12758105410E+00  0.20906261990E-01 0.  0.
         14    1    1    2    0    0  0.13346000143E-01  0.11657300154E-01 -0.16177490965E-01  0.23994157218E-01  0.00000000000E+00 0. -1.
     999901    1    3    3    0    0 -0.94227453526E-01 -0.99749983320E-01  0.55391305437E-01  0.89235478868E+00  0.88000000000E+00 0.  1.
        -11    1    4    4    0    0  0.23437994045E-01  0.12979767183E-01 -0.10127774749E-01  0.28646934624E-01  0.51100000000E-03 0. -1.
         11    1    4    4    0    0  0.57443459338E-01  0.75112915983E-01 -0.29086039723E-01  0.98934119474E-01  0.51100000000E-03 0.  1.
</event>
<event>
 8    1  0.1126407E+005  0.1043930E+01  0.7957747E-01            NaN
         13   -1    0    0    0    0  0.00000000000E+00  0.00000000000E+00  0.74505805969E-08  0.10566000000E+00  0.10566000000E+00 0. -1.
     999900   -1    0    0    0    0 -0.00000000000E+00 -0.00000000000E+00 -0.74505805969E-08  0.93827000000E+00  0.93827000000E+00 0.  1.
     999902    2    1    2    0    0 -0.11955956361E-01 -0.39997240532E-02 -0.20303636750E-01  0.10200306203E+01  0.10197505999E+01 0.  0.
     999903    2    3    3    0    0 -0.77354246883E-01  0.26932463970E-01 -0.10089273655E+00  0.13339183270E+00  0.30083211527E-01 0.  0.
         14    1    1    2    0    0  0.11955956361E-01  0.39997240532E-02  0.20303636750E-01  0.23899379705E-01  0.00000000000E+00 0.  1.
     999901    1    3    3    0    0  0.65398290522E-01 -0.30932188024E-01  0.80589099803E-01  0.88663878759E+00  0.88000000000E+00 0.  1.
        -11    1    4    4    0    0 -0.33063547072E-01  0.19368486892E-01 -0.66706620634E-01  0.76930948173E-01  0.51100000000E-03 0.  1.
         11    1    4    4    0    0 -0.44290699811E-01  0.75639770786E-02 -0.34186115920E-01  0.56460884528E-01  0.51100000000E-03 0. -1.
</event>
<event>
 8    1  0.1126407E+005  0.1043930E+01  0.7957747E-01            NaN
         13   -1    0    0    0    0  0.00000000000E+00  0.00000000000E+00  0.74505805969E-08  0.10566000000E+00  0.10566000000E+00 0.  1.
     999900   -1    0    0    0    0 -0.00000000000E+00 -0.00000000000E+00 -0.74505805969E-08  0.93827000000E+00  0.93827000000E+00 0. -1.
     999902    2    1    2    0    0 -0.21065305877E-01 -0.12717781865E-01 -0.14105775120E-01  0.10155669610E+01  0.10151708183E+01 0.  0.
     999903    2    3    3    0    0 -0.12088985670E+00  0.34533583025E-01  0.14765116963E-01  0.12819378090E+00  0.20216601390E-01 0.  0.
         14    1    1    2    0    0  0.21065305877E-01  0.12717781865E-01  0.14105775120E-01  0.28363038959E-01  0.00000000000E+00 0.  1.
     999901    1    3    3    0    0  0.99824550824E-01 -0.47251364891E-01 -0.28870892083E-01  0.88737318015E+00  0.88000000000E+00 0.  1.
        -11    1    4    4    0    0 -0.97410365807E-01  0.20875433221E-01  0.66742172866E-02  0.99846729422E-01  0.51100000000E-03 0. -1.
         11    1    4    4    0    0 -0.23479490894E-01  0.13658149804E-01  0.80908996763E-02  0.28347051474E-01  0.51100000000E-03 0.  1.
</event>
<event>
 8    1  0.1126407E+005  0.1043930E+01  0.7957747E-01            NaN
         13   -1    0    0    0    0  0.00000000000E+00  0.00000000000E+00  0.74505805969E-08  0.10566000000E+00  0.10566000000E+00 0.  1.
     999900   -1    0    0    0    0 -0.00000000000E+00 -0.00000000000E+00 -0.74505805969E-08  0.93827000000E+00  0.93827000000E+00 0.  1.
     999902    2    1    2    0    0  0.67046963965E-02 -0.20582104473E-01 -0.10723573238E-01  0.10197727857E+01  0.10194866176E+01 0.  0.
     999903    2    3    3    0    0 -0.92970862532E-01  0.70502169094E-01 -0.50238550870E-01  0.12859772134E+00  0.19983113184E-01 0.  0.
         14    1    1    2    0    0 -0.67046963965E-02  0.20582104473E-01  0.10723573238E-01  0.24157214270E-01  0.00000000000E+00 0.  1.
     999901    1    3    3    0    0  0.99675558929E-01 -0.91084273567E-01  0.39514977631E-01  0.89117506439E+00  0.88000000000E+00 0. -1.
        -11    1    4    4    0    0 -0.30182313547E-01  0.11928146507E-01 -0.12105574899E-01  0.34641864770E-01  0.51100000000E-03 0.  1.
         11    1    4    4    0    0 -0.62788548986E-01  0.58574022587E-01 -0.38132975970E-01  0.93955856567E-01  0.51100000000E-03 0. -1.
</event>
<event>
 8    1  0.1126407E+005  0.1043930E+01  0.7957747E-01            NaN
         13   -1    0    0    0    0  0.00000000000E+00  0.00000000000E+00  0.74505805969E-08  0.10566000000E+00  0.10566000000E+00 0.  1.
     999900   -1    0    0    0    0 -0.00000000000E+00 -0.00000000000E+00 -0.74505805969E-08  0.93827000000E+00  0.93827000000E+00 0.  1.
     999902    2    1    2    0    0  0.22231680426E-01  0.20903395353E-02  0.43303118790E-02  0.10211842590E+01  0.10209309095E+01 0.  0.
     999903    2    3    3    0    0 -0.10399951580E+00  0.72288311911E-01  0.16333122736E-01  0.12932881234E+00  0.20437012420E-01 0.  0.
         14    1    1    2    0    0 -0.22231680426E-01 -0.20903395353E-02 -0.43303118790E-02  0.22745741027E-01  0.00000000000E+00 0.  1.
     999901    1    3    3    0    0  0.12623119623E+00 -0.70197972375E-01 -0.12002810857E-01  0.89185544664E+00  0.88000000000E+00 0.  1.
        -11    1    4    4    0    0 -0.59956561157E-01  0.29882934197E-01  0.11755263112E-01  0.68016367985E-01  0.51100000000E-03 0.  1.
         11    1    4    4    0    0 -0.44042954643E-01  0.42405377713E-01  0.45778596243E-02  0.61312444352E-01  0.51100000000E-03 0. -1.
</event>
<event>
 8    1  0.1126407E+005  0.1043930E+01  0.7957747E-01            NaN
         13   -1    0    0    0    0  0.00000000000E+00  0.00000000000E+00  0.74505805969E-08  0.10566000000E+00  0.10566000000E+00 0. -1.
     999900   -1    0    0    0    0 -0.00000000000E+00 -0.00000000000E+00 -0.74505805969E-08  0.93827000000E+00  0.93827000000E+00 0.  1.
     999902    2    1    2    0    0  0.11335814218E-01  0.14780275876E-01 -0.14858982762E-01  0.10201025661E+01  0.10198242489E+01 0.  0.
     999903    2    3    3    0    0  0.11560471723E+00  0.15062600093E-01 -0.60189927098E-01  0.13278809061E+00  0.20457690931E-01 0.  0.
         14    1    1    2    0    0 -0.11335814218E-01 -0.14780275876E-01  0.14858982762E-01  0.23827433929E-01  0.00000000000E+00 0.  1.
     999901    1    3    3    0    0 -0.10426890301E+00 -0.28232421722E-03  0.45330944336E-01  0.88731447546E+00  0.88000000000E+00 0.  1.
        -11    1    4    4    0    0  0.77194851800E-01  0.18160758877E-01 -0.46257749188E-01  0.91809034350E-01  0.51100000000E-03 0. -1.
         11    1    4    4    0    0  0.38409865426E-01 -0.30981587838E-02 -0.13932177909E-01  0.40979056263E-01  0.51100000000E-03 0.  1.
</event>
<event>
 8    1  0.1126407E+005  0.1043930E+01  0.7957747E-01            NaN
         13   -1    0    0    0    0  0.00000000000E+00  0.00000000000E+00  0.74505805969E-08  0.10566000000E+00  0.10566000000E+00 0. -1.
     999900   -1    0    0    0    0 -0.00000000000E+00 -0.00000000000E+00 -0.74505805969E-08  0.93827000000E+00  0.93827000000E+00 0.  1.
     999902    2    1    2    0    0  0.21728759194E-03 -0.20696948725E-01 -0.11140062861E-01  0.10204244283E+01  0.10201536659E+01 0.  0.
     999903    2    3    3    0    0 -0.45589261050E-01 -0.17832051451E-01  0.11844485962E+00  0.12975125610E+00  0.20244527839E-01 0.  0.
         14    1    1    2    0    0 -0.21728759194E-03  0.20696948725E-01  0.11140062861E-01  0.23505571701E-01  0.00000000000E+00 0. -1.
     999901    1    3    3    0    0  0.45806548642E-01 -0.28648972749E-02 -0.12958492248E+00  0.89067317220E+00  0.88000000000E+00 0.  1.
        -11    1    4    4    0    0 -0.33859907118E-01 -0.33457319379E-02  0.69741457488E-01  0.77600381737E-01  0.51100000000E-03 0. -1.
         11    1    4    4    0    0 -0.11729353932E-01 -0.14486319513E-01  0.48703402134E-01  0.52150874366E-01  0.51100000000E-03 0.  1.
</event>
<event>
 8    1  0.1126407E+005  0.1043930E+01  0.7957747E-01            NaN
         13   -1    0    0    0    0  0.00000000000E+00  0.00000000000E+00  0.74505805969E-08  0.10566000000E+00  0.10566000000E+00 0.  1.
     999900   -1    0    0    0    0 -0.00000000000E+00 -0.00000000000E+00 -0.74505805969E-08  0.93827000000E+00  0.93827000000E+00 0.  1.
     999902    2    1    2    0    0  0.14591990425E-01 -0.75425420668E-02 -0.34166131459E-03  0.10275003665E+01  0.10273690039E+01 0.  0.
     999903    2    3    3    0    0 -0.91540148834E-01 -0.98998767952E-01  0.45005656083E-02  0.13640456949E+00  0.20139428559E-01 0.  0.
         14    1    1    2    0    0 -0.14591990425E-01  0.75425420668E-02  0.34166131459E-03  0.16429633527E-01  0.00000000000E+00 0. -1.
     999901    1    3    3    0    0  0.10613213926E+00  0.91456225885E-01 -0.48422269229E-02  0.89109579698E+00  0.88000000000E+00 0. -1.
        -11    1    4    4    0    0 -0.83660140682E-01 -0.93709328061E-01 -0.59006847370E-03  0.12562271533E+00  0.51100000000E-03 0.  1.
         11    1    4    4    0    0 -0.78800081516E-02 -0.52894398910E-02  0.50906340820E-02  0.10781854163E-01  0.51100000000E-03 0. -1.
</event>
<event>
 8    1  0.1126407E+005  0.1043930E+01  0.7957747E-01            NaN
         13   -1    0    0    0    0  0.00000000000E+00  0.00000000000E+00  0.74505805969E-08  0.10566000000E+00  0.10566000000E+00 0.  1.
     999900   -1    0    0    0    0 -0.00000000000E+00 -0.00000000000E+00 -0.74505805969E-08  0.93827000000E+00  0.93827000000E+00 0.  1.
     999902    2    1    2    0    0  0.75069732169E-02  0.10886378642E-01 -0.19026043215E-01  0.10207597992E+01  0.10204967954E+01 0.  0.
     999903    2    3    3    0    0 -0.10977195438E+00  0.67845343072E-01  0.40910411392E-02  0.13085358495E+00  0.21285007226E-01 0.  0.
         14    1    1    2    0    0 -0.75069732169E-02 -0.10886378642E-01  0.19026043215E-01  0.23170200845E-01  0.00000000000E+00 0. -1.
     999901    1    3    3    0    0  0.11727892760E+00 -0.56958964429E-01 -0.23117084354E-01  0.88990621420E+00  0.88000000000E+00 0.  1.
        -11    1    4    4    0    0 -0.75745182801E-01  0.57568962813E-01  0.69507945113E-03  0.95143378400E-01  0.51100000000E-03 0.  1.
         11    1    4    4    0    0 -0.34026771578E-01  0.10276380259E-01  0.33959616881E-02  0.35710206553E-01  0.51100000000E-03 0. -1.
</event>
<event>
 8    1  0.1126407E+005  0.1043930E+01  0.7957747E-01            NaN
         13   -1    0    0    0    0  0.00000000000E+00  0.00000000000E+00  0.74505805969E-08  0.10566000000E+00  0.10566000000E+00 0. -1.
     999900   -1    0    0    0    0 -0.00000000000E+00 -0.00000000000E+00 -0.74505805969E-08  0.93827000000E+00  0.93827000000E+00 0. -1.
     999902    2    1    2    0    0  0.14986314400E-01 -0.53748373630E-02  0.15044837820E-01  0.10220250772E+01  0.10217903077E+01 0.  0.
     999903    2    3    3    0    0 -0.30388933241E-01  0.51404671798E-01 -0.11361135822E+00  0.12970493148E+00  0.18705640540E-01 0.  0.
         14    1    1    2    0    0 -0.14986314400E-01  0.53748373630E-02 -0.15044837820E-01  0.21904922757E-01  0.00000000000E+00 0.  1.
     999901    1    3    3    0    0  0.45375247641E-01 -0.56779509161E-01  0.12865619604E+00  0.89232014576E+00  0.88000000000E+00 0.  1.
        -11    1    4    4    0    0 -0.18093159444E-01  0.14071555443E-01 -0.35491889880E-01  0.42252886996E-01  0.51100000000E-03 0.  1.
         11    1    4    4    0    0 -0.12295773796E-01  0.37333116355E-01 -0.78119468336E-01  0.87452044482E-01  0.51100000000E-03 0. -1.
</event>
<event>
 8    1  0.1126407E+005  0.1043930E+01  0.7957747E-01            NaN
         13   -1    0    0    0    0  0.00000000000E+00  0.00000000000E+00  0.74505805969E-08  0.10566000000E+00  0.10566000000E+00 0. -1.
     999900   -1    0    0    0    0 -0.00000000000E+00 -0.00000000000E+00 -0.74505805969E-08  0.93827000000E+00  0.93827000000E+00 0. -1.
     999902    2    1    2    0    0 -0.58304193357E-03  0.19072340855E-01 -0.14179503936E-01  0.10201570646E+01  0.10198800342E+01 0.  0.
     999903    2    3    3    0    0  0.10193178596E+00  0.76576094655E-01 -0.28811097560E-01  0.13222122509E+00  0.19959603191E-01 0.  0.
         14    1    1    2    0    0  0.58304193357E-03 -0.19072340855E-01  0.14179503936E-01  0.23772935356E-01  0.00000000000E+00 0.  1.
     999901    1    3    3    0    0 -0.10251482789E+00 -0.57503753800E-01  0.14631593625E-01  0.88793583956E+00  0.88000000000E+00 0. -1.
        -11    1    4    4    0    0  0.79805852931E-01  0.50066821501E-01 -0.17067599163E-01  0.95745625694E-01  0.51100000000E-03 0. -1.
         11    1    4    4    0    0  0.22125933026E-01  0.26509273154E-01 -0.11743498397E-01  0.36475599392E-01  0.51100000000E-03 0.  1.
</event>
<event>
 8    1  0.1126407E+005  0.1043930E+01  0.7957747E-01            NaN
         13   -1    0    0    0    0  0.00000000000E+00  0.00000000000E+00  0.74505805969E-08  0.10566000000E+00  0.10566000000E+00 0. -1.
     999900   -1    0    0    0    0 -0.00000000000E+00 -0.00000000000E+00 -0.74505805969E-08  0.93827000000E+00  0.93827000000E+00 0. -1.
     999902    2    1    2    0    0 -0.23263280231E-01 -0.37306125443E-02  0.10743009723E-02  0.10203450090E+01  0.10200723923E+01 0.  0.
     999903    2    3    3    0    0 -0.11126573697E+00 -0.66392018537E-01 -0.23499645741E-01  0.13339813178E+00  0.21327537674E-01 0.  0.
         14    1    1    2    0    0  0.23263280231E-01  0.37306125443E-02 -0.10743009723E-02  0.23584990982E-01  0.00000000000E+00 0.  1.
     999901    1    3    3    0    0  0.88002456735E-01  0.62661405993E-01  0.24573946714E-01  0.88694687724E+00  0.88000000000E+00 0. -1.
        -11    1    4    4    0    0 -0.62023927659E-01 -0.49081519516E-01 -0.15215370301E-01  0.80546457244E-01  0.51100000000E-03 0.  1.
         11    1    4    4    0    0 -0.49241809307E-01 -0.17310499021E-01 -0.82842754405E-02  0.52851674531E-01  0.51100000000E-03 0. -1.
</event>
<event>
 8    1  0.1126407E+005  0.1043930E+01  0.7957747E-01            NaN
         13   -1    0    0    0    0  0.00000000000E+00  0.00000000000E+00  0.74505805969E-08  0.10566000000E+00  0.10566000000E+00 0. -1.
     999900   -1    0    0    0    0 -0.00000000000E+00 -0.00000000000E+00 -0.74505805969E-08  0.93827000000E+00  0.93827000000E+00 0. -1.
     999902    2    1    2    0    0 -0.18845539025E-01 -0.13519092022E-02  0.11518293925E-01  0.10218018936E+01  0.10215622627E+01 0.  0.
     999903    2    3    3    0    0  0.86529392684E-01 -0.93001029119E-01 -0.20268233998E-01  0.13022249678E+00  0.20262530489E-01 0.  0.
         14    1    1    2    0    0  0.18845539025E-01  0.13519092022E-02 -0.11518293925E-01  0.22128106439E-01  0.00000000000E+00 0.  1.
     999901    1    3    3    0    0 -0.10537493171E+00  0.91649119917E-01  0.31786527923E-01  0.89157939679E+00  0.88000000000E+00 0. -1.
        -11    1    4    4    0    0  0.13548079900E-01 -0.23803100774E-01 -0.98543729264E-02  0.29111988290E-01  0.51100000000E-03 0.  1.
         11    1    4    4    0    0  0.72981312784E-01 -0.69197928345E-01 -0.10413861072E-01  0.10111050849E+00  0.51100000000E-03 0. -1.
</event>
<event>
 7    1  0.1389254E+005  0.1043930E+01  0.7957747E-01            NaN
         13   -1    0    0    0    0  0.00000000000E+00  0.00000000000E+00  0.74505805969E-08  0.10566000000E+00  0.10566000000E+00 0. -1.
     999900   -1    0    0    0    0 -0.00000000000E+00 -0.00000000000E+00 -0.74505805969E-08  0.93827000000E+00  0.93827000000E+00 0.  1.
     999903    2    1    2    0    0 -0.80626779628E-01 -0.68282128938E-01  0.12000465820E-01  0.10804627565E+00  0.19153583888E-01 0.  0.
         14    1    1    2    0    0  0.28537243300E-01 -0.13303841086E-01  0.37776856787E-01  0.49177813611E-01  0.00000000000E+00 0. -1.
     999901    1    1    2    0    0  0.52089536328E-01  0.81585970024E-01 -0.49777322608E-01  0.88670591074E+00  0.88000000000E+00 0.  1.
        -11    1    3    3    0    0 -0.40170993952E-01 -0.23382994031E-01  0.10150399621E-01  0.47579038435E-01  0.51100000000E-03 0.  1.
         11    1    3    3    0    0 -0.40455785676E-01 -0.44899134907E-01  0.18500661999E-02  0.60467237211E-01  0.51100000000E-03 0. -1.
</event>
<event>
 8    1  0.1126407E+005  0.1043930E+01  0.7957747E-01            NaN
         13   -1    0    0    0    0  0.00000000000E+00  0.00000000000E+00  0.74505805969E-08  0.10566000000E+00  0.10566000000E+00 0. -1.
     999900   -1    0    0    0    0 -0.00000000000E+00 -0.00000000000E+00 -0.74505805969E-08  0.93827000000E+00  0.93827000000E+00 0.  1.
     999902    2    1    2    0    0  0.17962196584E-01 -0.16168607164E-01  0.16589160173E-02  0.10197057071E+01  0.10194179284E+01 0.  0.
     999903    2    3    3    0    0 -0.10188192287E+00  0.73143870159E-01 -0.58379234879E-02  0.12707166441E+00  0.19574846025E-01 0.  0.
         14    1    1    2    0    0 -0.17962196584E-01  0.16168607164E-01 -0.16589160173E-02  0.24224292892E-01  0.00000000000E+00 0. -1.
     999901    1    3    3    0    0  0.11984411945E+00 -0.89312477324E-01  0.74968395052E-02  0.89263404269E+00  0.88000000000E+00 0. -1.
        -11    1    4    4    0    0 -0.56223712287E-01  0.52110968752E-01 -0.30325136337E-02  0.76721028067E-01  0.51100000000E-03 0. -1.
         11    1    4    4    0    0 -0.45658210582E-01  0.21032901407E-01 -0.28054098542E-02  0.50350636348E-01  0.51100000000E-03 0.  1.
</event>
<event>
 8    1  0.1126407E+005  0.1043930E+01  0.7957747E-01            NaN
         13   -1    0    0    0    0  0.00000000000E+00  0.00000000000E+00  0.74505805969E-08  0.10566000000E+00  0.10566000000E+00 0.  1.
     999900   -1    0    0    0    0 -0.00000000000E+00 -0.00000000000E+00 -0.74505805969E-08  0.93827000000E+00  0.93827000000E+00 0. -1.
     999902    2    1    2    0    0 -0.15561989326E-01 -0.10292330843E-02 -0.17608533336E-01  0.10204077705E+01  0.10201366197E+01 0.  0.
     999903    2    3    3    0    0 -0.24937327562E-02  0.32598727752E-01 -0.12721675937E+00  0.13287434453E+00  0.20064690768E-01 0.  0.
         14    1    1    2    0    0  0.15561989326E-01  0.10292330843E-02  0.17608533336E-01  0.23522229460E-01  0.00000000000E+00 0.  1.
     999901    1    3    3    0    0 -0.13068256570E-01 -0.33627960836E-01  0.10960822603E+00  0.88753342601E+00  0.88000000000E+00 0.  1.
        -11    1    4    4    0    0  0.84496358287E-02  0.15928284733E-01 -0.69715703140E-01  0.72011436491E-01  0.51100000000E-03 0.  1.
         11    1    4    4    0    0 -0.10943368585E-01  0.16670443019E-01 -0.57501056225E-01  0.60862908034E-01  0.51100000000E-03 0. -1.
</event>
<event>
 8    1  0.1126407E+005  0.1043930E+01  0.7957747E-01            NaN
         13   -1    0    0    0    0  0.00000000000E+00  0.00000000000E+00  0.74505805969E-08  0.10566000000E+00  0.10566000000E+00 0. -1.
     999900   -1    0    0    0    0 -0.00000000000E+00 -0.00000000000E+00 -0.74505805969E-08  0.93827000000E+00  0.93827000000E+00 0. -1.
     999902    2    1    2    0    0  0.14059046174E-01  0.13309838122E-01 -0.16241407735E-01  0.10186596242E+01  0.10183461288E+01 0.  0.
     999903    2    3    3    0    0 -0.84472093051E-01  0.75483888282E-01 -0.60440488658E-01  0.12988093592E+00  0.19561517091E-01 0.  0.
         14    1    1    2    0    0 -0.14059046174E-01 -0.13309838122E-01  0.16241407735E-01  0.25270375845E-01  0.00000000000E+00 0. -1.
     999901    1    3    3    0    0  0.98531139225E-01 -0.62174050160E-01  0.44199080923E-01  0.88877868824E+00  0.88000000000E+00 0. -1.
        -11    1    4    4    0    0 -0.58143785050E-01  0.39293121595E-01 -0.35556380118E-01  0.78671255442E-01  0.51100000000E-03 0. -1.
         11    1    4    4    0    0 -0.26328308001E-01  0.36190766687E-01 -0.24884108540E-01  0.51209680476E-01  0.51100000000E-03 0.  1.
</event>
<event>
 8    1  0.1126407E+005  0.1043930E+01  0.7957747E-01            NaN
         13   -1    0    0    0    0  0.00000000000E+00  0.00000000000E+00  0.74505805969E-08  0.10566000000E+00  0.10566000000E+00 0.  1.
     999900   -1    0    0    0    0 -0.00000000000E+00 -0.00000000000E+00 -0.74505805969E-08  0.93827000000E+00  0.93827000000E+00 0. -1.
     999902    2    1    2    0    0 -0.18821727108E-01  0.40226064100E-02  0.13879762304E-01  0.10202005547E+01  0.10199245488E+01 0.  0.
     999903    2    3    3    0    0  0.11925039269E-01  0.71075666084E-01  0.10877618306E+00  0.13203007154E+00  0.20142614472E-01 0.  0.
         14    1    1    2    0    0  0.18821727108E-01 -0.40226064100E-02 -0.13879762304E-01  0.23729445322E-01  0.00000000000E+00 0. -1.
     999901    1    3    3    0    0 -0.30746766377E-01 -0.67053059674E-01 -0.94896420756E-01  0.88817048314E+00  0.88000000000E+00 0. -1.
        -11    1    4    4    0    0  0.15693940292E-01  0.49783475217E-01  0.86132011792E-01  0.10071583164E+00  0.51100000000E-03 0.  1.
         11    1    4    4    0    0 -0.37689010230E-02  0.21292190867E-01  0.22644171268E-01  0.31314239895E-01  0.51100000000E-03 0. -1.
</event>
<event>
 8    1  0.1126407E+005  0.1043930E+01  0.7957747E-01            NaN
         13   -1    0    0    0    0  0.00000000000E+00  0.00000000000E+00  0.74505805969E-08  0.10566000000E+00  0.10566000000E+00 0. -1.
     999900   -1    0    0    0    0 -0.00000000000E+00 -0.00000000000E+00 -0.74505805969E-08  0.93827000000E+00  0.93827000000E+00 0. -1.
     999902    2    1    2    0    0  0.20529442031E-01 -0.88359421661E-02 -0.79422343675E-02  0.10202105786E+01  0.10199348086E+01 0.  0.
     999903    2    3    3    0    0 -0.12216954004E+00 -0.19238618114E-01 -0.29237146943E-01  0.12840079595E+00  0.18342101818E-01 0.  0.
         14    1    1    2    0    0 -0.20529442031E-01  0.88359421661E-02  0.79422343675E-02  0.23719421385E-01  0.00000000000E+00 0. -1.
     999901    1    3    3    0    0  0.14269898207E+00  0.10402675948E-01  0.21294912575E-01  0.89180978266E+00  0.88000000000E+00 0.  1.
        -11    1    4    4    0    0 -0.71127886624E-01 -0.14763600790E-01 -0.25628451185E-01  0.77033880826E-01  0.51100000000E-03 0. -1.
         11    1    4    4    0    0 -0.51041653417E-01 -0.44750173237E-02 -0.36086957579E-02  0.51366915127E-01  0.51100000000E-03 0.  1.
</event>
<event>
 8    1  0.1126407E+005  0.1043930E+01  0.7957747E-01            NaN
         13   -1    0    0    0    0  0.00000000000E+00  0.00000000000E+00  0.74505805969E-08  0.10566000000E+00  0.10566000000E+00 0.  1.
     999900   -1    0    0    0    0 -0.00000000000E+00 -0.00000000000E+00 -0.74505805969E-08  0.93827000000E+00  0.93827000000E+00 0. -1.
     999902    2    1    2    0    0 -0.14633321041E-02  0.93329741812E-02  0.22052653418E-01  0.10199390586E+01  0.10196568628E+01 0.  0.
     999903    2    3    3    0    0 -0.87489874214E-01 -0.93343221571E-01  0.57959073251E-02  0.12965413288E+00  0.20227865121E-01 0.  0.
         14    1    1    2    0    0  0.14633321041E-02 -0.93329741812E-02 -0.22052653418E-01  0.23990941430E-01  0.00000000000E+00 0. -1.
     999901    1    3    3    0    0  0.86026542110E-01  0.10267619575E+00  0.16256746093E-01  0.89028492569E+00  0.88000000000E+00 0.  1.
        -11    1    4    4    0    0 -0.63187045775E-01 -0.54459508036E-01  0.75822041787E-02  0.83762710740E-01  0.51100000000E-03 0. -1.
         11    1    4    4    0    0 -0.24302828439E-01 -0.38883713534E-01 -0.17862968536E-02  0.45891422138E-01  0.51100000000E-03 0.  1.
</event>
<event>
 8    1  0.1126407E+005  0.1043930E+01  0.7957747E-01            NaN
         13   -1    0    0    0    0  0.00000000000E+00  0.00000000000E+00  0.74505805969E-08  0.10566000000E+00  0.10566000000E+00 0. -1.
     999900   -1    0    0    0    0 -0.00000000000E+00 -0.00000000000E+00 -0.74505805969E-08  0.93827000000E+00  0.93827000000E+00 0.  1.
     999902    2    1    2    0    0 -0.20536767880E-01  0.11864162442E-01  0.36885301759E-02  0.10199274493E+01  0.10196449771E+01 0.  0.
     999903    2    3    3    0    0  0.92505263332E-02  0.12721932441E+00  0.27159121160E-01  0.13158913259E+00  0.17542896352E-01 0.  0.
         14    1    1    2    0    0  0.20536767880E-01 -0.11864162442E-01 -0.36885301759E-02  0.24002550703E-01  0.00000000000E+00 0.  1.
     999901    1    3    3    0    0 -0.29787294213E-01 -0.11535516197E+00 -0.23470590984E-01  0.88833831671E+00  0.88000000000E+00 0.  1.
        -11    1    4    4    0    0  0.71199447891E-02  0.68641245518E-01  0.60140980260E-02  0.69272972335E-01  0.51100000000E-03 0.  1.
         11    1    4    4    0    0  0.21305815441E-02  0.58578078893E-01  0.21145023134E-01  0.62316160254E-01  0.51100000000E-03 0. -1.
</event>
<event>
 8    1  0.1126407E+005  0.1043930E+01  0.7957747E-01            NaN
         13   -1    0    0    0    0  0.00000000000E+00  0.00000000000E+00  0.74505805969E-08  0.10566000000E+00  0.10566000000E+00 0.  1.
     999900   -1    0    0    0    0 -0.00000000000E+00 -0.00000000000E+00 -0.74505805969E-08  0.93827000000E+00  0.93827000000E+00 0.  1.
     999902    2    1    2    0    0  0.41988191487E-02 -0.21295954433E-01 -0.60380775597E-02  0.10213998838E+01  0.10211513680E+01 0.  0.
     999903    2    3    3    0    0 -0.85082447679E-01 -0.49274502156E-01 -0.86865891894E-01  0.13275649110E+00  0.20288008493E-01 0.  0.
         14    1    1    2    0    0 -0.41988191487E-02  0.21295954433E-01  0.60380775597E-02  0.22530116246E-01  0.00000000000E+00 0.  1.
     999901    1    3    3    0    0  0.89281266827E-01  0.27978547723E-01  0.80827814334E-01  0.88864339265E+00  0.88000000000E+00 0. -1.
        -11    1    4    4    0    0 -0.58053005186E-01 -0.30237233139E-01 -0.69256079250E-01  0.95294844105E-01  0.51100000000E-03 0.  1.
         11    1    4    4    0    0 -0.27029442493E-01 -0.19037269017E-01 -0.17609812645E-01  0.37461646994E-01  0.51100000000E-03 0. -1.
</event>
<event>
 8    1  0.1126407E+005  0.1043930E+01  0.7957747E-01            NaN
         13   -1    0    0    0    0  0.00000000000E+00  0.00000000000E+00  0.74505805969E-08  0.10566000000E+00  0.10566000000E+00 0.  1.
     999900   -1    0    0    0    0 -0.00000000000E+00 -0.00000000000E+00 -0.74505805969E-08  0.93827000000E+00  0.93827000000E+00 0. -1.
     999902    2    1    2    0    0 -0.44604391756E-02 -0.18751326918E-01 -0.13702375258E-01  0.10202812608E+01  0.10200071511E+01 0.  0.
     999903    2    3    3    0    0 -0.93686691974E-02 -0.12958638882E+00 -0.22302299173E-01  0.13327367324E+00  0.19597839143E-01 0.  0.
         14    1    1    2    0    0  0.44604391756E-02  0.18751326918E-01  0.13702375258E-01  0.23648739216E-01  0.00000000000E+00 0.  1.
     999901    1    3    3    0    0  0.49082300218E-02  0.11083506191E+00  0.85999239152E-02  0.88700758754E+00  0.88000000000E+00 0.  1.
        -11    1    4    4    0    0  0.42877589906E-02 -0.27281151645E-01 -0.97881797600E-02  0.29303851219E-01  0.51100000000E-03 0.  1.
         11    1    4    4    0    0 -0.13656428188E-01 -0.10230523718E+00 -0.12514119413E-01  0.10396982202E+00  0.51100000000E-03 0. -1.
</event>
<event>
 8    1  0.1126407E+005  0.1043930E+01  0.7957747E-01            NaN
         13   -1    0    0    0    0  0.00000000000E+00  0.00000000000E+00  0.74505805969E-08  0.10566000000E+00  0.10566000000E+00 0.  1.
     999900   -1    0    0    0    0 -0.00000000000E+00 -0.00000000000E+00 -0.74505805969E-08  0.93827000000E+00  0.93827000000E+00 0.  1.
     999902    2    1    2    0    0 -0.21848212509E-01  0.15334155771E-02 -0.97808475902E-02  0.10199433218E+01  0.10196612275E+01 0.  0.
     999903    2    3    3    0    0 -0.13335294595E-01 -0.93073070503E-01  0.84698795315E-01  0.12980329913E+00  0.28889167543E-01 0.  0.
         14    1    1    2    0    0  0.21848212509E-01 -0.15334155771E-02  0.97808475902E-02  0.23986678235E-01  0.00000000000E+00 0.  1.
     999901    1    3    3    0    0 -0.85129179143E-02  0.94606486080E-01 -0.94479642906E-01  0.89014002264E+00  0.88000000000E+00 0.  1.
        -11    1    4    4    0    0 -0.11479611956E-01 -0.10288429581E-01  0.10938869754E-01  0.18909078941E-01  0.51100000000E-03 0. -1.
         11    1    4    4    0    0 -0.18556826392E-02 -0.82784640922E-01  0.73759925561E-01  0.11089422018E+00  0.51100000000E-03 0.  1.
</event>
<event>
 8    1  0.1126407E+005  0.1043930E+01  0.7957747E-01            NaN
         13   -1    0    0    0    0  0.00000000000E+00  0.00000000000E+00  0.74505805969E-08  0.10566000000E+00  0.10566000000E+00 0. -1.
     999900   -1    0    0    0    0 -0.00000000000E+00 -0.00000000000E+00 -0.74505805969E-08  0.93827000000E+00  0.93827000000E+00 0.  1.
     999902    2    1    2    0    0 -0.19040532708E-01  0.76863997561E-02 -0.10987095371E-01  0.10206418294E+01  0.10203761096E+01 0.  0.
     999903    2    3    3    0    0 -0.56617094818E-01  0.20923904252E-01 -0.11723760227E+00  0.13335585530E+00  0.19895315086E-01 0.  0.
         14    1    1    2    0    0  0.19040532708E-01 -0.76863997561E-02  0.10987095371E-01  0.23288170639E-01  0.00000000000E+00 0. -1.
     999901    1    3    3    0    0  0.37576562110E-01 -0.13237504496E-01  0.10625050690E+00  0.88728597406E+00  0.88000000000E+00 0. -1.
        -11    1    4    4    0    0 -0.28232077323E-01  0.10269620120E-01 -0.37533382721E-01  0.48078386275E-01  0.51100000000E-03 0.  1.
         11    1    4    4    0    0 -0.28385017496E-01  0.10654284133E-01 -0.79704219550E-01  0.85277469027E-01  0.51100000000E-03 0. -1.
</event>
<event>
 8    1  0.1126407E+005  0.1043930E+01  0.7957747E-01            NaN
         13   -1    0    0    0    0  0.00000000000E+00  0.00000000000E+00  0.74505805969E-08  0.10566000000E+00  0.10566000000E+00 0. -1.
     999900   -1    0    0    0    0 -0.00000000000E+00 -0.00000000000E+00 -0.74505805969E-08  0.93827000000E+00  0.93827000000E+00 0.  1.
     999902    2    1    2    0    0  0.13378068057E-01 -0.10816866255E-01  0.16219890180E-01  0.10202855051E+01  0.10200114949E+01 0.  0.
     999903    2    3    3    0    0  0.32840913616E-01  0.45256493383E-01 -0.11260127253E+00  0.12892816041E+00  0.28578806332E-01 0.  0.
         14    1    1    2    0    0 -0.13378068057E-01  0.10816866255E-01 -0.16219890180E-01  0.23644494876E-01  0.00000000000E+00 0.  1.
     999901    1    3    3    0    0 -0.19462845559E-01 -0.56073359638E-01  0.12882116271E+00  0.89135734472E+00  0.88000000000E+00 0. -1.
        -11    1    4    4    0    0  0.23173741355E-01  0.23240575034E-01 -0.36363544341E-01  0.48986886963E-01  0.51100000000E-03 0.  1.
         11    1    4    4    0    0  0.96671722610E-02  0.22015918349E-01 -0.76237728184E-01  0.79941273445E-01  0.51100000000E-03 0. -1.
</event>
<event>
 8    1  0.1126407E+005  0.1043930E+01  0.7957747E-01            NaN
         13   -1    0    0    0    0  0.00000000000E+00  0.00000000000E+00  0.74505805969E-08  0.10566000000E+00  0.10566000000E+00 0.  1.
     999900   -1    0    0    0    0 -0.00000000000E+00 -0.00000000000E+00 -0.74505805969E-08  0.93827000000E+00  0.93827000000E+00 0. -1.
     999902    2    1    2    0    0 -0.20773382141E-01  0.11168002660E-01  0.31407610995E-02  0.10201366802E+01  0.10198591688E+01 0.  0.
     999903    2    3    3    0    0 -0.22619223657E-01  0.78758228930E-01 -0.10085853455E+00  0.13143667491E+00  0.19714654902E-01 0.  0.
         14    1    1    2    0    0  0.20773382141E-01 -0.11168002660E-01 -0.31407610995E-02  0.23793319845E-01  0.00000000000E+00 0. -1.
     999901    1    3    3    0    0  0.18458415166E-02 -0.67590226270E-01  0.10399929565E+00  0.88870000524E+00  0.88000000000E+00 0.  1.
        -11    1    4    4    0    0 -0.12003364260E-01  0.62177013304E-01 -0.66468221300E-01  0.91806030851E-01  0.51100000000E-03 0. -1.
         11    1    4    4    0    0 -0.10615859397E-01  0.16581215626E-01 -0.34390313251E-01  0.39630644063E-01  0.51100000000E-03 0.  1.
</event>
<event>
 8    1  0.1126407E+005  0.1043930E+01  0.7957747E-01            NaN
         13   -1    0    0    0    0  0.00000000000E+00  0.00000000000E+00  0.74505805969E-08  0.10566000000E+00  0.10566000000E+00 0. -1.
     999900   -1    0    0    0    0 -0.00000000000E+00 -0.00000000000E+00 -0.74505805969E-08  0.93827000000E+00  0.93827000000E+00 0. -1.
     999902    2    1    2    0    0  0.14673883110E-01  0.18409386633E-01 -0.58182527061E-02  0.10196796304E+01  0.10193912243E+01 0.  0.
     999903    2    3    3    0    0 -0.11014270320E+00  0.40113639474E-02 -0.63476580519E-01  0.12888730552E+00  0.20860372504E-01 0.  0.
         14    1    1    2    0    0 -0.14673883110E-01 -0.18409386633E-01  0.58182527061E-02  0.24250369611E-01  0.00000000000E+00 0.  1.
     999901    1    3    3    0    0  0.12481658631E+00  0.14398022685E-01  0.57658327813E-01  0.89079232487E+00  0.88000000000E+00 0.  1.
        -11    1    4    4    0    0 -0.13621743167E-01 -0.13238067204E-02 -0.88630784645E-03  0.13724103385E-01  0.51100000000E-03 0. -1.
         11    1    4    4    0    0 -0.96520960035E-01  0.53351706678E-02 -0.62590272673E-01  0.11516320214E+00  0.51100000000E-03 0.  1.
</event>
<event>
 8    1  0.1126407E+005  0.1043930E+01  0.7957747E-01            NaN
         13   -1    0    0    0    0  0.00000000000E+00  0.00000000000E+00  0.74505805969E-08  0.10566000000E+00  0.10566000000E+00 0.  1.
     999900   -1    0    0    0    0 -0.00000000000E+00 -0.00000000000E+00 -0.74505805969E-08  0.93827000000E+00  0.93827000000E+00 0.  1.
     999902    2    1    2    0    0 -0.21976404411E-01 -0.27145187009E-02 -0.90219321990E-02  0.10200192028E+01  0.10197389116E+01 0.  0.
     999903    2    3    3    0    0 -0.42881442518E-01 -0.46707668770E-01  0.11219904551E+00  0.13037492370E+00  0.19712191221E-01 0.  0.
         14    1    1    2    0    0  0.21976404411E-01  0.27145187009E-02  0.90219321990E-02  0.23910797210E-01  0.00000000000E+00 0. -1.
     999901    1    3    3    0    0  0.20905038107E-01  0.43993150069E-01 -0.12122097771E+00  0.88964427908E+00  0.88000000000E+00 0.  1.
        -11    1    4    4    0    0 -0.15622093972E-01 -0.12741136003E-01  0.19979221143E-01  0.28386911864E-01  0.51100000000E-03 0.  1.
         11    1    4    4    0    0 -0.27259348546E-01 -0.33966532767E-01  0.92219824370E-01  0.10198801184E+00  0.51100000000E-03 0. -1.
</event>
<event>
 8    1  0.1126407E+005  0.1043930E+01  0.7957747E-01            NaN
         13   -1    0    0    0    0  0.00000000000E+00  0.00000000000E+00  0.74505805969E-08  0.10566000000E+00  0.10566000000E+00 0. -1.
     999900   -1    0    0    0    0 -0.00000000000E+00 -0.00000000000E+00 -0.74505805969E-08  0.93827000000E+00  0.93827000000E+00 0. -1.
     999902    2    1    2    0    0 -0.11190108793E-01  0.72834832731E-02 -0.19674656882E-01  0.10201527044E+01  0.10198755711E+01 0.  0.
     999903    2    3    3    0    0 -0.34567069969E-01 -0.12274673097E+00 -0.10344613394E-01  0.13024181635E+00  0.24377805673E-01 0.  0.
         14    1    1    2    0    0  0.11190108793E-01 -0.72834832731E-02  0.19674656882E-01  0.23777295616E-01  0.00000000000E+00 0. -1.
     999901    1    3    3    0    0  0.23376961177E-01  0.13003021424E+00 -0.93300434885E-02  0.88991088803E+00  0.88000000000E+00 0.  1.
        -11    1    4    4    0    0 -0.26288421044E-02 -0.37587227040E-02  0.41303347915E-02  0.61935122237E-02  0.51100000000E-03 0. -1.
         11    1    4    4    0    0 -0.31938227865E-01 -0.11898800827E+00 -0.14474948185E-01  0.12404830413E+00  0.51100000000E-03 0.  1.
</event>
<event>
 8    1  0.1126407E+005  0.1043930E+01  0.7957747E-01            NaN
         13   -1    0    0    0    0  0.00000000000E+00  0.00000000000E+00  0.74505805969E-08  0.10566000000E+00  0.10566000000E+00 0. -1.
     999900   -1    0    0    0    0 -0.00000000000E+00 -0.00000000000E+00 -0.74505805969E-08  0.93827000000E+00  0.93827000000E+00 0. -1.
     999902    2    1    2    0    0  0.91553037629E-02 -0.19896892440E-02 -0.23512597800E-01  0.10186195139E+01  0.10183050100E+01 0.  0.
     999903    2    3    3    0    0  0.12761930279E+00  0.13620465612E-01 -0.93420614116E-02  0.13043135812E+00  0.21280543749E-01 0.  0.
         14    1    1    2    0    0 -0.91553037629E-02  0.19896892440E-02  0.23512597800E-01  0.25310486079E-01  0.00000000000E+00 0. -1.
     999901    1    3    3    0    0 -0.11846399903E+00 -0.15610154856E-01 -0.14170536388E-01  0.88818815580E+00  0.88000000000E+00 0.  1.
        -11    1    4    4    0    0  0.11511715301E+00  0.13459095936E-01 -0.19934717512E-02  0.11591954637E+00  0.51100000000E-03 0.  1.
         11    1    4    4    0    0  0.12502149782E-01  0.16136967632E-03 -0.73485896604E-02  0.14511811753E-01  0.51100000000E-03 0. -1.
</event>
<event>
 8    1  0.1126407E+005  0.1043930E+01  0.7957747E-01            NaN
         13   -1    0    0    0    0  0.00000000000E+00  0.00000000000E+00  0.74505805969E-08  0.10566000000E+00  0.10566000000E+00 0.  1.
     999900   -1    0    0    0    0 -0.00000000000E+00 -0.00000000000E+00 -0.74505805969E-08  0.93827000000E+00  0.93827000000E+00 0.  1.
     999902    2    1    2    0    0 -0.78648942582E-02  0.11080118751E-01  0.19668672907E-01  0.10200243043E+01  0.10197441341E+01 0.  0.
     999903    2    3    3    0    0  0.48531300571E-02  0.11537504862E+00  0.62779013269E-01  0.13272633744E+00  0.18442381311E-01 0.  0.
         14    1    1    2    0    0  0.78648942582E-02 -0.11080118751E-01 -0.19668672907E-01  0.23905695706E-01  0.00000000000E+00 0. -1.
     999901    1    3    3    0    0 -0.12718024315E-01 -0.10429492987E+00 -0.43110340362E-01  0.88729796685E+00  0.88000000000E+00 0. -1.
        -11    1    4    4    0    0 -0.59322593523E-02  0.39354453820E-01  0.26391962936E-01  0.47757319493E-01  0.51100000000E-03 0. -1.
         11    1    4    4    0    0  0.10785389409E-01  0.76020594797E-01  0.36387050333E-01  0.84969017947E-01  0.51100000000E-03 0.  1.
</event>
<event>
 8    1  0.1126407E+005  0.1043930E+01  0.7957747E-01            NaN
         13   -1    0    0    0    0  0.00000000000E+00  0.00000000000E+00  0.74505805969E-08  0.10566000000E+00  0.10566000000E+00 0. -1.
     999900   -1    0    0    0    0 -0.00000000000E+00 -0.00000000000E+00 -0.74505805969E-08  0.93827000000E+00  0.93827000000E+00 0. -1.
     999902    2    1    2    0    0  0.26867550749E-02  0.19508931734E-01  0.12309108113E-01  0.10207064944E+01  0.10204422651E+01 0.  0.
     999903    2    3    3    0    0  0.26984956652E-01  0.11559982587E+00  0.58674565392E-01  0.13392939829E+00  0.20071658545E-01 0.  0.
         14    1    1    2    0    0 -0.26867550749E-02 -0.19508931734E-01 -0.12309108113E-01  0.23223505610E-01  0.00000000000E+00 0.  1.
     999901    1    3    3    0    0 -0.24298201577E-01 -0.96090894134E-01 -0.46365457278E-01  0.88677709610E+00  0.88000000000E+00 0.  1.
        -11    1    4    4    0    0  0.29349487393E-01  0.91053600454E-01  0.48326851886E-01  0.10718160430E+00  0.51100000000E-03 0. -1.
         11    1    4    4    0    0 -0.23645307411E-02  0.24546225415E-01  0.10347713506E-01  0.26747793994E-01  0.51100000000E-03 0.  1.
</event>
<event>
 8    1  0.1126407E+005  0.1043930E+01  0.7957747E-01            NaN
         13   -1    0    0    0    0  0.00000000000E+00  0.00000000000E+00  0.74505805969E-08  0.10566000000E+00  0.10566000000E+00 0. -1.
     999900   -1    0    0    0    0 -0.00000000000E+00 -0.00000000000E+00 -0.74505805969E-08  0.93827000000E+00  0.93827000000E+00 0. -1.
     999902    2    1    2    0    0 -0.39636705087E-02  0.14986664924E-01  0.17928346358E-01  0.10202290209E+01  0.10199536845E+01 0.  0.
     999903    2    3    3    0    0  0.14237496121E-01 -0.96347045706E-01  0.84393729182E-01  0.13054136515E+00  0.20815546561E-01 0.  0.
         14    1    1    2    0    0  0.39636705087E-02 -0.14986664924E-01 -0.17928346358E-01  0.23700979148E-01  0.00000000000E+00 0. -1.
     999901    1    3    3    0    0 -0.18201166630E-01  0.11133371063E+00 -0.66465382824E-01  0.88968765570E+00  0.88000000000E+00 0.  1.
        -11    1    4    4    0    0  0.23915081215E-02 -0.45729291097E-01  0.27256068854E-01  0.53292042424E-01  0.51100000000E-03 0.  1.
         11    1    4    4    0    0  0.11845988000E-01 -0.50617754610E-01  0.57137660327E-01  0.77249322729E-01  0.51100000000E-03 0. -1.
</event>
<event>
 8    1  0.1126407E+005  0.1043930E+01  0.7957747E-01            NaN
         13   -1    0    0    0    0  0.00000000000E+00  0.00000000000E+00  0.74505805969E-08  0.10566000000E+00  0.10566000000E+00 0. -1.
     999900   -1    0    0    0    0 -0.00000000000E+00 -0.00000000000E+00 -0.74505805969E-08  0.93827000000E+00  0.93827000000E+00 0.  1.
     999902    2    1    2    0    0  0.13492556045E-01  0.31085238716E-02  0.19049143042E-01  0.10203804386E+01  0.10201086500E+01 0.  0.
     999903    2    3    3    0    0 -0.18017481647E-01  0.11876321815E+00  0.48845819327E-01  0.13175412084E+00  0.23321720820E-01 0.  0.
         14    1    1    2    0    0 -0.13492556045E-01 -0.31085238716E-02 -0.19049143042E-01  0.23549561353E-01  0.00000000000E+00 0.  1.
     999901    1    3    3    0    0  0.31510037692E-01 -0.11565469428E+00 -0.29796676285E-01  0.88862631781E+00  0.88000000000E+00 0.  1.
        -11    1    4    4    0    0  0.20415184742E-02  0.97055569982E-02 -0.13708637249E-02  0.10025269207E-01  0.51100000000E-03 0. -1.
         11    1    4    4    0    0 -0.20059000121E-01  0.10905766115E+00  0.50216683052E-01  0.12172885163E+00  0.51100000000E-03 0.  1.
</event>
<event>
 8    1  0.1126407E+005  0.1043930E+01  0.7957747E-01            NaN
         13   -1    0    0    0    0  0.00000000000E+00  0.00000000000E+00  0.74505805969E-08  0.10566000000E+00  0.10566000000E+00 0.  1.
     999900   -1    0    0    0    0 -0.00000000000E+00 -0.00000000000E+00 -0.74505805969E-08  0.93827000000E+00  0.93827000000E+00 0. -1.
     999902    2    1    2    0    0  0.14957312819E-01  0.16547591204E-01 -0.59252805237E-02  0.10208507251E+01  0.10205898050E+01 0.  0.
     999903    2    3    3    0    0  0.11685629519E+00  0.33065048358E-02  0.59004063150E-01  0.13249575738E+00  0.20182159317E-01 0.  0.
         14    1    1    2    0    0 -0.14957312819E-01 -0.16547591204E-01  0.59252805237E-02  0.23079274917E-01  0.00000000000E+00 0.  1.
     999901    1    3    3    0    0 -0.10189898237E+00  0.13241086368E-01 -0.64929343674E-01  0.88835496771E+00  0.88000000000E+00 0.  1.
        -11    1    4    4    0    0  0.72161221741E-01 -0.47834964005E-02  0.44015443439E-01  0.84662530928E-01  0.51100000000E-03 0.  1.
         11    1    4    4    0    0  0.44695073450E-01  0.80900012363E-02  0.14988619711E-01  0.47833226450E-01  0.51100000000E-03 0. -1.
</event>
<event>
 8    1  0.1804741E+005  0.1043930E+01  0.7957747E-01            NaN
         13   -1    0    0    0    0  0.00000000000E+00  0.00000000000E+00  0.74505805969E-08  0.10566000000E+00  0.10566000000E+00 0.  1.
     999900   -1    0    0    0    0 -0.00000000000E+00 -0.00000000000E+00 -0.74505805969E-08  0.93827000000E+00  0.93827000000E+00 0. -1.
     999902    2    1    2    0    0  0.16024057500E-02  0.11754120402E-02 -0.23101616570E-01  0.10207430643E+01  0.10204796761E+01 0.  0.
     999903    2    3    3    0    0  0.72034098979E-02 -0.32663777831E-01 -0.12794716813E+00  0.13385578192E+00  0.20690118976E-01 0.  0.
         14    1    1    2    0    0 -0.16024057500E-02 -0.11754120402E-02  0.23101616570E-01  0.23186935671E-01  0.00000000000E+00 0.  1.
     999901    1    3    3    0    0 -0.56010041479E-02  0.33839189871E-01  0.10484555156E+00  0.88688728241E+00  0.88000000000E+00 0.  1.
        -11    1    4    4    0    0 -0.19003834118E-02 -0.21017086742E-01 -0.46372569726E-01  0.50951013103E-01  0.51100000000E-03 0. -1.
         11    1    4    4    0    0  0.91037933097E-02 -0.11646691088E-01 -0.81574598408E-01  0.82904768816E-01  0.51100000000E-03 0.  1.
</event>
<event>
 8    1  0.1126407E+005  0.1043930E+01  0.7957747E-01            NaN
         13   -1    0    0    0    0  0.00000000000E+00  0.00000000000E+00  0.74505805969E-08  0.10566000000E+00  0.10566000000E+00 0. -1.
     999900   -1    0    0    0    0 -0.00000000000E+00 -0.00000000000E+00 -0.74505805969E-08  0.93827000000E+00  0.93827000000E+00 0.  1.
     999902    2    1    2    0    0  0.53528451766E-03  0.21226514795E-01  0.10676461695E-01  0.10201636731E+01  0.10198867984E+01 0.  0.
     999903    2    3    3    0    0 -0.92230855870E-01 -0.45787722832E-01 -0.74562584126E-01  0.12866933225E+00  0.19828559518E-01 0.  0.
         14    1    1    2    0    0 -0.53528451766E-03 -0.21226514795E-01 -0.10676461695E-01  0.23766326897E-01  0.00000000000E+00 0.  1.
     999901    1    3    3    0    0  0.92766140387E-01  0.67014237627E-01  0.85239045821E-01  0.89149434086E+00  0.88000000000E+00 0. -1.
        -11    1    4    4    0    0 -0.81192018577E-01 -0.44386370049E-01 -0.59798432316E-01  0.11017444057E+00  0.51100000000E-03 0. -1.
         11    1    4    4    0    0 -0.11038837293E-01 -0.14013527829E-02 -0.14764151810E-01  0.18494891675E-01  0.51100000000E-03 0.  1.
</event>
<event>
 8    1  0.1180682E+005  0.1043930E+01  0.7957747E-01            NaN
         13   -1    0    0    0    0  0.00000000000E+00  0.00000000000E+00  0.74505805969E-08  0.10566000000E+00  0.10566000000E+00 0. -1.
     999900   -1    0    0    0    0 -0.00000000000E+00 -0.00000000000E+00 -0.74505805969E-08  0.93827000000E+00  0.93827000000E+00 0.  1.
     999902    2    1    2    0    0  0.26507188192E-02 -0.60415817546E-02 -0.22997566856E-01  0.10200048020E+01  0.10197241690E+01 0.  0.
     999903    2    3    3    0    0 -0.73187630529E-01 -0.58218021554E-01 -0.91675124734E-01  0.13254187706E+00  0.20426781035E-01 0.  0.
         14    1    1    2    0    0 -0.26507188192E-02  0.60415817546E-02  0.22997566856E-01  0.23925198048E-01  0.00000000000E+00 0. -1.
     999901    1    3    3    0    0  0.75838349348E-01  0.52176439799E-01  0.68677557878E-01  0.88746292489E+00  0.88000000000E+00 0. -1.
        -11    1    4    4    0    0 -0.41372771983E-01 -0.20736143749E-01 -0.49486384504E-01  0.67755865365E-01  0.51100000000E-03 0.  1.
         11    1    4    4    0    0 -0.31814858546E-01 -0.37481877805E-01 -0.42188740230E-01  0.64786011694E-01  0.51100000000E-03 0. -1.
</event>
<event>
 8    1  0.1126407E+005  0.1043930E+01  0.7957747E-01            NaN
         13   -1    0    0    0    0  0.00000000000E+00  0.00000000000E+00  0.74505805969E-08  0.10566000000E+00  0.10566000000E+00 0. -1.
     999900   -1    0    0    0    0 -0.00000000000E+00 -0.00000000000E+00 -0.74505805969E-08  0.93827000000E+00  0.93827000000E+00 0. -1.
     999902    2    1    2    0    0  0.11377069684E-01  0.19327369434E-02 -0.20943756507E-01  0.10200173648E+01  0.10197370300E+01 0.  0.
     999903    2    3    3    0    0 -0.11525080228E+00 -0.29466585967E-01 -0.48496849566E-01  0.12997258592E+00  0.19745925065E-01 0.  0.
         14    1    1    2    0    0 -0.11377069684E-01 -0.19327369434E-02  0.20943756507E-01  0.23912635223E-01  0.00000000000E+00 0. -1.
     999901    1    3    3    0    0  0.12662787197E+00  0.31399322911E-01  0.27553093059E-01  0.89004477886E+00  0.88000000000E+00 0.  1.
        -11    1    4    4    0    0 -0.65337307704E-01 -0.25280476058E-01 -0.33688016152E-01  0.77738084623E-01  0.51100000000E-03 0. -1.
         11    1    4    4    0    0 -0.49913494579E-01 -0.41861099093E-02 -0.14808833414E-01  0.52234501294E-01  0.51100000000E-03 0.  1.
</event>
<event>
 8    1  0.1126407E+005  0.1043930E+01  0.7957747E-01            NaN
         13   -1    0    0    0    0  0.00000000000E+00  0.00000000000E+00  0.74505805969E-08  0.10566000000E+00  0.10566000000E+00 0. -1.
     999900   -1    0    0    0    0 -0.00000000000E+00 -0.00000000000E+00 -0.74505805969E-08  0.93827000000E+00  0.93827000000E+00 0. -1.
     999902    2    1    2    0    0  0.88791101230E-02 -0.17902811727E-01  0.12824838200E-01  0.10201849850E+01  0.10199086125E+01 0.  0.
     999903    2    3    3    0    0 -0.83583003076E-01  0.35117393608E-01 -0.88178169926E-01  0.12801796461E+00  0.19845903221E-01 0.  0.
         14    1    1    2    0    0 -0.88791101230E-02  0.17902811727E-01 -0.12824838200E-01  0.23745015038E-01  0.00000000000E+00 0. -1.
     999901    1    3    3    0    0  0.92462113199E-01 -0.53020205335E-01  0.10100300813E+00  0.89216702035E+00  0.88000000000E+00 0.  1.
        -11    1    4    4    0    0 -0.45990520902E-01  0.19208952927E-01 -0.34671587817E-01  0.60716488767E-01  0.51100000000E-03 0. -1.
         11    1    4    4    0    0 -0.37592482175E-01  0.15908440681E-01 -0.53506582109E-01  0.67301475845E-01  0.51100000000E-03 0.  1.
</event>
<event>
 8    1  0.1126407E+005  0.1043930E+01  0.7957747E-01            NaN
         13   -1    0    0    0    0  0.00000000000E+00  0.00000000000E+00  0.74505805969E-08  0.10566000000E+00  0.10566000000E+00 0. -1.
     999900   -1    0    0    0    0 -0.00000000000E+00 -0.00000000000E+00 -0.74505805969E-08  0.93827000000E+00  0.93827000000E+00 0. -1.
     999902    2    1    2    0    0  0.46571918610E-02 -0.13473596782E-01  0.10009284328E-01  0.10265112452E+01  0.10263634461E+01 0.  0.
     999903    2    3    3    0    0  0.54618724752E-01  0.11970098591E+00  0.25721711547E-01  0.13495165402E+00  0.15453522485E-01 0.  0.
         14    1    1    2    0    0 -0.46571918610E-02  0.13473596782E-01 -0.10009284328E-01  0.17418754807E-01  0.00000000000E+00 0. -1.
     999901    1    3    3    0    0 -0.49961532891E-01 -0.13317458269E+00 -0.15712427219E-01  0.89155959117E+00  0.88000000000E+00 0. -1.
        -11    1    4    4    0    0  0.49836483276E-01  0.95282516006E-01  0.22468931765E-01  0.10985238704E+00  0.51100000000E-03 0.  1.
         11    1    4    4    0    0  0.47822414759E-02  0.24418469902E-01  0.32527797820E-02  0.25099266985E-01  0.51100000000E-03 0. -1.
</event>
<event>
 8    1  0.1126407E+005  0.1043930E+01  0.7957747E-01            NaN
         13   -1    0    0    0    0  0.00000000000E+00  0.00000000000E+00  0.74505805969E-08  0.10566000000E+00  0.10566000000E+00 0. -1.
     999900   -1    0    0    0    0 -0.00000000000E+00 -0.00000000000E+00 -0.74505805969E-08  0.93827000000E+00  0.93827000000E+00 0. -1.
     999902    2    1    2    0    0 -0.57581826464E-02 -0.12329971582E-01 -0.17957039159E-01  0.10213991296E+01  0.10211505970E+01 0.  0.
     999903    2    3    3    0    0  0.33397310676E-01  0.51689981051E-01  0.11129160239E+00  0.12879792056E+00  0.20392377952E-01 0.  0.
         14    1    1    2    0    0  0.57581826464E-02  0.12329971582E-01  0.17957039159E-01  0.22530870422E-01  0.00000000000E+00 0. -1.
     999901    1    3    3    0    0 -0.39155493322E-01 -0.64019952633E-01 -0.12924864155E+00  0.89260120901E+00  0.88000000000E+00 0. -1.
        -11    1    4    4    0    0  0.23895793584E-01  0.18544310549E-01  0.48538038663E-01  0.57193554908E-01  0.51100000000E-03 0. -1.
         11    1    4    4    0    0  0.95015170917E-02  0.33145670502E-01  0.62753563723E-01  0.71604365656E-01  0.51100000000E-03 0.  1.
</event>
<event>
 8    1  0.1126407E+005  0.1043930E+01  0.7957747E-01            NaN
         13   -1    0    0    0    0  0.00000000000E+00  0.00000000000E+00  0.74505805969E-08  0.10566000000E+00  0.10566000000E+00 0.  1.
     999900   -1    0    0    0    0 -0.00000000000E+00 -0.00000000000E+00 -0.74505805969E-08  0.93827000000E+00  0.93827000000E+00 0. -1.
     999902    2    1    2    0    0  0.15826319275E-01 -0.14711887133E-01  0.95189823876E-02  0.10203180744E+01  0.10200448274E+01 0.  0.
     999903    2    3    3    0    0 -0.12467483265E+00  0.23754385161E-01 -0.71164750852E-02  0.12818749750E+00  0.16531956541E-01 0.  0.
         14    1    1    2    0    0 -0.15826319275E-01  0.14711887133E-01 -0.95189823876E-02  0.23611925600E-01  0.00000000000E+00 0. -1.
     999901    1    3    3    0    0  0.14050115192E+00 -0.38466272294E-01  0.16635457473E-01  0.89213057690E+00  0.88000000000E+00 0.  1.
        -11    1    4    4    0    0 -0.21660348341E-01  0.40787090954E-02 -0.75646712662E-02  0.23308623522E-01  0.51100000000E-03 0. -1.
         11    1    4    4    0    0 -0.10301448431E+00  0.19675676065E-01  0.44819618091E-03  0.10487887398E+00  0.51100000000E-03 0.  1.
</event>
<event>
 8    1  0.1126407E+005  0.1043930E+01  0.7957747E-01            NaN
         13   -1    0    0    0    0  0.00000000000E+00  0.00000000000E+00  0.74505805969E-08  0.10566000000E+00  0.10566000000E+00 0. -1.
     999900   -1    0    0    0    0 -0.00000000000E+00 -0.00000000000E+00 -0.74505805969E-08  0.93827000000E+00  0.93827000000E+00 0. -1.
     999902    2    1    2    0    0 -0.11890899352E-01  0.19617633958E-01  0.13696370906E-02  0.10209491176E+01  0.10206904427E+01 0.  0.
     999903    2    3    3    0    0 -0.73109208927E-02 -0.12473687252E+00  0.25810279338E-01  0.12884119548E+00  0.17920552526E-01 0.  0.
         14    1    1    2    0    0  0.11890899352E-01 -0.19617633958E-01 -0.13696370906E-02  0.22980882387E-01  0.00000000000E+00 0.  1.
     999901    1    3    3    0    0 -0.45799784596E-02  0.14435450648E+00 -0.24440642247E-01  0.89210792214E+00  0.88000000000E+00 0. -1.
        -11    1    4    4    0    0 -0.69577774535E-02 -0.37966170858E-01  0.14931338409E-01  0.41388969356E-01  0.51100000000E-03 0. -1.
         11    1    4    4    0    0 -0.35314343916E-03 -0.86770701661E-01  0.10878940929E-01  0.87452226122E-01  0.51100000000E-03 0.  1.
</event>
<event>
 8    1  0.1126407E+005  0.1043930E+01  0.7957747E-01            NaN
         13   -1    0    0    0    0  0.00000000000E+00  0.00000000000E+00  0.74505805969E-08  0.10566000000E+00  0.10566000000E+00 0. -1.
     999900   -1    0    0    0    0 -0.00000000000E+00 -0.00000000000E+00 -0.74505805969E-08  0.93827000000E+00  0.93827000000E+00 0.  1.
     999902    2    1    2    0    0 -0.83306410589E-02  0.16608477339E-01  0.14896638864E-01  0.10201150688E+01  0.10198370471E+01 0.  0.
     999903    2    3    3    0    0 -0.32562849170E-01 -0.75436910780E-01 -0.96069329064E-01  0.12805397253E+00  0.20431280931E-01 0.  0.
         14    1    1    2    0    0  0.83306410589E-02 -0.16608477339E-01 -0.14896638864E-01  0.23814931229E-01  0.00000000000E+00 0.  1.
     999901    1    3    3    0    0  0.24232208111E-01  0.92045388119E-01  0.11096596793E+00  0.89206109624E+00  0.88000000000E+00 0. -1.
        -11    1    4    4    0    0 -0.35448937544E-01 -0.68917424955E-01 -0.88662279674E-01  0.11776034814E+00  0.51100000000E-03 0. -1.
         11    1    4    4    0    0  0.28860883740E-02 -0.65194858247E-02 -0.74070493901E-02  0.10293624395E-01  0.51100000000E-03 0.  1.
</event>
<event>
 8    1  0.1126407E+005  0.1043930E+01  0.7957747E-01            NaN
         13   -1    0    0    0    0  0.00000000000E+00  0.00000000000E+00  0.74505805969E-08  0.10566000000E+00  0.10566000000E+00 0. -1.
     999900   -1    0    0    0    0 -0.00000000000E+00 -0.00000000000E+00 -0.74505805969E-08  0.93827000000E+00  0.93827000000E+00 0.  1.
     999902    2    1    2    0    0  0.60912266314E-02 -0.17525131492E-01  0.83357260694E-02  0.10235899507E+01  0.10233878393E+01 0.  0.
     999903    2    3    3    0    0 -0.19359843054E-01 -0.13099336973E+00  0.23245722892E-01  0.13581458158E+00  0.19265785761E-01 0.  0.
         14    1    1    2    0    0 -0.60912266314E-02  0.17525131492E-01 -0.83357260694E-02  0.20340049282E-01  0.00000000000E+00 0. -1.
     999901    1    3    3    0    0  0.25451069685E-01  0.11346823824E+00 -0.14909996822E-01  0.88777536913E+00  0.88000000000E+00 0.  1.
        -11    1    4    4    0    0 -0.12612200506E-01 -0.29440265303E-01  0.55675438845E-02  0.32512389771E-01  0.51100000000E-03 0.  1.
         11    1    4    4    0    0 -0.67476425474E-02 -0.10155310443E+00  0.17678179007E-01  0.10330219181E+00  0.51100000000E-03 0. -1.
</event>
<event>
 8    1  0.1126407E+005  0.1043930E+01  0.7957747E-01            NaN
         13   -1    0    0    0    0  0.00000000000E+00  0.00000000000E+00  0.74505805969E-08  0.10566000000E+00  0.10566000000E+00 0.  1.
     999900   -1    0    0    0    0 -0.00000000000E+00 -0.00000000000E+00 -0.74505805969E-08  0.93827000000E+00  0.93827000000E+00 0. -1.
     999902    2    1    2    0    0  0.22417939806E-01  0.47943691244E-02  0.48420572471E-02  0.10204993466E+01  0.10202303274E+01 0.  0.
     999903    2    3    3    0    0  0.98569469151E-01 -0.55291223080E-01  0.67467862796E-01  0.13295705164E+00  0.18777792026E-01 0.  0.
         14    1    1    2    0    0 -0.22417939806E-01 -0.47943691244E-02 -0.48420572471E-02  0.23430653402E-01  0.00000000000E+00 0. -1.
     999901    1    3    3    0    0 -0.76151529344E-01  0.60085592204E-01 -0.62625805549E-01  0.88754229495E+00  0.88000000000E+00 0. -1.
        -11    1    4    4    0    0  0.61143737433E-01 -0.36649430278E-01  0.52540283731E-01  0.88557777200E-01  0.51100000000E-03 0.  1.
         11    1    4    4    0    0  0.37425731718E-01 -0.18641792802E-01  0.14927579064E-01  0.44399274444E-01  0.51100000000E-03 0. -1.
</event>
<event>
 8    1  0.1126407E+005  0.1043930E+01  0.7957747E-01            NaN
         13   -1    0    0    0    0  0.00000000000E+00  0.00000000000E+00  0.74505805969E-08  0.10566000000E+00  0.10566000000E+00 0. -1.
     999900   -1    0    0    0    0 -0.00000000000E+00 -0.00000000000E+00 -0.74505805969E-08  0.93827000000E+00  0.93827000000E+00 0. -1.
     999902    2    1    2    0    0  0.83878432110E-02 -0.12293509846E-01 -0.22071428985E-01  0.10173098145E+01  0.10169614665E+01 0.  0.
     999903    2    3    3    0    0 -0.23440336105E-01 -0.12543174316E+00  0.27902497390E-02  0.12914800723E+00  0.19719298436E-01 0.  0.
         14    1    1    2    0    0 -0.83878432110E-02  0.12293509846E-01  0.22071428985E-01  0.26620185490E-01  0.00000000000E+00 0. -1.
     999901    1    3    3    0    0  0.31828179316E-01  0.11313823331E+00 -0.24861678724E-01  0.88816180728E+00  0.88000000000E+00 0. -1.
        -11    1    4    4    0    0 -0.16988695666E-01 -0.98498116801E-01 -0.58686898583E-02  0.10012590791E+00  0.51100000000E-03 0. -1.
         11    1    4    4    0    0 -0.64516404392E-02 -0.26933626355E-01  0.86589395973E-02  0.29022099320E-01  0.51100000000E-03 0.  1.
</event>
<event>
 8    1  0.1126407E+005  0.1043930E+01  0.7957747E-01            NaN
         13   -1    0    0    0    0  0.00000000000E+00  0.00000000000E+00  0.74505805969E-08  0.10566000000E+00  0.10566000000E+00 0.  1.
     999900   -1    0    0    0    0 -0.00000000000E+00 -0.00000000000E+00 -0.74505805969E-08  0.93827000000E+00  0.93827000000E+00 0. -1.
     999902    2    1    2    0    0  0.90989886271E-02  0.16181537452E-01 -0.14569739773E-01  0.10203310368E+01  0.10200580932E+01 0.  0.
     999903    2    3    3    0    0  0.17248239658E-01 -0.42556099134E-01 -0.12238631763E+00  0.13176987697E+00  0.16624271119E-01 0.  0.
         14    1    1    2    0    0 -0.90989886271E-02 -0.16181537452E-01  0.14569739773E-01  0.23598963227E-01  0.00000000000E+00 0.  1.
     999901    1    3    3    0    0 -0.81492510307E-02  0.58737636586E-01  0.10781657785E+00  0.88856115980E+00  0.88000000000E+00 0.  1.
        -11    1    4    4    0    0  0.12586835076E-01 -0.17648099803E-01 -0.39067185236E-01  0.44680979478E-01  0.51100000000E-03 0.  1.
         11    1    4    4    0    0  0.46614045822E-02 -0.24907999331E-01 -0.83319132392E-01  0.87088897495E-01  0.51100000000E-03 0. -1.
</event>
<event>
 8    1  0.1126407E+005  0.1043930E+01  0.7957747E-01            NaN
         13   -1    0    0    0    0  0.00000000000E+00  0.00000000000E+00  0.74505805969E-08  0.10566000000E+00  0.10566000000E+00 0.  1.
     999900   -1    0    0    0    0 -0.00000000000E+00 -0.00000000000E+00 -0.74505805969E-08  0.93827000000E+00  0.93827000000E+00 0.  1.
     999902    2    1    2    0    0  0.24039685658E-01  0.12351104227E-01  0.63034574837E-02  0.10161777057E+01  0.10157986709E+01 0.  0.
     999903    2    3    3    0    0  0.95059251116E-01 -0.42725651034E-01  0.73556580128E-01  0.12904738261E+00  0.19517018230E-01 0.  0.
         14    1    1    2    0    0 -0.24039685658E-01 -0.12351104227E-01 -0.63034574837E-02  0.27752294291E-01  0.00000000000E+00 0.  1.
     999901    1    3    3    0    0 -0.71019565458E-01  0.55076755261E-01 -0.67253122645E-01  0.88713032309E+00  0.88000000000E+00 0.  1.
        -11    1    4    4    0    0  0.82803168446E-01 -0.43267087322E-01  0.61588242267E-01  0.11190075181E+00  0.51100000000E-03 0. -1.
         11    1    4    4    0    0  0.12256082670E-01  0.54143628738E-03  0.11968337861E-01  0.17146630801E-01  0.51100000000E-03 0.  1.
</event>
<event>
 8    1  0.1126407E+005  0.1043930E+01  0.7957747E-01            NaN
         13   -1    0    0    0    0  0.00000000000E+00  0.00000000000E+00  0.74505805969E-08  0.10566000000E+00  0.10566000000E+00 0.  1.
     999900   -1    0    0    0    0 -0.00000000000E+00 -0.00000000000E+00 -0.74505805969E-08  0.93827000000E+00  0.93827000000E+00 0. -1.
     999902    2    1    2    0    0  0.17566386631E-01 -0.63736547665E-02  0.13853182376E-01  0.10206681842E+01  0.10204030724E+01 0.  0.
     999903    2    3    3    0    0 -0.89727770052E-01  0.44224251083E-01 -0.76928298492E-01  0.12808011489E+00  0.21901954666E-01 0.  0.
         14    1    1    2    0    0 -0.17566386631E-01  0.63736547665E-02 -0.13853182376E-01  0.23261815843E-01  0.00000000000E+00 0. -1.
     999901    1    3    3    0    0  0.10729415668E+00 -0.50597905850E-01  0.90781480868E-01  0.89258806927E+00  0.88000000000E+00 0. -1.
        -11    1    4    4    0    0 -0.57386328494E-01  0.16396097155E-01 -0.46827292032E-01  0.75862237642E-01  0.51100000000E-03 0.  1.
         11    1    4    4    0    0 -0.32341441558E-01  0.27828153929E-01 -0.30101006460E-01  0.52217877246E-01  0.51100000000E-03 0. -1.
</event>
<event>
 8    1  0.1126407E+005  0.1043930E+01  0.7957747E-01            NaN
         13   -1    0    0    0    0  0.00000000000E+00  0.00000000000E+00  0.74505805969E-08  0.10566000000E+00  0.10566000000E+00 0.  1.
     999900   -1    0    0    0    0 -0.00000000000E+00 -0.00000000000E+00 -0.74505805969E-08  0.93827000000E+00  0.93827000000E+00 0.  1.
     999902    2    1    2    0    0 -0.22126059094E-01  0.13941830828E-02 -0.80104783109E-02  0.10203572615E+01  0.10200849313E+01 0.  0.
     999903    2    3    3    0    0 -0.63041112143E-01 -0.59640316257E-01  0.96406091984E-01  0.13114296122E+00  0.19318192521E-01 0.  0.
         14    1    1    2    0    0  0.22126059094E-01 -0.13941830828E-02  0.80104783109E-02  0.23572738497E-01  0.00000000000E+00 0.  1.
     999901    1    3    3    0    0  0.40915053049E-01  0.61034499340E-01 -0.10441657030E+00  0.88921430028E+00  0.88000000000E+00 0.  1.
        -11    1    4    4    0    0 -0.45868861684E-01 -0.40882025314E-01  0.54561418717E-01  0.82173608898E-01  0.51100000000E-03 0.  1.
         11    1    4    4    0    0 -0.17172250459E-01 -0.18758290943E-01  0.41844673267E-01  0.48969352321E-01  0.51100000000E-03 0. -1.
</event>
<event>
 8    1  0.1126407E+005  0.1043930E+01  0.7957747E-01            NaN
         13   -1    0    0    0    0  0.00000000000E+00  0.00000000000E+00  0.74505805969E-08  0.10566000000E+00  0.10566000000E+00 0.  1.
     999900   -1    0    0    0    0 -0.00000000000E+00 -0.00000000000E+00 -0.74505805969E-08  0.93827000000E+00  0.93827000000E+00 0. -1.
     999902    2    1    2    0    0  0.11738385543E-02  0.23242817124E-01 -0.47010437296E-02  0.10201875010E+01  0.10199111878E+01 0.  0.
     999903    2    3    3    0    0 -0.56751644250E-01  0.39245082627E-02  0.11511970237E+00  0.12997091514E+00  0.20093332647E-01 0.  0.
         14    1    1    2    0    0 -0.11738385543E-02 -0.23242817124E-01  0.47010437296E-02  0.23742498962E-01  0.00000000000E+00 0.  1.
     999901    1    3    3    0    0  0.57925482804E-01  0.19318308861E-01 -0.11982074610E+00  0.89021658590E+00  0.88000000000E+00 0. -1.
        -11    1    4    4    0    0 -0.18142537411E-01 -0.60531270606E-02  0.50883589780E-01  0.54361685412E-01  0.51100000000E-03 0. -1.
         11    1    4    4    0    0 -0.38609106839E-01  0.99776353233E-02  0.64236112595E-01  0.75609229726E-01  0.51100000000E-03 0.  1.
</event>
<event>
 8    1  0.1126407E+005  0.1043930E+01  0.7957747E-01            NaN
         13   -1    0    0    0    0  0.00000000000E+00  0.00000000000E+00  0.74505805969E-08  0.10566000000E+00  0.10566000000E+00 0. -1.
     999900   -1    0    0    0    0 -0.00000000000E+00 -0.00000000000E+00 -0.74505805969E-08  0.93827000000E+00  0.93827000000E+00 0. -1.
     999902    2    1    2    0    0  0.13990790414E-01  0.18373010459E-01  0.64435837152E-02  0.10199543978E+01  0.10196725671E+01 0.  0.
     999903    2    3    3    0    0  0.70159199481E-01  0.93876086045E-01 -0.58731785099E-01  0.13254049589E+00  0.19558314528E-01 0.  0.
         14    1    1    2    0    0 -0.13990790414E-01 -0.18373010459E-01 -0.64435837152E-02  0.23975602200E-01  0.00000000000E+00 0.  1.
     999901    1    3    3    0    0 -0.56168409067E-01 -0.75503075586E-01  0.65175368815E-01  0.88741390191E+00  0.88000000000E+00 0.  1.
        -11    1    4    4    0    0  0.57970975769E-01  0.66012008251E-01 -0.37946393328E-01  0.95699577598E-01  0.51100000000E-03 0. -1.
         11    1    4    4    0    0  0.12188223713E-01  0.27864077795E-01 -0.20785391772E-01  0.36840918294E-01  0.51100000000E-03 0.  1.
</event>
<event>
 8    1  0.1126407E+005  0.1043930E+01  0.7957747E-01            NaN
         13   -1    0    0    0    0  0.00000000000E+00  0.00000000000E+00  0.74505805969E-08  0.10566000000E+00  0.10566000000E+00 0.  1.
     999900   -1    0    0    0    0 -0.00000000000E+00 -0.00000000000E+00 -0.74505805969E-08  0.93827000000E+00  0.93827000000E+00 0.  1.
     999902    2    1    2    0    0 -0.18366025348E-01  0.60099456815E-02 -0.14339169748E-01  0.10198667059E+01  0.10195827851E+01 0.  0.
     999903    2    3    3    0    0 -0.52426048274E-01  0.31871099440E-01  0.11248804258E+00  0.12974647456E+00  0.20404176555E-01 0.  0.
         14    1    1    2    0    0  0.18366025348E-01 -0.60099456815E-02  0.14339169748E-01  0.24063294106E-01  0.00000000000E+00 0. -1.
     999901    1    3    3    0    0  0.34060022926E-01 -0.25861153759E-01 -0.12682721233E+00  0.89012023133E+00  0.88000000000E+00 0.  1.
        -11    1    4    4    0    0 -0.47052381986E-01  0.27635211797E-01  0.82016259456E-01  0.98511722742E-01  0.51100000000E-03 0. -1.
         11    1    4    4    0    0 -0.53736662881E-02  0.42358876436E-02  0.30471783125E-01  0.31234751821E-01  0.51100000000E-03 0.  1.
</event>
<event>
 8    1  0.1126407E+005  0.1043930E+01  0.7957747E-01            NaN
         13   -1    0    0    0    0  0.00000000000E+00  0.00000000000E+00  0.74505805969E-08  0.10566000000E+00  0.10566000000E+00 0.  1.
     999900   -1    0    0    0    0 -0.00000000000E+00 -0.00000000000E+00 -0.74505805969E-08  0.93827000000E+00  0.93827000000E+00 0.  1.
     999902    2    1    2    0    0 -0.20682811898E-01  0.13709149571E-01  0.43308415881E-02  0.10187411993E+01  0.10184297499E+01 0.  0.
     999903    2    3    3    0    0 -0.21123506009E-02 -0.12903584347E-01  0.12735461637E+00  0.12959107208E+00  0.20091867455E-01 0.  0.
         14    1    1    2    0    0  0.20682811898E-01 -0.13709149571E-01 -0.43308415881E-02  0.25188800663E-01  0.00000000000E+00 0.  1.
     999901    1    3    3    0    0 -0.18570461297E-01  0.26612733917E-01 -0.12302377478E+00  0.88915012726E+00  0.88000000000E+00 0.  1.
        -11    1    4    4    0    0  0.34793581771E-02 -0.16582291679E-01  0.81163449963E-01  0.82914685440E-01  0.51100000000E-03 0.  1.
         11    1    4    4    0    0 -0.55917087780E-02  0.36787073319E-02  0.46191166408E-01  0.46676386640E-01  0.51100000000E-03 0. -1.
</event>
<event>
 8    1  0.1126407E+005  0.1043930E+01  0.7957747E-01            NaN
         13   -1    0    0    0    0  0.00000000000E+00  0.00000000000E+00  0.74505805969E-08  0.10566000000E+00  0.10566000000E+00 0. -1.
     999900   -1    0    0    0    0 -0.00000000000E+00 -0.00000000000E+00 -0.74505805969E-08  0.93827000000E+00  0.93827000000E+00 0.  1.
     999902    2    1    2    0    0 -0.23004218671E-01  0.37767544157E-02 -0.81869611989E-03  0.10206034440E+01  0.10203368374E+01 0.  0.
     999903    2    3    3    0    0 -0.11347620383E+00 -0.66711279158E-01 -0.24258711760E-02  0.13315974102E+00  0.19959663703E-01 0.  0.
         14    1    1    2    0    0  0.23004218671E-01 -0.37767544157E-02  0.81869611989E-03  0.23326555980E-01  0.00000000000E+00 0. -1.
     999901    1    3    3    0    0  0.90471985163E-01  0.70488033574E-01  0.16071750561E-02  0.88744370300E+00  0.88000000000E+00 0. -1.
        -11    1    4    4    0    0 -0.90045115641E-01 -0.50487760219E-01 -0.98535009676E-02  0.10370385424E+00  0.51100000000E-03 0. -1.
         11    1    4    4    0    0 -0.23431088192E-01 -0.16223518939E-01  0.74276297916E-02  0.29455886780E-01  0.51100000000E-03 0.  1.
</event>
<event>
 8    1  0.1126407E+005  0.1043930E+01  0.7957747E-01            NaN
         13   -1    0    0    0    0  0.00000000000E+00  0.00000000000E+00  0.74505805969E-08  0.10566000000E+00  0.10566000000E+00 0.  1.
     999900   -1    0    0    0    0 -0.00000000000E+00 -0.00000000000E+00 -0.74505805969E-08  0.93827000000E+00  0.93827000000E+00 0. -1.
     999902    2    1    2    0    0  0.18011298438E-01  0.65348608648E-02 -0.15029107258E-01  0.10195787096E+01  0.10192878689E+01 0.  0.
     999903    2    3    3    0    0 -0.11594891381E+00 -0.44296979110E-01  0.19714264892E-01  0.12731399760E+00  0.20342781798E-01 0.  0.
         14    1    1    2    0    0 -0.18011298438E-01 -0.65348608648E-02  0.15029107258E-01  0.24351290375E-01  0.00000000000E+00 0. -1.
     999901    1    3    3    0    0  0.13396021225E+00  0.50831839975E-01 -0.34743372149E-01  0.89226471203E+00  0.88000000000E+00 0.  1.
        -11    1    4    4    0    0 -0.19044022486E-01 -0.15636222330E-01  0.21079183236E-02  0.24736019927E-01  0.51100000000E-03 0. -1.
         11    1    4    4    0    0 -0.96904891327E-01 -0.28660756780E-01  0.17606346568E-01  0.10257797767E+00  0.51100000000E-03 0.  1.
</event>
<event>
 8    1  0.1126407E+005  0.1043930E+01  0.7957747E-01            NaN
         13   -1    0    0    0    0  0.00000000000E+00  0.00000000000E+00  0.74505805969E-08  0.10566000000E+00  0.10566000000E+00 0. -1.
     999900   -1    0    0    0    0 -0.00000000000E+00 -0.00000000000E+00 -0.74505805969E-08  0.93827000000E+00  0.93827000000E+00 0. -1.
     999902    2    1    2    0    0 -0.22870050878E-01 -0.17246643945E-02 -0.58686700334E-02  0.10202560696E+01  0.10199813687E+01 0.  0.
     999903    2    3    3    0    0  0.12041513396E+00 -0.37991084736E-01 -0.21690171344E-02  0.12792228399E+00  0.20402918931E-01 0.  0.
         14    1    1    2    0    0  0.22870050878E-01  0.17246643945E-02  0.58686700334E-02  0.23673930438E-01  0.00000000000E+00 0. -1.
     999901    1    3    3    0    0 -0.14328518484E+00  0.36266420342E-01 -0.36996528990E-02  0.89233378557E+00  0.88000000000E+00 0.  1.
        -11    1    4    4    0    0  0.58816724204E-01 -0.15861236687E-01  0.88072950809E-02  0.61553354441E-01  0.51100000000E-03 0.  1.
         11    1    4    4    0    0  0.61598409754E-01 -0.22129848049E-01 -0.10976312215E-01  0.66368929551E-01  0.51100000000E-03 0. -1.
</event>
<event>
 8    1  0.1126407E+005  0.1043930E+01  0.7957747E-01            NaN
         13   -1    0    0    0    0  0.00000000000E+00  0.00000000000E+00  0.74505805969E-08  0.10566000000E+00  0.10566000000E+00 0.  1.
     999900   -1    0    0    0    0 -0.00000000000E+00 -0.00000000000E+00 -0.74505805969E-08  0.93827000000E+00  0.93827000000E+00 0.  1.
     999902    2    1    2    0    0  0.26526901726E-02 -0.27802343633E-02 -0.22688712460E-01  0.10209181739E+01  0.10206587939E+01 0.  0.
     999903    2    3    3    0    0  0.90855919072E-01  0.17076540831E-01 -0.94164824901E-01  0.13340313978E+00  0.19569802675E-01 0.  0.
         14    1    1    2    0    0 -0.26526901726E-02  0.27802343633E-02  0.22688712460E-01  0.23011826119E-01  0.00000000000E+00 0.  1.
     999901    1    3    3    0    0 -0.88203228900E-01 -0.19856775194E-01  0.71476112441E-01  0.88751503410E+00  0.88000000000E+00 0.  1.
        -11    1    4    4    0    0  0.35103187212E-01 -0.32433167046E-03 -0.26310036167E-01  0.43872748576E-01  0.51100000000E-03 0.  1.
         11    1    4    4    0    0  0.55752731860E-01  0.17400872502E-01 -0.67854788733E-01  0.89530391202E-01  0.51100000000E-03 0. -1.
</event>
<event>
 8    1  0.1126407E+005  0.1043930E+01  0.7957747E-01            NaN
         13   -1    0    0    0    0  0.00000000000E+00  0.00000000000E+00  0.74505805969E-08  0.10566000000E+00  0.10566000000E+00 0. -1.
     999900   -1    0    0    0    0 -0.00000000000E+00 -0.00000000000E+00 -0.74505805969E-08  0.93827000000E+00  0.93827000000E+00 0. -1.
     999902    2    1    2    0    0  0.22505620214E-01 -0.82053422335E-02  0.23215033765E-02  0.10198630110E+01  0.10195790019E+01 0.  0.
     999903    2    3    3    0    0  0.85332655867E-01  0.67902274373E-01  0.71087005380E-01  0.13168042841E+00  0.19849228472E-01 0.  0.
         14    1    1    2    0    0 -0.22505620214E-01  0.82053422335E-02 -0.23215033765E-02  0.24066989017E-01  0.00000000000E+00 0. -1.
     999901    1    3    3    0    0 -0.62827035653E-01 -0.76107616607E-01 -0.68765502003E-01  0.88818258257E+00  0.88000000000E+00 0. -1.
        -11    1    4    4    0    0  0.13696013406E-02  0.39165236070E-02  0.70898860204E-02  0.82305874504E-02  0.51100000000E-03 0. -1.
         11    1    4    4    0    0  0.83963054526E-01  0.63985750766E-01  0.63997119360E-01  0.12344984096E+00  0.51100000000E-03 0.  1.
</event>
<event>
 8    1  0.1126407E+005  0.1043930E+01  0.7957747E-01            NaN
         13   -1    0    0    0    0  0.00000000000E+00  0.00000000000E+00  0.74505805969E-08  0.10566000000E+00  0.10566000000E+00 0.  1.
     999900   -1    0    0    0    0 -0.00000000000E+00 -0.00000000000E+00 -0.74505805969E-08  0.93827000000E+00  0.93827000000E+00 0. -1.
     999902    2    1    2    0    0  0.22897824526E-01 -0.18779673996E-02  0.62652349233E-02  0.10201163422E+01  0.10198383506E+01 0.  0.
     999903    2    3    3    0    0  0.10133211302E+00  0.82741575185E-01 -0.72117656188E-02  0.13248238940E+00  0.19626730383E-01 0.  0.
         14    1    1    2    0    0 -0.22897824526E-01  0.18779673996E-02 -0.62652349233E-02  0.23813657808E-01  0.00000000000E+00 0.  1.
     999901    1    3    3    0    0 -0.78434288494E-01 -0.84619542584E-01  0.13477000542E-01  0.88763395279E+00  0.88000000000E+00 0.  1.
        -11    1    4    4    0    0  0.41680348026E-01  0.41176352110E-01  0.48082894371E-02  0.58788809760E-01  0.51100000000E-03 0. -1.
         11    1    4    4    0    0  0.59651764993E-01  0.41565223075E-01 -0.12020055056E-01  0.73693579643E-01  0.51100000000E-03 0.  1.
</event>
<event>
 8    1  0.1126407E+005  0.1043930E+01  0.7957747E-01            NaN
         13   -1    0    0    0    0  0.00000000000E+00  0.00000000000E+00  0.74505805969E-08  0.10566000000E+00  0.10566000000E+00 0. -1.
     999900   -1    0    0    0    0 -0.00000000000E+00 -0.00000000000E+00 -0.74505805969E-08  0.93827000000E+00  0.93827000000E+00 0. -1.
     999902    2    1    2    0    0 -0.14706236788E-01  0.20487711962E-01  0.27689941862E-02  0.10185590112E+01  0.10182429829E+01 0.  0.
     999903    2    3    3    0    0 -0.12783211320E+00  0.15628899119E-01 -0.15251889439E-01  0.13112122512E+00  0.19360885656E-01 0.  0.
         14    1    1    2    0    0  0.14706236788E-01 -0.20487711962E-01 -0.27689941862E-02  0.25370988761E-01  0.00000000000E+00 0.  1.
     999901    1    3    3    0    0  0.11312587641E+00  0.48588128426E-02  0.18020883625E-01  0.88743778611E+00  0.88000000000E+00 0.  1.
        -11    1    4    4    0    0 -0.48170291814E-01  0.52224624258E-02 -0.15191764268E-01  0.50780921120E-01  0.51100000000E-03 0.  1.
         11    1    4    4    0    0 -0.79661821388E-01  0.10406436693E-01 -0.60125170665E-04  0.80340304004E-01  0.51100000000E-03 0. -1.
</event>
<event>
 8    1  0.1126407E+005  0.1043930E+01  0.7957747E-01            NaN
         13   -1    0    0    0    0  0.00000000000E+00  0.00000000000E+00  0.74505805969E-08  0.10566000000E+00  0.10566000000E+00 0. -1.
     999900   -1    0    0    0    0 -0.00000000000E+00 -0.00000000000E+00 -0.74505805969E-08  0.93827000000E+00  0.93827000000E+00 0. -1.
     999902    2    1    2    0    0 -0.21686918325E-01  0.62705895659E-02  0.43182243407E-02  0.10209454447E+01  0.10206866862E+01 0.  0.
     999903    2    3    3    0    0  0.31746063998E-01 -0.95624012663E-01  0.79156735995E-01  0.13030612581E+00  0.23709348221E-01 0.  0.
         14    1    1    2    0    0  0.21686918325E-01 -0.62705895659E-02 -0.43182243407E-02  0.22984555279E-01  0.00000000000E+00 0.  1.
     999901    1    3    3    0    0 -0.53432982323E-01  0.10189460223E+00 -0.74838511655E-01  0.89063931891E+00  0.88000000000E+00 0.  1.
        -11    1    4    4    0    0  0.21569487406E-01 -0.45966749478E-01  0.26746628873E-01  0.57391882018E-01  0.51100000000E-03 0.  1.
         11    1    4    4    0    0  0.10176576592E-01 -0.49657263185E-01  0.52410107122E-01  0.72914243792E-01  0.51100000000E-03 0. -1.
</event>
<event>
 8    1  0.1126407E+005  0.1043930E+01  0.7957747E-01            NaN
         13   -1    0    0    0    0  0.00000000000E+00  0.00000000000E+00  0.74505805969E-08  0.10566000000E+00  0.10566000000E+00 0.  1.
     999900   -1    0    0    0    0 -0.00000000000E+00 -0.00000000000E+00 -0.74505805969E-08  0.93827000000E+00  0.93827000000E+00 0. -1.
     999902    2    1    2    0    0  0.18545701145E-01  0.12955134442E-01 -0.58497485191E-02  0.10205633978E+01  0.10202958644E+01 0.  0.
     999903    2    3    3    0    0  0.11768091603E+00  0.53220631916E-01  0.27189577536E-01  0.13346661721E+00  0.19819967803E-01 0.  0.
         14    1    1    2    0    0 -0.18545701145E-01 -0.12955134442E-01  0.58497485191E-02  0.23366602173E-01  0.00000000000E+00 0. -1.
     999901    1    3    3    0    0 -0.99135214884E-01 -0.40265497474E-01 -0.33039326055E-01  0.88709678062E+00  0.88000000000E+00 0.  1.
        -11    1    4    4    0    0  0.66338565600E-01  0.39151373924E-01  0.21182763757E-01  0.79891213330E-01  0.51100000000E-03 0.  1.
         11    1    4    4    0    0  0.51342350429E-01  0.14069257992E-01  0.60068137796E-02  0.53575403879E-01  0.51100000000E-03 0. -1.
</event>
<event>
 8    1  0.1126407E+005  0.1043930E+01  0.7957747E-01            NaN
         13   -1    0    0    0    0  0.00000000000E+00  0.00000000000E+00  0.74505805969E-08  0.10566000000E+00  0.10566000000E+00 0.  1.
     999900   -1    0    0    0    0 -0.00000000000E+00 -0.00000000000E+00 -0.74505805969E-08  0.93827000000E+00  0.93827000000E+00 0. -1.
     999902    2    1    2    0    0 -0.16391948443E-01 -0.14025151972E-01  0.11052786149E-01  0.10196902611E+01  0.10194021108E+01 0.  0.
     999903    2    3    3    0    0 -0.45572163068E-01 -0.12271250540E+00 -0.14556953482E-02  0.13243556944E+00  0.20046944300E-01 0.  0.
         14    1    1    2    0    0  0.16391948443E-01  0.14025151972E-01 -0.11052786149E-01  0.24239738927E-01  0.00000000000E+00 0.  1.
     999901    1    3    3    0    0  0.29180214625E-01  0.10868735342E+00  0.12508481497E-01  0.88725469164E+00  0.88000000000E+00 0.  1.
        -11    1    4    4    0    0 -0.24083009879E-01 -0.77714822286E-01 -0.95273959123E-02  0.81918357904E-01  0.51100000000E-03 0. -1.
         11    1    4    4    0    0 -0.21489153189E-01 -0.44997683111E-01  0.80717005641E-02  0.50517211534E-01  0.51100000000E-03 0.  1.
</event>
<event>
 8    1  0.1126407E+005  0.1043930E+01  0.7957747E-01            NaN
         13   -1    0    0    0    0  0.00000000000E+00  0.00000000000E+00  0.74505805969E-08  0.10566000000E+00  0.10566000000E+00 0.  1.
     999900   -1    0    0    0    0 -0.00000000000E+00 -0.00000000000E+00 -0.74505805969E-08  0.93827000000E+00  0.93827000000E+00 0. -1.
     999902    2    1    2    0    0  0.13898664076E-01  0.94964435445E-02 -0.15710478628E-01  0.10209044828E+01  0.10206447906E+01 0.  0.
     999903    2    3    3    0    0  0.36395989368E-01 -0.12340276098E+00 -0.11015373837E-01  0.13062903543E+00  0.19740744048E-01 0.  0.
         14    1    1    2    0    0 -0.13898664076E-01 -0.94964435445E-02  0.15710478628E-01  0.23025517189E-01  0.00000000000E+00 0.  1.
     999901    1    3    3    0    0 -0.22497325292E-01  0.13289920453E+00 -0.46951047907E-02  0.89027544739E+00  0.88000000000E+00 0.  1.
        -11    1    4    4    0    0  0.20189390684E-01 -0.51662616691E-01 -0.13306954510E-01  0.57043611552E-01  0.51100000000E-03 0. -1.
         11    1    4    4    0    0  0.16206598684E-01 -0.71740144290E-01  0.22915806732E-02  0.73585423874E-01  0.51100000000E-03 0.  1.
</event>
<event>
 7    1  0.1126407E+005  0.1043930E+01  0.7957747E-01            NaN
         13   -1    0    0    0    0  0.00000000000E+00  0.00000000000E+00  0.74505805969E-08  0.10566000000E+00  0.10566000000E+00 0.  1.
     999900   -1    0    0    0    0 -0.00000000000E+00 -0.00000000000E+00 -0.74505805969E-08  0.93827000000E+00  0.93827000000E+00 0.  1.
     999902    2    1    2    0    0  0.19251891868E-02 -0.20262582565E-01 -0.76540738082E-02  0.10221845763E+01  0.10219532497E+01 0.  0.
         14    1    1    2    0    0 -0.19251891868E-02  0.20262582565E-01  0.76540738082E-02  0.21745423690E-01  0.00000000000E+00 0.  1.
     999901    1    3    3    0    0  0.61466331538E-01  0.94866581052E-01 -0.13497964048E-01  0.88733306776E+00  0.88000000000E+00 0.  1.
        -11    1    3    3    0    0 -0.39923965438E-01 -0.40654161023E-01  0.94016224019E-02  0.57752363151E-01  0.51100000000E-03 0.  1.
         11    1    3    3    0    0 -0.19617176913E-01 -0.74475002594E-01 -0.35577321623E-02  0.77099145395E-01  0.51100000000E-03 0. -1.
</event>
<event>
 8    1  0.1126407E+005  0.1043930E+01  0.7957747E-01            NaN
         13   -1    0    0    0    0  0.00000000000E+00  0.00000000000E+00  0.74505805969E-08  0.10566000000E+00  0.10566000000E+00 0.  1.
     999900   -1    0    0    0    0 -0.00000000000E+00 -0.00000000000E+00 -0.74505805969E-08  0.93827000000E+00  0.93827000000E+00 0. -1.
     999902    2    1    2    0    0 -0.69641845497E-02  0.10367132965E-01 -0.20255217986E-01  0.10201339674E+01  0.10198563920E+01 0.  0.
     999903    2    3    3    0    0 -0.17213226791E-01 -0.10119289516E-01 -0.12994550377E+00  0.13302817033E+00  0.20296919870E-01 0.  0.
         14    1    1    2    0    0  0.69641845497E-02 -0.10367132965E-01  0.20255217986E-01  0.23796032611E-01  0.00000000000E+00 0.  1.
     999901    1    3    3    0    0  0.10249042242E-01  0.20486422482E-01  0.10969028578E+00  0.88710579705E+00  0.88000000000E+00 0.  1.
        -11    1    4    4    0    0 -0.65874729309E-02  0.53300168654E-02 -0.60552583569E-01  0.61144749384E-01  0.51100000000E-03 0. -1.
         11    1    4    4    0    0 -0.10625753860E-01 -0.15449306382E-01 -0.69392920199E-01  0.71883420950E-01  0.51100000000E-03 0.  1.
</event>
<event>
 8    1  0.1126407E+005  0.1043930E+01  0.7957747E-01            NaN
         13   -1    0    0    0    0  0.00000000000E+00  0.00000000000E+00  0.74505805969E-08  0.10566000000E+00  0.10566000000E+00 0.  1.
     999900   -1    0    0    0    0 -0.00000000000E+00 -0.00000000000E+00 -0.74505805969E-08  0.93827000000E+00  0.93827000000E+00 0.  1.
     999902    2    1    2    0    0  0.85248134766E-02 -0.45088879043E-02 -0.21993967832E-01  0.10199146479E+01  0.10196318708E+01 0.  0.
     999903    2    3    3    0    0 -0.10770295020E+00 -0.68614531001E-01  0.68949324967E-02  0.12949171745E+00  0.20314660925E-01 0.  0.
         14    1    1    2    0    0 -0.85248134766E-02  0.45088879043E-02  0.21993967832E-01  0.24015352089E-01  0.00000000000E+00 0.  1.
     999901    1    3    3    0    0  0.11622776368E+00  0.64105643097E-01 -0.28888900329E-01  0.89042293046E+00  0.88000000000E+00 0.  1.
        -11    1    4    4    0    0 -0.57533792690E-01 -0.30375676606E-01  0.12163963133E-01  0.66189441383E-01  0.51100000000E-03 0. -1.
         11    1    4    4    0    0 -0.50169157509E-01 -0.38238854395E-01 -0.52690306365E-02  0.63302276068E-01  0.51100000000E-03 0.  1.
</event>
<event>
 8    1  0.1126407E+005  0.1043930E+01  0.7957747E-01            NaN
         13   -1    0    0    0    0  0.00000000000E+00  0.00000000000E+00  0.74505805969E-08  0.10566000000E+00  0.10566000000E+00 0.  1.
     999900   -1    0    0    0    0 -0.00000000000E+00 -0.00000000000E+00 -0.74505805969E-08  0.93827000000E+00  0.93827000000E+00 0. -1.
     999902    2    1    2    0    0 -0.30024803449E-02 -0.21399021554E-01  0.85855557299E-02  0.10206782306E+01  0.10204133504E+01 0.  0.
     999903    2    3    3    0    0  0.10332218086E+00 -0.67216492156E-01  0.44143050463E-01  0.13238294773E+00  0.19573095561E-01 0.  0.
         14    1    1    2    0    0  0.30024803449E-02  0.21399021554E-01 -0.85855557299E-02  0.23251769371E-01  0.00000000000E+00 0. -1.
     999901    1    3    3    0    0 -0.10632466120E+00  0.45817470602E-01 -0.35557494733E-01  0.88829528290E+00  0.88000000000E+00 0. -1.
        -11    1    4    4    0    0  0.50989055166E-01 -0.41305947321E-01  0.30742686404E-01  0.72466812536E-01  0.51100000000E-03 0.  1.
         11    1    4    4    0    0  0.52333125693E-01 -0.25910544835E-01  0.13400364059E-01  0.59916135192E-01  0.51100000000E-03 0. -1.
</event>
<event>
 8    1  0.1126407E+005  0.1043930E+01  0.7957747E-01            NaN
         13   -1    0    0    0    0  0.00000000000E+00  0.00000000000E+00  0.74505805969E-08  0.10566000000E+00  0.10566000000E+00 0. -1.
     999900   -1    0    0    0    0 -0.00000000000E+00 -0.00000000000E+00 -0.74505805969E-08  0.93827000000E+00  0.93827000000E+00 0. -1.
     999902    2    1    2    0    0 -0.10434987223E-01 -0.21766348268E-01 -0.37432939521E-03  0.10197886869E+01  0.10195028999E+01 0.  0.
     999903    2    3    3    0    0  0.79281459705E-01 -0.41332516413E-01 -0.92464921505E-01  0.13023118290E+00  0.20407658476E-01 0.  0.
         14    1    1    2    0    0  0.10434987223E-01  0.21766348268E-01  0.37432939521E-03  0.24141313091E-01  0.00000000000E+00 0. -1.
     999901    1    3    3    0    0 -0.89716446928E-01  0.19566168146E-01  0.92090592109E-01  0.88955750401E+00  0.88000000000E+00 0.  1.
        -11    1    4    4    0    0  0.20137017645E-01 -0.85573380072E-02 -0.11436462154E-01  0.24693750242E-01  0.51100000000E-03 0. -1.
         11    1    4    4    0    0  0.59144442059E-01 -0.32775178406E-01 -0.81028459351E-01  0.10553743266E+00  0.51100000000E-03 0.  1.
</event>
<event>
 8    1  0.1126407E+005  0.1043930E+01  0.7957747E-01            NaN
         13   -1    0    0    0    0  0.00000000000E+00  0.00000000000E+00  0.74505805969E-08  0.10566000000E+00  0.10566000000E+00 0.  1.
     999900   -1    0    0    0    0 -0.00000000000E+00 -0.00000000000E+00 -0.74505805969E-08  0.93827000000E+00  0.93827000000E+00 0.  1.
     999902    2    1    2    0    0 -0.87588906708E-02  0.17326568583E-01  0.13778254579E-01  0.10201231009E+01  0.10198452689E+01 0.  0.
     999903    2    3    3    0    0  0.24071522311E-01  0.12242447263E+00 -0.36619961101E-01  0.13183070221E+00  0.21705363615E-01 0.  0.
         14    1    1    2    0    0  0.87588906708E-02 -0.17326568583E-01 -0.13778254579E-01  0.23806899081E-01  0.00000000000E+00 0. -1.
     999901    1    3    3    0    0 -0.32830412982E-01 -0.10509790405E+00  0.50398215679E-01  0.88829239870E+00  0.88000000000E+00 0.  1.
        -11    1    4    4    0    0  0.86337378477E-02  0.44437159590E-01 -0.25706678507E-02  0.45343930529E-01  0.51100000000E-03 0.  1.
         11    1    4    4    0    0  0.15437784463E-01  0.77987313043E-01 -0.34049293250E-01  0.86486771686E-01  0.51100000000E-03 0. -1.
</event>
<event>
 8    1  0.1126407E+005  0.1043930E+01  0.7957747E-01            NaN
         13   -1    0    0    0    0  0.00000000000E+00  0.00000000000E+00  0.74505805969E-08  0.10566000000E+00  0.10566000000E+00 0.  1.
     999900   -1    0    0    0    0 -0.00000000000E+00 -0.00000000000E+00 -0.74505805969E-08  0.93827000000E+00  0.93827000000E+00 0.  1.
     999902    2    1    2    0    0  0.36847779743E-02 -0.20062854817E-01 -0.11814164944E-01  0.10203573416E+01  0.10200850133E+01 0.  0.
     999903    2    3    3    0    0  0.89882809433E-01 -0.71420954385E-01 -0.64480095536E-01  0.13309105952E+00  0.19382343687E-01 0.  0.
         14    1    1    2    0    0 -0.36847779743E-02  0.20062854817E-01  0.11814164944E-01  0.23572658430E-01  0.00000000000E+00 0.  1.
     999901    1    3    3    0    0 -0.86198031459E-01  0.51358099568E-01  0.52665930592E-01  0.88726628205E+00  0.88000000000E+00 0. -1.
        -11    1    4    4    0    0  0.10616608231E-01 -0.17230901120E-01 -0.13952989605E-01  0.24587870255E-01  0.51100000000E-03 0.  1.
         11    1    4    4    0    0  0.79266201202E-01 -0.54190053265E-01 -0.50527105931E-01  0.10850318926E+00  0.51100000000E-03 0. -1.
</event>
<event>
 8    1  0.1126407E+005  0.1043930E+01  0.7957747E-01            NaN
         13   -1    0    0    0    0  0.00000000000E+00  0.00000000000E+00  0.74505805969E-08  0.10566000000E+00  0.10566000000E+00 0.  1.
     999900   -1    0    0    0    0 -0.00000000000E+00 -0.00000000000E+00 -0.74505805969E-08  0.93827000000E+00  0.93827000000E+00 0. -1.
     999902    2    1    2    0    0  0.14781411266E-01 -0.33152713229E-02  0.18328921346E-01  0.10201512174E+01  0.10198740490E+01 0.  0.
     999903    2    3    3    0    0 -0.10937221119E+00  0.55532311631E-01 -0.31644184764E-01  0.12808929619E+00  0.18957720112E-01 0.  0.
         14    1    1    2    0    0 -0.14781411266E-01  0.33152713229E-02 -0.18328921346E-01  0.23778782574E-01  0.00000000000E+00 0.  1.
     999901    1    3    3    0    0  0.12415362246E+00 -0.58847582954E-01  0.49973106110E-01  0.89206192124E+00  0.88000000000E+00 0.  1.
        -11    1    4    4    0    0 -0.69163210359E-01  0.42224504211E-01 -0.14148716786E-01  0.82261204286E-01  0.51100000000E-03 0.  1.
         11    1    4    4    0    0 -0.40209000836E-01  0.13307807420E-01 -0.17495467978E-01  0.45828091901E-01  0.51100000000E-03 0. -1.
</event>
<event>
 8    1  0.1126407E+005  0.1043930E+01  0.7957747E-01            NaN
         13   -1    0    0    0    0  0.00000000000E+00  0.00000000000E+00  0.74505805969E-08  0.10566000000E+00  0.10566000000E+00 0.  1.
     999900   -1    0    0    0    0 -0.00000000000E+00 -0.00000000000E+00 -0.74505805969E-08  0.93827000000E+00  0.93827000000E+00 0.  1.
     999902    2    1    2    0    0  0.13051186049E-01 -0.13681615402E-01 -0.13777400152E-01  0.10205347695E+01  0.10202665724E+01 0.  0.
     999903    2    3    3    0    0  0.11745647231E+00 -0.16736306889E-01  0.53736604727E-01  0.13178962275E+00  0.20118526812E-01 0.  0.
         14    1    1    2    0    0 -0.13051186049E-01  0.13681615402E-01  0.13777400152E-01  0.23395230545E-01  0.00000000000E+00 0.  1.
     999901    1    3    3    0    0 -0.10440528626E+00  0.30546914875E-02 -0.67514004879E-01  0.88874514671E+00  0.88000000000E+00 0.  1.
        -11    1    4    4    0    0  0.13815080945E-01  0.43340390323E-02  0.81247688618E-02  0.16610639539E-01  0.51100000000E-03 0.  1.
         11    1    4    4    0    0  0.10364139136E+00 -0.21070345922E-01  0.45611835865E-01  0.11517898321E+00  0.51100000000E-03 0. -1.
</event>
<event>
 8    1  0.1126407E+005  0.1043930E+01  0.7957747E-01            NaN
         13   -1    0    0    0    0  0.00000000000E+00  0.00000000000E+00  0.74505805969E-08  0.10566000000E+00  0.10566000000E+00 0.  1.
     999900   -1    0    0    0    0 -0.00000000000E+00 -0.00000000000E+00 -0.74505805969E-08  0.93827000000E+00  0.93827000000E+00 0. -1.
     999902    2    1    2    0    0 -0.13295719682E-01 -0.17379782286E-02  0.18823615888E-01  0.10208188502E+01  0.10205572006E+01 0.  0.
     999903    2    3    3    0    0  0.16983700605E-02 -0.12971984547E+00  0.45241691167E-02  0.13131974663E+00  0.19856610422E-01 0.  0.
         14    1    1    2    0    0  0.13295719682E-01  0.17379782286E-02 -0.18823615888E-01  0.23111149805E-01  0.00000000000E+00 0. -1.
     999901    1    3    3    0    0 -0.14994089743E-01  0.12798186724E+00  0.14299446772E-01  0.88949910357E+00  0.88000000000E+00 0.  1.
        -11    1    4    4    0    0 -0.14346614412E-02 -0.59317631841E-01 -0.75621240069E-02  0.59817109100E-01  0.51100000000E-03 0. -1.
         11    1    4    4    0    0  0.31330315017E-02 -0.70402213633E-01  0.12086293124E-01  0.71502637527E-01  0.51100000000E-03 0.  1.
</event>
<event>
 8    1  0.1126407E+005  0.1043930E+01  0.7957747E-01            NaN
         13   -1    0    0    0    0  0.00000000000E+00  0.00000000000E+00  0.74505805969E-08  0.10566000000E+00  0.10566000000E+00 0. -1.
     999900   -1    0    0    0    0 -0.00000000000E+00 -0.00000000000E+00 -0.74505805969E-08  0.93827000000E+00  0.93827000000E+00 0. -1.
     999902    2    1    2    0    0 -0.13244253403E-01 -0.18291722952E-01 -0.36383703806E-02  0.10210556669E+01  0.10207994121E+01 0.  0.
     999903    2    3    3    0    0 -0.76015514202E-02 -0.28486932817E-01  0.12614151305E+00  0.13146103980E+00  0.22383805425E-01 0.  0.
         14    1    1    2    0    0  0.13244253403E-01  0.18291722952E-01  0.36383703806E-02  0.22874333122E-01  0.00000000000E+00 0. -1.
     999901    1    3    3    0    0 -0.56427019828E-02  0.10195209866E-01 -0.12977988343E+00  0.88959462708E+00  0.88000000000E+00 0. -1.
        -11    1    4    4    0    0  0.62873641623E-02 -0.15870716759E-02  0.28491938173E-01  0.29225013370E-01  0.51100000000E-03 0. -1.
         11    1    4    4    0    0 -0.13888915582E-01 -0.26899861141E-01  0.97649574874E-01  0.10223602643E+00  0.51100000000E-03 0.  1.
</event>
<event>
 8    1  0.1126407E+005  0.1043930E+01  0.7957747E-01            NaN
         13   -1    0    0    0    0  0.00000000000E+00  0.00000000000E+00  0.74505805969E-08  0.10566000000E+00  0.10566000000E+00 0. -1.
     999900   -1    0    0    0    0 -0.00000000000E+00 -0.00000000000E+00 -0.74505805969E-08  0.93827000000E+00  0.93827000000E+00 0.  1.
     999902    2    1    2    0    0  0.20865362805E-01  0.11374246469E-01  0.12121863717E-03  0.10201654983E+01  0.10198886666E+01 0.  0.
     999903    2    3    3    0    0 -0.60131990382E-01 -0.99672151668E-01 -0.49606505199E-01  0.12810904252E+00  0.20018175015E-01 0.  0.
         14    1    1    2    0    0 -0.20865362805E-01 -0.11374246469E-01 -0.12121863717E-03  0.23764501714E-01  0.00000000000E+00 0.  1.
     999901    1    3    3    0    0  0.80997353188E-01  0.11104639814E+00  0.49727723837E-01  0.89205645577E+00  0.88000000000E+00 0. -1.
        -11    1    4    4    0    0 -0.51296302520E-01 -0.94163676207E-01 -0.48287545710E-01  0.11760126173E+00  0.51100000000E-03 0. -1.
         11    1    4    4    0    0 -0.88356878620E-02 -0.55084754611E-02 -0.13189594895E-02  0.10507780785E-01  0.51100000000E-03 0.  1.
</event>
<event>
 8    1  0.1126407E+005  0.1043930E+01  0.7957747E-01            NaN
         13   -1    0    0    0    0  0.00000000000E+00  0.00000000000E+00  0.74505805969E-08  0.10566000000E+00  0.10566000000E+00 0. -1.
     999900   -1    0    0    0    0 -0.00000000000E+00 -0.00000000000E+00 -0.74505805969E-08  0.93827000000E+00  0.93827000000E+00 0.  1.
     999902    2    1    2    0    0 -0.16919496491E-01 -0.12653974049E-01 -0.12455459516E-01  0.10194038733E+01  0.10191087900E+01 0.  0.
     999903    2    3    3    0    0 -0.10173124658E+00 -0.11343039573E-01  0.78736884899E-01  0.13063461458E+00  0.19697573612E-01 0.  0.
         14    1    1    2    0    0  0.16919496491E-01  0.12653974049E-01  0.12455459516E-01  0.24526126733E-01  0.00000000000E+00 0. -1.
     999901    1    3    3    0    0  0.84811750088E-01 -0.13109344757E-02 -0.91192344416E-01  0.88876925868E+00  0.88000000000E+00 0. -1.
        -11    1    4    4    0    0 -0.70559363190E-01 -0.16677933247E-02  0.62029736605E-01  0.93964645547E-01  0.51100000000E-03 0. -1.
         11    1    4    4    0    0 -0.31171883389E-01 -0.96752462485E-02  0.16707148294E-01  0.36669969036E-01  0.51100000000E-03 0.  1.
</event>
<event>
 8    1  0.1126407E+005  0.1043930E+01  0.7957747E-01            NaN
         13   -1    0    0    0    0  0.00000000000E+00  0.00000000000E+00  0.74505805969E-08  0.10566000000E+00  0.10566000000E+00 0.  1.
     999900   -1    0    0    0    0 -0.00000000000E+00 -0.00000000000E+00 -0.74505805969E-08  0.93827000000E+00  0.93827000000E+00 0. -1.
     999902    2    1    2    0    0 -0.18145745600E-01  0.79542113281E-02 -0.13448969080E-01  0.10199839705E+01  0.10197028428E+01 0.  0.
     999903    2    3    3    0    0  0.12405424932E+00 -0.12489310935E-01 -0.23556975889E-01  0.12827720927E+00  0.18832728009E-01 0.  0.
         14    1    1    2    0    0  0.18145745600E-01 -0.79542113281E-02  0.13448969080E-01  0.23946029536E-01  0.00000000000E+00 0.  1.
     999901    1    3    3    0    0 -0.14219999492E+00  0.20443522263E-01  0.10108006810E-01  0.89170676119E+00  0.88000000000E+00 0.  1.
        -11    1    4    4    0    0  0.58250854132E-01 -0.49054336640E-02 -0.20557040969E-01  0.61968365647E-01  0.51100000000E-03 0. -1.
         11    1    4    4    0    0  0.65803395184E-01 -0.75838772710E-02 -0.29999349200E-02  0.66308843624E-01  0.51100000000E-03 0.  1.
</event>
<event>
 8    1  0.1126407E+005  0.1043930E+01  0.7957747E-01            NaN
         13   -1    0    0    0    0  0.00000000000E+00  0.00000000000E+00  0.74505805969E-08  0.10566000000E+00  0.10566000000E+00 0.  1.
     999900   -1    0    0    0    0 -0.00000000000E+00 -0.00000000000E+00 -0.74505805969E-08  0.93827000000E+00  0.93827000000E+00 0.  1.
     999902    2    1    2    0    0 -0.10487745421E-01  0.16845773890E-01 -0.13190465832E-01  0.10201022580E+01  0.10198239335E+01 0.  0.
     999903    2    3    3    0    0 -0.81161126142E-01 -0.98664792949E-01  0.41777670192E-02  0.12957484496E+00  0.21220672561E-01 0.  0.
         14    1    1    2    0    0  0.10487745421E-01 -0.16845773890E-01  0.13190465832E-01  0.23827742042E-01  0.00000000000E+00 0.  1.
     999901    1    3    3    0    0  0.70673380721E-01  0.11551056684E+00 -0.17368232851E-01  0.89052741300E+00  0.88000000000E+00 0.  1.
        -11    1    4    4    0    0 -0.20499629650E-01 -0.40669383300E-01  0.29089298115E-02  0.45639418789E-01  0.51100000000E-03 0. -1.
         11    1    4    4    0    0 -0.60661496492E-01 -0.57995409650E-01  0.12688372078E-02  0.83935426168E-01  0.51100000000E-03 0.  1.
</event>
<event>
 8    1  0.1126407E+005  0.1043930E+01  0.7957747E-01            NaN
         13   -1    0    0    0    0  0.00000000000E+00  0.00000000000E+00  0.74505805969E-08  0.10566000000E+00  0.10566000000E+00 0. -1.
     999900   -1    0    0    0    0 -0.00000000000E+00 -0.00000000000E+00 -0.74505805969E-08  0.93827000000E+00  0.93827000000E+00 0.  1.
     999902    2    1    2    0    0  0.48916073512E-02 -0.77140696925E-02  0.21386026109E-01  0.10206749617E+01  0.10204100061E+01 0.  0.
     999903    2    3    3    0    0 -0.85313558588E-02 -0.99961544218E-01 -0.80303518409E-01  0.12992778322E+00  0.19169752971E-01 0.  0.
         14    1    1    2    0    0 -0.48916073512E-02  0.77140696925E-02 -0.21386026109E-01  0.23255038302E-01  0.00000000000E+00 0.  1.
     999901    1    3    3    0    0  0.13422963210E-01  0.92247474525E-01  0.10168954452E+00  0.89074717848E+00  0.88000000000E+00 0. -1.
        -11    1    4    4    0    0  0.54007931758E-02 -0.42917462313E-01 -0.30511971169E-01  0.52936930814E-01  0.51100000000E-03 0.  1.
         11    1    4    4    0    0 -0.13932149035E-01 -0.57044081904E-01 -0.49791547240E-01  0.76990852408E-01  0.51100000000E-03 0. -1.
</event>
<event>
 8    1  0.1126407E+005  0.1043930E+01  0.7957747E-01            NaN
         13   -1    0    0    0    0  0.00000000000E+00  0.00000000000E+00  0.74505805969E-08  0.10566000000E+00  0.10566000000E+00 0.  1.
     999900   -1    0    0    0    0 -0.00000000000E+00 -0.00000000000E+00 -0.74505805969E-08  0.93827000000E+00  0.93827000000E+00 0. -1.
     999902    2    1    2    0    0 -0.84256275807E-02  0.12860442157E-01 -0.17370022371E-01  0.10207330207E+01  0.10204694016E+01 0.  0.
     999903    2    3    3    0    0  0.24432588796E-01  0.64543062255E-01  0.10570164933E+00  0.13006058258E+00  0.31307478167E-01 0.  0.
         14    1    1    2    0    0  0.84256275807E-02 -0.12860442157E-01  0.17370022371E-01  0.23196979324E-01  0.00000000000E+00 0.  1.
     999901    1    3    3    0    0 -0.32858216376E-01 -0.51682620097E-01 -0.12307167170E+00  0.89067243809E+00  0.88000000000E+00 0. -1.
        -11    1    4    4    0    0  0.20269426068E-01  0.19779587624E-01  0.57783917601E-01  0.64353119381E-01  0.51100000000E-03 0.  1.
         11    1    4    4    0    0  0.41631627274E-02  0.44763474630E-01  0.47917731733E-01  0.65707463201E-01  0.51100000000E-03 0. -1.
</event>
<event>
 8    1  0.1126407E+005  0.1043930E+01  0.7957747E-01            NaN
         13   -1    0    0    0    0  0.00000000000E+00  0.00000000000E+00  0.74505805969E-08  0.10566000000E+00  0.10566000000E+00 0.  1.
     999900   -1    0    0    0    0 -0.00000000000E+00 -0.00000000000E+00 -0.74505805969E-08  0.93827000000E+00  0.93827000000E+00 0. -1.
     999902    2    1    2    0    0 -0.11244781478E-01  0.21453111035E-02 -0.20725026350E-01  0.10202535521E+01  0.10199787921E+01 0.  0.
     999903    2    3    3    0    0  0.10960806286E+00  0.54907128397E-01  0.32804327499E-01  0.12881953258E+00  0.22127536667E-01 0.  0.
         14    1    1    2    0    0  0.11244781478E-01 -0.21453111035E-02  0.20725026350E-01  0.23676447948E-01  0.00000000000E+00 0.  1.
     999901    1    3    3    0    0 -0.12085284434E+00 -0.52761817293E-01 -0.53529353849E-01  0.89143401947E+00  0.88000000000E+00 0. -1.
        -11    1    4    4    0    0  0.55052986255E-01  0.15785737583E-01  0.18406355711E-01  0.60158755458E-01  0.51100000000E-03 0.  1.
         11    1    4    4    0    0  0.54555076604E-01  0.39121390813E-01  0.14397971788E-01  0.68660777122E-01  0.51100000000E-03 0. -1.
</event>
<event>
 8    1  0.1126407E+005  0.1043930E+01  0.7957747E-01            NaN
         13   -1    0    0    0    0  0.00000000000E+00  0.00000000000E+00  0.74505805969E-08  0.10566000000E+00  0.10566000000E+00 0.  1.
     999900   -1    0    0    0    0 -0.00000000000E+00 -0.00000000000E+00 -0.74505805969E-08  0.93827000000E+00  0.93827000000E+00 0.  1.
     999902    2    1    2    0    0 -0.71952999362E-02 -0.20015641536E-01 -0.96224745366E-02  0.10205849735E+01  0.10203179396E+01 0.  0.
     999903    2    3    3    0    0  0.10129871595E+00 -0.25436597885E-01  0.74686557806E-01  0.12990638319E+00  0.19726533194E-01 0.  0.
         14    1    1    2    0    0  0.71952999362E-02  0.20015641536E-01  0.96224745366E-02  0.23345026526E-01  0.00000000000E+00 0.  1.
     999901    1    3    3    0    0 -0.10849401589E+00  0.54209563484E-02 -0.84309032342E-01  0.89067859028E+00  0.88000000000E+00 0.  1.
        -11    1    4    4    0    0  0.40580550813E-01 -0.83237094460E-02  0.41437007144E-01  0.58594811420E-01  0.51100000000E-03 0.  1.
         11    1    4    4    0    0  0.60718165139E-01 -0.17112888439E-01  0.33249550662E-01  0.71311571773E-01  0.51100000000E-03 0. -1.
</event>
<event>
 8    1  0.1126407E+005  0.1043930E+01  0.7957747E-01            NaN
         13   -1    0    0    0    0  0.00000000000E+00  0.00000000000E+00  0.74505805969E-08  0.10566000000E+00  0.10566000000E+00 0.  1.
     999900   -1    0    0    0    0 -0.00000000000E+00 -0.00000000000E+00 -0.74505805969E-08  0.93827000000E+00  0.93827000000E+00 0.  1.
     999902    2    1    2    0    0  0.18746223324E-01 -0.14107507760E-01  0.11165316308E-01  0.10179471797E+01  0.10176155235E+01 0.  0.
     999903    2    3    3    0    0  0.10866477325E+00 -0.16689426833E-01  0.69151235728E-01  0.13146289962E+00  0.20347743338E-01 0.  0.
         14    1    1    2    0    0 -0.18746223324E-01  0.14107507760E-01 -0.11165316308E-01  0.25982820331E-01  0.00000000000E+00 0.  1.
     999901    1    3    3    0    0 -0.89918549929E-01  0.25819190735E-02 -0.57985919419E-01  0.88648428005E+00  0.88000000000E+00 0.  1.
        -11    1    4    4    0    0  0.86190464008E-01 -0.12717653302E-01  0.44380963021E-01  0.97777634411E-01  0.51100000000E-03 0.  1.
         11    1    4    4    0    0  0.22474309245E-01 -0.39717735311E-02  0.24770272707E-01  0.33685265206E-01  0.51100000000E-03 0. -1.
</event>
<event>
 8    1  0.1704702E+005  0.1043930E+01  0.7957747E-01            NaN
         13   -1    0    0    0    0  0.00000000000E+00  0.00000000000E+00  0.74505805969E-08  0.10566000000E+00  0.10566000000E+00 0. -1.
     999900   -1    0    0    0    0 -0.00000000000E+00 -0.00000000000E+00 -0.74505805969E-08  0.93827000000E+00  0.93827000000E+00 0.  1.
     999902    2    1    2    0    0 -0.39662504639E-02 -0.21461148867E-01 -0.78282117362E-02  0.10207439492E+01  0.10204805813E+01 0.  0.
     999903    2    3    3    0    0 -0.57899076337E-01  0.10941293827E+00  0.28487443716E-01  0.12869260356E+00  0.20658113670E-01 0.  0.
         14    1    1    2    0    0  0.39662504639E-02  0.21461148867E-01  0.78282117362E-02  0.23186050816E-01  0.00000000000E+00 0. -1.
     999901    1    3    3    0    0  0.53932825873E-01 -0.13087408714E+00 -0.36315655452E-01  0.89205134562E+00  0.88000000000E+00 0.  1.
        -11    1    4    4    0    0 -0.36242175210E-01  0.57000229735E-01  0.24445429647E-01  0.71835656922E-01  0.51100000000E-03 0.  1.
         11    1    4    4    0    0 -0.21656901127E-01  0.52412708538E-01  0.40420140689E-02  0.56856946642E-01  0.51100000000E-03 0. -1.
</event>
<event>
 8    1  0.1126407E+005  0.1043930E+01  0.7957747E-01            NaN
         13   -1    0    0    0    0  0.00000000000E+00  0.00000000000E+00  0.74505805969E-08  0.10566000000E+00  0.10566000000E+00 0.  1.
     999900   -1    0    0    0    0 -0.00000000000E+00 -0.00000000000E+00 -0.74505805969E-08  0.93827000000E+00  0.93827000000E+00 0. -1.
     999902    2    1    2    0    0 -0.68524512900E-02 -0.21601556861E-01 -0.78252462359E-03  0.10212541165E+01  0.10210023383E+01 0.  0.
     999903    2    3    3    0    0 -0.10637701135E+00 -0.60729388570E-01 -0.49173734359E-01  0.13346031474E+00  0.19735052095E-01 0.  0.
         14    1    1    2    0    0  0.68524512900E-02  0.21601556861E-01  0.78252462359E-03  0.22675883495E-01  0.00000000000E+00 0. -1.
     999901    1    3    3    0    0  0.99524560056E-01  0.39127831709E-01  0.48391209736E-01  0.88779380176E+00  0.88000000000E+00 0.  1.
        -11    1    4    4    0    0 -0.69682006516E-01 -0.30873540040E-01 -0.36365373313E-01  0.84447966250E-01  0.51100000000E-03 0.  1.
         11    1    4    4    0    0 -0.36695004830E-01 -0.29855848531E-01 -0.12808361046E-01  0.49012348492E-01  0.51100000000E-03 0. -1.
</event>
<event>
 8    1  0.1126407E+005  0.1043930E+01  0.7957747E-01            NaN
         13   -1    0    0    0    0  0.00000000000E+00  0.00000000000E+00  0.74505805969E-08  0.10566000000E+00  0.10566000000E+00 0. -1.
     999900   -1    0    0    0    0 -0.00000000000E+00 -0.00000000000E+00 -0.74505805969E-08  0.93827000000E+00  0.93827000000E+00 0. -1.
     999902    2    1    2    0    0 -0.46709097422E-02  0.93472778600E-02 -0.20396028613E-01  0.10210130416E+01  0.10207558200E+01 0.  0.
     999903    2    3    3    0    0 -0.80008956761E-01  0.99039391316E-01 -0.33277206165E-01  0.13315808646E+00  0.20333945662E-01 0.  0.
         14    1    1    2    0    0  0.46709097422E-02 -0.93472778600E-02  0.20396028613E-01  0.22916958446E-01  0.00000000000E+00 0. -1.
     999901    1    3    3    0    0  0.75338047018E-01 -0.89692113456E-01  0.12881177551E-01  0.88785495509E+00  0.88000000000E+00 0. -1.
        -11    1    4    4    0    0 -0.22059643585E-01  0.17665671801E-01 -0.14212788659E-02  0.28301678217E-01  0.51100000000E-03 0.  1.
         11    1    4    4    0    0 -0.57949313176E-01  0.81373719515E-01 -0.31855927299E-01  0.10485640825E+00  0.51100000000E-03 0. -1.
</event>
<event>
 8    1  0.1126407E+005  0.1043930E+01  0.7957747E-01            NaN
         13   -1    0    0    0    0  0.00000000000E+00  0.00000000000E+00  0.74505805969E-08  0.10566000000E+00  0.10566000000E+00 0.  1.
     999900   -1    0    0    0    0 -0.00000000000E+00 -0.00000000000E+00 -0.74505805969E-08  0.93827000000E+00  0.93827000000E+00 0. -1.
     999902    2    1    2    0    0  0.18701457466E-01  0.33463536112E-02 -0.13966596543E-01  0.10203501694E+01  0.10200776734E+01 0.  0.
     999903    2    3    3    0    0  0.83429103530E-01  0.98779485083E-01  0.18803174929E-01  0.13222235836E+00  0.20282767935E-01 0.  0.
         14    1    1    2    0    0 -0.18701457466E-01 -0.33463536112E-02  0.13966596543E-01  0.23579830636E-01  0.00000000000E+00 0.  1.
     999901    1    3    3    0    0 -0.64727646064E-01 -0.95433131472E-01 -0.32769771472E-01  0.88812781100E+00  0.88000000000E+00 0. -1.
        -11    1    4    4    0    0  0.36449900752E-01  0.56437198751E-01  0.42378255955E-02  0.67319929846E-01  0.51100000000E-03 0.  1.
         11    1    4    4    0    0  0.46979202778E-01  0.42342286332E-01  0.14565349333E-01  0.64902428519E-01  0.51100000000E-03 0. -1.
</event>
<event>
 8    1  0.1126407E+005  0.1043930E+01  0.7957747E-01            NaN
         13   -1    0    0    0    0  0.00000000000E+00  0.00000000000E+00  0.74505805969E-08  0.10566000000E+00  0.10566000000E+00 0.  1.
     999900   -1    0    0    0    0 -0.00000000000E+00 -0.00000000000E+00 -0.74505805969E-08  0.93827000000E+00  0.93827000000E+00 0. -1.
     999902    2    1    2    0    0  0.16434536817E-01 -0.16347127062E-01  0.57130628559E-02  0.10200561304E+01  0.10197767145E+01 0.  0.
     999903    2    3    3    0    0  0.38295992263E-01  0.11942203686E+00 -0.22414045938E-01  0.12893193962E+00  0.19820436077E-01 0.  0.
         14    1    1    2    0    0 -0.16434536817E-01  0.16347127062E-01 -0.57130628559E-02  0.23873869623E-01  0.00000000000E+00 0.  1.
     999901    1    3    3    0    0 -0.21861455446E-01 -0.13576916393E+00  0.28127108794E-01  0.89112419076E+00  0.88000000000E+00 0. -1.
        -11    1    4    4    0    0  0.21931389833E-01  0.68457257149E-01 -0.28632765461E-02  0.71943320677E-01  0.51100000000E-03 0.  1.
         11    1    4    4    0    0  0.16364602430E-01  0.50964779714E-01 -0.19550769392E-01  0.56988618941E-01  0.51100000000E-03 0. -1.
</event>
<event>
 8    1  0.1129145E+005  0.1043930E+01  0.7957747E-01            NaN
         13   -1    0    0    0    0  0.00000000000E+00  0.00000000000E+00  0.74505805969E-08  0.10566000000E+00  0.10566000000E+00 0.  1.
     999900   -1    0    0    0    0 -0.00000000000E+00 -0.00000000000E+00 -0.74505805969E-08  0.93827000000E+00  0.93827000000E+00 0.  1.
     999902    2    1    2    0    0  0.12279496424E-02 -0.25814141732E-02 -0.23679208781E-01  0.10200788682E+01  0.10197999906E+01 0.  0.
     999903    2    3    3    0    0 -0.59269127927E-01  0.27817482301E-01  0.10773512826E+00  0.12774837042E+00  0.20643314535E-01 0.  0.
         14    1    1    2    0    0 -0.12279496424E-02  0.25814141732E-02  0.23679208781E-01  0.23851131796E-01  0.00000000000E+00 0.  1.
     999901    1    3    3    0    0  0.60497077569E-01 -0.30398896474E-01 -0.13141433705E+00  0.89233049779E+00  0.88000000000E+00 0.  1.
        -11    1    4    4    0    0 -0.15400422737E-01  0.95216934391E-02  0.48672921497E-01  0.51934093565E-01  0.51100000000E-03 0.  1.
         11    1    4    4    0    0 -0.43868705190E-01  0.18295788862E-01  0.59062206768E-01  0.75814276851E-01  0.51100000000E-03 0. -1.
</event>
<event>
 8    1  0.1126407E+005  0.1043930E+01  0.7957747E-01            NaN
         13   -1    0    0    0    0  0.00000000000E+00  0.00000000000E+00  0.74505805969E-08  0.10566000000E+00  0.10566000000E+00 0. -1.
     999900   -1    0    0    0    0 -0.00000000000E+00 -0.00000000000E+00 -0.74505805969E-08  0.93827000000E+00  0.93827000000E+00 0.  1.
     999902    2    1    2    0    0  0.10225747971E-01 -0.28868766969E-02 -0.20432949757E-01  0.10208994678E+01  0.10206396611E+01 0.  0.
     999903    2    3    3    0    0 -0.22241553947E-01 -0.82745798595E-02  0.12454573654E+00  0.12842987585E+00  0.20480164248E-01 0.  0.
         14    1    1    2    0    0 -0.10225747971E-01  0.28868766969E-02  0.20432949757E-01  0.23030532222E-01  0.00000000000E+00 0. -1.
     999901    1    3    3    0    0  0.32467301917E-01  0.53877031626E-02 -0.14497868629E+00  0.89246959193E+00  0.88000000000E+00 0.  1.
        -11    1    4    4    0    0 -0.11396413590E-01  0.58551805088E-02  0.39207153937E-01  0.41250738446E-01  0.51100000000E-03 0. -1.
         11    1    4    4    0    0 -0.10845140357E-01 -0.14129760368E-01  0.85338582599E-01  0.87179137403E-01  0.51100000000E-03 0.  1.
</event>
<event>
 8    1  0.1126407E+005  0.1043930E+01  0.7957747E-01            NaN
         13   -1    0    0    0    0  0.00000000000E+00  0.00000000000E+00  0.74505805969E-08  0.10566000000E+00  0.10566000000E+00 0.  1.
     999900   -1    0    0    0    0 -0.00000000000E+00 -0.00000000000E+00 -0.74505805969E-08  0.93827000000E+00  0.93827000000E+00 0.  1.
     999902    2    1    2    0    0 -0.14821838841E-01  0.17394830593E-01  0.66937484465E-02  0.10201166990E+01  0.10198387158E+01 0.  0.
     999903    2    3    3    0    0 -0.68938969128E-01 -0.98628044183E-01  0.44904959494E-01  0.13003239514E+00  0.20295217051E-01 0.  0.
         14    1    1    2    0    0  0.14821838841E-01 -0.17394830593E-01 -0.66937484465E-02  0.23813301037E-01  0.00000000000E+00 0. -1.
     999901    1    3    3    0    0  0.54117130287E-01  0.11602287478E+00 -0.38211211048E-01  0.89008430382E+00  0.88000000000E+00 0.  1.
        -11    1    4    4    0    0 -0.35737529342E-01 -0.58676645985E-01  0.35153034877E-01  0.77175882046E-01  0.51100000000E-03 0. -1.
         11    1    4    4    0    0 -0.33201439786E-01 -0.39951398198E-01  0.97519246177E-02  0.52856513095E-01  0.51100000000E-03 0.  1.
</event>
<event>
 8    1  0.1126407E+005  0.1043930E+01  0.7957747E-01            NaN
         13   -1    0    0    0    0  0.00000000000E+00  0.00000000000E+00  0.74505805969E-08  0.10566000000E+00  0.10566000000E+00 0.  1.
     999900   -1    0    0    0    0 -0.00000000000E+00 -0.00000000000E+00 -0.74505805969E-08  0.93827000000E+00  0.93827000000E+00 0.  1.
     999902    2    1    2    0    0 -0.18018592974E-01  0.75413330997E-02  0.13082935977E-01  0.10204203294E+01  0.10201494714E+01 0.  0.
     999903    2    3    3    0    0  0.79060385677E-01 -0.21123123592E-01 -0.97285471166E-01  0.12776856950E+00  0.12791149970E-01 0.  0.
         14    1    1    2    0    0  0.18018592974E-01 -0.75413330997E-02 -0.13082935977E-01  0.23509670595E-01  0.00000000000E+00 0. -1.
     999901    1    3    3    0    0 -0.97078978651E-01  0.28664456691E-01  0.11036840714E+00  0.89265175991E+00  0.88000000000E+00 0. -1.
        -11    1    4    4    0    0  0.17974327504E-01 -0.91195868328E-02 -0.29503816072E-01  0.35734851295E-01  0.51100000000E-03 0. -1.
         11    1    4    4    0    0  0.61086058173E-01 -0.12003536759E-01 -0.67781655093E-01  0.92033718201E-01  0.51100000000E-03 0.  1.
</event>
<event>
 8    1  0.1126407E+005  0.1043930E+01  0.7957747E-01            NaN
         13   -1    0    0    0    0  0.00000000000E+00  0.00000000000E+00  0.74505805969E-08  0.10566000000E+00  0.10566000000E+00 0.  1.
     999900   -1    0    0    0    0 -0.00000000000E+00 -0.00000000000E+00 -0.74505805969E-08  0.93827000000E+00  0.93827000000E+00 0. -1.
     999902    2    1    2    0    0 -0.11830947640E-01  0.21132551708E-01  0.19348929740E-02  0.10196339124E+01  0.10193444047E+01 0.  0.
     999903    2    3    3    0    0  0.12082923585E+00  0.28742146550E-01 -0.28835465988E-01  0.12912650352E+00  0.20404768739E-01 0.  0.
         14    1    1    2    0    0  0.11830947640E-01 -0.21132551708E-01 -0.19348929740E-02  0.24296087639E-01  0.00000000000E+00 0. -1.
     999901    1    3    3    0    0 -0.13266018349E+00 -0.76095948419E-02  0.30770358962E-01  0.89050740884E+00  0.88000000000E+00 0. -1.
        -11    1    4    4    0    0  0.59435156140E-01  0.45518902604E-02 -0.17866013162E-01  0.62231125955E-01  0.51100000000E-03 0. -1.
         11    1    4    4    0    0  0.61394079709E-01  0.24190256290E-01 -0.10969452826E-01  0.66895377561E-01  0.51100000000E-03 0.  1.
</event>
<event>
 8    1  0.1126407E+005  0.1043930E+01  0.7957747E-01            NaN
         13   -1    0    0    0    0  0.00000000000E+00  0.00000000000E+00  0.74505805969E-08  0.10566000000E+00  0.10566000000E+00 0.  1.
     999900   -1    0    0    0    0 -0.00000000000E+00 -0.00000000000E+00 -0.74505805969E-08  0.93827000000E+00  0.93827000000E+00 0.  1.
     999902    2    1    2    0    0 -0.12544474367E-01  0.68587349575E-02  0.18532236574E-01  0.10205238069E+01  0.10202553556E+01 0.  0.
     999903    2    3    3    0    0 -0.11403250128E+00 -0.43870621855E-01 -0.42961496859E-01  0.13111121059E+00  0.20406286255E-01 0.  0.
         14    1    1    2    0    0  0.12544474367E-01 -0.68587349575E-02 -0.18532236574E-01  0.23406193086E-01  0.00000000000E+00 0. -1.
     999901    1    3    3    0    0  0.10148802692E+00  0.50729356813E-01  0.61493733432E-01  0.88941259633E+00  0.88000000000E+00 0.  1.
        -11    1    4    4    0    0 -0.16457923682E-01 -0.29230795016E-02  0.45957152563E-03  0.16729613644E-01  0.51100000000E-03 0. -1.
         11    1    4    4    0    0 -0.97574577602E-01 -0.40947542354E-01 -0.43421068384E-01  0.11438159694E+00  0.51100000000E-03 0.  1.
</event>
<event>
 8    1  0.1126407E+005  0.1043930E+01  0.7957747E-01            NaN
         13   -1    0    0    0    0  0.00000000000E+00  0.00000000000E+00  0.74505805969E-08  0.10566000000E+00  0.10566000000E+00 0. -1.
     999900   -1    0    0    0    0 -0.00000000000E+00 -0.00000000000E+00 -0.74505805969E-08  0.93827000000E+00  0.93827000000E+00 0.  1.
     999902    2    1    2    0    0  0.21478882549E-02 -0.20158194954E-01 -0.12988099997E-01  0.10198539333E+01  0.10195697074E+01 0.  0.
     999903    2    3    3    0    0 -0.31634396453E-01  0.10173741340E+00  0.66680593979E-01  0.12724714252E+00  0.19856921743E-01 0.  0.
         14    1    1    2    0    0 -0.21478882549E-02  0.20158194954E-01  0.12988099997E-01  0.24076066732E-01  0.00000000000E+00 0. -1.
     999901    1    3    3    0    0  0.33782284708E-01 -0.12189560835E+00 -0.79668693976E-01  0.89260679075E+00  0.88000000000E+00 0. -1.
        -11    1    4    4    0    0 -0.12621250479E-02  0.44613803862E-02  0.90256958400E-02  0.10159782526E-01  0.51100000000E-03 0.  1.
         11    1    4    4    0    0 -0.30372271405E-01  0.97276033013E-01  0.57654898139E-01  0.11708735999E+00  0.51100000000E-03 0. -1.
</event>
<event>
 8    1  0.1126407E+005  0.1043930E+01  0.7957747E-01            NaN
         13   -1    0    0    0    0  0.00000000000E+00  0.00000000000E+00  0.74505805969E-08  0.10566000000E+00  0.10566000000E+00 0.  1.
     999900   -1    0    0    0    0 -0.00000000000E+00 -0.00000000000E+00 -0.74505805969E-08  0.93827000000E+00  0.93827000000E+00 0. -1.
     999902    2    1    2    0    0 -0.17747736462E-01  0.13350433637E-01  0.79457008162E-02  0.10203429190E+01  0.10200702535E+01 0.  0.
     999903    2    3    3    0    0 -0.11595602133E+00  0.57520368834E-01  0.25786300582E-01  0.13359936117E+00  0.20723520269E-01 0.  0.
         14    1    1    2    0    0  0.17747736462E-01 -0.13350433637E-01 -0.79457008162E-02  0.23587080983E-01  0.00000000000E+00 0.  1.
     999901    1    3    3    0    0  0.98208284868E-01 -0.44169935197E-01 -0.17840599766E-01  0.88674355785E+00  0.88000000000E+00 0. -1.
        -11    1    4    4    0    0 -0.72118343443E-01  0.42366089708E-01  0.84076546501E-02  0.84064801171E-01  0.51100000000E-03 0.  1.
         11    1    4    4    0    0 -0.43837677887E-01  0.15154279125E-01  0.17378645932E-01  0.49534559994E-01  0.51100000000E-03 0. -1.
</event>
<event>
 8    1  0.1126407E+005  0.1043930E+01  0.7957747E-01            NaN
         13   -1    0    0    0    0  0.00000000000E+00  0.00000000000E+00  0.74505805969E-08  0.10566000000E+00  0.10566000000E+00 0.  1.
     999900   -1    0    0    0    0 -0.00000000000E+00 -0.00000000000E+00 -0.74505805969E-08  0.93827000000E+00  0.93827000000E+00 0. -1.
     999902    2    1    2    0    0 -0.68647003994E-02 -0.30136255185E-01  0.21771460702E-02  0.10129451980E+01  0.10124711928E+01 0.  0.
     999903    2    3    3    0    0 -0.27170220895E-01 -0.73477385224E-01 -0.96697122798E-01  0.12611551384E+00  0.20436296896E-01 0.  0.
         14    1    1    2    0    0  0.68647003994E-02  0.30136255185E-01 -0.21771460702E-02  0.30984801971E-01  0.00000000000E+00 0. -1.
     999901    1    3    3    0    0  0.20305520496E-01  0.43341130039E-01  0.98874268868E-01  0.88682968419E+00  0.88000000000E+00 0.  1.
        -11    1    4    4    0    0 -0.17965348596E-01 -0.51145157824E-01 -0.51027545892E-01  0.74448992470E-01  0.51100000000E-03 0. -1.
         11    1    4    4    0    0 -0.92048722990E-02 -0.22332227400E-01 -0.45669576905E-01  0.51666521369E-01  0.51100000000E-03 0.  1.
</event>
<event>
 8    1  0.1126407E+005  0.1043930E+01  0.7957747E-01            NaN
         13   -1    0    0    0    0  0.00000000000E+00  0.00000000000E+00  0.74505805969E-08  0.10566000000E+00  0.10566000000E+00 0. -1.
     999900   -1    0    0    0    0 -0.00000000000E+00 -0.00000000000E+00 -0.74505805969E-08  0.93827000000E+00  0.93827000000E+00 0. -1.
     999902    2    1    2    0    0 -0.17867630270E-01  0.10448741162E-01  0.10935895455E-01  0.10205201257E+01  0.10202515890E+01 0.  0.
     999903    2    3    3    0    0 -0.13310243631E-01  0.72557026992E-01 -0.10537314143E+00  0.13068530905E+00  0.23096889709E-01 0.  0.
         14    1    1    2    0    0  0.17867630270E-01 -0.10448741162E-01 -0.10935895455E-01  0.23409874257E-01  0.00000000000E+00 0.  1.
     999901    1    3    3    0    0 -0.45573866392E-02 -0.62108285830E-01  0.11630903689E+00  0.88983481670E+00  0.88000000000E+00 0.  1.
        -11    1    4    4    0    0 -0.16674784099E-01  0.29868416700E-01 -0.41479423980E-01  0.53767782878E-01  0.51100000000E-03 0.  1.
         11    1    4    4    0    0  0.33645404680E-02  0.42688610292E-01 -0.63893717452E-01  0.76917526170E-01  0.51100000000E-03 0. -1.
</event>
<event>
 8    1  0.1126407E+005  0.1043930E+01  0.7957747E-01            NaN
         13   -1    0    0    0    0  0.00000000000E+00  0.00000000000E+00  0.74505805969E-08  0.10566000000E+00  0.10566000000E+00 0. -1.
     999900   -1    0    0    0    0 -0.00000000000E+00 -0.00000000000E+00 -0.74505805969E-08  0.93827000000E+00  0.93827000000E+00 0.  1.
     999902    2    1    2    0    0  0.10588340957E-01 -0.10875654217E-01 -0.10856869571E-01  0.10252681556E+01  0.10250983009E+01 0.  0.
     999903    2    3    3    0    0  0.14584646175E-01  0.68020746853E-01 -0.11464874852E+00  0.13565398830E+00  0.20448351942E-01 0.  0.
         14    1    1    2    0    0 -0.10588340957E-01  0.10875654217E-01  0.10856869571E-01  0.18661844382E-01  0.00000000000E+00 0. -1.
     999901    1    3    3    0    0 -0.39963052180E-02 -0.78896401070E-01  0.10379187895E+00  0.88961416732E+00  0.88000000000E+00 0. -1.
        -11    1    4    4    0    0  0.63925074301E-02  0.52945073879E-01 -0.98877242165E-01  0.11234329147E+00  0.51100000000E-03 0.  1.
         11    1    4    4    0    0  0.81921387449E-02  0.15075672974E-01 -0.15771506358E-01  0.23310696829E-01  0.51100000000E-03 0. -1.
</event>
<event>
 7    1  0.1126407E+005  0.1043930E+01  0.7957747E-01            NaN
         13   -1    0    0    0    0  0.00000000000E+00  0.00000000000E+00  0.74505805969E-08  0.10566000000E+00  0.10566000000E+00 0.  1.
     999900   -1    0    0    0    0 -0.00000000000E+00 -0.00000000000E+00 -0.74505805969E-08  0.93827000000E+00  0.93827000000E+00 0. -1.
     999903    2    1    2    0    0 -0.95887142173E-01 -0.36142709667E-01 -0.42668271868E-01  0.11285698702E+00  0.20383292148E-01 0.  0.
         14    1    1    2    0    0 -0.65422441185E-03 -0.41389720306E-01  0.34817701036E-02  0.41541060165E-01  0.00000000000E+00 0.  1.
     999901    1    1    2    0    0  0.96541366584E-01  0.77532429973E-01  0.39186501765E-01  0.88953195282E+00  0.88000000000E+00 0. -1.
        -11    1    3    3    0    0 -0.53107711798E-01 -0.25338177171E-01 -0.33758891397E-01  0.67840814737E-01  0.51100000000E-03 0.  1.
         11    1    3    3    0    0 -0.42779430374E-01 -0.10804532496E-01 -0.89093804713E-02  0.45016172283E-01  0.51100000000E-03 0. -1.
</event>
<event>
 8    1  0.1126407E+005  0.1043930E+01  0.7957747E-01            NaN
         13   -1    0    0    0    0  0.00000000000E+00  0.00000000000E+00  0.74505805969E-08  0.10566000000E+00  0.10566000000E+00 0. -1.
     999900   -1    0    0    0    0 -0.00000000000E+00 -0.00000000000E+00 -0.74505805969E-08  0.93827000000E+00  0.93827000000E+00 0. -1.
     999902    2    1    2    0    0  0.18362934840E-01  0.81217444898E-02 -0.86344160203E-02  0.10220733477E+01  0.10218396229E+01 0.  0.
     999903    2    3    3    0    0 -0.51175872686E-01 -0.98178997397E-01  0.63621950848E-01  0.13002151287E+00  0.24489910268E-01 0.  0.
         14    1    1    2    0    0 -0.18362934840E-01 -0.81217444898E-02  0.86344160203E-02  0.21856652294E-01  0.00000000000E+00 0.  1.
     999901    1    3    3    0    0  0.69538807525E-01  0.10630074189E+00 -0.72256366868E-01  0.89205183483E+00  0.88000000000E+00 0. -1.
        -11    1    4    4    0    0 -0.24561657766E-01 -0.25534115143E-01  0.13950684922E-01  0.38080819308E-01  0.51100000000E-03 0.  1.
         11    1    4    4    0    0 -0.26614214919E-01 -0.72644882254E-01  0.49671265926E-01  0.91940693565E-01  0.51100000000E-03 0. -1.
</event>
<event>
 8    1  0.1126407E+005  0.1043930E+01  0.7957747E-01            NaN
         13   -1    0    0    0    0  0.00000000000E+00  0.00000000000E+00  0.74505805969E-08  0.10566000000E+00  0.10566000000E+00 0.  1.
     999900   -1    0    0    0    0 -0.00000000000E+00 -0.00000000000E+00 -0.74505805969E-08  0.93827000000E+00  0.93827000000E+00 0.  1.
     999902    2    1    2    0    0  0.34425789200E-02  0.10002321611E-01  0.21898701750E-01  0.10196102359E+01  0.10193201569E+01 0.  0.
     999903    2    3    3    0    0  0.64395173543E-02  0.92131075361E-01  0.93390123671E-01  0.13289430775E+00  0.20238068163E-01 0.  0.
         14    1    1    2    0    0 -0.34425789200E-02 -0.10002321611E-01 -0.21898701750E-01  0.24319764093E-01  0.00000000000E+00 0. -1.
     999901    1    3    3    0    0 -0.29969384343E-02 -0.82128753751E-01 -0.71491421921E-01  0.88671592815E+00  0.88000000000E+00 0.  1.
        -11    1    4    4    0    0 -0.72692454386E-02  0.37892780113E-01  0.39241623373E-01  0.55035178203E-01  0.51100000000E-03 0. -1.
         11    1    4    4    0    0  0.13708762793E-01  0.54238295249E-01  0.54148500298E-01  0.77859129550E-01  0.51100000000E-03 0.  1.
</event>
<event>
 8    1  0.1126407E+005  0.1043930E+01  0.7957747E-01            NaN
         13   -1    0    0    0    0  0.00000000000E+00  0.00000000000E+00  0.74505805969E-08  0.10566000000E+00  0.10566000000E+00 0.  1.
     999900   -1    0    0    0    0 -0.00000000000E+00 -0.00000000000E+00 -0.74505805969E-08  0.93827000000E+00  0.93827000000E+00 0.  1.
     999902    2    1    2    0    0  0.17652953543E-02  0.10856878438E-01  0.20365319424E-01  0.10207840649E+01  0.10205216180E+01 0.  0.
     999903    2    3    3    0    0 -0.54031981720E-01 -0.79921181687E-01  0.86695887613E-01  0.13187814376E+00  0.23849896075E-01 0.  0.
         14    1    1    2    0    0 -0.17652953543E-02 -0.10856878438E-01 -0.20365319424E-01  0.23145935115E-01  0.00000000000E+00 0. -1.
     999901    1    3    3    0    0  0.55797277074E-01  0.90778060124E-01 -0.66330568188E-01  0.88890592112E+00  0.88000000000E+00 0.  1.
        -11    1    4    4    0    0 -0.15431941212E-01 -0.30229134680E-01  0.45104792558E-01  0.56450410324E-01  0.51100000000E-03 0.  1.
         11    1    4    4    0    0 -0.38600040508E-01 -0.49692047007E-01  0.41591095055E-01  0.75427733439E-01  0.51100000000E-03 0. -1.
</event>
<event>
 8    1  0.1126407E+005  0.1043930E+01  0.7957747E-01            NaN
         13   -1    0    0    0    0  0.00000000000E+00  0.00000000000E+00  0.74505805969E-08  0.10566000000E+00  0.10566000000E+00 0. -1.
     999900   -1    0    0    0    0 -0.00000000000E+00 -0.00000000000E+00 -0.74505805969E-08  0.93827000000E+00  0.93827000000E+00 0.  1.
     999902    2    1    2    0    0  0.74747793835E-02 -0.77212020834E-02  0.22376891099E-01  0.10191063310E+01  0.10188039553E+01 0.  0.
     999903    2    3    3    0    0  0.22423010655E-01 -0.10861829035E+00  0.67748552043E-01  0.13205376227E+00  0.23400970498E-01 0.  0.
         14    1    1    2    0    0 -0.74747793835E-02  0.77212020834E-02 -0.22376891099E-01  0.24823669022E-01  0.00000000000E+00 0.  1.
     999901    1    3    3    0    0 -0.14948231272E-01  0.10089708826E+00 -0.45371660944E-01  0.88705256871E+00  0.88000000000E+00 0.  1.
        -11    1    4    4    0    0  0.20447405771E-01 -0.42158429471E-01  0.27721406574E-01  0.54444164808E-01  0.51100000000E-03 0. -1.
         11    1    4    4    0    0  0.19756048839E-02 -0.66459860878E-01  0.40027145469E-01  0.77609597460E-01  0.51100000000E-03 0.  1.
</event>
<event>
 8    1  0.1126407E+005  0.1043930E+01  0.7957747E-01            NaN
         13   -1    0    0    0    0  0.00000000000E+00  0.00000000000E+00  0.74505805969E-08  0.10566000000E+00  0.10566000000E+00 0.  1.
     999900   -1    0    0    0    0 -0.00000000000E+00 -0.00000000000E+00 -0.74505805969E-08  0.93827000000E+00  0.93827000000E+00 0.  1.
     999902    2    1    2    0    0 -0.50566265496E-02 -0.18725144801E-01  0.13177069275E-01  0.10204814249E+01  0.10202119892E+01 0.  0.
     999903    2    3    3    0    0  0.38104424403E-01 -0.92215885151E-01 -0.82910864653E-01  0.13115771764E+00  0.19298154978E-01 0.  0.
         14    1    1    2    0    0  0.50566265496E-02  0.18725144801E-01 -0.13177069275E-01  0.23448575107E-01  0.00000000000E+00 0. -1.
     999901    1    3    3    0    0 -0.43161050952E-01  0.73490740350E-01  0.96087933928E-01  0.88932370725E+00  0.88000000000E+00 0.  1.
        -11    1    4    4    0    0  0.27173610895E-01 -0.42922339612E-01 -0.36297617992E-01  0.62438053779E-01  0.51100000000E-03 0. -1.
         11    1    4    4    0    0  0.10930813508E-01 -0.49293545539E-01 -0.46613246661E-01  0.68719663860E-01  0.51100000000E-03 0.  1.
</event>
<event>
 8    1  0.1126407E+005  0.1043930E+01  0.7957747E-01            NaN
         13   -1    0    0    0    0  0.00000000000E+00  0.00000000000E+00  0.74505805969E-08  0.10566000000E+00  0.10566000000E+00 0.  1.
     999900   -1    0    0    0    0 -0.00000000000E+00 -0.00000000000E+00 -0.74505805969E-08  0.93827000000E+00  0.93827000000E+00 0. -1.
     999902    2    1    2    0    0 -0.10194531844E-01  0.21641291996E-01 -0.56227531274E-02  0.10193558398E+01  0.10190595855E+01 0.  0.
     999903    2    3    3    0    0  0.88323225228E-01 -0.71974458456E-01 -0.54985498976E-01  0.12755634555E+00  0.16306483628E-01 0.  0.
         14    1    1    2    0    0  0.10194531844E-01 -0.21641291996E-01  0.56227531274E-02  0.24574160240E-01  0.00000000000E+00 0.  1.
     999901    1    3    3    0    0 -0.98517757072E-01  0.93615750452E-01  0.49362745849E-01  0.89179949421E+00  0.88000000000E+00 0. -1.
        -11    1    4    4    0    0  0.74423480113E-01 -0.58241978300E-01 -0.51743378592E-01  0.10774330967E+00  0.51100000000E-03 0. -1.
         11    1    4    4    0    0  0.13899745115E-01 -0.13732480156E-01 -0.32421203844E-02  0.19813035887E-01  0.51100000000E-03 0.  1.
</event>
<event>
 8    1  0.1126407E+005  0.1043930E+01  0.7957747E-01            NaN
         13   -1    0    0    0    0  0.00000000000E+00  0.00000000000E+00  0.74505805969E-08  0.10566000000E+00  0.10566000000E+00 0.  1.
     999900   -1    0    0    0    0 -0.00000000000E+00 -0.00000000000E+00 -0.74505805969E-08  0.93827000000E+00  0.93827000000E+00 0.  1.
     999902    2    1    2    0    0  0.15906086472E-02 -0.34551961118E-02  0.23785864490E-01  0.10198419165E+01  0.10195574035E+01 0.  0.
     999903    2    3    3    0    0 -0.11368607448E+00  0.57063394146E-01  0.18780279212E-01  0.13024859971E+00  0.20766423779E-01 0.  0.
         14    1    1    2    0    0 -0.15906086472E-02  0.34551961118E-02 -0.23785864490E-01  0.24088083477E-01  0.00000000000E+00 0. -1.
     999901    1    3    3    0    0  0.11527668313E+00 -0.60518590258E-01  0.50055852780E-02  0.88959331682E+00  0.88000000000E+00 0.  1.
        -11    1    4    4    0    0 -0.47789140523E-01  0.28833075426E-01  0.17679910836E-01  0.58549026965E-01  0.51100000000E-03 0. -1.
         11    1    4    4    0    0 -0.65896933956E-01  0.28230318720E-01  0.11003683764E-02  0.71699572742E-01  0.51100000000E-03 0.  1.
</event>
<event>
 8    1  0.1126407E+005  0.1043930E+01  0.7957747E-01            NaN
         13   -1    0    0    0    0  0.00000000000E+00  0.00000000000E+00  0.74505805969E-08  0.10566000000E+00  0.10566000000E+00 0. -1.
     999900   -1    0    0    0    0 -0.00000000000E+00 -0.00000000000E+00 -0.74505805969E-08  0.93827000000E+00  0.93827000000E+00 0. -1.
     999902    2    1    2    0    0 -0.91622643980E-02 -0.19747394141E-01  0.13347942229E-01  0.10183942559E+01  0.10180740574E+01 0.  0.
     999903    2    3    3    0    0  0.64145855030E-01  0.10740599260E+00 -0.17745889603E-02  0.12611024559E+00  0.15808444305E-01 0.  0.
         14    1    1    2    0    0  0.91622643980E-02  0.19747394141E-01 -0.13347942229E-01  0.25535744086E-01  0.00000000000E+00 0.  1.
     999901    1    3    3    0    0 -0.73308119428E-01 -0.12715338675E+00  0.15122531190E-01  0.89228401033E+00  0.88000000000E+00 0.  1.
        -11    1    4    4    0    0  0.55727186901E-02  0.20655880356E-01 -0.12098505597E-02  0.21434678590E-01  0.51100000000E-03 0.  1.
         11    1    4    4    0    0  0.58573136340E-01  0.86750112248E-01 -0.56473840057E-03  0.10467556700E+00  0.51100000000E-03 0. -1.
</event>
<event>
 8    1  0.1126407E+005  0.1043930E+01  0.7957747E-01            NaN
         13   -1    0    0    0    0  0.00000000000E+00  0.00000000000E+00  0.74505805969E-08  0.10566000000E+00  0.10566000000E+00 0.  1.
     999900   -1    0    0    0    0 -0.00000000000E+00 -0.00000000000E+00 -0.74505805969E-08  0.93827000000E+00  0.93827000000E+00 0. -1.
     999902    2    1    2    0    0  0.18913679284E-01 -0.14721851456E-01 -0.53216510834E-02  0.10193784187E+01  0.10190827152E+01 0.  0.
     999903    2    3    3    0    0 -0.11287753519E+00 -0.43275007052E-01 -0.38998218215E-01  0.12846971513E+00  0.19223488171E-01 0.  0.
         14    1    1    2    0    0 -0.18913679284E-01  0.14721851456E-01  0.53216510834E-02  0.24551581306E-01  0.00000000000E+00 0.  1.
     999901    1    3    3    0    0  0.13179121447E+00  0.28553155596E-01  0.33676567132E-01  0.89090870356E+00  0.88000000000E+00 0.  1.
        -11    1    4    4    0    0 -0.23367841997E-01 -0.12815303976E-01 -0.13250787773E-02  0.26689042889E-01  0.51100000000E-03 0.  1.
         11    1    4    4    0    0 -0.89509693190E-01 -0.30459703075E-01 -0.37673139438E-01  0.10178067224E+00  0.51100000000E-03 0. -1.
</event>
<event>
 8    1  0.1126407E+005  0.1043930E+01  0.7957747E-01            NaN
         13   -1    0    0    0    0  0.00000000000E+00  0.00000000000E+00  0.74505805969E-08  0.10566000000E+00  0.10566000000E+00 0.  1.
     999900   -1    0    0    0    0 -0.00000000000E+00 -0.00000000000E+00 -0.74505805969E-08  0.93827000000E+00  0.93827000000E+00 0.  1.
     999902    2    1    2    0    0 -0.96176559794E-02  0.33800297564E-02  0.12262491334E-01  0.10279834455E+01  0.10278597529E+01 0.  0.
     999903    2    3    3    0    0 -0.11745816577E+00  0.67982722471E-01 -0.19351147957E-01  0.13848779869E+00  0.19655335071E-01 0.  0.
         14    1    1    2    0    0  0.96176559794E-02 -0.33800297564E-02 -0.12262491334E-01  0.15946554531E-01  0.00000000000E+00 0. -1.
     999901    1    3    3    0    0  0.10784050979E+00 -0.64602692714E-01  0.31613639291E-01  0.88949564678E+00  0.88000000000E+00 0. -1.
        -11    1    4    4    0    0 -0.40641179298E-01  0.29954345950E-01  0.54473329725E-03  0.50492832673E-01  0.51100000000E-03 0. -1.
         11    1    4    4    0    0 -0.76816986473E-01  0.38028376520E-01 -0.19895881255E-01  0.87994966012E-01  0.51100000000E-03 0.  1.
</event>
<event>
 8    1  0.1126407E+005  0.1043930E+01  0.7957747E-01            NaN
         13   -1    0    0    0    0  0.00000000000E+00  0.00000000000E+00  0.74505805969E-08  0.10566000000E+00  0.10566000000E+00 0. -1.
     999900   -1    0    0    0    0 -0.00000000000E+00 -0.00000000000E+00 -0.74505805969E-08  0.93827000000E+00  0.93827000000E+00 0. -1.
     999902    2    1    2    0    0 -0.18576256766E-01  0.19415003830E-02 -0.10997770362E-01  0.10222551830E+01  0.10220253722E+01 0.  0.
     999903    2    3    3    0    0  0.51804212809E-01 -0.12155305166E-01  0.11727087459E+00  0.13006407359E+00  0.18242184750E-01 0.  0.
         14    1    1    2    0    0  0.18576256766E-01 -0.19415003830E-02  0.10997770362E-01  0.21674817003E-01  0.00000000000E+00 0. -1.
     999901    1    3    3    0    0 -0.70380469575E-01  0.14096805549E-01 -0.12826864495E+00  0.89219110941E+00  0.88000000000E+00 0. -1.
        -11    1    4    4    0    0  0.42332911225E-01 -0.11639705272E-01  0.10884252284E+00  0.11736487554E+00  0.51100000000E-03 0.  1.
         11    1    4    4    0    0  0.94713015849E-02 -0.51559989435E-03  0.84283517460E-02  0.12699198050E-01  0.51100000000E-03 0. -1.
</event>
<event>
 7    1  0.1126407E+005  0.1043930E+01  0.7957747E-01            NaN
         13   -1    0    0    0    0  0.00000000000E+00  0.00000000000E+00  0.74505805969E-08  0.10566000000E+00  0.10566000000E+00 0.  1.
     999900   -1    0    0    0    0 -0.00000000000E+00 -0.00000000000E+00 -0.74505805969E-08  0.93827000000E+00  0.93827000000E+00 0. -1.
     999903    2    1    2    0    0  0.10780725164E+00 -0.70621802193E-02  0.13571390242E-02  0.10989039359E+00  0.20044422720E-01 0.  0.
         14    1    1    2    0    0  0.20953105795E-01  0.37415641362E-01  0.10188154966E-01  0.44076766698E-01  0.00000000000E+00 0. -1.
     999901    1    1    2    0    0 -0.12876035743E+00 -0.30353461143E-01 -0.11545293990E-01  0.88996283971E+00  0.88000000000E+00 0. -1.
        -11    1    3    3    0    0  0.77824296965E-01  0.85713516520E-03  0.77746042351E-02  0.78218038014E-01  0.51100000000E-03 0. -1.
         11    1    3    3    0    0  0.29982954674E-01 -0.79193153845E-02 -0.64174652109E-02  0.31672355579E-01  0.51100000000E-03 0.  1.
</event>
<event>
 8    1  0.1126407E+005  0.1043930E+01  0.7957747E-01            NaN
         13   -1    0    0    0    0  0.00000000000E+00  0.00000000000E+00  0.74505805969E-08  0.10566000000E+00  0.10566000000E+00 0. -1.
     999900   -1    0    0    0    0 -0.00000000000E+00 -0.00000000000E+00 -0.74505805969E-08  0.93827000000E+00  0.93827000000E+00 0.  1.
     999902    2    1    2    0    0  0.69418076183E-02 -0.22440103448E-01  0.26300807547E-02  0.10202939204E+01  0.10200201075E+01 0.  0.
     999903    2    3    3    0    0 -0.11448043295E+00  0.26342755079E-01 -0.50660380998E-01  0.12902347818E+00  0.16759279423E-01 0.  0.
         14    1    1    2    0    0 -0.69418076183E-02  0.22440103448E-01 -0.26300807547E-02  0.23636079636E-01  0.00000000000E+00 0. -1.
     999901    1    3    3    0    0  0.12142224057E+00 -0.48782858527E-01  0.53290461753E-01  0.89127044218E+00  0.88000000000E+00 0. -1.
        -11    1    4    4    0    0 -0.84023891831E-01  0.11629420515E-01 -0.35579915736E-01  0.91986136699E-01  0.51100000000E-03 0.  1.
         11    1    4    4    0    0 -0.30456541116E-01  0.14713334564E-01 -0.15080465262E-01  0.37037341485E-01  0.51100000000E-03 0. -1.
</event>
<event>
 8    1  0.1126407E+005  0.1043930E+01  0.7957747E-01            NaN
         13   -1    0    0    0    0  0.00000000000E+00  0.00000000000E+00  0.74505805969E-08  0.10566000000E+00  0.10566000000E+00 0.  1.
     999900   -1    0    0    0    0 -0.00000000000E+00 -0.00000000000E+00 -0.74505805969E-08  0.93827000000E+00  0.93827000000E+00 0. -1.
     999902    2    1    2    0    0 -0.19413485129E-01  0.12153687003E-01 -0.70075448746E-02  0.10199779396E+01  0.10196966687E+01 0.  0.
     999903    2    3    3    0    0 -0.28456440774E-01 -0.55778521941E-01  0.11144331909E+00  0.12940106631E+00  0.20100001491E-01 0.  0.
         14    1    1    2    0    0  0.19413485129E-01 -0.12153687003E-01  0.70075448746E-02  0.23952060408E-01  0.00000000000E+00 0.  1.
     999901    1    3    3    0    0  0.90429556455E-02  0.67932208944E-01 -0.11845086396E+00  0.89057687329E+00  0.88000000000E+00 0. -1.
        -11    1    4    4    0    0 -0.13172395180E-01 -0.29232767493E-01  0.37371326502E-01  0.49243718945E-01  0.51100000000E-03 0.  1.
         11    1    4    4    0    0 -0.15284045594E-01 -0.26545754449E-01  0.74071992588E-01  0.80157347360E-01  0.51100000000E-03 0. -1.
</event>
<event>
 8    1  0.1126407E+005  0.1043930E+01  0.7957747E-01            NaN
         13   -1    0    0    0    0  0.00000000000E+00  0.00000000000E+00  0.74505805969E-08  0.10566000000E+00  0.10566000000E+00 0. -1.
     999900   -1    0    0    0    0 -0.00000000000E+00 -0.00000000000E+00 -0.74505805969E-08  0.93827000000E+00  0.93827000000E+00 0. -1.
     999902    2    1    2    0    0 -0.20939534052E-01  0.56747846320E-02  0.11967629516E-01  0.10191531676E+01  0.10188519459E+01 0.  0.
     999903    2    3    3    0    0  0.18520609525E-01 -0.11037899019E+00  0.61633520404E-01  0.12926987060E+00  0.19633495718E-01 0.  0.
         14    1    1    2    0    0  0.20939534052E-01 -0.56747846320E-02 -0.11967629516E-01  0.24776832388E-01  0.00000000000E+00 0.  1.
     999901    1    3    3    0    0 -0.39460143577E-01  0.11605377483E+00 -0.49665890888E-01  0.88988329701E+00  0.88000000000E+00 0.  1.
        -11    1    4    4    0    0  0.69566832874E-02 -0.48554753614E-01  0.38105853589E-01  0.62115028291E-01  0.51100000000E-03 0.  1.
         11    1    4    4    0    0  0.11563926238E-01 -0.61824236581E-01  0.23527666815E-01  0.67154842310E-01  0.51100000000E-03 0. -1.
</event>
<event>
 8    1  0.1126407E+005  0.1043930E+01  0.7957747E-01            NaN
         13   -1    0    0    0    0  0.00000000000E+00  0.00000000000E+00  0.74505805969E-08  0.10566000000E+00  0.10566000000E+00 0. -1.
     999900   -1    0    0    0    0 -0.00000000000E+00 -0.00000000000E+00 -0.74505805969E-08  0.93827000000E+00  0.93827000000E+00 0.  1.
     999902    2    1    2    0    0 -0.75073040610E-02  0.16717744310E-01  0.14676559569E-01  0.10204514142E+01  0.10201812804E+01 0.  0.
     999903    2    3    3    0    0 -0.19886056709E-01 -0.13502213452E-01 -0.12497376051E+00  0.12884124646E+00  0.20096292038E-01 0.  0.
         14    1    1    2    0    0  0.75073040610E-02 -0.16717744310E-01 -0.14676559569E-01  0.23478585772E-01  0.00000000000E+00 0.  1.
     999901    1    3    3    0    0  0.12378752648E-01  0.30219957762E-01  0.13965032008E+00  0.89161016777E+00  0.88000000000E+00 0. -1.
        -11    1    4    4    0    0  0.21394316215E-03  0.43274493392E-02 -0.14241762238E-01  0.14895016015E-01  0.51100000000E-03 0.  1.
         11    1    4    4    0    0 -0.20099999871E-01 -0.17829662791E-01 -0.11073199827E+00  0.11394623045E+00  0.51100000000E-03 0. -1.
</event>
<event>
 8    1  0.1126407E+005  0.1043930E+01  0.7957747E-01            NaN
         13   -1    0    0    0    0  0.00000000000E+00  0.00000000000E+00  0.74505805969E-08  0.10566000000E+00  0.10566000000E+00 0. -1.
     999900   -1    0    0    0    0 -0.00000000000E+00 -0.00000000000E+00 -0.74505805969E-08  0.93827000000E+00  0.93827000000E+00 0. -1.
     999902    2    1    2    0    0  0.14558788206E-01 -0.17898884093E-01 -0.65536375308E-02  0.10199450353E+01  0.10196629818E+01 0.  0.
     999903    2    3    3    0    0  0.87062791465E-01  0.34279775327E-01  0.88660150897E-01  0.13031302797E+00  0.19126689436E-01 0.  0.
         14    1    1    2    0    0 -0.14558788206E-01  0.17898884093E-01  0.65536375308E-02  0.23984964680E-01  0.00000000000E+00 0. -1.
     999901    1    3    3    0    0 -0.72504003259E-01 -0.52178659420E-01 -0.95213788427E-01  0.88963200735E+00  0.88000000000E+00 0. -1.
        -11    1    4    4    0    0  0.23368554032E-01  0.18672030294E-01  0.27092976819E-01  0.40361176232E-01  0.51100000000E-03 0.  1.
         11    1    4    4    0    0  0.63694237432E-01  0.15607745033E-01  0.61567174077E-01  0.89951851743E-01  0.51100000000E-03 0. -1.
</event>
<event>
 8    1  0.1126407E+005  0.1043930E+01  0.7957747E-01            NaN
         13   -1    0    0    0    0  0.00000000000E+00  0.00000000000E+00  0.74505805969E-08  0.10566000000E+00  0.10566000000E+00 0.  1.
     999900   -1    0    0    0    0 -0.00000000000E+00 -0.00000000000E+00 -0.74505805969E-08  0.93827000000E+00  0.93827000000E+00 0. -1.
     999902    2    1    2    0    0 -0.15964713500E-01  0.17381839160E-01  0.25781401601E-02  0.10201887444E+01  0.10199124605E+01 0.  0.
     999903    2    3    3    0    0 -0.37186976813E-01  0.40523101448E-01 -0.11756268229E+00  0.13147072407E+00  0.20942159039E-01 0.  0.
         14    1    1    2    0    0  0.15964713500E-01 -0.17381839160E-01 -0.25781401601E-02  0.23741255578E-01  0.00000000000E+00 0. -1.
     999901    1    3    3    0    0  0.21222263313E-01 -0.23141262287E-01  0.12014082245E+00  0.88871802035E+00  0.88000000000E+00 0.  1.
        -11    1    4    4    0    0 -0.16568759144E-01  0.29196538345E-01 -0.52847070643E-01  0.62610187889E-01  0.51100000000E-03 0.  1.
         11    1    4    4    0    0 -0.20618217669E-01  0.11326563103E-01 -0.64715611645E-01  0.68860536181E-01  0.51100000000E-03 0. -1.
</event>
<event>
 8    1  0.1126407E+005  0.1043930E+01  0.7957747E-01            NaN
         13   -1    0    0    0    0  0.00000000000E+00  0.00000000000E+00  0.74505805969E-08  0.10566000000E+00  0.10566000000E+00 0. -1.
     999900   -1    0    0    0    0 -0.00000000000E+00 -0.00000000000E+00 -0.74505805969E-08  0.93827000000E+00  0.93827000000E+00 0. -1.
     999902    2    1    2    0    0 -0.22438200314E-01  0.76146122658E-02  0.23509150701E-02  0.10201186171E+01  0.10198406792E+01 0.  0.
     999903    2    3    3    0    0  0.12023399301E+00  0.28651193688E-01 -0.26052055700E-01  0.12792770635E+00  0.20240663777E-01 0.  0.
         14    1    1    2    0    0  0.22438200314E-01 -0.76146122658E-02 -0.23509150701E-02  0.23811382886E-01  0.00000000000E+00 0.  1.
     999901    1    3    3    0    0 -0.14267219332E+00 -0.21036581422E-01  0.28402970770E-01  0.89219091077E+00  0.88000000000E+00 0. -1.
        -11    1    4    4    0    0  0.55623468782E-01  0.13005448127E-01 -0.22357815898E-01  0.61345293324E-01  0.51100000000E-03 0. -1.
         11    1    4    4    0    0  0.64610524229E-01  0.15645745561E-01 -0.36942398014E-02  0.66582413023E-01  0.51100000000E-03 0.  1.
</event>
<event>
 8    1  0.1126407E+005  0.1043930E+01  0.7957747E-01            NaN
         13   -1    0    0    0    0  0.00000000000E+00  0.00000000000E+00  0.74505805969E-08  0.10566000000E+00  0.10566000000E+00 0. -1.
     999900   -1    0    0    0    0 -0.00000000000E+00 -0.00000000000E+00 -0.74505805969E-08  0.93827000000E+00  0.93827000000E+00 0.  1.
     999902    2    1    2    0    0 -0.20312293982E-01 -0.24058382427E-02  0.12144377322E-01  0.10201421198E+01  0.10198647368E+01 0.  0.
     999903    2    3    3    0    0 -0.45156779559E-01 -0.84882795952E-01 -0.86057850294E-01  0.13049984644E+00  0.19494423184E-01 0.  0.
         14    1    1    2    0    0  0.20312293982E-01  0.24058382427E-02 -0.12144377322E-01  0.23787880212E-01  0.00000000000E+00 0.  1.
     999901    1    3    3    0    0  0.24844485578E-01  0.82476957709E-01  0.98202227615E-01  0.88964227335E+00  0.88000000000E+00 0. -1.
        -11    1    4    4    0    0 -0.80497185059E-02 -0.33573958300E-01 -0.34892286792E-01  0.49089117353E-01  0.51100000000E-03 0.  1.
         11    1    4    4    0    0 -0.37107061054E-01 -0.51308837652E-01 -0.51165563501E-01  0.81410729088E-01  0.51100000000E-03 0. -1.
</event>
<event>
 8    1  0.1126407E+005  0.1043930E+01  0.7957747E-01            NaN
         13   -1    0    0    0    0  0.00000000000E+00  0.00000000000E+00  0.74505805969E-08  0.10566000000E+00  0.10566000000E+00 0. -1.
     999900   -1    0    0    0    0 -0.00000000000E+00 -0.00000000000E+00 -0.74505805969E-08  0.93827000000E+00  0.93827000000E+00 0. -1.
     999902    2    1    2    0    0 -0.10344603512E-01 -0.21711724076E-01 -0.77620784282E-03  0.10198673259E+01  0.10195834200E+01 0.  0.
     999903    2    3    3    0    0  0.56298067073E-01 -0.83627368742E-01 -0.81425756058E-01  0.13150977280E+00  0.22397710453E-01 0.  0.
         14    1    1    2    0    0  0.10344603512E-01  0.21711724076E-01  0.77620784282E-03  0.24062674058E-01  0.00000000000E+00 0. -1.
     999901    1    3    3    0    0 -0.66642670584E-01  0.61915644666E-01  0.80649548215E-01  0.88835755314E+00  0.88000000000E+00 0.  1.
        -11    1    4    4    0    0  0.20116662978E-01 -0.13134898865E-01 -0.18596645149E-01  0.30385885364E-01  0.51100000000E-03 0. -1.
         11    1    4    4    0    0  0.36181404095E-01 -0.70492469877E-01 -0.62829110909E-01  0.10112388744E+00  0.51100000000E-03 0.  1.
</event>
<event>
 8    1  0.1126407E+005  0.1043930E+01  0.7957747E-01            NaN
         13   -1    0    0    0    0  0.00000000000E+00  0.00000000000E+00  0.74505805969E-08  0.10566000000E+00  0.10566000000E+00 0.  1.
     999900   -1    0    0    0    0 -0.00000000000E+00 -0.00000000000E+00 -0.74505805969E-08  0.93827000000E+00  0.93827000000E+00 0.  1.
     999902    2    1    2    0    0 -0.16636478248E-01 -0.12860444517E-01 -0.11493170430E-01  0.10199663524E+01  0.10196848060E+01 0.  0.
     999903    2    3    3    0    0 -0.39350220854E-01  0.76785191803E-01 -0.96504081637E-01  0.13104615952E+00  0.20387559707E-01 0.  0.
         14    1    1    2    0    0  0.16636478248E-01  0.12860444517E-01  0.11493170430E-01  0.23963647640E-01  0.00000000000E+00 0. -1.
     999901    1    3    3    0    0  0.22713742606E-01 -0.89645636320E-01  0.85010911207E-01  0.88892019284E+00  0.88000000000E+00 0.  1.
        -11    1    4    4    0    0 -0.33827420593E-01  0.73925062616E-01 -0.83067493894E-01  0.11623114440E+00  0.51100000000E-03 0. -1.
         11    1    4    4    0    0 -0.55228002610E-02  0.28601291869E-02 -0.13436587743E-01  0.14815015115E-01  0.51100000000E-03 0.  1.
</event>
<event>
 8    1  0.1126407E+005  0.1043930E+01  0.7957747E-01            NaN
         13   -1    0    0    0    0  0.00000000000E+00  0.00000000000E+00  0.74505805969E-08  0.10566000000E+00  0.10566000000E+00 0.  1.
     999900   -1    0    0    0    0 -0.00000000000E+00 -0.00000000000E+00 -0.74505805969E-08  0.93827000000E+00  0.93827000000E+00 0.  1.
     999902    2    1    2    0    0  0.98562225554E-02 -0.33588813070E-02 -0.21748439894E-01  0.10198173095E+01  0.10195322079E+01 0.  0.
     999903    2    3    3    0    0 -0.10866290739E+00  0.26378694141E-01  0.58633257726E-01  0.12774538139E+00  0.19430918866E-01 0.  0.
         14    1    1    2    0    0 -0.98562225554E-02  0.33588813070E-02  0.21748439894E-01  0.24112690528E-01  0.00000000000E+00 0.  1.
     999901    1    3    3    0    0  0.11851912995E+00 -0.29737575448E-01 -0.80381697620E-01  0.89207192808E+00  0.88000000000E+00 0.  1.
        -11    1    4    4    0    0 -0.25853094067E-01  0.98914020722E-04  0.74571827982E-02  0.26912133938E-01  0.51100000000E-03 0. -1.
         11    1    4    4    0    0 -0.82809813324E-01  0.26279780120E-01  0.51176074928E-01  0.10083324745E+00  0.51100000000E-03 0.  1.
</event>
<event>
 8    1  0.1126407E+005  0.1043930E+01  0.7957747E-01            NaN
         13   -1    0    0    0    0  0.00000000000E+00  0.00000000000E+00  0.74505805969E-08  0.10566000000E+00  0.10566000000E+00 0. -1.
     999900   -1    0    0    0    0 -0.00000000000E+00 -0.00000000000E+00 -0.74505805969E-08  0.93827000000E+00  0.93827000000E+00 0.  1.
     999902    2    1    2    0    0 -0.13145629272E-02  0.19757398814E-01  0.12877158821E-01  0.10203100063E+01  0.10200365703E+01 0.  0.
     999903    2    3    3    0    0 -0.12065803051E+00 -0.20593953513E-01  0.41829068098E-01  0.13086674900E+00  0.19848521557E-01 0.  0.
         14    1    1    2    0    0  0.13145629272E-02 -0.19757398814E-01 -0.12877158821E-01  0.23619993710E-01  0.00000000000E+00 0.  1.
     999901    1    3    3    0    0  0.11934346758E+00  0.40351352327E-01 -0.28951909277E-01  0.88944325729E+00  0.88000000000E+00 0. -1.
        -11    1    4    4    0    0 -0.43603516021E-01 -0.17108750225E-01  0.17056842408E-01  0.49851508880E-01  0.51100000000E-03 0.  1.
         11    1    4    4    0    0 -0.77054514488E-01 -0.34852032881E-02  0.24772225690E-01  0.81015240119E-01  0.51100000000E-03 0. -1.
</event>
<event>
 8    1  0.1126407E+005  0.1043930E+01  0.7957747E-01            NaN
         13   -1    0    0    0    0  0.00000000000E+00  0.00000000000E+00  0.74505805969E-08  0.10566000000E+00  0.10566000000E+00 0.  1.
     999900   -1    0    0    0    0 -0.00000000000E+00 -0.00000000000E+00 -0.74505805969E-08  0.93827000000E+00  0.93827000000E+00 0. -1.
     999902    2    1    2    0    0 -0.61688890275E-02 -0.23556097366E-01  0.52365639457E-03  0.10195739098E+01  0.10192829530E+01 0.  0.
     999903    2    3    3    0    0 -0.65978200716E-01  0.11290055247E-01  0.10975740032E+00  0.13012272004E+00  0.20115840205E-01 0.  0.
         14    1    1    2    0    0  0.61688890275E-02  0.23556097366E-01 -0.52365639457E-03  0.24356090224E-01  0.00000000000E+00 0. -1.
     999901    1    3    3    0    0  0.59809311689E-01 -0.34846152613E-01 -0.10923374393E+00  0.88945118974E+00  0.88000000000E+00 0. -1.
        -11    1    4    4    0    0 -0.78096484756E-02 -0.42359872182E-03  0.28162293474E-01  0.29232617739E-01  0.51100000000E-03 0. -1.
         11    1    4    4    0    0 -0.58168552240E-01  0.11713653969E-01  0.81595106848E-01  0.10089010230E+00  0.51100000000E-03 0.  1.
</event>
<event>
 8    1  0.1126407E+005  0.1043930E+01  0.7957747E-01            NaN
         13   -1    0    0    0    0  0.00000000000E+00  0.00000000000E+00  0.74505805969E-08  0.10566000000E+00  0.10566000000E+00 0.  1.
     999900   -1    0    0    0    0 -0.00000000000E+00 -0.00000000000E+00 -0.74505805969E-08  0.93827000000E+00  0.93827000000E+00 0.  1.
     999902    2    1    2    0    0  0.61925595273E-02  0.96280269775E-02 -0.21250935206E-01  0.10197918778E+01  0.10195061672E+01 0.  0.
     999903    2    3    3    0    0 -0.73836852443E-01  0.19841492524E-01 -0.10521130576E+00  0.13212168820E+00  0.23262760515E-01 0.  0.
         14    1    1    2    0    0 -0.61925595273E-02 -0.96280269775E-02  0.21250935206E-01  0.24138122216E-01  0.00000000000E+00 0.  1.
     999901    1    3    3    0    0  0.80029411970E-01 -0.10213465547E-01  0.83960370558E-01  0.88767018959E+00  0.88000000000E+00 0. -1.
        -11    1    4    4    0    0 -0.37192290354E-01 -0.15423213915E-02 -0.54491240001E-01  0.65993951047E-01  0.51100000000E-03 0.  1.
         11    1    4    4    0    0 -0.36644562090E-01  0.21383813916E-01 -0.50720065764E-01  0.66127737149E-01  0.51100000000E-03 0. -1.
</event>
<event>
 8    1  0.1126407E+005  0.1043930E+01  0.7957747E-01            NaN
         13   -1    0    0    0    0  0.00000000000E+00  0.00000000000E+00  0.74505805969E-08  0.10566000000E+00  0.10566000000E+00 0.  1.
     999900   -1    0    0    0    0 -0.00000000000E+00 -0.00000000000E+00 -0.74505805969E-08  0.93827000000E+00  0.93827000000E+00 0. -1.
     999902    2    1    2    0    0  0.21842523197E-01  0.85202092251E-02  0.51771704568E-02  0.10199197339E+01  0.10196370779E+01 0.  0.
     999903    2    3    3    0    0  0.57650287511E-01  0.85720254168E-02 -0.11552709242E+00  0.13095870114E+00  0.20165243621E-01 0.  0.
         14    1    1    2    0    0 -0.21842523197E-01 -0.85202092251E-02 -0.51771704568E-02  0.24010266112E-01  0.00000000000E+00 0. -1.
     999901    1    3    3    0    0 -0.35807764314E-01 -0.51816191618E-04  0.12070426288E+00  0.88896103275E+00  0.88000000000E+00 0.  1.
        -11    1    4    4    0    0  0.31338910343E-01  0.12126121797E-01 -0.78520284086E-01  0.85409989259E-01  0.51100000000E-03 0. -1.
         11    1    4    4    0    0  0.26311377168E-01 -0.35540963801E-02 -0.37006808337E-01  0.45548711879E-01  0.51100000000E-03 0.  1.
</event>
<event>
 8    1  0.1126407E+005  0.1043930E+01  0.7957747E-01            NaN
         13   -1    0    0    0    0  0.00000000000E+00  0.00000000000E+00  0.74505805969E-08  0.10566000000E+00  0.10566000000E+00 0. -1.
     999900   -1    0    0    0    0 -0.00000000000E+00 -0.00000000000E+00 -0.74505805969E-08  0.93827000000E+00  0.93827000000E+00 0.  1.
     999902    2    1    2    0    0 -0.81263204727E-02  0.23499906844E-01 -0.48678726401E-02  0.10185926977E+01  0.10182775186E+01 0.  0.
     999903    2    3    3    0    0  0.38822206994E-01 -0.31816551586E-01  0.11546280893E+00  0.12744537665E+00  0.19778955281E-01 0.  0.
         14    1    1    2    0    0  0.81263204727E-02 -0.23499906844E-01  0.48678726401E-02  0.25337302346E-01  0.00000000000E+00 0. -1.
     999901    1    3    3    0    0 -0.46948527467E-01  0.55316458430E-01 -0.12033068157E+00  0.89114732100E+00  0.88000000000E+00 0.  1.
        -11    1    4    4    0    0  0.21471515599E-01 -0.25150453342E-01  0.54900416593E-01  0.64092808867E-01  0.51100000000E-03 0.  1.
         11    1    4    4    0    0  0.17350691395E-01 -0.66660982437E-02  0.60562392340E-01  0.63352567783E-01  0.51100000000E-03 0. -1.
</event>
<event>
 8    1  0.1126407E+005  0.1043930E+01  0.7957747E-01            NaN
         13   -1    0    0    0    0  0.00000000000E+00  0.00000000000E+00  0.74505805969E-08  0.10566000000E+00  0.10566000000E+00 0. -1.
     999900   -1    0    0    0    0 -0.00000000000E+00 -0.00000000000E+00 -0.74505805969E-08  0.93827000000E+00  0.93827000000E+00 0. -1.
     999902    2    1    2    0    0  0.12156034468E-01  0.11631083339E-01  0.18630522168E-01  0.10188272585E+01  0.10185179601E+01 0.  0.
     999903    2    3    3    0    0 -0.59160171207E-01 -0.10997349931E+00  0.16493715605E-01  0.12760436740E+00  0.20414100942E-01 0.  0.
         14    1    1    2    0    0 -0.12156034468E-01 -0.11631083339E-01 -0.18630522168E-01  0.25102741481E-01  0.00000000000E+00 0.  1.
     999901    1    3    3    0    0  0.71316205675E-01  0.12160458265E+00  0.21368065624E-02  0.89122289112E+00  0.88000000000E+00 0.  1.
        -11    1    4    4    0    0 -0.44649267647E-01 -0.95933882875E-01  0.95497352908E-02  0.10624653194E+00  0.51100000000E-03 0.  1.
         11    1    4    4    0    0 -0.14510903560E-01 -0.14039616435E-01  0.69439803144E-02  0.21357835456E-01  0.51100000000E-03 0. -1.
</event>
<event>
 8    1  0.1126407E+005  0.1043930E+01  0.7957747E-01            NaN
         13   -1    0    0    0    0  0.00000000000E+00  0.00000000000E+00  0.74505805969E-08  0.10566000000E+00  0.10566000000E+00 0. -1.
     999900   -1    0    0    0    0 -0.00000000000E+00 -0.00000000000E+00 -0.74505805969E-08  0.93827000000E+00  0.93827000000E+00 0.  1.
     999902    2    1    2    0    0 -0.11841150296E-01  0.22780743907E-01 -0.17707105504E-02  0.10181946051E+01  0.10178693155E+01 0.  0.
     999903    2    3    3    0    0  0.66299156301E-01 -0.60289863404E-02  0.10451075507E+00  0.12789597096E+00  0.31669459429E-01 0.  0.
         14    1    1    2    0    0  0.11841150296E-01 -0.22780743907E-01  0.17707105504E-02  0.25735394870E-01  0.00000000000E+00 0.  1.
     999901    1    3    3    0    0 -0.78140306597E-01  0.28809730247E-01 -0.10628146562E+00  0.89029863417E+00  0.88000000000E+00 0.  1.
        -11    1    4    4    0    0  0.51474197248E-01  0.20085528475E-02  0.53953910624E-01  0.74598343544E-01  0.51100000000E-03 0. -1.
         11    1    4    4    0    0  0.14824959053E-01 -0.80375391879E-02  0.50556844443E-01  0.53297627415E-01  0.51100000000E-03 0.  1.
</event>
<event>
 8    1  0.1126407E+005  0.1043930E+01  0.7957747E-01            NaN
         13   -1    0    0    0    0  0.00000000000E+00  0.00000000000E+00  0.74505805969E-08  0.10566000000E+00  0.10566000000E+00 0.  1.
     999900   -1    0    0    0    0 -0.00000000000E+00 -0.00000000000E+00 -0.74505805969E-08  0.93827000000E+00  0.93827000000E+00 0. -1.
     999902    2    1    2    0    0  0.12021003957E-01 -0.65068811939E-02  0.20281739309E-01  0.10194720159E+01  0.10191785899E+01 0.  0.
     999903    2    3    3    0    0  0.64688544167E-01 -0.95386779902E-02 -0.10879931574E+00  0.12849222913E+00  0.19934084284E-01 0.  0.
         14    1    1    2    0    0 -0.12021003957E-01  0.65068811939E-02 -0.20281739309E-01  0.24457984144E-01  0.00000000000E+00 0. -1.
     999901    1    3    3    0    0 -0.52667540211E-01  0.30317967964E-02  0.12908105505E+00  0.89097978673E+00  0.88000000000E+00 0.  1.
        -11    1    4    4    0    0  0.61335493032E-02 -0.46587823886E-02 -0.24851466704E-01  0.26022705446E-01  0.51100000000E-03 0. -1.
         11    1    4    4    0    0  0.58554994864E-01 -0.48798956017E-02 -0.83947849037E-01  0.10246952368E+00  0.51100000000E-03 0.  1.
</event>
<event>
 8    1  0.1186623E+005  0.1043930E+01  0.7957747E-01            NaN
         13   -1    0    0    0    0  0.00000000000E+00  0.00000000000E+00  0.74505805969E-08  0.10566000000E+00  0.10566000000E+00 0. -1.
     999900   -1    0    0    0    0 -0.00000000000E+00 -0.00000000000E+00 -0.74505805969E-08  0.93827000000E+00  0.93827000000E+00 0. -1.
     999902    2    1    2    0    0 -0.10430211168E-01 -0.12320428829E-02 -0.21361137381E-01  0.10201265249E+01  0.10198487738E+01 0.  0.
     999903    2    3    3    0    0 -0.16019428348E-01  0.18678003842E-01 -0.12933302464E+00  0.13328630385E+00  0.20801865727E-01 0.  0.
         14    1    1    2    0    0  0.10430211168E-01  0.12320428829E-02  0.21361137381E-01  0.23803475058E-01  0.00000000000E+00 0. -1.
     999901    1    3    3    0    0  0.55892171802E-02 -0.19910046725E-01  0.10797188726E+00  0.88684022109E+00  0.88000000000E+00 0.  1.
        -11    1    4    4    0    0  0.35248529004E-02  0.76582496666E-02 -0.54821648445E-01  0.55468438189E-01  0.51100000000E-03 0.  1.
         11    1    4    4    0    0 -0.19544281248E-01  0.11019754175E-01 -0.74511376200E-01  0.77817865660E-01  0.51100000000E-03 0. -1.
</event>
<event>
 8    1  0.1126407E+005  0.1043930E+01  0.7957747E-01            NaN
         13   -1    0    0    0    0  0.00000000000E+00  0.00000000000E+00  0.74505805969E-08  0.10566000000E+00  0.10566000000E+00 0. -1.
     999900   -1    0    0    0    0 -0.00000000000E+00 -0.00000000000E+00 -0.74505805969E-08  0.93827000000E+00  0.93827000000E+00 0.  1.
     999902    2    1    2    0    0 -0.38311596276E-03 -0.37095950822E-03 -0.18513405477E-01  0.10254089155E+01  0.10252416366E+01 0.  0.
     999903    2    3    3    0    0 -0.12500300548E+00  0.11573920016E-01  0.42664909936E-01  0.13444562597E+00  0.22262632324E-01 0.  0.
         14    1    1    2    0    0  0.38311596276E-03  0.37095950822E-03  0.18513405477E-01  0.18521084503E-01  0.00000000000E+00 0. -1.
     999901    1    3    3    0    0  0.12461988952E+00 -0.11944879524E-01 -0.61178315413E-01  0.89096328953E+00  0.88000000000E+00 0.  1.
        -11    1    4    4    0    0 -0.70370414267E-01  0.84610662903E-02  0.35445449072E-01  0.79247875856E-01  0.51100000000E-03 0.  1.
         11    1    4    4    0    0 -0.54632591216E-01  0.31128537253E-02  0.72194608645E-02  0.55197750112E-01  0.51100000000E-03 0. -1.
</event>
<event>
 8    1  0.1126407E+005  0.1043930E+01  0.7957747E-01            NaN
         13   -1    0    0    0    0  0.00000000000E+00  0.00000000000E+00  0.74505805969E-08  0.10566000000E+00  0.10566000000E+00 0. -1.
     999900   -1    0    0    0    0 -0.00000000000E+00 -0.00000000000E+00 -0.74505805969E-08  0.93827000000E+00  0.93827000000E+00 0.  1.
     999902    2    1    2    0    0 -0.22845782810E-01 -0.38687319037E-02  0.38493578609E-02  0.10204413978E+01  0.10201710307E+01 0.  0.
     999903    2    3    3    0    0  0.51548198384E-01  0.93484719884E-01 -0.67000672692E-01  0.12913231230E+00  0.28097229943E-01 0.  0.
         14    1    1    2    0    0  0.22845782810E-01  0.38687319037E-02 -0.38493578609E-02  0.23488602230E-01  0.00000000000E+00 0. -1.
     999901    1    3    3    0    0 -0.74393981194E-01 -0.97353451787E-01  0.70850030552E-01  0.89130908547E+00  0.88000000000E+00 0. -1.
        -11    1    4    4    0    0  0.41972701084E-01  0.89517337811E-01 -0.54537644912E-01  0.11291446869E+00  0.51100000000E-03 0.  1.
         11    1    4    4    0    0  0.95754973003E-02  0.39673820725E-02 -0.12463027780E-01  0.16217843614E-01  0.51100000000E-03 0. -1.
</event>
<event>
 8    1  0.1126407E+005  0.1043930E+01  0.7957747E-01            NaN
         13   -1    0    0    0    0  0.00000000000E+00  0.00000000000E+00  0.74505805969E-08  0.10566000000E+00  0.10566000000E+00 0.  1.
     999900   -1    0    0    0    0 -0.00000000000E+00 -0.00000000000E+00 -0.74505805969E-08  0.93827000000E+00  0.93827000000E+00 0. -1.
     999902    2    1    2    0    0  0.84320680314E-02 -0.88828111613E-02  0.21472671590E-01  0.10192099731E+01  0.10189101479E+01 0.  0.
     999903    2    3    3    0    0 -0.12351356843E+00  0.26622006206E-01  0.14910450813E-01  0.12864088212E+00  0.19021624810E-01 0.  0.
         14    1    1    2    0    0 -0.84320680314E-02  0.88828111613E-02 -0.21472671590E-01  0.24720026914E-01  0.00000000000E+00 0. -1.
     999901    1    3    3    0    0  0.13194563646E+00 -0.35504817368E-01  0.65622207765E-02  0.89056909096E+00  0.88000000000E+00 0. -1.
        -11    1    4    4    0    0 -0.24451604035E-01  0.70500536023E-02  0.10596813467E-01  0.27570596155E-01  0.51100000000E-03 0. -1.
         11    1    4    4    0    0 -0.99061964391E-01  0.19571952604E-01  0.43136373462E-02  0.10107028597E+00  0.51100000000E-03 0.  1.
</event>
<event>
 8    1  0.1126407E+005  0.1043930E+01  0.7957747E-01            NaN
         13   -1    0    0    0    0  0.00000000000E+00  0.00000000000E+00  0.74505805969E-08  0.10566000000E+00  0.10566000000E+00 0. -1.
     999900   -1    0    0    0    0 -0.00000000000E+00 -0.00000000000E+00 -0.74505805969E-08  0.93827000000E+00  0.93827000000E+00 0.  1.
     999902    2    1    2    0    0  0.51934071829E-02 -0.64010914197E-02  0.22222761375E-01  0.10202277517E+01  0.10199523856E+01 0.  0.
     999903    2    3    3    0    0  0.27605182602E-01  0.81373015955E-01 -0.92900919959E-01  0.12811786859E+00  0.19999837280E-01 0.  0.
         14    1    1    2    0    0 -0.51934071829E-02  0.64010914197E-02 -0.22222761375E-01  0.23702248262E-01  0.00000000000E+00 0.  1.
     999901    1    3    3    0    0 -0.22411775419E-01 -0.87774107375E-01  0.11512368133E+00  0.89210988315E+00  0.88000000000E+00 0. -1.
        -11    1    4    4    0    0  0.17789296973E-01  0.47595483105E-01 -0.68566360438E-01  0.85342814598E-01  0.51100000000E-03 0. -1.
         11    1    4    4    0    0  0.98158856287E-02  0.33777532850E-01 -0.24334559521E-01  0.42775053994E-01  0.51100000000E-03 0.  1.
</event>
<event>
 8    1  0.1126407E+005  0.1043930E+01  0.7957747E-01            NaN
         13   -1    0    0    0    0  0.00000000000E+00  0.00000000000E+00  0.74505805969E-08  0.10566000000E+00  0.10566000000E+00 0. -1.
     999900   -1    0    0    0    0 -0.00000000000E+00 -0.00000000000E+00 -0.74505805969E-08  0.93827000000E+00  0.93827000000E+00 0.  1.
     999902    2    1    2    0    0  0.24277481528E-02 -0.19445968597E-01 -0.10069585297E-01  0.10218973832E+01  0.10216598385E+01 0.  0.
     999903    2    3    3    0    0  0.15658319600E-01  0.76588055035E-02 -0.13052861867E+00  0.13317915139E+00  0.19877771499E-01 0.  0.
         14    1    1    2    0    0 -0.24277481528E-02  0.19445968597E-01  0.10069585297E-01  0.22032616818E-01  0.00000000000E+00 0. -1.
     999901    1    3    3    0    0 -0.13230571448E-01 -0.27104774101E-01  0.12045903337E+00  0.88871823179E+00  0.88000000000E+00 0. -1.
        -11    1    4    4    0    0  0.14674952518E-01  0.45350957386E-02 -0.44357842402E-01  0.46944654949E-01  0.51100000000E-03 0.  1.
         11    1    4    4    0    0  0.98336708289E-03  0.31237097649E-02 -0.86170776263E-01  0.86234496441E-01  0.51100000000E-03 0. -1.
</event>
<event>
 8    1  0.1126407E+005  0.1043930E+01  0.7957747E-01            NaN
         13   -1    0    0    0    0  0.00000000000E+00  0.00000000000E+00  0.74505805969E-08  0.10566000000E+00  0.10566000000E+00 0.  1.
     999900   -1    0    0    0    0 -0.00000000000E+00 -0.00000000000E+00 -0.74505805969E-08  0.93827000000E+00  0.93827000000E+00 0. -1.
     999902    2    1    2    0    0 -0.19898219117E-01 -0.10846273882E-02 -0.14084152803E-01  0.10195275636E+01  0.10192354851E+01 0.  0.
     999903    2    3    3    0    0 -0.87153809505E-01 -0.19133267079E-01 -0.96651153292E-01  0.13292371895E+00  0.19115470344E-01 0.  0.
         14    1    1    2    0    0  0.19898219117E-01  0.10846273882E-02  0.14084152803E-01  0.24402436370E-01  0.00000000000E+00 0.  1.
     999901    1    3    3    0    0  0.67255590388E-01  0.18048639691E-01  0.82567000489E-01  0.88660384468E+00  0.88000000000E+00 0.  1.
        -11    1    4    4    0    0 -0.65141404330E-01 -0.22590253164E-01 -0.71939675350E-01  0.99645873505E-01  0.51100000000E-03 0. -1.
         11    1    4    4    0    0 -0.22012405175E-01  0.34569860854E-02 -0.24711477942E-01  0.33277845445E-01  0.51100000000E-03 0.  1.
</event>
<event>
 8    1  0.1126407E+005  0.1043930E+01  0.7957747E-01            NaN
         13   -1    0    0    0    0  0.00000000000E+00  0.00000000000E+00  0.74505805969E-08  0.10566000000E+00  0.10566000000E+00 0.  1.
     999900   -1    0    0    0    0 -0.00000000000E+00 -0.00000000000E+00 -0.74505805969E-08  0.93827000000E+00  0.93827000000E+00 0.  1.
     999902    2    1    2    0    0 -0.20203582219E-01  0.76013439902E-02 -0.56023289504E-02  0.10216286266E+01  0.10213851866E+01 0.  0.
     999903    2    3    3    0    0 -0.93047630597E-01  0.82397728417E-01 -0.47321972376E-01  0.13447515447E+00  0.19923626461E-01 0.  0.
         14    1    1    2    0    0  0.20203582219E-01 -0.76013439902E-02  0.56023289504E-02  0.22301373379E-01  0.00000000000E+00 0.  1.
     999901    1    3    3    0    0  0.72844048379E-01 -0.74796384427E-01  0.41719643425E-01  0.88715347215E+00  0.88000000000E+00 0. -1.
        -11    1    4    4    0    0 -0.32645072552E-01  0.21394942703E-01 -0.22742702464E-01  0.45176719353E-01  0.51100000000E-03 0. -1.
         11    1    4    4    0    0 -0.60402558046E-01  0.61002785714E-01 -0.24579269911E-01  0.89298435113E-01  0.51100000000E-03 0.  1.
</event>
<event>
 8    1  0.1126407E+005  0.1043930E+01  0.7957747E-01            NaN
         13   -1    0    0    0    0  0.00000000000E+00  0.00000000000E+00  0.74505805969E-08  0.10566000000E+00  0.10566000000E+00 0. -1.
     999900   -1    0    0    0    0 -0.00000000000E+00 -0.00000000000E+00 -0.74505805969E-08  0.93827000000E+00  0.93827000000E+00 0. -1.
     999902    2    1    2    0    0  0.18546865618E-01  0.55609253640E-02  0.14886722950E-01  0.10195061462E+01  0.10192135485E+01 0.  0.
     999903    2    3    3    0    0 -0.58586689514E-01  0.88635937228E-01  0.72821966643E-01  0.13034500478E+00  0.19951237751E-01 0.  0.
         14    1    1    2    0    0 -0.18546865618E-01 -0.55609253640E-02 -0.14886722950E-01  0.24423853818E-01  0.00000000000E+00 0.  1.
     999901    1    3    3    0    0  0.77133555132E-01 -0.83075011864E-01 -0.57935243693E-01  0.88916114141E+00  0.88000000000E+00 0. -1.
        -11    1    4    4    0    0 -0.32387584817E-01  0.48477882510E-01  0.51789747412E-01  0.77983971436E-01  0.51100000000E-03 0. -1.
         11    1    4    4    0    0 -0.26199104697E-01  0.40158054718E-01  0.21032219231E-01  0.52361033340E-01  0.51100000000E-03 0.  1.
</event>
<event>
 8    1  0.1126407E+005  0.1043930E+01  0.7957747E-01            NaN
         13   -1    0    0    0    0  0.00000000000E+00  0.00000000000E+00  0.74505805969E-08  0.10566000000E+00  0.10566000000E+00 0. -1.
     999900   -1    0    0    0    0 -0.00000000000E+00 -0.00000000000E+00 -0.74505805969E-08  0.93827000000E+00  0.93827000000E+00 0.  1.
     999902    2    1    2    0    0  0.14080522415E-02 -0.15434191259E-01  0.18572452006E-01  0.10197404807E+01  0.10194535375E+01 0.  0.
     999903    2    3    3    0    0  0.16107912509E-01 -0.11405695249E+00 -0.57840878610E-01  0.13081892508E+00  0.22351077491E-01 0.  0.
         14    1    1    2    0    0 -0.14080522415E-02  0.15434191259E-01 -0.18572452006E-01  0.24189519310E-01  0.00000000000E+00 0.  1.
     999901    1    3    3    0    0 -0.14699860268E-01  0.98622761232E-01  0.76413330616E-01  0.88892155561E+00  0.88000000000E+00 0. -1.
        -11    1    4    4    0    0 -0.24867798521E-02 -0.83021238324E-02 -0.10064501423E-01  0.13291525272E-01  0.51100000000E-03 0. -1.
         11    1    4    4    0    0  0.18594692361E-01 -0.10575482866E+00 -0.47776377187E-01  0.11752739981E+00  0.51100000000E-03 0.  1.
</event>
<event>
 8    1  0.1126407E+005  0.1043930E+01  0.7957747E-01            NaN
         13   -1    0    0    0    0  0.00000000000E+00  0.00000000000E+00  0.74505805969E-08  0.10566000000E+00  0.10566000000E+00 0.  1.
     999900   -1    0    0    0    0 -0.00000000000E+00 -0.00000000000E+00 -0.74505805969E-08  0.93827000000E+00  0.93827000000E+00 0. -1.
     999902    2    1    2    0    0 -0.66327815038E-02 -0.93993469511E-02 -0.20021515855E-01  0.10208388196E+01  0.10205776272E+01 0.  0.
     999903    2    3    3    0    0  0.12266837509E+00  0.31015621045E-01 -0.18079201776E-01  0.13047039515E+00  0.26194798646E-01 0.  0.
         14    1    1    2    0    0  0.66327815038E-02  0.93993469511E-02  0.20021515855E-01  0.23091180367E-01  0.00000000000E+00 0.  1.
     999901    1    3    3    0    0 -0.12930115660E+00 -0.40414967996E-01 -0.19423140790E-02  0.89036842448E+00  0.88000000000E+00 0.  1.
        -11    1    4    4    0    0  0.26681031704E-01  0.16762370084E-01 -0.10140455389E-01  0.33105051882E-01  0.51100000000E-03 0.  1.
         11    1    4    4    0    0  0.95987343391E-01  0.14253250961E-01 -0.79387463876E-02  0.97365343266E-01  0.51100000000E-03 0. -1.
</event>
<event>
 8    1  0.1126407E+005  0.1043930E+01  0.7957747E-01            NaN
         13   -1    0    0    0    0  0.00000000000E+00  0.00000000000E+00  0.74505805969E-08  0.10566000000E+00  0.10566000000E+00 0. -1.
     999900   -1    0    0    0    0 -0.00000000000E+00 -0.00000000000E+00 -0.74505805969E-08  0.93827000000E+00  0.93827000000E+00 0. -1.
     999902    2    1    2    0    0 -0.11195425761E-01 -0.71383728902E-03 -0.22630072503E-01  0.10186719854E+01  0.10183588005E+01 0.  0.
     999903    2    3    3    0    0  0.84374082209E-01 -0.94156161006E-01  0.62427430195E-02  0.12811112940E+00  0.19726156000E-01 0.  0.
         14    1    1    2    0    0  0.11195425761E-01  0.71383728902E-03  0.22630072503E-01  0.25258014632E-01  0.00000000000E+00 0. -1.
     999901    1    3    3    0    0 -0.95569507969E-01  0.93442323717E-01 -0.28872815523E-01  0.89056085597E+00  0.88000000000E+00 0. -1.
        -11    1    4    4    0    0  0.40484181093E-01 -0.34129663831E-01 -0.37220113378E-02  0.53084059391E-01  0.51100000000E-03 0. -1.
         11    1    4    4    0    0  0.43889901115E-01 -0.60026497175E-01  0.99647543573E-02  0.75027070004E-01  0.51100000000E-03 0.  1.
</event>
<event>
 8    1  0.1126407E+005  0.1043930E+01  0.7957747E-01            NaN
         13   -1    0    0    0    0  0.00000000000E+00  0.00000000000E+00  0.74505805969E-08  0.10566000000E+00  0.10566000000E+00 0. -1.
     999900   -1    0    0    0    0 -0.00000000000E+00 -0.00000000000E+00 -0.74505805969E-08  0.93827000000E+00  0.93827000000E+00 0. -1.
     999902    2    1    2    0    0  0.99951432317E-03  0.23477120662E-01  0.25462069225E-03  0.10204302329E+01  0.10201596057E+01 0.  0.
     999903    2    3    3    0    0  0.32876976927E-01  0.93534626074E-01  0.86025791926E-01  0.13291633411E+00  0.20897203372E-01 0.  0.
         14    1    1    2    0    0 -0.99951432317E-03 -0.23477120662E-01 -0.25462069225E-03  0.23499767130E-01  0.00000000000E+00 0.  1.
     999901    1    3    3    0    0 -0.31877462603E-01 -0.70057505412E-01 -0.85771171234E-01  0.88751389877E+00  0.88000000000E+00 0. -1.
        -11    1    4    4    0    0  0.26647795582E-01  0.49485035538E-01  0.40629761905E-01  0.69353532174E-01  0.51100000000E-03 0. -1.
         11    1    4    4    0    0  0.62291813443E-02  0.44049590536E-01  0.45396030022E-01  0.63562801931E-01  0.51100000000E-03 0.  1.
</event>
<event>
 8    1  0.1126407E+005  0.1043930E+01  0.7957747E-01            NaN
         13   -1    0    0    0    0  0.00000000000E+00  0.00000000000E+00  0.74505805969E-08  0.10566000000E+00  0.10566000000E+00 0. -1.
     999900   -1    0    0    0    0 -0.00000000000E+00 -0.00000000000E+00 -0.74505805969E-08  0.93827000000E+00  0.93827000000E+00 0. -1.
     999902    2    1    2    0    0  0.85064973596E-02  0.16776286821E-01 -0.14307875656E-01  0.10202969807E+01  0.10200232395E+01 0.  0.
     999903    2    3    3    0    0  0.10639301111E+00 -0.70950480293E-01  0.13198836470E-01  0.13010914967E+00  0.20018443431E-01 0.  0.
         14    1    1    2    0    0 -0.85064973596E-02 -0.16776286821E-01  0.14307875656E-01  0.23633019329E-01  0.00000000000E+00 0. -1.
     999901    1    3    3    0    0 -0.97886513753E-01  0.87726767113E-01 -0.27506712126E-01  0.89018783100E+00  0.88000000000E+00 0. -1.
        -11    1    4    4    0    0  0.44208020298E-01 -0.33512074489E-01 -0.36351562769E-02  0.55595716358E-01  0.51100000000E-03 0. -1.
         11    1    4    4    0    0  0.62184990814E-01 -0.37438405804E-01  0.16833992747E-01  0.74513433316E-01  0.51100000000E-03 0.  1.
</event>
<event>
 8    1  0.1126407E+005  0.1043930E+01  0.7957747E-01            NaN
         13   -1    0    0    0    0  0.00000000000E+00  0.00000000000E+00  0.74505805969E-08  0.10566000000E+00  0.10566000000E+00 0.  1.
     999900   -1    0    0    0    0 -0.00000000000E+00 -0.00000000000E+00 -0.74505805969E-08  0.93827000000E+00  0.93827000000E+00 0.  1.
     999902    2    1    2    0    0 -0.13750504887E-01 -0.18503124942E-02 -0.17941345740E-01  0.10212497899E+01  0.10209979146E+01 0.  0.
     999903    2    3    3    0    0 -0.62089333655E-02 -0.17114042762E-02  0.12759822104E+00  0.12926399405E+00  0.19656917009E-01 0.  0.
         14    1    1    2    0    0  0.13750504887E-01  0.18503124942E-02  0.17941345740E-01  0.22680210050E-01  0.00000000000E+00 0.  1.
     999901    1    3    3    0    0 -0.75415715211E-02 -0.13890821802E-03 -0.14553956678E+00  0.89198579590E+00  0.88000000000E+00 0.  1.
        -11    1    4    4    0    0 -0.14005632073E-02 -0.10477770784E-01  0.59525250853E-01  0.60458761714E-01  0.51100000000E-03 0. -1.
         11    1    4    4    0    0 -0.48083701582E-02  0.87663665075E-02  0.68072970186E-01  0.68805232332E-01  0.51100000000E-03 0.  1.
</event>
<event>
 8    1  0.1126407E+005  0.1043930E+01  0.7957747E-01            NaN
         13   -1    0    0    0    0  0.00000000000E+00  0.00000000000E+00  0.74505805969E-08  0.10566000000E+00  0.10566000000E+00 0. -1.
     999900   -1    0    0    0    0 -0.00000000000E+00 -0.00000000000E+00 -0.74505805969E-08  0.93827000000E+00  0.93827000000E+00 0. -1.
     999902    2    1    2    0    0 -0.15374453576E-01  0.83575980704E-02  0.20187010479E-01  0.10172141122E+01  0.10168632216E+01 0.  0.
     999903    2    3    3    0    0 -0.11373511168E+00 -0.56155347137E-01 -0.11476766525E-01  0.12882268163E+00  0.19351188372E-01 0.  0.
         14    1    1    2    0    0  0.15374453576E-01 -0.83575980704E-02 -0.20187010479E-01  0.26715887789E-01  0.00000000000E+00 0.  1.
     999901    1    3    3    0    0  0.98360658101E-01  0.64512945207E-01  0.31663777004E-01  0.88839143058E+00  0.88000000000E+00 0.  1.
        -11    1    4    4    0    0 -0.84051056508E-01 -0.35344597667E-01 -0.14956728029E-01  0.92400138088E-01  0.51100000000E-03 0. -1.
         11    1    4    4    0    0 -0.29684055169E-01 -0.20810749470E-01  0.34799615037E-02  0.36422543539E-01  0.51100000000E-03 0.  1.
</event>
<event>
 8    1  0.1126407E+005  0.1043930E+01  0.7957747E-01            NaN
         13   -1    0    0    0    0  0.00000000000E+00  0.00000000000E+00  0.74505805969E-08  0.10566000000E+00  0.10566000000E+00 0. -1.
     999900   -1    0    0    0    0 -0.00000000000E+00 -0.00000000000E+00 -0.74505805969E-08  0.93827000000E+00  0.93827000000E+00 0.  1.
     999902    2    1    2    0    0  0.22889721099E-01 -0.43999935390E-02  0.48583015347E-02  0.10201202883E+01  0.10198423899E+01 0.  0.
     999903    2    3    3    0    0  0.12414399272E+00 -0.35795431239E-01  0.26603025689E-01  0.13349131631E+00  0.20473561713E-01 0.  0.
         14    1    1    2    0    0 -0.22889721099E-01  0.43999935390E-02 -0.48583015347E-02  0.23809711652E-01  0.00000000000E+00 0.  1.
     999901    1    3    3    0    0 -0.10125427162E+00  0.31395437700E-01 -0.21744724155E-01  0.88662897204E+00  0.88000000000E+00 0.  1.
        -11    1    4    4    0    0  0.38263812758E-01 -0.60389461745E-02  0.16257487347E-01  0.42013750767E-01  0.51100000000E-03 0. -1.
         11    1    4    4    0    0  0.85880179958E-01 -0.29756485065E-01  0.10345538342E-01  0.91477565543E-01  0.51100000000E-03 0.  1.
</event>
<event>
 8    1  0.1126407E+005  0.1043930E+01  0.7957747E-01            NaN
         13   -1    0    0    0    0  0.00000000000E+00  0.00000000000E+00  0.74505805969E-08  0.10566000000E+00  0.10566000000E+00 0.  1.
     999900   -1    0    0    0    0 -0.00000000000E+00 -0.00000000000E+00 -0.74505805969E-08  0.93827000000E+00  0.93827000000E+00 0.  1.
     999902    2    1    2    0    0  0.20164744446E-01 -0.34551286159E-03  0.11700151367E-01  0.10206141290E+01  0.10203477694E+01 0.  0.
     999903    2    3    3    0    0  0.13141093001E+00 -0.86484275332E-02 -0.85023030358E-02  0.13334145877E+00  0.19079508576E-01 0.  0.
         14    1    1    2    0    0 -0.20164744446E-01  0.34551286159E-03 -0.11700151367E-01  0.23315870983E-01  0.00000000000E+00 0.  1.
     999901    1    3    3    0    0 -0.11124618556E+00  0.83029146716E-02  0.20202454403E-01  0.88727267024E+00  0.88000000000E+00 0. -1.
        -11    1    4    4    0    0  0.69368967792E-01 -0.13413433042E-01 -0.80517927716E-02  0.71113053418E-01  0.51100000000E-03 0. -1.
         11    1    4    4    0    0  0.62041962214E-01  0.47650055090E-02 -0.45051026416E-03  0.62228405357E-01  0.51100000000E-03 0.  1.
</event>
<event>
 8    1  0.1126407E+005  0.1043930E+01  0.7957747E-01            NaN
         13   -1    0    0    0    0  0.00000000000E+00  0.00000000000E+00  0.74505805969E-08  0.10566000000E+00  0.10566000000E+00 0.  1.
     999900   -1    0    0    0    0 -0.00000000000E+00 -0.00000000000E+00 -0.74505805969E-08  0.93827000000E+00  0.93827000000E+00 0.  1.
     999902    2    1    2    0    0  0.14534831350E-01  0.13763604732E-01  0.88758574672E-02  0.10220329915E+01  0.10217983933E+01 0.  0.
     999903    2    3    3    0    0 -0.10558125287E+00 -0.63202324437E-01 -0.34980861473E-01  0.12946644506E+00  0.19898868211E-01 0.  0.
         14    1    1    2    0    0 -0.14534831350E-01 -0.13763604732E-01 -0.88758574672E-02  0.21897008548E-01  0.00000000000E+00 0. -1.
     999901    1    3    3    0    0  0.12011608422E+00  0.76965929169E-01  0.43856718940E-01  0.89256654639E+00  0.88000000000E+00 0.  1.
        -11    1    4    4    0    0 -0.25802274320E-01 -0.25761028045E-01 -0.12030796671E-01  0.38397774877E-01  0.51100000000E-03 0. -1.
         11    1    4    4    0    0 -0.79778978547E-01 -0.37441296392E-01 -0.22950064802E-01  0.91068670183E-01  0.51100000000E-03 0.  1.
</event>
<event>
 8    1  0.1126407E+005  0.1043930E+01  0.7957747E-01            NaN
         13   -1    0    0    0    0  0.00000000000E+00  0.00000000000E+00  0.74505805969E-08  0.10566000000E+00  0.10566000000E+00 0.  1.
     999900   -1    0    0    0    0 -0.00000000000E+00 -0.00000000000E+00 -0.74505805969E-08  0.93827000000E+00  0.93827000000E+00 0. -1.
     999902    2    1    2    0    0 -0.80758958382E-02 -0.11049721531E-01  0.19368816719E-01  0.10202136027E+01  0.10199379038E+01 0.  0.
     999903    2    3    3    0    0 -0.10895336150E+00 -0.24071131422E-01 -0.64590251508E-01  0.13038499824E+00  0.19444609165E-01 0.  0.
         14    1    1    2    0    0  0.80758958382E-02  0.11049721531E-01 -0.19368816719E-01  0.23716397294E-01  0.00000000000E+00 0.  1.
     999901    1    3    3    0    0  0.10087746566E+00  0.13021409891E-01  0.83959068227E-01  0.88982860447E+00  0.88000000000E+00 0.  1.
        -11    1    4    4    0    0 -0.64530760426E-01 -0.20770556031E-01 -0.46990694027E-01  0.82486492744E-01  0.51100000000E-03 0. -1.
         11    1    4    4    0    0 -0.44422601073E-01 -0.33005753910E-02 -0.17599557481E-01  0.47898505493E-01  0.51100000000E-03 0.  1.
</event>
<event>
 8    1  0.1126407E+005  0.1043930E+01  0.7957747E-01            NaN
         13   -1    0    0    0    0  0.00000000000E+00  0.00000000000E+00  0.74505805969E-08  0.10566000000E+00  0.10566000000E+00 0.  1.
     999900   -1    0    0    0    0 -0.00000000000E+00 -0.00000000000E+00 -0.74505805969E-08  0.93827000000E+00  0.93827000000E+00 0.  1.
     999902    2    1    2    0    0 -0.44609856483E-02 -0.24104357010E-01 -0.52410397449E-02  0.10188623133E+01  0.10185538889E+01 0.  0.
     999903    2    3    3    0    0 -0.80561585619E-01 -0.90837314530E-01 -0.47669309915E-01  0.13204511281E+00  0.20541711750E-01 0.  0.
         14    1    1    2    0    0  0.44609856483E-02  0.24104357010E-01  0.52410397449E-02  0.25067686719E-01  0.00000000000E+00 0. -1.
     999901    1    3    3    0    0  0.76100599971E-01  0.66732957520E-01  0.42428270170E-01  0.88681720047E+00  0.88000000000E+00 0. -1.
        -11    1    4    4    0    0 -0.51218649226E-01 -0.68112229437E-01 -0.40003576998E-01  0.94144426925E-01  0.51100000000E-03 0.  1.
         11    1    4    4    0    0 -0.29342936393E-01 -0.22725085093E-01 -0.76657329172E-02  0.37900685888E-01  0.51100000000E-03 0. -1.
</event>
<event>
 8    1  0.1126407E+005  0.1043930E+01  0.7957747E-01            NaN
         13   -1    0    0    0    0  0.00000000000E+00  0.00000000000E+00  0.74505805969E-08  0.10566000000E+00  0.10566000000E+00 0.  1.
     999900   -1    0    0    0    0 -0.00000000000E+00 -0.00000000000E+00 -0.74505805969E-08  0.93827000000E+00  0.93827000000E+00 0. -1.
     999902    2    1    2    0    0  0.10568508622E-01  0.40053192561E-02 -0.20960540565E-01  0.10201165538E+01  0.10198385672E+01 0.  0.
     999903    2    3    3    0    0 -0.11021921874E+00 -0.17056970859E-01  0.59067030175E-01  0.12801918964E+00  0.21465843307E-01 0.  0.
         14    1    1    2    0    0 -0.10568508622E-01 -0.40053192561E-02  0.20960540565E-01  0.23813446151E-01  0.00000000000E+00 0.  1.
     999901    1    3    3    0    0  0.12078772736E+00  0.21062290115E-01 -0.80027570739E-01  0.89209736421E+00  0.88000000000E+00 0. -1.
        -11    1    4    4    0    0 -0.97565249599E-01 -0.20429514183E-01  0.47011270831E-01  0.11021190356E+00  0.51100000000E-03 0. -1.
         11    1    4    4    0    0 -0.12653969139E-01  0.33725433238E-02  0.12055759344E-01  0.17807286087E-01  0.51100000000E-03 0.  1.
</event>
<event>
 8    1  0.1126407E+005  0.1043930E+01  0.7957747E-01            NaN
         13   -1    0    0    0    0  0.00000000000E+00  0.00000000000E+00  0.74505805969E-08  0.10566000000E+00  0.10566000000E+00 0.  1.
     999900   -1    0    0    0    0 -0.00000000000E+00 -0.00000000000E+00 -0.74505805969E-08  0.93827000000E+00  0.93827000000E+00 0.  1.
     999902    2    1    2    0    0  0.21353614810E-01 -0.41388925102E-02  0.56237564823E-02  0.10214637156E+01  0.10212166217E+01 0.  0.
     999903    2    3    3    0    0  0.17660129519E-02  0.11919588750E+00 -0.50230434898E-01  0.13089376733E+00  0.19982575827E-01 0.  0.
         14    1    1    2    0    0 -0.21353614810E-01  0.41388925102E-02 -0.56237564823E-02  0.22466284376E-01  0.00000000000E+00 0.  1.
     999901    1    3    3    0    0  0.19587601858E-01 -0.12333478001E+00  0.55854191380E-01  0.89056994829E+00  0.88000000000E+00 0.  1.
        -11    1    4    4    0    0  0.51552495434E-02  0.39194401650E-01 -0.25666048934E-01  0.47135813427E-01  0.51100000000E-03 0. -1.
         11    1    4    4    0    0 -0.33892365914E-02  0.80001485853E-01 -0.24564385964E-01  0.83757953904E-01  0.51100000000E-03 0.  1.
</event>
<event>
 8    1  0.1126407E+005  0.1043930E+01  0.7957747E-01            NaN
         13   -1    0    0    0    0  0.00000000000E+00  0.00000000000E+00  0.74505805969E-08  0.10566000000E+00  0.10566000000E+00 0. -1.
     999900   -1    0    0    0    0 -0.00000000000E+00 -0.00000000000E+00 -0.74505805969E-08  0.93827000000E+00  0.93827000000E+00 0. -1.
     999902    2    1    2    0    0  0.20283877761E-01  0.98413787743E-02  0.52924627177E-02  0.10207718784E+01  0.10205091519E+01 0.  0.
     999903    2    3    3    0    0  0.30857555616E-01  0.12571922417E+00  0.22979237049E-01  0.13293613928E+00  0.19658578991E-01 0.  0.
         14    1    1    2    0    0 -0.20283877761E-01 -0.98413787743E-02 -0.52924627177E-02  0.23158121574E-01  0.00000000000E+00 0.  1.
     999901    1    3    3    0    0 -0.10573677854E-01 -0.11587784539E+00 -0.17686774331E-01  0.88783573914E+00  0.88000000000E+00 0. -1.
        -11    1    4    4    0    0  0.98482408605E-02  0.78859441610E-01  0.11357756087E-01  0.80281125574E-01  0.51100000000E-03 0.  1.
         11    1    4    4    0    0  0.21009314755E-01  0.46859782557E-01  0.11621480962E-01  0.52655013708E-01  0.51100000000E-03 0. -1.
</event>
<event>
 8    1  0.1126407E+005  0.1043930E+01  0.7957747E-01            NaN
         13   -1    0    0    0    0  0.00000000000E+00  0.00000000000E+00  0.74505805969E-08  0.10566000000E+00  0.10566000000E+00 0. -1.
     999900   -1    0    0    0    0 -0.00000000000E+00 -0.00000000000E+00 -0.74505805969E-08  0.93827000000E+00  0.93827000000E+00 0.  1.
     999902    2    1    2    0    0 -0.18157508709E-01 -0.16572850526E-01  0.19703712317E-02  0.10192675415E+01  0.10189691282E+01 0.  0.
     999903    2    3    3    0    0 -0.65525242714E-01  0.78321099504E-01  0.77337860516E-01  0.12970089282E+00  0.20332851979E-01 0.  0.
         14    1    1    2    0    0  0.18157508709E-01  0.16572850526E-01 -0.19703712317E-02  0.24662458512E-01  0.00000000000E+00 0. -1.
     999901    1    3    3    0    0  0.47367734005E-01 -0.94893950030E-01 -0.75367489284E-01  0.88956664867E+00  0.88000000000E+00 0.  1.
        -11    1    4    4    0    0 -0.66793489287E-01  0.77613885473E-01  0.77014310703E-01  0.12812786818E+00  0.51100000000E-03 0. -1.
         11    1    4    4    0    0  0.12682465733E-02  0.70721403196E-03  0.32354981242E-03  0.15730246466E-02  0.51100000000E-03 0.  1.
</event>
<event>
 8    1  0.1126407E+005  0.1043930E+01  0.7957747E-01            NaN
         13   -1    0    0    0    0  0.00000000000E+00  0.00000000000E+00  0.74505805969E-08  0.10566000000E+00  0.10566000000E+00 0. -1.
     999900   -1    0    0    0    0 -0.00000000000E+00 -0.00000000000E+00 -0.74505805969E-08  0.93827000000E+00  0.93827000000E+00 0. -1.
     999902    2    1    2    0    0 -0.22588178299E-01  0.62580839959E-02  0.20519080863E-02  0.10204012996E+01  0.10201299979E+01 0.  0.
     999903    2    3    3    0    0  0.41782645064E-01 -0.57113838267E-01 -0.10715808375E+00  0.12906161929E+00  0.12894444964E-01 0.  0.
         14    1    1    2    0    0  0.22588178299E-01 -0.62580839959E-02 -0.20519080863E-02  0.23528700367E-01  0.00000000000E+00 0.  1.
     999901    1    3    3    0    0 -0.64370823362E-01  0.63371922263E-01  0.10920999184E+00  0.89133968034E+00  0.88000000000E+00 0.  1.
        -11    1    4    4    0    0  0.15161186513E-01 -0.14897204625E-01 -0.23895854397E-01  0.31985328832E-01  0.51100000000E-03 0.  1.
         11    1    4    4    0    0  0.26621458550E-01 -0.42216633642E-01 -0.83262229356E-01  0.97076290461E-01  0.51100000000E-03 0. -1.
</event>
<event>
 8    1  0.1126407E+005  0.1043930E+01  0.7957747E-01            NaN
         13   -1    0    0    0    0  0.00000000000E+00  0.00000000000E+00  0.74505805969E-08  0.10566000000E+00  0.10566000000E+00 0.  1.
     999900   -1    0    0    0    0 -0.00000000000E+00 -0.00000000000E+00 -0.74505805969E-08  0.93827000000E+00  0.93827000000E+00 0.  1.
     999902    2    1    2    0    0 -0.16041229782E-01  0.17851729825E-01 -0.13632503684E-02  0.10198912030E+01  0.10196078669E+01 0.  0.
     999903    2    3    3    0    0  0.11637200349E+00 -0.37942966320E-01 -0.30276817368E-01  0.12776884208E+00  0.20641691963E-01 0.  0.
         14    1    1    2    0    0  0.16041229782E-01 -0.17851729825E-01  0.13632503684E-02  0.24038797022E-01  0.00000000000E+00 0.  1.
     999901    1    3    3    0    0 -0.13241323327E+00  0.55794696146E-01  0.28913566999E-01  0.89212236090E+00  0.88000000000E+00 0. -1.
        -11    1    4    4    0    0  0.52585840467E-01 -0.81738877062E-02 -0.72828111866E-02  0.53715766006E-01  0.51100000000E-03 0.  1.
         11    1    4    4    0    0  0.63786163021E-01 -0.29769078614E-01 -0.22994006181E-01  0.74053076072E-01  0.51100000000E-03 0. -1.
</event>
<event>
 7    1  0.1816780E+005  0.1043930E+01  0.7957747E-01            NaN
         13   -1    0    0    0    0  0.00000000000E+00  0.00000000000E+00  0.74505805969E-08  0.10566000000E+00  0.10566000000E+00 0. -1.
     999900   -1    0    0    0    0 -0.00000000000E+00 -0.00000000000E+00 -0.74505805969E-08  0.93827000000E+00  0.93827000000E+00 0. -1.
     999903    2    1    2    0    0  0.15370388481E-01  0.35519653024E-01 -0.94915392273E-01  0.10440586592E+00  0.19843350415E-01 0.  0.
         14    1    1    2    0    0 -0.20772132017E-01  0.45349719916E-01 -0.51805378944E-02  0.50148943537E-01  0.00000000000E+00 0.  1.
     999901    1    1    2    0    0  0.54017435359E-02 -0.80869372940E-01  0.10009593017E+00  0.88937519054E+00  0.88000000000E+00 0.  1.
        -11    1    3    3    0    0  0.13636388047E-01  0.95991108837E-02 -0.47392459840E-01  0.50243411303E-01  0.51100000000E-03 0. -1.
         11    1    3    3    0    0  0.17340004343E-02  0.25920542140E-01 -0.47522932434E-01  0.54162454620E-01  0.51100000000E-03 0.  1.
</event>
<event>
 8    1  0.1126407E+005  0.1043930E+01  0.7957747E-01            NaN
         13   -1    0    0    0    0  0.00000000000E+00  0.00000000000E+00  0.74505805969E-08  0.10566000000E+00  0.10566000000E+00 0.  1.
     999900   -1    0    0    0    0 -0.00000000000E+00 -0.00000000000E+00 -0.74505805969E-08  0.93827000000E+00  0.93827000000E+00 0. -1.
     999902    2    1    2    0    0  0.12005041742E-01 -0.76369220961E-02 -0.20702694941E-01  0.10188093873E+01  0.10184996428E+01 0.  0.
     999903    2    3    3    0    0 -0.89934577326E-01 -0.31203759339E-01 -0.86733199023E-01  0.13015472474E+00  0.18860057382E-01 0.  0.
         14    1    1    2    0    0 -0.12005041742E-01  0.76369220961E-02  0.20702694941E-01  0.25120612735E-01  0.00000000000E+00 0.  1.
     999901    1    3    3    0    0  0.10193961907E+00  0.23566837243E-01  0.66030504082E-01  0.88865466252E+00  0.88000000000E+00 0.  1.
        -11    1    4    4    0    0 -0.50563379649E-01 -0.84708750706E-02 -0.40780991853E-01  0.65511537178E-01  0.51100000000E-03 0. -1.
         11    1    4    4    0    0 -0.39371197678E-01 -0.22732884268E-01 -0.45952207170E-01  0.64643187565E-01  0.51100000000E-03 0.  1.
</event>
<event>
 8    1  0.1126407E+005  0.1043930E+01  0.7957747E-01            NaN
         13   -1    0    0    0    0  0.00000000000E+00  0.00000000000E+00  0.74505805969E-08  0.10566000000E+00  0.10566000000E+00 0.  1.
     999900   -1    0    0    0    0 -0.00000000000E+00 -0.00000000000E+00 -0.74505805969E-08  0.93827000000E+00  0.93827000000E+00 0. -1.
     999902    2    1    2    0    0  0.25253188541E-01  0.34988177250E-03  0.51065324869E-02  0.10181633040E+01  0.10178372124E+01 0.  0.
     999903    2    3    3    0    0  0.60648246225E-01  0.10411658493E+00 -0.44405925794E-01  0.12997873854E+00  0.20102567014E-01 0.  0.
         14    1    1    2    0    0 -0.25253188541E-01 -0.34988177250E-03 -0.51065324869E-02  0.25766696001E-01  0.00000000000E+00 0. -1.
     999901    1    3    3    0    0 -0.35395057683E-01 -0.10376670315E+00  0.49512458281E-01  0.88818456546E+00  0.88000000000E+00 0.  1.
        -11    1    4    4    0    0  0.49671923631E-01  0.97245695811E-01 -0.39641663085E-01  0.11617120092E+00  0.51100000000E-03 0. -1.
         11    1    4    4    0    0  0.10976322593E-01  0.68708891146E-02 -0.47642627083E-02  0.13807537617E-01  0.51100000000E-03 0.  1.
</event>
<event>
 8    1  0.1126407E+005  0.1043930E+01  0.7957747E-01            NaN
         13   -1    0    0    0    0  0.00000000000E+00  0.00000000000E+00  0.74505805969E-08  0.10566000000E+00  0.10566000000E+00 0.  1.
     999900   -1    0    0    0    0 -0.00000000000E+00 -0.00000000000E+00 -0.74505805969E-08  0.93827000000E+00  0.93827000000E+00 0.  1.
     999902    2    1    2    0    0 -0.34002054254E-02 -0.23549775554E-01 -0.30646840168E-02  0.10199394682E+01  0.10196572823E+01 0.  0.
     999903    2    3    3    0    0  0.53162346719E-02 -0.48828793425E-01  0.11972364489E+00  0.13101203657E+00  0.20442337488E-01 0.  0.
         14    1    1    2    0    0  0.34002054254E-02  0.23549775554E-01  0.30646840168E-02  0.23990531751E-01  0.00000000000E+00 0. -1.
     999901    1    3    3    0    0 -0.87164400973E-02  0.25279017871E-01 -0.12278832891E+00  0.88892743168E+00  0.88000000000E+00 0.  1.
        -11    1    4    4    0    0 -0.62945181243E-02 -0.21075140031E-01  0.64118361085E-01  0.67787962316E-01  0.51100000000E-03 0.  1.
         11    1    4    4    0    0  0.11610752796E-01 -0.27753653393E-01  0.55605283807E-01  0.63224074255E-01  0.51100000000E-03 0. -1.
</event>
<event>
 8    1  0.1126407E+005  0.1043930E+01  0.7957747E-01            NaN
         13   -1    0    0    0    0  0.00000000000E+00  0.00000000000E+00  0.74505805969E-08  0.10566000000E+00  0.10566000000E+00 0. -1.
     999900   -1    0    0    0    0 -0.00000000000E+00 -0.00000000000E+00 -0.74505805969E-08  0.93827000000E+00  0.93827000000E+00 0.  1.
     999902    2    1    2    0    0 -0.17223932787E-01  0.15801761079E-01  0.12655288478E-01  0.10173496343E+01  0.10170023415E+01 0.  0.
     999903    2    3    3    0    0 -0.43419099388E-01 -0.84318037323E-01  0.84093469450E-01  0.12841005566E+00  0.20559211581E-01 0.  0.
         14    1    1    2    0    0  0.17223932787E-01 -0.15801761079E-01 -0.12655288478E-01  0.26580365692E-01  0.00000000000E+00 0. -1.
     999901    1    3    3    0    0  0.26195166600E-01  0.10011979840E+00 -0.71438180973E-01  0.88893957865E+00  0.88000000000E+00 0.  1.
        -11    1    4    4    0    0 -0.11160147929E-01 -0.21047629021E-01  0.33921151670E-01  0.41454278921E-01  0.51100000000E-03 0. -1.
         11    1    4    4    0    0 -0.32258951459E-01 -0.63270408303E-01  0.50172317780E-01  0.86955776740E-01  0.51100000000E-03 0.  1.
</event>
<event>
 8    1  0.1126407E+005  0.1043930E+01  0.7957747E-01            NaN
         13   -1    0    0    0    0  0.00000000000E+00  0.00000000000E+00  0.74505805969E-08  0.10566000000E+00  0.10566000000E+00 0. -1.
     999900   -1    0    0    0    0 -0.00000000000E+00 -0.00000000000E+00 -0.74505805969E-08  0.93827000000E+00  0.93827000000E+00 0.  1.
     999902    2    1    2    0    0 -0.19299144593E-01 -0.13334626647E-01 -0.24315389209E-02  0.10203464966E+01  0.10200739147E+01 0.  0.
     999903    2    3    3    0    0 -0.89271982000E-01  0.49069372071E-01 -0.81160946246E-01  0.13187096145E+00  0.20629135521E-01 0.  0.
         14    1    1    2    0    0  0.19299144593E-01  0.13334626647E-01  0.24315389209E-02  0.23583503374E-01  0.00000000000E+00 0. -1.
     999901    1    3    3    0    0  0.69972837407E-01 -0.62403998719E-01  0.78729407325E-01  0.88847553518E+00  0.88000000000E+00 0. -1.
        -11    1    4    4    0    0 -0.22593598614E-01  0.50329782385E-02 -0.25758085653E-01  0.34634400035E-01  0.51100000000E-03 0. -1.
         11    1    4    4    0    0 -0.66678383386E-01  0.44036393833E-01 -0.55402860593E-01  0.97236561414E-01  0.51100000000E-03 0.  1.
</event>
<event>
 8    1  0.1126407E+005  0.1043930E+01  0.7957747E-01            NaN
         13   -1    0    0    0    0  0.00000000000E+00  0.00000000000E+00  0.74505805969E-08  0.10566000000E+00  0.10566000000E+00 0. -1.
     999900   -1    0    0    0    0 -0.00000000000E+00 -0.00000000000E+00 -0.74505805969E-08  0.93827000000E+00  0.93827000000E+00 0. -1.
     999902    2    1    2    0    0 -0.60944930090E-02 -0.19842327985E-01  0.10183993603E-01  0.10208091317E+01  0.10205472595E+01 0.  0.
     999903    2    3    3    0    0 -0.88619189369E-01  0.71752404840E-01 -0.58171586170E-01  0.12958951462E+00  0.20192586209E-01 0.  0.
         14    1    1    2    0    0  0.60944930090E-02  0.19842327985E-01 -0.10183993603E-01  0.23120868293E-01  0.00000000000E+00 0. -1.
     999901    1    3    3    0    0  0.82524696360E-01 -0.91594732825E-01  0.68355579772E-01  0.89121961708E+00  0.88000000000E+00 0. -1.
        -11    1    4    4    0    0 -0.26274607862E-01  0.32138417915E-01 -0.26265140920E-01  0.49125875798E-01  0.51100000000E-03 0. -1.
         11    1    4    4    0    0 -0.62344581507E-01  0.39613986925E-01 -0.31906445250E-01  0.80463638824E-01  0.51100000000E-03 0.  1.
</event>
<event>
 8    1  0.1126407E+005  0.1043930E+01  0.7957747E-01            NaN
         13   -1    0    0    0    0  0.00000000000E+00  0.00000000000E+00  0.74505805969E-08  0.10566000000E+00  0.10566000000E+00 0. -1.
     999900   -1    0    0    0    0 -0.00000000000E+00 -0.00000000000E+00 -0.74505805969E-08  0.93827000000E+00  0.93827000000E+00 0. -1.
     999902    2    1    2    0    0  0.10825780117E-01 -0.20448405233E-01 -0.24680861974E-02  0.10206614323E+01  0.10203961648E+01 0.  0.
     999903    2    3    3    0    0 -0.10643486204E+00  0.68314886109E-01 -0.95634931909E-02  0.12842865728E+00  0.20178109059E-01 0.  0.
         14    1    1    2    0    0 -0.10825780117E-01  0.20448405233E-01  0.24680861974E-02  0.23268567665E-01  0.00000000000E+00 0. -1.
     999901    1    3    3    0    0  0.11726064216E+00 -0.88763291341E-01  0.70954069935E-02  0.89223277506E+00  0.88000000000E+00 0.  1.
        -11    1    4    4    0    0 -0.10255997977E-01  0.14611813825E-01 -0.26471261359E-02  0.18054334536E-01  0.51100000000E-03 0. -1.
         11    1    4    4    0    0 -0.96178864067E-01  0.53703072284E-01 -0.69163670550E-02  0.11037432274E+00  0.51100000000E-03 0.  1.
</event>
<event>
 8    1  0.1126407E+005  0.1043930E+01  0.7957747E-01            NaN
         13   -1    0    0    0    0  0.00000000000E+00  0.00000000000E+00  0.74505805969E-08  0.10566000000E+00  0.10566000000E+00 0. -1.
     999900   -1    0    0    0    0 -0.00000000000E+00 -0.00000000000E+00 -0.74505805969E-08  0.93827000000E+00  0.93827000000E+00 0. -1.
     999902    2    1    2    0    0  0.25725073172E-02  0.13736864592E-01  0.19761033138E-01  0.10197263293E+01  0.10194390463E+01 0.  0.
     999903    2    3    3    0    0 -0.11438124374E+00  0.31784146661E-01 -0.47395267106E-01  0.12926922597E+00  0.19259297530E-01 0.  0.
         14    1    1    2    0    0 -0.25725073172E-02 -0.13736864592E-01 -0.19761033138E-01  0.24203670660E-01  0.00000000000E+00 0. -1.
     999901    1    3    3    0    0  0.11695375106E+00 -0.18047282068E-01  0.67156300244E-01  0.89045710337E+00  0.88000000000E+00 0.  1.
        -11    1    4    4    0    0 -0.49624223348E-01  0.56991739589E-02 -0.25601685425E-01  0.56131555691E-01  0.51100000000E-03 0. -1.
         11    1    4    4    0    0 -0.64757020390E-01  0.26084972702E-01 -0.21793581681E-01  0.73137670281E-01  0.51100000000E-03 0.  1.
</event>
<event>
 8    1  0.1126407E+005  0.1043930E+01  0.7957747E-01            NaN
         13   -1    0    0    0    0  0.00000000000E+00  0.00000000000E+00  0.74505805969E-08  0.10566000000E+00  0.10566000000E+00 0. -1.
     999900   -1    0    0    0    0 -0.00000000000E+00 -0.00000000000E+00 -0.74505805969E-08  0.93827000000E+00  0.93827000000E+00 0.  1.
     999902    2    1    2    0    0  0.25048352562E-01  0.31447729043E-02  0.17141733610E-01  0.10134152725E+01  0.10129557572E+01 0.  0.
     999903    2    3    3    0    0 -0.15365049399E-01 -0.29523521775E-01 -0.11559914132E+00  0.12194424078E+00  0.19987828880E-01 0.  0.
         14    1    1    2    0    0 -0.25048352562E-01 -0.31447729043E-02 -0.17141733610E-01  0.30514727492E-01  0.00000000000E+00 0.  1.
     999901    1    3    3    0    0  0.40413401961E-01  0.32668294680E-01  0.13274087493E+00  0.89147103173E+00  0.88000000000E+00 0. -1.
        -11    1    4    4    0    0 -0.19783009645E-01 -0.20511538952E-01 -0.78743011395E-01  0.83742543939E-01  0.51100000000E-03 0. -1.
         11    1    4    4    0    0  0.44179602462E-02 -0.90119828238E-02 -0.36856129928E-01  0.38201696840E-01  0.51100000000E-03 0.  1.
</event>
<event>
 8    1  0.1126407E+005  0.1043930E+01  0.7957747E-01            NaN
         13   -1    0    0    0    0  0.00000000000E+00  0.00000000000E+00  0.74505805969E-08  0.10566000000E+00  0.10566000000E+00 0.  1.
     999900   -1    0    0    0    0 -0.00000000000E+00 -0.00000000000E+00 -0.74505805969E-08  0.93827000000E+00  0.93827000000E+00 0. -1.
     999902    2    1    2    0    0  0.12542211095E-01 -0.16415944848E-01 -0.12490738777E-01  0.10197885655E+01  0.10195027756E+01 0.  0.
     999903    2    3    3    0    0 -0.82572933821E-01 -0.98784270613E-01  0.89942734847E-02  0.13057934511E+00  0.19835495787E-01 0.  0.
         14    1    1    2    0    0 -0.12542211095E-01  0.16415944848E-01  0.12490738777E-01  0.24141434498E-01  0.00000000000E+00 0.  1.
     999901    1    3    3    0    0  0.95115144917E-01  0.82368325765E-01 -0.21485012262E-01  0.88920922039E+00  0.88000000000E+00 0.  1.
        -11    1    4    4    0    0 -0.58787017171E-01 -0.65000217231E-01  0.14699806233E-01  0.88866681339E-01  0.51100000000E-03 0. -1.
         11    1    4    4    0    0 -0.23785916650E-01 -0.33784053381E-01 -0.57055327486E-02  0.41712663769E-01  0.51100000000E-03 0.  1.
</event>
<event>
 8    1  0.1126407E+005  0.1043930E+01  0.7957747E-01            NaN
         13   -1    0    0    0    0  0.00000000000E+00  0.00000000000E+00  0.74505805969E-08  0.10566000000E+00  0.10566000000E+00 0. -1.
     999900   -1    0    0    0    0 -0.00000000000E+00 -0.00000000000E+00 -0.74505805969E-08  0.93827000000E+00  0.93827000000E+00 0. -1.
     999902    2    1    2    0    0 -0.10301356847E-01  0.60934666384E-02  0.20905550052E-01  0.10198407843E+01  0.10195562442E+01 0.  0.
     999903    2    3    3    0    0  0.29786458877E-01 -0.12001745706E+00 -0.28879075134E-01  0.12855547258E+00  0.20027117022E-01 0.  0.
         14    1    1    2    0    0  0.10301356847E-01 -0.60934666384E-02 -0.20905550052E-01  0.24089215668E-01  0.00000000000E+00 0.  1.
     999901    1    3    3    0    0 -0.40087815724E-01  0.12611092370E+00  0.49784625186E-01  0.89128531176E+00  0.88000000000E+00 0.  1.
        -11    1    4    4    0    0 -0.20092019022E-02 -0.21955187624E-01 -0.73186376467E-02  0.23235548926E-01  0.51100000000E-03 0.  1.
         11    1    4    4    0    0  0.31795660779E-01 -0.98062269439E-01 -0.21560437488E-01  0.10531992365E+00  0.51100000000E-03 0. -1.
</event>
<event>
 8    1  0.1126407E+005  0.1043930E+01  0.7957747E-01            NaN
         13   -1    0    0    0    0  0.00000000000E+00  0.00000000000E+00  0.74505805969E-08  0.10566000000E+00  0.10566000000E+00 0. -1.
     999900   -1    0    0    0    0 -0.00000000000E+00 -0.00000000000E+00 -0.74505805969E-08  0.93827000000E+00  0.93827000000E+00 0. -1.
     999902    2    1    2    0    0 -0.21593626068E-01  0.56589640847E-02  0.70991296893E-02  0.10205055213E+01  0.10202366455E+01 0.  0.
     999903    2    3    3    0    0  0.70620545309E-01 -0.91294800482E-01  0.54395919045E-01  0.12913552394E+00  0.19876255165E-01 0.  0.
         14    1    1    2    0    0  0.21593626068E-01 -0.56589640847E-02 -0.70991296893E-02  0.23424478727E-01  0.00000000000E+00 0.  1.
     999901    1    3    3    0    0 -0.92214171376E-01  0.96953764566E-01 -0.47296789355E-01  0.89136999734E+00  0.88000000000E+00 0. -1.
        -11    1    4    4    0    0  0.51269343877E-01 -0.64192726960E-01  0.28539062544E-01  0.86971208040E-01  0.51100000000E-03 0. -1.
         11    1    4    4    0    0  0.19351201431E-01 -0.27102073522E-01  0.25856856501E-01  0.42164315898E-01  0.51100000000E-03 0.  1.
</event>
<event>
 8    1  0.1126407E+005  0.1043930E+01  0.7957747E-01            NaN
         13   -1    0    0    0    0  0.00000000000E+00  0.00000000000E+00  0.74505805969E-08  0.10566000000E+00  0.10566000000E+00 0. -1.
     999900   -1    0    0    0    0 -0.00000000000E+00 -0.00000000000E+00 -0.74505805969E-08  0.93827000000E+00  0.93827000000E+00 0. -1.
     999902    2    1    2    0    0  0.20832742568E-01 -0.93194835995E-02  0.22714341025E-02  0.10209949755E+01  0.10207373436E+01 0.  0.
     999903    2    3    3    0    0 -0.89837423195E-01 -0.32873373816E-01 -0.83684585009E-01  0.12959657489E+00  0.25312865148E-01 0.  0.
         14    1    1    2    0    0 -0.20832742568E-01  0.93194835995E-02 -0.22714341025E-02  0.22935024533E-01  0.00000000000E+00 0.  1.
     999901    1    3    3    0    0  0.11067016576E+00  0.23553890216E-01  0.85956019111E-01  0.89139840058E+00  0.88000000000E+00 0.  1.
        -11    1    4    4    0    0 -0.66912196991E-01 -0.29691766224E-01 -0.75178183755E-01  0.10493266184E+00  0.51100000000E-03 0.  1.
         11    1    4    4    0    0 -0.22925226204E-01 -0.31816075919E-02 -0.85064012536E-02  0.24663913044E-01  0.51100000000E-03 0. -1.
</event>
<event>
 7    1  0.1126407E+005  0.1043930E+01  0.7957747E-01            NaN
         13   -1    0    0    0    0  0.00000000000E+00  0.00000000000E+00  0.74505805969E-08  0.10566000000E+00  0.10566000000E+00 0. -1.
     999900   -1    0    0    0    0 -0.00000000000E+00 -0.00000000000E+00 -0.74505805969E-08  0.93827000000E+00  0.93827000000E+00 0. -1.
     999903    2    1    2    0    0  0.71523542572E-01  0.87810128297E-01  0.48637216448E-02  0.11516358153E+00  0.20316469891E-01 0.  0.
         14    1    1    2    0    0  0.29129429515E-01 -0.46462009598E-02  0.24949151349E-01  0.38633806443E-01  0.00000000000E+00 0. -1.
     999901    1    1    2    0    0 -0.10065297209E+00 -0.83163927337E-01 -0.29812872993E-01  0.89013261203E+00  0.88000000000E+00 0. -1.
        -11    1    3    3    0    0  0.33345615849E-01  0.46081861972E-01 -0.71813214312E-02  0.57334985808E-01  0.51100000000E-03 0. -1.
         11    1    3    3    0    0  0.38177926723E-01  0.41728266325E-01  0.12045043076E-01  0.57828595721E-01  0.51100000000E-03 0.  1.
</event>
<event>
 8    1  0.1126407E+005  0.1043930E+01  0.7957747E-01            NaN
         13   -1    0    0    0    0  0.00000000000E+00  0.00000000000E+00  0.74505805969E-08  0.10566000000E+00  0.10566000000E+00 0. -1.
     999900   -1    0    0    0    0 -0.00000000000E+00 -0.00000000000E+00 -0.74505805969E-08  0.93827000000E+00  0.93827000000E+00 0. -1.
     999902    2    1    2    0    0 -0.81406013026E-02  0.21151048038E-01 -0.49354010740E-02  0.10207352936E+01  0.10204717268E+01 0.  0.
     999903    2    3    3    0    0  0.12476240825E+00  0.12774552338E-01 -0.29427564596E-01  0.13037961088E+00  0.20100091391E-01 0.  0.
         14    1    1    2    0    0  0.81406013026E-02 -0.21151048038E-01  0.49354010740E-02  0.23194706431E-01  0.00000000000E+00 0.  1.
     999901    1    3    3    0    0 -0.13290300955E+00  0.83764956999E-02  0.24492163522E-01  0.89035568269E+00  0.88000000000E+00 0.  1.
        -11    1    4    4    0    0  0.61371399208E-01  0.98111411601E-03 -0.23119554266E-01  0.65591052257E-01  0.51100000000E-03 0.  1.
         11    1    4    4    0    0  0.63391009044E-01  0.11793438222E-01 -0.63080103299E-02  0.64788558620E-01  0.51100000000E-03 0. -1.
</event>
<event>
 8    1  0.1126407E+005  0.1043930E+01  0.7957747E-01            NaN
         13   -1    0    0    0    0  0.00000000000E+00  0.00000000000E+00  0.74505805969E-08  0.10566000000E+00  0.10566000000E+00 0. -1.
     999900   -1    0    0    0    0 -0.00000000000E+00 -0.00000000000E+00 -0.74505805969E-08  0.93827000000E+00  0.93827000000E+00 0. -1.
     999902    2    1    2    0    0  0.67996610100E-02 -0.90021637823E-02 -0.21117652703E-01  0.10199877863E+01  0.10197067493E+01 0.  0.
     999903    2    3    3    0    0 -0.11648851300E+00 -0.13059501014E-02 -0.55536057898E-01  0.13069377855E+00  0.20623551054E-01 0.  0.
         14    1    1    2    0    0 -0.67996610100E-02  0.90021637823E-02  0.21117652703E-01  0.23942213730E-01  0.00000000000E+00 0. -1.
     999901    1    3    3    0    0  0.12328817401E+00 -0.76962136809E-02  0.34418405195E-01  0.88929400772E+00  0.88000000000E+00 0.  1.
        -11    1    4    4    0    0 -0.55846053070E-01  0.57589790028E-02 -0.17711611251E-01  0.58871977857E-01  0.51100000000E-03 0.  1.
         11    1    4    4    0    0 -0.60642459927E-01 -0.70649291042E-02 -0.37824446646E-01  0.71821800690E-01  0.51100000000E-03 0. -1.
</event>
<event>
 7    1  0.1126407E+005  0.1043930E+01  0.7957747E-01            NaN
         13   -1    0    0    0    0  0.00000000000E+00  0.00000000000E+00  0.74505805969E-08  0.10566000000E+00  0.10566000000E+00 0.  1.
     999900   -1    0    0    0    0 -0.00000000000E+00 -0.00000000000E+00 -0.74505805969E-08  0.93827000000E+00  0.93827000000E+00 0.  1.
     999903    2    1    2    0    0  0.60157676295E-01 -0.95500618661E-01  0.21391842475E-01  0.11663847341E+00  0.20189313355E-01 0.  0.
         14    1    1    2    0    0 -0.19492937353E-01  0.10822263485E-01 -0.35799682093E-01  0.42174793794E-01  0.00000000000E+00 0. -1.
     999901    1    1    2    0    0 -0.40664738942E-01  0.84678355177E-01  0.14407839618E-01  0.88511673279E+00  0.88000000000E+00 0.  1.
        -11    1    3    3    0    0  0.41629533063E-01 -0.66681020778E-01  0.53183766245E-02  0.78790372547E-01  0.51100000000E-03 0. -1.
         11    1    3    3    0    0  0.18528143231E-01 -0.28819597883E-01  0.16073465850E-01  0.37848100866E-01  0.51100000000E-03 0.  1.
</event>
<event>
 8    1  0.1126407E+005  0.1043930E+01  0.7957747E-01            NaN
         13   -1    0    0    0    0  0.00000000000E+00  0.00000000000E+00  0.74505805969E-08  0.10566000000E+00  0.10566000000E+00 0.  1.
     999900   -1    0    0    0    0 -0.00000000000E+00 -0.00000000000E+00 -0.74505805969E-08  0.93827000000E+00  0.93827000000E+00 0. -1.
     999902    2    1    2    0    0  0.16805086302E-01 -0.71412921363E-02  0.14768013586E-01  0.10204458946E+01  0.10201756323E+01 0.  0.
     999903    2    3    3    0    0 -0.64392184605E-01 -0.10225182077E+00 -0.43102689163E-01  0.12972257751E+00  0.19191587009E-01 0.  0.
         14    1    1    2    0    0 -0.16805086302E-01  0.71412921363E-02 -0.14768013586E-01  0.23484105354E-01  0.00000000000E+00 0.  1.
     999901    1    3    3    0    0  0.81197270906E-01  0.95110528638E-01  0.57870702749E-01  0.89072331714E+00  0.88000000000E+00 0. -1.
        -11    1    4    4    0    0 -0.35339669223E-01 -0.66339743775E-01 -0.18612890869E-01  0.77437424107E-01  0.51100000000E-03 0.  1.
         11    1    4    4    0    0 -0.29052515382E-01 -0.35912077000E-01 -0.24489798294E-01  0.52285153399E-01  0.51100000000E-03 0. -1.
</event>
<event>
 8    1  0.1126407E+005  0.1043930E+01  0.7957747E-01            NaN
         13   -1    0    0    0    0  0.00000000000E+00  0.00000000000E+00  0.74505805969E-08  0.10566000000E+00  0.10566000000E+00 0.  1.
     999900   -1    0    0    0    0 -0.00000000000E+00 -0.00000000000E+00 -0.74505805969E-08  0.93827000000E+00  0.93827000000E+00 0.  1.
     999902    2    1    2    0    0 -0.24438666084E-02  0.97635255206E-02  0.21250777075E-01  0.10204162925E+01  0.10201453404E+01 0.  0.
     999903    2    3    3    0    0  0.12901614855E+00  0.79485550094E-02 -0.30855026751E-02  0.13031670019E+00  0.16265789469E-01 0.  0.
         14    1    1    2    0    0  0.24438666084E-02 -0.97635255206E-02 -0.21250777075E-01  0.23513707510E-01  0.00000000000E+00 0. -1.
     999901    1    3    3    0    0 -0.13146001516E+00  0.18149705112E-02  0.24336279750E-01  0.89009959230E+00  0.88000000000E+00 0. -1.
        -11    1    4    4    0    0  0.89678701825E-01  0.12939440138E-01 -0.12282876427E-02  0.90617153363E-01  0.51100000000E-03 0.  1.
         11    1    4    4    0    0  0.39337446727E-01 -0.49908851289E-02 -0.18572150323E-02  0.39699546824E-01  0.51100000000E-03 0. -1.
</event>
<event>
 8    1  0.1126407E+005  0.1043930E+01  0.7957747E-01            NaN
         13   -1    0    0    0    0  0.00000000000E+00  0.00000000000E+00  0.74505805969E-08  0.10566000000E+00  0.10566000000E+00 0. -1.
     999900   -1    0    0    0    0 -0.00000000000E+00 -0.00000000000E+00 -0.74505805969E-08  0.93827000000E+00  0.93827000000E+00 0. -1.
     999902    2    1    2    0    0  0.20667335260E-01  0.10595786818E-01  0.24730338246E-02  0.10205735161E+01  0.10203062170E+01 0.  0.
     999903    2    3    3    0    0  0.90010167151E-01  0.21291523862E-01 -0.92941296256E-01  0.13263955372E+00  0.20000187034E-01 0.  0.
         14    1    1    2    0    0 -0.20667335260E-01 -0.10595786818E-01 -0.24730338246E-02  0.23356483925E-01  0.00000000000E+00 0.  1.
     999901    1    3    3    0    0 -0.69342831890E-01 -0.10695737044E-01  0.95414330080E-01  0.88793396236E+00  0.88000000000E+00 0.  1.
        -11    1    4    4    0    0  0.77913647748E-01  0.22328840513E-01 -0.87663524926E-01  0.11939124066E+00  0.51100000000E-03 0.  1.
         11    1    4    4    0    0  0.12096519402E-01 -0.10373166507E-02 -0.52777713302E-02  0.13248313051E-01  0.51100000000E-03 0. -1.
</event>
<event>
 8    1  0.1126407E+005  0.1043930E+01  0.7957747E-01            NaN
         13   -1    0    0    0    0  0.00000000000E+00  0.00000000000E+00  0.74505805969E-08  0.10566000000E+00  0.10566000000E+00 0. -1.
     999900   -1    0    0    0    0 -0.00000000000E+00 -0.00000000000E+00 -0.74505805969E-08  0.93827000000E+00  0.93827000000E+00 0.  1.
     999902    2    1    2    0    0  0.72724299712E-02 -0.10685298578E-02  0.23019696357E-01  0.10197652237E+01  0.10194788742E+01 0.  0.
     999903    2    3    3    0    0 -0.10519993468E+00 -0.13097970697E-01 -0.68621515520E-01  0.12780510576E+00  0.19663406960E-01 0.  0.
         14    1    1    2    0    0 -0.72724299712E-02  0.10685298578E-02 -0.23019696357E-01  0.24164776310E-01  0.00000000000E+00 0.  1.
     999901    1    3    3    0    0  0.11247236465E+00  0.12029440840E-01  0.91641211877E-01  0.89196011793E+00  0.88000000000E+00 0. -1.
        -11    1    4    4    0    0 -0.53662057748E-03 -0.24185648162E-02 -0.24256397890E-02  0.35046065115E-02  0.51100000000E-03 0. -1.
         11    1    4    4    0    0 -0.10466331411E+00 -0.10679405881E-01 -0.66195875731E-01  0.12430049925E+00  0.51100000000E-03 0.  1.
</event>
<event>
 8    1  0.1126407E+005  0.1043930E+01  0.7957747E-01            NaN
         13   -1    0    0    0    0  0.00000000000E+00  0.00000000000E+00  0.74505805969E-08  0.10566000000E+00  0.10566000000E+00 0.  1.
     999900   -1    0    0    0    0 -0.00000000000E+00 -0.00000000000E+00 -0.74505805969E-08  0.93827000000E+00  0.93827000000E+00 0. -1.
     999902    2    1    2    0    0  0.22966437111E-01  0.41599025312E-03  0.82717731542E-02  0.10195158133E+01  0.10192234500E+01 0.  0.
     999903    2    3    3    0    0  0.62166333578E-01  0.60172584432E-01 -0.95673079089E-01  0.13052086689E+00  0.19923997649E-01 0.  0.
         14    1    1    2    0    0 -0.22966437111E-01 -0.41599025312E-03 -0.82717731542E-02  0.24414186707E-01  0.00000000000E+00 0. -1.
     999901    1    3    3    0    0 -0.39199896468E-01 -0.59756594178E-01  0.10394485224E+00  0.88899494641E+00  0.88000000000E+00 0.  1.
        -11    1    4    4    0    0  0.27534079726E-01  0.31362106907E-01 -0.32347931498E-01  0.52804896451E-01  0.51100000000E-03 0. -1.
         11    1    4    4    0    0  0.34632253853E-01  0.28810477524E-01 -0.63325147591E-01  0.77715970434E-01  0.51100000000E-03 0.  1.
</event>
<event>
 8    1  0.1126407E+005  0.1043930E+01  0.7957747E-01            NaN
         13   -1    0    0    0    0  0.00000000000E+00  0.00000000000E+00  0.74505805969E-08  0.10566000000E+00  0.10566000000E+00 0.  1.
     999900   -1    0    0    0    0 -0.00000000000E+00 -0.00000000000E+00 -0.74505805969E-08  0.93827000000E+00  0.93827000000E+00 0.  1.
     999902    2    1    2    0    0  0.18458953537E-01 -0.10306776992E-01 -0.11376974718E-01  0.10199217062E+01  0.10196390972E+01 0.  0.
     999903    2    3    3    0    0 -0.11507244058E+00 -0.54238569309E-01 -0.15310276417E-02  0.12871040787E+00  0.19507333692E-01 0.  0.
         14    1    1    2    0    0 -0.18458953537E-01  0.10306776992E-01  0.11376974718E-01  0.24008293804E-01  0.00000000000E+00 0.  1.
     999901    1    3    3    0    0  0.13353139411E+00  0.43931792317E-01 -0.98459470763E-02  0.89121129833E+00  0.88000000000E+00 0. -1.
        -11    1    4    4    0    0 -0.58867455530E-01 -0.17061549743E-01 -0.18407300913E-02  0.61319843513E-01  0.51100000000E-03 0. -1.
         11    1    4    4    0    0 -0.56204985046E-01 -0.37177019566E-01  0.30970244967E-03  0.67390564358E-01  0.51100000000E-03 0.  1.
</event>
<event>
 8    1  0.1126407E+005  0.1043930E+01  0.7957747E-01            NaN
         13   -1    0    0    0    0  0.00000000000E+00  0.00000000000E+00  0.74505805969E-08  0.10566000000E+00  0.10566000000E+00 0. -1.
     999900   -1    0    0    0    0 -0.00000000000E+00 -0.00000000000E+00 -0.74505805969E-08  0.93827000000E+00  0.93827000000E+00 0.  1.
     999902    2    1    2    0    0 -0.60340918834E-02  0.23849503075E-01 -0.20978462363E-02  0.10192397181E+01  0.10189406229E+01 0.  0.
     999903    2    3    3    0    0  0.75184544179E-01 -0.11638761624E-01  0.10187872457E+00  0.12869661916E+00  0.19883883111E-01 0.  0.
         14    1    1    2    0    0  0.60340918834E-02 -0.23849503075E-01  0.20978462363E-02  0.24690281906E-01  0.00000000000E+00 0.  1.
     999901    1    3    3    0    0 -0.81218636063E-01  0.35488264698E-01 -0.10397657081E+00  0.89054309893E+00  0.88000000000E+00 0.  1.
        -11    1    4    4    0    0  0.65450413541E-01 -0.44457702014E-02  0.77997782974E-01  0.10191877538E+00  0.51100000000E-03 0. -1.
         11    1    4    4    0    0  0.97341306382E-02 -0.71929914225E-02  0.23880941601E-01  0.26777843782E-01  0.51100000000E-03 0.  1.
</event>
<event>
 8    1  0.1126407E+005  0.1043930E+01  0.7957747E-01            NaN
         13   -1    0    0    0    0  0.00000000000E+00  0.00000000000E+00  0.74505805969E-08  0.10566000000E+00  0.10566000000E+00 0.  1.
     999900   -1    0    0    0    0 -0.00000000000E+00 -0.00000000000E+00 -0.74505805969E-08  0.93827000000E+00  0.93827000000E+00 0. -1.
     999902    2    1    2    0    0  0.22067647675E-01 -0.16168653088E-02 -0.52700488187E-02  0.10211842588E+01  0.10209309094E+01 0.  0.
     999903    2    3    3    0    0  0.91768879967E-01 -0.22576645325E-01 -0.92855569256E-01  0.13384621864E+00  0.19011082484E-01 0.  0.
         14    1    1    2    0    0 -0.22067647675E-01  0.16168653088E-02  0.52700488187E-02  0.22745741182E-01  0.00000000000E+00 0.  1.
     999901    1    3    3    0    0 -0.69701232292E-01  0.20959780016E-01  0.87585520438E-01  0.88733804018E+00  0.88000000000E+00 0.  1.
        -11    1    4    4    0    0  0.39400449786E-01 -0.41949489341E-02 -0.49556404727E-01  0.63451488638E-01  0.51100000000E-03 0. -1.
         11    1    4    4    0    0  0.52368430181E-01 -0.18381696391E-01 -0.43299164529E-01  0.70394730000E-01  0.51100000000E-03 0.  1.
</event>
<event>
 8    1  0.1126407E+005  0.1043930E+01  0.7957747E-01            NaN
         13   -1    0    0    0    0  0.00000000000E+00  0.00000000000E+00  0.74505805969E-08  0.10566000000E+00  0.10566000000E+00 0. -1.
     999900   -1    0    0    0    0 -0.00000000000E+00 -0.00000000000E+00 -0.74505805969E-08  0.93827000000E+00  0.93827000000E+00 0. -1.
     999902    2    1    2    0    0 -0.14710140923E-01  0.48015672244E-02 -0.16101311939E-01  0.10215985079E+01  0.10213544026E+01 0.  0.
     999903    2    3    3    0    0 -0.12418683817E+00  0.43105159687E-01 -0.16430118707E-01  0.13398799615E+00  0.20060128256E-01 0.  0.
         14    1    1    2    0    0  0.14710140923E-01 -0.48015672244E-02  0.16101311939E-01  0.22331492112E-01  0.00000000000E+00 0.  1.
     999901    1    3    3    0    0  0.10947669724E+00 -0.38303592462E-01  0.32880676834E-03  0.88761051174E+00  0.88000000000E+00 0.  1.
        -11    1    4    4    0    0 -0.87184721992E-01  0.34200180497E-01 -0.32564774376E-02  0.93710692352E-01  0.51100000000E-03 0. -1.
         11    1    4    4    0    0 -0.37002116176E-01  0.89049791894E-02 -0.13173641270E-01  0.40277303797E-01  0.51100000000E-03 0.  1.
</event>
<event>
 8    1  0.1126407E+005  0.1043930E+01  0.7957747E-01            NaN
         13   -1    0    0    0    0  0.00000000000E+00  0.00000000000E+00  0.74505805969E-08  0.10566000000E+00  0.10566000000E+00 0. -1.
     999900   -1    0    0    0    0 -0.00000000000E+00 -0.00000000000E+00 -0.74505805969E-08  0.93827000000E+00  0.93827000000E+00 0. -1.
     999902    2    1    2    0    0 -0.17886834672E-01 -0.28159932836E-03 -0.14215985378E-01  0.10210802212E+01  0.10208245225E+01 0.  0.
     999903    2    3    3    0    0  0.31328388607E-01 -0.99683376847E-01  0.74307991151E-01  0.12971085552E+00  0.19621033083E-01 0.  0.
         14    1    1    2    0    0  0.17886834672E-01  0.28159932836E-03  0.14215985378E-01  0.22849778840E-01  0.00000000000E+00 0. -1.
     999901    1    3    3    0    0 -0.49215223279E-01  0.99401777518E-01 -0.88523976530E-01  0.89136936564E+00  0.88000000000E+00 0. -1.
        -11    1    4    4    0    0  0.31827327828E-02 -0.39972189144E-01  0.31977381070E-01  0.51290542150E-01  0.51100000000E-03 0. -1.
         11    1    4    4    0    0  0.28145655824E-01 -0.59711187703E-01  0.42330610081E-01  0.78420313373E-01  0.51100000000E-03 0.  1.
</event>
<event>
 8    1  0.1126407E+005  0.1043930E+01  0.7957747E-01            NaN
         13   -1    0    0    0    0  0.00000000000E+00  0.00000000000E+00  0.74505805969E-08  0.10566000000E+00  0.10566000000E+00 0.  1.
     999900   -1    0    0    0    0 -0.00000000000E+00 -0.00000000000E+00 -0.74505805969E-08  0.93827000000E+00  0.93827000000E+00 0. -1.
     999902    2    1    2    0    0  0.20092606016E-02  0.19494447797E-02  0.24408065467E-01  0.10193619084E+01  0.10190658022E+01 0.  0.
     999903    2    3    3    0    0  0.11905470112E+00 -0.29567042578E-01 -0.34799894136E-01  0.12908189260E+00  0.20071634176E-01 0.  0.
         14    1    1    2    0    0 -0.20092606016E-02 -0.19494447797E-02 -0.24408065467E-01  0.24568091561E-01  0.00000000000E+00 0. -1.
     999901    1    3    3    0    0 -0.11704544052E+00  0.31516487358E-01  0.59207959603E-01  0.89028001584E+00  0.88000000000E+00 0.  1.
        -11    1    4    4    0    0  0.96594152898E-01 -0.30938829866E-01 -0.32233168040E-01  0.10642781502E+00  0.51100000000E-03 0. -1.
         11    1    4    4    0    0  0.22460548226E-01  0.13717872879E-02 -0.25667260953E-02  0.22654077577E-01  0.51100000000E-03 0.  1.
</event>
<event>
 8    1  0.1126407E+005  0.1043930E+01  0.7957747E-01            NaN
         13   -1    0    0    0    0  0.00000000000E+00  0.00000000000E+00  0.74505805969E-08  0.10566000000E+00  0.10566000000E+00 0. -1.
     999900   -1    0    0    0    0 -0.00000000000E+00 -0.00000000000E+00 -0.74505805969E-08  0.93827000000E+00  0.93827000000E+00 0. -1.
     999902    2    1    2    0    0  0.74620415481E-02  0.64148227198E-02  0.21973082195E-01  0.10198541126E+01  0.10195698910E+01 0.  0.
     999903    2    3    3    0    0  0.96584121448E-01 -0.78678968492E-01 -0.29793449606E-01  0.12976227896E+00  0.20778036573E-01 0.  0.
         14    1    1    2    0    0 -0.74620415481E-02 -0.64148227198E-02 -0.21973082195E-01  0.24075887434E-01  0.00000000000E+00 0.  1.
     999901    1    3    3    0    0 -0.89122079900E-01  0.85093791212E-01  0.51766531801E-01  0.89009183360E+00  0.88000000000E+00 0.  1.
        -11    1    4    4    0    0  0.12411870756E-01 -0.23459704395E-02 -0.37295895717E-02  0.13180632471E-01  0.51100000000E-03 0. -1.
         11    1    4    4    0    0  0.84172250692E-01 -0.76332998053E-01 -0.26063860034E-01  0.11658164649E+00  0.51100000000E-03 0.  1.
</event>
<event>
 8    1  0.1126407E+005  0.1043930E+01  0.7957747E-01            NaN
         13   -1    0    0    0    0  0.00000000000E+00  0.00000000000E+00  0.74505805969E-08  0.10566000000E+00  0.10566000000E+00 0.  1.
     999900   -1    0    0    0    0 -0.00000000000E+00 -0.00000000000E+00 -0.74505805969E-08  0.93827000000E+00  0.93827000000E+00 0.  1.
     999902    2    1    2    0    0  0.17307569674E-02  0.71866491976E-02  0.23882841276E-01  0.10189293289E+01  0.10186225718E+01 0.  0.
     999903    2    3    3    0    0 -0.62246921255E-01 -0.99545004477E-01  0.51439353121E-01  0.12974759804E+00  0.20113304699E-01 0.  0.
         14    1    1    2    0    0 -0.17307569674E-02 -0.71866491976E-02 -0.23882841276E-01  0.25000671067E-01  0.00000000000E+00 0. -1.
     999901    1    3    3    0    0  0.63977678223E-01  0.10673165367E+00 -0.27556511845E-01  0.88918173089E+00  0.88000000000E+00 0.  1.
        -11    1    4    4    0    0 -0.18438109546E-01 -0.46666536653E-01  0.26011402579E-01  0.56520648545E-01  0.51100000000E-03 0. -1.
         11    1    4    4    0    0 -0.43808811709E-01 -0.52878467824E-01  0.25427950542E-01  0.73226949496E-01  0.51100000000E-03 0.  1.
</event>
<event>
 8    1  0.1126407E+005  0.1043930E+01  0.7957747E-01            NaN
         13   -1    0    0    0    0  0.00000000000E+00  0.00000000000E+00  0.74505805969E-08  0.10566000000E+00  0.10566000000E+00 0. -1.
     999900   -1    0    0    0    0 -0.00000000000E+00 -0.00000000000E+00 -0.74505805969E-08  0.93827000000E+00  0.93827000000E+00 0. -1.
     999902    2    1    2    0    0  0.17542159982E-01  0.15094988783E-01 -0.91738380981E-02  0.10190353144E+01  0.10187311847E+01 0.  0.
     999903    2    3    3    0    0 -0.98617041495E-01  0.80093951089E-01 -0.11707065108E-01  0.12902169521E+00  0.19214072651E-01 0.  0.
         14    1    1    2    0    0 -0.17542159982E-01 -0.15094988783E-01  0.91738380981E-02  0.24894685550E-01  0.00000000000E+00 0. -1.
     999901    1    3    3    0    0  0.11615920148E+00 -0.64998962306E-01  0.25332270097E-02  0.89001361924E+00  0.88000000000E+00 0. -1.
        -11    1    4    4    0    0 -0.61330531828E-01  0.51360502936E-01  0.18950631788E-02  0.80019921155E-01  0.51100000000E-03 0.  1.
         11    1    4    4    0    0 -0.37286509667E-01  0.28733448153E-01 -0.13602128287E-01  0.49001774058E-01  0.51100000000E-03 0. -1.
</event>
<event>
 8    1  0.1126407E+005  0.1043930E+01  0.7957747E-01            NaN
         13   -1    0    0    0    0  0.00000000000E+00  0.00000000000E+00  0.74505805969E-08  0.10566000000E+00  0.10566000000E+00 0.  1.
     999900   -1    0    0    0    0 -0.00000000000E+00 -0.00000000000E+00 -0.74505805969E-08  0.93827000000E+00  0.93827000000E+00 0.  1.
     999902    2    1    2    0    0 -0.80321046741E-02  0.20940160480E-01 -0.65209555257E-02  0.10205734616E+01  0.10203061612E+01 0.  0.
     999903    2    3    3    0    0  0.10495563053E+00  0.71470150386E-01 -0.27633554246E-01  0.13166106431E+00  0.21150786207E-01 0.  0.
         14    1    1    2    0    0  0.80321046741E-02 -0.20940160480E-01  0.65209555257E-02  0.23356538430E-01  0.00000000000E+00 0.  1.
     999901    1    3    3    0    0 -0.11298773521E+00 -0.50529989905E-01  0.21112598720E-01  0.88891239727E+00  0.88000000000E+00 0.  1.
        -11    1    4    4    0    0  0.27071083825E-01  0.27267729720E-01 -0.14857313597E-01  0.41199193583E-01  0.51100000000E-03 0. -1.
         11    1    4    4    0    0  0.77884546707E-01  0.44202420666E-01 -0.12776240649E-01  0.90461870723E-01  0.51100000000E-03 0.  1.
</event>
<event>
 8    1  0.1126407E+005  0.1043930E+01  0.7957747E-01            NaN
         13   -1    0    0    0    0  0.00000000000E+00  0.00000000000E+00  0.74505805969E-08  0.10566000000E+00  0.10566000000E+00 0.  1.
     999900   -1    0    0    0    0 -0.00000000000E+00 -0.00000000000E+00 -0.74505805969E-08  0.93827000000E+00  0.93827000000E+00 0. -1.
     999902    2    1    2    0    0 -0.69550437428E-02  0.16197334442E-01  0.16386492679E-01  0.10198625236E+01  0.10195785030E+01 0.  0.
     999903    2    3    3    0    0  0.98832190660E-01  0.63339174111E-02 -0.78916596400E-01  0.12836327812E+00  0.21009082837E-01 0.  0.
         14    1    1    2    0    0  0.69550437428E-02 -0.16197334442E-01 -0.16386492679E-01  0.24067476370E-01  0.00000000000E+00 0. -1.
     999901    1    3    3    0    0 -0.10578723440E+00  0.98634170312E-02  0.95303089080E-01  0.89149924551E+00  0.88000000000E+00 0.  1.
        -11    1    4    4    0    0  0.55191846689E-01  0.15787594989E-02 -0.56761259391E-01  0.79187966960E-01  0.51100000000E-03 0. -1.
         11    1    4    4    0    0  0.43640343970E-01  0.47551579122E-02 -0.22155337009E-01  0.49175311159E-01  0.51100000000E-03 0.  1.
</event>
<event>
 8    1  0.1126407E+005  0.1043930E+01  0.7957747E-01            NaN
         13   -1    0    0    0    0  0.00000000000E+00  0.00000000000E+00  0.74505805969E-08  0.10566000000E+00  0.10566000000E+00 0. -1.
     999900   -1    0    0    0    0 -0.00000000000E+00 -0.00000000000E+00 -0.74505805969E-08  0.93827000000E+00  0.93827000000E+00 0. -1.
     999902    2    1    2    0    0 -0.55248235781E-02  0.12134136333E-01  0.20214927962E-01  0.10197142148E+01  0.10194266406E+01 0.  0.
     999903    2    3    3    0    0  0.10757180487E+00  0.22489507127E-01  0.68649349001E-01  0.13109507580E+00  0.19892577641E-01 0.  0.
         14    1    1    2    0    0  0.55248235781E-02 -0.12134136333E-01 -0.20214927962E-01  0.24215785195E-01  0.00000000000E+00 0.  1.
     999901    1    3    3    0    0 -0.11309662845E+00 -0.10355370794E-01 -0.48434421039E-01  0.88861913901E+00  0.88000000000E+00 0. -1.
        -11    1    4    4    0    0  0.84096147794E-01  0.16592076072E-01  0.62590209509E-01  0.10613790327E+00  0.51100000000E-03 0.  1.
         11    1    4    4    0    0  0.23475657079E-01  0.58974310544E-02  0.60591394921E-02  0.24957172530E-01  0.51100000000E-03 0. -1.
</event>
<event>
 8    1  0.1126407E+005  0.1043930E+01  0.7957747E-01            NaN
         13   -1    0    0    0    0  0.00000000000E+00  0.00000000000E+00  0.74505805969E-08  0.10566000000E+00  0.10566000000E+00 0. -1.
     999900   -1    0    0    0    0 -0.00000000000E+00 -0.00000000000E+00 -0.74505805969E-08  0.93827000000E+00  0.93827000000E+00 0. -1.
     999902    2    1    2    0    0  0.79246621953E-02 -0.24803391734E-02 -0.24014862886E-01  0.10185200415E+01  0.10182030293E+01 0.  0.
     999903    2    3    3    0    0  0.76680842345E-01  0.81557212315E-01 -0.64845492427E-01  0.13090702743E+00  0.20004536489E-01 0.  0.
         14    1    1    2    0    0 -0.79246621953E-02  0.24803391734E-02  0.24014862886E-01  0.25409958535E-01  0.00000000000E+00 0. -1.
     999901    1    3    3    0    0 -0.68756180149E-01 -0.84037551489E-01  0.40830629542E-01  0.88761301403E+00  0.88000000000E+00 0. -1.
        -11    1    4    4    0    0  0.61612852727E-01  0.71661006549E-01 -0.47053586054E-01  0.10557340841E+00  0.51100000000E-03 0.  1.
         11    1    4    4    0    0  0.15067989618E-01  0.98962057660E-02 -0.17791906374E-01  0.25333619029E-01  0.51100000000E-03 0. -1.
</event>
<event>
 8    1  0.1126407E+005  0.1043930E+01  0.7957747E-01            NaN
         13   -1    0    0    0    0  0.00000000000E+00  0.00000000000E+00  0.74505805969E-08  0.10566000000E+00  0.10566000000E+00 0.  1.
     999900   -1    0    0    0    0 -0.00000000000E+00 -0.00000000000E+00 -0.74505805969E-08  0.93827000000E+00  0.93827000000E+00 0.  1.
     999902    2    1    2    0    0 -0.11561496267E-01  0.13499744320E-01 -0.15917795827E-01  0.10200702532E+01  0.10197911717E+01 0.  0.
     999903    2    3    3    0    0 -0.58799375117E-01  0.11097268531E+00  0.35867707797E-01  0.13191816612E+00  0.18536631043E-01 0.  0.
         14    1    1    2    0    0  0.11561496267E-01 -0.13499744320E-01  0.15917795827E-01  0.23859746785E-01  0.00000000000E+00 0. -1.
     999901    1    3    3    0    0  0.47237878850E-01 -0.97472940993E-01 -0.51785503625E-01  0.88815208709E+00  0.88000000000E+00 0. -1.
        -11    1    4    4    0    0 -0.21689047996E-01  0.39357790632E-01  0.37465809448E-02  0.45097100529E-01  0.51100000000E-03 0.  1.
         11    1    4    4    0    0 -0.37110327122E-01  0.71614894681E-01  0.32121126852E-01  0.86821065592E-01  0.51100000000E-03 0. -1.
</event>
<event>
 8    1  0.1126407E+005  0.1043930E+01  0.7957747E-01            NaN
         13   -1    0    0    0    0  0.00000000000E+00  0.00000000000E+00  0.74505805969E-08  0.10566000000E+00  0.10566000000E+00 0. -1.
     999900   -1    0    0    0    0 -0.00000000000E+00 -0.00000000000E+00 -0.74505805969E-08  0.93827000000E+00  0.93827000000E+00 0. -1.
     999902    2    1    2    0    0  0.22989719498E-02  0.95417947392E-02 -0.21573187605E-01  0.10202290814E+01  0.10199537465E+01 0.  0.
     999903    2    3    3    0    0  0.87768850679E-01 -0.72466575743E-01 -0.62321059350E-01  0.13135852724E+00  0.20405207471E-01 0.  0.
         14    1    1    2    0    0 -0.22989719498E-02 -0.95417947392E-02  0.21573187605E-01  0.23700918596E-01  0.00000000000E+00 0. -1.
     999901    1    3    3    0    0 -0.85469878729E-01  0.82008370482E-01  0.40747871745E-01  0.88887055416E+00  0.88000000000E+00 0.  1.
        -11    1    4    4    0    0  0.20632846823E-01 -0.22738146992E-01 -0.26078023531E-01  0.40287245239E-01  0.51100000000E-03 0. -1.
         11    1    4    4    0    0  0.67136003856E-01 -0.49728428751E-01 -0.36243035820E-01  0.91071282006E-01  0.51100000000E-03 0.  1.
</event>
<event>
 8    1  0.1126407E+005  0.1043930E+01  0.7957747E-01            NaN
         13   -1    0    0    0    0  0.00000000000E+00  0.00000000000E+00  0.74505805969E-08  0.10566000000E+00  0.10566000000E+00 0.  1.
     999900   -1    0    0    0    0 -0.00000000000E+00 -0.00000000000E+00 -0.74505805969E-08  0.93827000000E+00  0.93827000000E+00 0.  1.
     999902    2    1    2    0    0 -0.14106948914E-01  0.14964520579E-01 -0.76182290801E-02  0.10219987370E+01  0.10217633963E+01 0.  0.
     999903    2    3    3    0    0 -0.28583492904E-01  0.11012543358E+00 -0.69105524497E-01  0.13461727605E+00  0.20040217246E-01 0.  0.
         14    1    1    2    0    0  0.14106948914E-01 -0.14964520579E-01  0.76182290801E-02  0.21931263031E-01  0.00000000000E+00 0. -1.
     999901    1    3    3    0    0  0.14476543990E-01 -0.95160912998E-01  0.61487295417E-01  0.88738146092E+00  0.88000000000E+00 0.  1.
        -11    1    4    4    0    0 -0.26566673641E-01  0.64191019939E-01 -0.43886896684E-01  0.82174180925E-01  0.51100000000E-03 0.  1.
         11    1    4    4    0    0 -0.20168192626E-02  0.45934413638E-01 -0.25218627813E-01  0.52443095122E-01  0.51100000000E-03 0. -1.
</event>
<event>
 8    1  0.1126407E+005  0.1043930E+01  0.7957747E-01            NaN
         13   -1    0    0    0    0  0.00000000000E+00  0.00000000000E+00  0.74505805969E-08  0.10566000000E+00  0.10566000000E+00 0.  1.
     999900   -1    0    0    0    0 -0.00000000000E+00 -0.00000000000E+00 -0.74505805969E-08  0.93827000000E+00  0.93827000000E+00 0. -1.
     999902    2    1    2    0    0  0.19562247923E-01 -0.16135637023E-01 -0.37882147981E-02  0.10182903647E+01  0.10179675221E+01 0.  0.
     999903    2    3    3    0    0 -0.69004858721E-01  0.74578757714E-01 -0.72709487286E-01  0.12653738570E+00  0.20034440565E-01 0.  0.
         14    1    1    2    0    0 -0.19562247923E-01  0.16135637023E-01  0.37882147981E-02  0.25639635280E-01  0.00000000000E+00 0. -1.
     999901    1    3    3    0    0  0.88567106644E-01 -0.90714394737E-01  0.68921272488E-01  0.89175297902E+00  0.88000000000E+00 0.  1.
        -11    1    4    4    0    0 -0.32289700901E-01  0.39584896736E-01 -0.24891912814E-01  0.56828314056E-01  0.51100000000E-03 0.  1.
         11    1    4    4    0    0 -0.36715157820E-01  0.34993860978E-01 -0.47817574473E-01  0.69709071643E-01  0.51100000000E-03 0. -1.
</event>
<event>
 8    1  0.1126407E+005  0.1043930E+01  0.7957747E-01            NaN
         13   -1    0    0    0    0  0.00000000000E+00  0.00000000000E+00  0.74505805969E-08  0.10566000000E+00  0.10566000000E+00 0.  1.
     999900   -1    0    0    0    0 -0.00000000000E+00 -0.00000000000E+00 -0.74505805969E-08  0.93827000000E+00  0.93827000000E+00 0. -1.
     999902    2    1    2    0    0  0.16196987168E-01 -0.13393544109E-01 -0.92244163126E-02  0.10209774561E+01  0.10207194259E+01 0.  0.
     999903    2    3    3    0    0 -0.12430105462E+00 -0.17206297928E-01 -0.26031638604E-01  0.12966565901E+00  0.19716187515E-01 0.  0.
         14    1    1    2    0    0 -0.16196987168E-01  0.13393544109E-01  0.92244163126E-02  0.22952543942E-01  0.00000000000E+00 0.  1.
     999901    1    3    3    0    0  0.14049804179E+00  0.38127538188E-02  0.16807222291E-01  0.89131179705E+00  0.88000000000E+00 0. -1.
        -11    1    4    4    0    0 -0.36852137970E-01 -0.90182108230E-03  0.38541110680E-03  0.36868726815E-01  0.51100000000E-03 0. -1.
         11    1    4    4    0    0 -0.87448916648E-01 -0.16304476846E-01 -0.26417049710E-01  0.92796932193E-01  0.51100000000E-03 0.  1.
</event>
<event>
 8    1  0.1126407E+005  0.1043930E+01  0.7957747E-01            NaN
         13   -1    0    0    0    0  0.00000000000E+00  0.00000000000E+00  0.74505805969E-08  0.10566000000E+00  0.10566000000E+00 0. -1.
     999900   -1    0    0    0    0 -0.00000000000E+00 -0.00000000000E+00 -0.74505805969E-08  0.93827000000E+00  0.93827000000E+00 0.  1.
     999902    2    1    2    0    0 -0.26324621884E-02  0.31105834529E-02  0.23319750369E-01  0.10202568856E+01  0.10199822039E+01 0.  0.
     999903    2    3    3    0    0 -0.99482993022E-01 -0.36801428152E-01 -0.70650260967E-01  0.12907600779E+00  0.20443712940E-01 0.  0.
         14    1    1    2    0    0  0.26324621884E-02 -0.31105834529E-02 -0.23319750369E-01  0.23673114368E-01  0.00000000000E+00 0.  1.
     999901    1    3    3    0    0  0.96850530834E-01  0.39912011605E-01  0.93970011336E-01  0.89118087784E+00  0.88000000000E+00 0. -1.
        -11    1    4    4    0    0 -0.38207354941E-01 -0.18841140261E-01 -0.39207504322E-01  0.57898877831E-01  0.51100000000E-03 0.  1.
         11    1    4    4    0    0 -0.61275638082E-01 -0.17960287891E-01 -0.31442756645E-01  0.71177129964E-01  0.51100000000E-03 0. -1.
</event>
<event>
 8    1  0.1126407E+005  0.1043930E+01  0.7957747E-01            NaN
         13   -1    0    0    0    0  0.00000000000E+00  0.00000000000E+00  0.74505805969E-08  0.10566000000E+00  0.10566000000E+00 0.  1.
     999900   -1    0    0    0    0 -0.00000000000E+00 -0.00000000000E+00 -0.74505805969E-08  0.93827000000E+00  0.93827000000E+00 0.  1.
     999902    2    1    2    0    0 -0.83050770939E-02 -0.15011689240E-01  0.16768552802E-01  0.10199402213E+01  0.10196580532E+01 0.  0.
     999903    2    3    3    0    0  0.11242849235E+00 -0.10303978465E-01  0.62337067282E-01  0.13051611163E+00  0.20055113402E-01 0.  0.
         14    1    1    2    0    0  0.83050770939E-02  0.15011689240E-01 -0.16768552802E-01  0.23989778708E-01  0.00000000000E+00 0. -1.
     999901    1    3    3    0    0 -0.12073356945E+00 -0.47077107751E-02 -0.45568514479E-01  0.88942410966E+00  0.88000000000E+00 0.  1.
        -11    1    4    4    0    0  0.72443143337E-01 -0.11578250842E-01  0.30779928763E-01  0.79559600582E-01  0.51100000000E-03 0.  1.
         11    1    4    4    0    0  0.39985349014E-01  0.12742723763E-02  0.31557138519E-01  0.50956511050E-01  0.51100000000E-03 0. -1.
</event>
<event>
 8    1  0.1126407E+005  0.1043930E+01  0.7957747E-01            NaN
         13   -1    0    0    0    0  0.00000000000E+00  0.00000000000E+00  0.74505805969E-08  0.10566000000E+00  0.10566000000E+00 0. -1.
     999900   -1    0    0    0    0 -0.00000000000E+00 -0.00000000000E+00 -0.74505805969E-08  0.93827000000E+00  0.93827000000E+00 0. -1.
     999902    2    1    2    0    0  0.10967153937E-01  0.18295769875E-01  0.10541631527E-01  0.10201363106E+01  0.10198587905E+01 0.  0.
     999903    2    3    3    0    0  0.12096795095E+00  0.77115464837E-02  0.50911897817E-01  0.13230639471E+00  0.14840742341E-01 0.  0.
         14    1    1    2    0    0 -0.10967153937E-01 -0.18295769875E-01 -0.10541631527E-01  0.23793689416E-01  0.00000000000E+00 0. -1.
     999901    1    3    3    0    0 -0.11000079702E+00  0.10584223391E-01 -0.40370266290E-01  0.88782991588E+00  0.88000000000E+00 0. -1.
        -11    1    4    4    0    0  0.32969057496E-01  0.22368406181E-02  0.21201161812E-01  0.39264648111E-01  0.51100000000E-03 0. -1.
         11    1    4    4    0    0  0.87998893459E-01  0.54747058656E-02  0.29710736005E-01  0.93041746594E-01  0.51100000000E-03 0.  1.
</event>
<event>
 7    1  0.1126407E+005  0.1043930E+01  0.7957747E-01            NaN
         13   -1    0    0    0    0  0.00000000000E+00  0.00000000000E+00  0.74505805969E-08  0.10566000000E+00  0.10566000000E+00 0.  1.
     999900   -1    0    0    0    0 -0.00000000000E+00 -0.00000000000E+00 -0.74505805969E-08  0.93827000000E+00  0.93827000000E+00 0.  1.
     999902    2    1    2    0    0 -0.20739236434E-01  0.79945437793E-02  0.94934222010E-02  0.10197607277E+01  0.10194742704E+01 0.  0.
         14    1    1    2    0    0  0.20739236434E-01 -0.79945437793E-02 -0.94934222010E-02  0.24169272293E-01  0.00000000000E+00 0. -1.
     999901    1    3    3    0    0 -0.21001918792E-01 -0.11122796948E+00  0.49378259831E-01  0.88862306651E+00  0.88000000000E+00 0. -1.
        -11    1    3    3    0    0  0.14978974522E-01  0.37690501392E-01 -0.22846235793E-01  0.46552714033E-01  0.51100000000E-03 0.  1.
         11    1    3    3    0    0 -0.14716292164E-01  0.81532011863E-01 -0.17038601837E-01  0.84584947165E-01  0.51100000000E-03 0. -1.
</event>
<event>
 8    1  0.1126407E+005  0.1043930E+01  0.7957747E-01            NaN
         13   -1    0    0    0    0  0.00000000000E+00  0.00000000000E+00  0.74505805969E-08  0.10566000000E+00  0.10566000000E+00 0.  1.
     999900   -1    0    0    0    0 -0.00000000000E+00 -0.00000000000E+00 -0.74505805969E-08  0.93827000000E+00  0.93827000000E+00 0.  1.
     999902    2    1    2    0    0  0.22054503254E-01  0.48904371309E-02  0.64281103531E-02  0.10204430229E+01  0.10201726937E+01 0.  0.
     999903    2    3    3    0    0  0.26939299916E-01  0.24422346943E-02 -0.12616572574E+00  0.13049303540E+00  0.19466677881E-01 0.  0.
         14    1    1    2    0    0 -0.22054503254E-01 -0.48904371309E-02 -0.64281103531E-02  0.23486977068E-01  0.00000000000E+00 0. -1.
     999901    1    3    3    0    0 -0.48847966621E-02  0.24482024366E-02  0.13259383609E+00  0.88994998753E+00  0.88000000000E+00 0. -1.
        -11    1    4    4    0    0 -0.74292325859E-03  0.21928936590E-02 -0.38180686648E-01  0.38254237301E-01  0.51100000000E-03 0.  1.
         11    1    4    4    0    0  0.27682223174E-01  0.24934103531E-03 -0.87985039089E-01  0.92238798102E-01  0.51100000000E-03 0. -1.
</event>
<event>
 8    1  0.1126407E+005  0.1043930E+01  0.7957747E-01            NaN
         13   -1    0    0    0    0  0.00000000000E+00  0.00000000000E+00  0.74505805969E-08  0.10566000000E+00  0.10566000000E+00 0. -1.
     999900   -1    0    0    0    0 -0.00000000000E+00 -0.00000000000E+00 -0.74505805969E-08  0.93827000000E+00  0.93827000000E+00 0. -1.
     999902    2    1    2    0    0 -0.96212463202E-02 -0.15686992836E-01 -0.13348190605E-01  0.10211962296E+01  0.10209431497E+01 0.  0.
     999903    2    3    3    0    0  0.75873876973E-01  0.23132309422E-01 -0.10307610364E+00  0.13166407574E+00  0.20464524291E-01 0.  0.
         14    1    1    2    0    0  0.96212463202E-02  0.15686992836E-01  0.13348190605E-01  0.22733770418E-01  0.00000000000E+00 0. -1.
     999901    1    3    3    0    0 -0.85495123293E-01 -0.38819302258E-01  0.89727913032E-01  0.88953215384E+00  0.88000000000E+00 0.  1.
        -11    1    4    4    0    0  0.49958754816E-01  0.50985118010E-02 -0.66745409482E-01  0.83528933988E-01  0.51100000000E-03 0. -1.
         11    1    4    4    0    0  0.25915122157E-01  0.18033797621E-01 -0.36330694155E-01  0.48135141755E-01  0.51100000000E-03 0.  1.
</event>
<event>
 8    1  0.1126407E+005  0.1043930E+01  0.7957747E-01            NaN
         13   -1    0    0    0    0  0.00000000000E+00  0.00000000000E+00  0.74505805969E-08  0.10566000000E+00  0.10566000000E+00 0. -1.
     999900   -1    0    0    0    0 -0.00000000000E+00 -0.00000000000E+00 -0.74505805969E-08  0.93827000000E+00  0.93827000000E+00 0. -1.
     999902    2    1    2    0    0 -0.30044656200E-02 -0.21385463679E-01 -0.84327282603E-02  0.10207464762E+01  0.10204831664E+01 0.  0.
     999903    2    3    3    0    0 -0.81906171341E-01  0.82902416864E-01 -0.53616134300E-01  0.12993618136E+00  0.20670987956E-01 0.  0.
         14    1    1    2    0    0  0.30044656200E-02  0.21385463679E-01  0.84327282603E-02  0.23183523812E-01  0.00000000000E+00 0. -1.
     999901    1    3    3    0    0  0.78901705721E-01 -0.10428788054E+00  0.45183406040E-01  0.89081029483E+00  0.88000000000E+00 0.  1.
        -11    1    4    4    0    0 -0.14145965499E-01  0.25680207637E-01 -0.91159118287E-02  0.30707366765E-01  0.51100000000E-03 0. -1.
         11    1    4    4    0    0 -0.67760205842E-01  0.57222209227E-01 -0.44500222471E-01  0.99228814593E-01  0.51100000000E-03 0.  1.
</event>
<event>
 8    1  0.1126407E+005  0.1043930E+01  0.7957747E-01            NaN
         13   -1    0    0    0    0  0.00000000000E+00  0.00000000000E+00  0.74505805969E-08  0.10566000000E+00  0.10566000000E+00 0. -1.
     999900   -1    0    0    0    0 -0.00000000000E+00 -0.00000000000E+00 -0.74505805969E-08  0.93827000000E+00  0.93827000000E+00 0. -1.
     999902    2    1    2    0    0 -0.17113826783E-01 -0.52863403115E-02  0.15397299281E-01  0.10203099812E+01  0.10200365447E+01 0.  0.
     999903    2    3    3    0    0  0.52611397292E-02 -0.61225983421E-01  0.11598049799E+00  0.13253362277E+00  0.18368032393E-01 0.  0.
         14    1    1    2    0    0  0.17113826783E-01  0.52863403115E-02 -0.15397299281E-01  0.23620018759E-01  0.00000000000E+00 0.  1.
     999901    1    3    3    0    0 -0.22374966512E-01  0.55939643109E-01 -0.10058319871E+00  0.88777635847E+00  0.88000000000E+00 0. -1.
        -11    1    4    4    0    0  0.59892469961E-02 -0.28860166859E-01  0.72958235152E-01  0.78688916044E-01  0.51100000000E-03 0.  1.
         11    1    4    4    0    0 -0.72810726684E-03 -0.32365816561E-01  0.43022262836E-01  0.53844706726E-01  0.51100000000E-03 0. -1.
</event>
<event>
 8    1  0.1126407E+005  0.1043930E+01  0.7957747E-01            NaN
         13   -1    0    0    0    0  0.00000000000E+00  0.00000000000E+00  0.74505805969E-08  0.10566000000E+00  0.10566000000E+00 0. -1.
     999900   -1    0    0    0    0 -0.00000000000E+00 -0.00000000000E+00 -0.74505805969E-08  0.93827000000E+00  0.93827000000E+00 0. -1.
     999902    2    1    2    0    0  0.78206365160E-02  0.97924040117E-02 -0.20459599958E-01  0.10199373186E+01  0.10196550814E+01 0.  0.
     999903    2    3    3    0    0  0.10346405523E+00  0.79784096291E-01  0.40414186772E-03  0.13174713834E+00  0.16936126593E-01 0.  0.
         14    1    1    2    0    0 -0.78206365160E-02 -0.97924040117E-02  0.20459599958E-01  0.23992681432E-01  0.00000000000E+00 0.  1.
     999901    1    3    3    0    0 -0.95643418716E-01 -0.69991692279E-01 -0.20863741826E-01  0.88819018023E+00  0.88000000000E+00 0.  1.
        -11    1    4    4    0    0  0.44822641071E-01  0.24850804730E-01  0.31125379036E-02  0.51347645141E-01  0.51100000000E-03 0.  1.
         11    1    4    4    0    0  0.58641414161E-01  0.54933291561E-01 -0.27083960359E-02  0.80399493199E-01  0.51100000000E-03 0. -1.
</event>
<event>
 8    1  0.1126407E+005  0.1043930E+01  0.7957747E-01            NaN
         13   -1    0    0    0    0  0.00000000000E+00  0.00000000000E+00  0.74505805969E-08  0.10566000000E+00  0.10566000000E+00 0. -1.
     999900   -1    0    0    0    0 -0.00000000000E+00 -0.00000000000E+00 -0.74505805969E-08  0.93827000000E+00  0.93827000000E+00 0.  1.
     999902    2    1    2    0    0 -0.21395608137E-01  0.64967142845E-02  0.11514655774E-01  0.10187791224E+01  0.10184686219E+01 0.  0.
     999903    2    3    3    0    0  0.93106362604E-02  0.10343062072E+00 -0.73465904219E-01  0.12885735553E+00  0.20552317180E-01 0.  0.
         14    1    1    2    0    0  0.21395608137E-01 -0.64967142845E-02 -0.11514655774E-01  0.25150877552E-01  0.00000000000E+00 0.  1.
     999901    1    3    3    0    0 -0.30706244397E-01 -0.96933906433E-01  0.84980559993E-01  0.88992176692E+00  0.88000000000E+00 0. -1.
        -11    1    4    4    0    0  0.10883991640E-01  0.41359045183E-01 -0.38774029891E-01  0.57729701259E-01  0.51100000000E-03 0.  1.
         11    1    4    4    0    0 -0.15733553795E-02  0.62071575534E-01 -0.34691874328E-01  0.71127654269E-01  0.51100000000E-03 0. -1.
</event>
<event>
 8    1  0.1126407E+005  0.1043930E+01  0.7957747E-01            NaN
         13   -1    0    0    0    0  0.00000000000E+00  0.00000000000E+00  0.74505805969E-08  0.10566000000E+00  0.10566000000E+00 0.  1.
     999900   -1    0    0    0    0 -0.00000000000E+00 -0.00000000000E+00 -0.74505805969E-08  0.93827000000E+00  0.93827000000E+00 0. -1.
     999902    2    1    2    0    0 -0.19547232235E-01 -0.48413974653E-03 -0.14301616001E-01  0.10197047054E+01  0.10194169026E+01 0.  0.
     999903    2    3    3    0    0  0.36388508424E-01 -0.11627884502E+00  0.37040342986E-01  0.12887743951E+00  0.19811967676E-01 0.  0.
         14    1    1    2    0    0  0.19547232235E-01  0.48413974653E-03  0.14301616001E-01  0.24225294623E-01  0.00000000000E+00 0.  1.
     999901    1    3    3    0    0 -0.55935740660E-01  0.11579470527E+00 -0.51341958987E-01  0.89082726586E+00  0.88000000000E+00 0. -1.
        -11    1    4    4    0    0  0.37882757191E-01 -0.99017125779E-01  0.33512028754E-01  0.11118818140E+00  0.51100000000E-03 0.  1.
         11    1    4    4    0    0 -0.14942487664E-02 -0.17261719239E-01  0.35283142314E-02  0.17689258118E-01  0.51100000000E-03 0. -1.
</event>
<event>
 8    1  0.1126407E+005  0.1043930E+01  0.7957747E-01            NaN
         13   -1    0    0    0    0  0.00000000000E+00  0.00000000000E+00  0.74505805969E-08  0.10566000000E+00  0.10566000000E+00 0.  1.
     999900   -1    0    0    0    0 -0.00000000000E+00 -0.00000000000E+00 -0.74505805969E-08  0.93827000000E+00  0.93827000000E+00 0. -1.
     999902    2    1    2    0    0 -0.14404760092E-01 -0.15278248892E-01  0.49658248869E-02  0.10223526642E+01  0.10221249379E+01 0.  0.
     999903    2    3    3    0    0 -0.17150129176E-01 -0.13079780625E+00 -0.17195409526E-01  0.13452192275E+00  0.19956766810E-01 0.  0.
         14    1    1    2    0    0  0.14404760092E-01  0.15278248892E-01 -0.49658248869E-02  0.21577335780E-01  0.00000000000E+00 0.  1.
     999901    1    3    3    0    0  0.27453690839E-02  0.11551955736E+00  0.22161234413E-01  0.88783074147E+00  0.88000000000E+00 0.  1.
        -11    1    4    4    0    0 -0.19294256953E-01 -0.89548337748E-01 -0.17243457157E-01  0.93213577769E-01  0.51100000000E-03 0.  1.
         11    1    4    4    0    0  0.21441277769E-02 -0.41249468504E-01  0.48047631251E-04  0.41308344984E-01  0.51100000000E-03 0. -1.
</event>
<event>
 8    1  0.1126407E+005  0.1043930E+01  0.7957747E-01            NaN
         13   -1    0    0    0    0  0.00000000000E+00  0.00000000000E+00  0.74505805969E-08  0.10566000000E+00  0.10566000000E+00 0.  1.
     999900   -1    0    0    0    0 -0.00000000000E+00 -0.00000000000E+00 -0.74505805969E-08  0.93827000000E+00  0.93827000000E+00 0. -1.
     999902    2    1    2    0    0  0.99679938779E-02  0.20716310443E-01  0.63743605898E-02  0.10200729488E+01  0.10197939311E+01 0.  0.
     999903    2    3    3    0    0  0.48787585005E-01 -0.80239860630E-01  0.86112856667E-01  0.12987222035E+00  0.25153644865E-01 0.  0.
         14    1    1    2    0    0 -0.99679938779E-02 -0.20716310443E-01 -0.63743605898E-02  0.23857051227E-01  0.00000000000E+00 0. -1.
     999901    1    3    3    0    0 -0.38819591128E-01  0.10095617107E+00 -0.79738496077E-01  0.89020072843E+00  0.88000000000E+00 0. -1.
        -11    1    4    4    0    0  0.29764370734E-01 -0.54675098467E-01  0.40646328847E-01  0.74348297407E-01  0.51100000000E-03 0.  1.
         11    1    4    4    0    0  0.19023214272E-01 -0.25564762163E-01  0.45466527820E-01  0.55523922940E-01  0.51100000000E-03 0. -1.
</event>
<event>
 8    1  0.1126407E+005  0.1043930E+01  0.7957747E-01            NaN
         13   -1    0    0    0    0  0.00000000000E+00  0.00000000000E+00  0.74505805969E-08  0.10566000000E+00  0.10566000000E+00 0. -1.
     999900   -1    0    0    0    0 -0.00000000000E+00 -0.00000000000E+00 -0.74505805969E-08  0.93827000000E+00  0.93827000000E+00 0.  1.
     999902    2    1    2    0    0  0.10449220091E-01 -0.21555949655E-01 -0.32606904040E-02  0.10197540353E+01  0.10194674175E+01 0.  0.
     999903    2    3    3    0    0 -0.58523470601E-01 -0.37518586999E-01  0.10789897107E+00  0.12994028617E+00  0.20239788280E-01 0.  0.
         14    1    1    2    0    0 -0.10449220091E-01  0.21555949655E-01  0.32606904040E-02  0.24175964675E-01  0.00000000000E+00 0. -1.
     999901    1    3    3    0    0  0.68972690692E-01  0.15962637344E-01 -0.11115966147E+00  0.88981374916E+00  0.88000000000E+00 0.  1.
        -11    1    4    4    0    0 -0.10044351227E-01 -0.14315862654E-01  0.37396804204E-01  0.41286983430E-01  0.51100000000E-03 0. -1.
         11    1    4    4    0    0 -0.48479119375E-01 -0.23202724344E-01  0.70502166866E-01  0.88653302737E-01  0.51100000000E-03 0.  1.
</event>
<event>
 8    1  0.1126407E+005  0.1043930E+01  0.7957747E-01            NaN
         13   -1    0    0    0    0  0.00000000000E+00  0.00000000000E+00  0.74505805969E-08  0.10566000000E+00  0.10566000000E+00 0.  1.
     999900   -1    0    0    0    0 -0.00000000000E+00 -0.00000000000E+00 -0.74505805969E-08  0.93827000000E+00  0.93827000000E+00 0. -1.
     999902    2    1    2    0    0 -0.18044893796E-01 -0.10983967634E-01 -0.81133082533E-02  0.10213005610E+01  0.10210498247E+01 0.  0.
     999903    2    3    3    0    0  0.52911191226E-01  0.45161683250E-01 -0.10864297037E+00  0.13096730147E+00  0.22582454538E-01 0.  0.
         14    1    1    2    0    0  0.18044893796E-01  0.10983967634E-01  0.81133082533E-02  0.22629438966E-01  0.00000000000E+00 0.  1.
     999901    1    3    3    0    0 -0.70956085022E-01 -0.56145650884E-01  0.10052966212E+00  0.89033325956E+00  0.88000000000E+00 0.  1.
        -11    1    4    4    0    0  0.22327298091E-01  0.10572257509E-01 -0.23447507511E-01  0.34063581702E-01  0.51100000000E-03 0.  1.
         11    1    4    4    0    0  0.30583893135E-01  0.34589425741E-01 -0.85195462861E-01  0.96903719771E-01  0.51100000000E-03 0. -1.
</event>
<event>
 8    1  0.1126407E+005  0.1043930E+01  0.7957747E-01            NaN
         13   -1    0    0    0    0  0.00000000000E+00  0.00000000000E+00  0.74505805969E-08  0.10566000000E+00  0.10566000000E+00 0. -1.
     999900   -1    0    0    0    0 -0.00000000000E+00 -0.00000000000E+00 -0.74505805969E-08  0.93827000000E+00  0.93827000000E+00 0. -1.
     999902    2    1    2    0    0 -0.55032629602E-02  0.78008725755E-02 -0.22264523490E-01  0.10197050434E+01  0.10194172487E+01 0.  0.
     999903    2    3    3    0    0 -0.79585526353E-01  0.72774000649E-01 -0.74438715079E-01  0.13266962393E+00  0.20741158019E-01 0.  0.
         14    1    1    2    0    0  0.55032629602E-02 -0.78008725755E-02  0.22264523490E-01  0.24224956602E-01  0.00000000000E+00 0. -1.
     999901    1    3    3    0    0  0.74082263393E-01 -0.64973128073E-01  0.52174191589E-01  0.88703541947E+00  0.88000000000E+00 0. -1.
        -11    1    4    4    0    0 -0.18937777266E-01  0.24106793167E-01 -0.30985131702E-01  0.43590324525E-01  0.51100000000E-03 0. -1.
         11    1    4    4    0    0 -0.60647749087E-01  0.48667207482E-01 -0.43453583377E-01  0.89079299406E-01  0.51100000000E-03 0.  1.
</event>
<event>
 8    1  0.1126407E+005  0.1043930E+01  0.7957747E-01            NaN
         13   -1    0    0    0    0  0.00000000000E+00  0.00000000000E+00  0.74505805969E-08  0.10566000000E+00  0.10566000000E+00 0.  1.
     999900   -1    0    0    0    0 -0.00000000000E+00 -0.00000000000E+00 -0.74505805969E-08  0.93827000000E+00  0.93827000000E+00 0.  1.
     999902    2    1    2    0    0 -0.12926714196E-01 -0.12335470919E-01 -0.16278146257E-01  0.10197589051E+01  0.10194724041E+01 0.  0.
     999903    2    3    3    0    0 -0.43041033698E-01 -0.76479206915E-01 -0.97557241360E-01  0.13317693912E+00  0.22739439324E-01 0.  0.
         14    1    1    2    0    0  0.12926714196E-01  0.12335470919E-01  0.16278146257E-01  0.24171094892E-01  0.00000000000E+00 0. -1.
     999901    1    3    3    0    0  0.30114319502E-01  0.64143735996E-01  0.81279095103E-01  0.88658196598E+00  0.88000000000E+00 0. -1.
        -11    1    4    4    0    0 -0.82917265935E-03 -0.25638129329E-02 -0.12667771398E-01  0.12961258321E-01  0.51100000000E-03 0.  1.
         11    1    4    4    0    0 -0.42211861039E-01 -0.73915393982E-01 -0.84889469962E-01  0.12021568080E+00  0.51100000000E-03 0. -1.
</event>
<event>
 8    1  0.1126407E+005  0.1043930E+01  0.7957747E-01            NaN
         13   -1    0    0    0    0  0.00000000000E+00  0.00000000000E+00  0.74505805969E-08  0.10566000000E+00  0.10566000000E+00 0.  1.
     999900   -1    0    0    0    0 -0.00000000000E+00 -0.00000000000E+00 -0.74505805969E-08  0.93827000000E+00  0.93827000000E+00 0.  1.
     999902    2    1    2    0    0 -0.25668711409E-01 -0.95809314336E-02  0.38027983636E-02  0.10162688672E+01  0.10158923526E+01 0.  0.
     999903    2    3    3    0    0 -0.88998616640E-01 -0.73096605539E-01  0.50727777745E-01  0.13046591425E+00  0.34411914244E-01 0.  0.
         14    1    1    2    0    0  0.25668711409E-01  0.95809314336E-02 -0.38027983636E-02  0.27661132803E-01  0.00000000000E+00 0. -1.
     999901    1    3    3    0    0  0.63329905231E-01  0.63515674105E-01 -0.46924979381E-01  0.88580295294E+00  0.88000000000E+00 0.  1.
        -11    1    4    4    0    0 -0.16107792892E-01 -0.22840089763E-01 -0.91247136000E-03  0.27968275192E-01  0.51100000000E-03 0. -1.
         11    1    4    4    0    0 -0.72890823747E-01 -0.50256515776E-01  0.51640249105E-01  0.10249763906E+00  0.51100000000E-03 0.  1.
</event>
<event>
 8    1  0.1126407E+005  0.1043930E+01  0.7957747E-01            NaN
         13   -1    0    0    0    0  0.00000000000E+00  0.00000000000E+00  0.74505805969E-08  0.10566000000E+00  0.10566000000E+00 0. -1.
     999900   -1    0    0    0    0 -0.00000000000E+00 -0.00000000000E+00 -0.74505805969E-08  0.93827000000E+00  0.93827000000E+00 0.  1.
     999902    2    1    2    0    0  0.56735689731E-02 -0.21046518240E-01  0.88501683162E-02  0.10204040400E+01  0.10201328022E+01 0.  0.
     999903    2    3    3    0    0  0.73431946034E-01  0.14608766101E-01 -0.10367557858E+00  0.12994093538E+00  0.23029423526E-01 0.  0.
         14    1    1    2    0    0 -0.56735689731E-02  0.21046518240E-01 -0.88501683162E-02  0.23525960005E-01  0.00000000000E+00 0. -1.
     999901    1    3    3    0    0 -0.67758377061E-01 -0.35655284341E-01  0.11252574690E+00  0.89046310461E+00  0.88000000000E+00 0. -1.
        -11    1    4    4    0    0  0.70617189257E-01  0.82610661687E-02 -0.91043968096E-01  0.11551752196E+00  0.51100000000E-03 0.  1.
         11    1    4    4    0    0  0.28147567770E-02  0.63476999319E-02 -0.12631610487E-01  0.14423413419E-01  0.51100000000E-03 0. -1.
</event>
<event>
 8    1  0.1126407E+005  0.1043930E+01  0.7957747E-01            NaN
         13   -1    0    0    0    0  0.00000000000E+00  0.00000000000E+00  0.74505805969E-08  0.10566000000E+00  0.10566000000E+00 0.  1.
     999900   -1    0    0    0    0 -0.00000000000E+00 -0.00000000000E+00 -0.74505805969E-08  0.93827000000E+00  0.93827000000E+00 0.  1.
     999902    2    1    2    0    0 -0.15660314764E-01 -0.15561096438E-01  0.76283733280E-02  0.10205722334E+01  0.10203049046E+01 0.  0.
     999903    2    3    3    0    0 -0.12447461816E+00  0.27161843307E-01 -0.28567913828E-01  0.13210390340E+00  0.20090278612E-01 0.  0.
         14    1    1    2    0    0  0.15660314764E-01  0.15561096438E-01 -0.76283733280E-02  0.23357766599E-01  0.00000000000E+00 0. -1.
     999901    1    3    3    0    0  0.10881430340E+00 -0.42722939746E-01  0.36196287156E-01  0.88846833000E+00  0.88000000000E+00 0.  1.
        -11    1    4    4    0    0 -0.62000834504E-01  0.14836955432E-01 -0.41003833331E-02  0.63885154693E-01  0.51100000000E-03 0. -1.
         11    1    4    4    0    0 -0.62473783661E-01  0.12324887875E-01 -0.24467530495E-01  0.68218748710E-01  0.51100000000E-03 0.  1.
</event>
<event>
 8    1  0.1126407E+005  0.1043930E+01  0.7957747E-01            NaN
         13   -1    0    0    0    0  0.00000000000E+00  0.00000000000E+00  0.74505805969E-08  0.10566000000E+00  0.10566000000E+00 0. -1.
     999900   -1    0    0    0    0 -0.00000000000E+00 -0.00000000000E+00 -0.74505805969E-08  0.93827000000E+00  0.93827000000E+00 0.  1.
     999902    2    1    2    0    0  0.13117198396E-01 -0.55828247580E-02  0.17953095918E-01  0.10210052867E+01  0.10207478891E+01 0.  0.
     999903    2    3    3    0    0 -0.48738176604E-01  0.18410726308E-01 -0.11550682962E+00  0.12847330990E+00  0.21194314482E-01 0.  0.
         14    1    1    2    0    0 -0.13117198396E-01  0.55828247580E-02 -0.17953095918E-01  0.22924713282E-01  0.00000000000E+00 0.  1.
     999901    1    3    3    0    0  0.61855375000E-01 -0.23993551066E-01  0.13345992554E+00  0.89253197681E+00  0.88000000000E+00 0. -1.
        -11    1    4    4    0    0 -0.29998828808E-01  0.20444478196E-01 -0.87250703855E-01  0.94503189696E-01  0.51100000000E-03 0. -1.
         11    1    4    4    0    0 -0.18739347796E-01 -0.20337518872E-02 -0.28256125768E-01  0.33970120208E-01  0.51100000000E-03 0.  1.
</event>
<event>
 8    1  0.1126407E+005  0.1043930E+01  0.7957747E-01            NaN
         13   -1    0    0    0    0  0.00000000000E+00  0.00000000000E+00  0.74505805969E-08  0.10566000000E+00  0.10566000000E+00 0. -1.
     999900   -1    0    0    0    0 -0.00000000000E+00 -0.00000000000E+00 -0.74505805969E-08  0.93827000000E+00  0.93827000000E+00 0. -1.
     999902    2    1    2    0    0  0.60193352992E-02  0.22813723357E-01 -0.32436014991E-02  0.10201136333E+01  0.10198355777E+01 0.  0.
     999903    2    3    3    0    0  0.16532828255E-01 -0.66820996160E-02  0.12698250474E+00  0.12997916267E+00  0.21261264164E-01 0.  0.
         14    1    1    2    0    0 -0.60193352992E-02 -0.22813723357E-01  0.32436014991E-02  0.23816366673E-01  0.00000000000E+00 0. -1.
     999901    1    3    3    0    0 -0.10513492956E-01  0.29495822973E-01 -0.13022610623E+00  0.89013447066E+00  0.88000000000E+00 0. -1.
        -11    1    4    4    0    0 -0.24174759577E-02  0.37676436668E-02  0.43618922875E-01  0.43851007772E-01  0.51100000000E-03 0.  1.
         11    1    4    4    0    0  0.18950304213E-01 -0.10449743283E-01  0.83363581860E-01  0.86128154897E-01  0.51100000000E-03 0. -1.
</event>
<event>
 8    1  0.1126407E+005  0.1043930E+01  0.7957747E-01            NaN
         13   -1    0    0    0    0  0.00000000000E+00  0.00000000000E+00  0.74505805969E-08  0.10566000000E+00  0.10566000000E+00 0. -1.
     999900   -1    0    0    0    0 -0.00000000000E+00 -0.00000000000E+00 -0.74505805969E-08  0.93827000000E+00  0.93827000000E+00 0.  1.
     999902    2    1    2    0    0  0.72836777094E-03  0.14420296730E-01  0.20218692797E-01  0.10190850606E+01  0.10187821601E+01 0.  0.
     999903    2    3    3    0    0 -0.12321769770E+00 -0.24324203376E-01 -0.19611433932E-01  0.12866369826E+00  0.19886453017E-01 0.  0.
         14    1    1    2    0    0 -0.72836777094E-03 -0.14420296730E-01 -0.20218692797E-01  0.24844939441E-01  0.00000000000E+00 0.  1.
     999901    1    3    3    0    0  0.12394606547E+00  0.38744500106E-01  0.39830126730E-01  0.89042136229E+00  0.88000000000E+00 0. -1.
        -11    1    4    4    0    0 -0.62828392444E-01 -0.57176138994E-02 -0.22537921431E-02  0.63130331108E-01  0.51100000000E-03 0.  1.
         11    1    4    4    0    0 -0.60389305258E-01 -0.18606589476E-01 -0.17357641789E-01  0.65533367157E-01  0.51100000000E-03 0. -1.
</event>
<event>
 8    1  0.1126407E+005  0.1043930E+01  0.7957747E-01            NaN
         13   -1    0    0    0    0  0.00000000000E+00  0.00000000000E+00  0.74505805969E-08  0.10566000000E+00  0.10566000000E+00 0. -1.
     999900   -1    0    0    0    0 -0.00000000000E+00 -0.00000000000E+00 -0.74505805969E-08  0.93827000000E+00  0.93827000000E+00 0. -1.
     999902    2    1    2    0    0 -0.14311455248E-01 -0.61836635205E-02 -0.18114831830E-01  0.10200301553E+01  0.10197501238E+01 0.  0.
     999903    2    3    3    0    0 -0.38326385957E-01  0.11794147609E+00 -0.36696920538E-01  0.13080067915E+00  0.19571664405E-01 0.  0.
         14    1    1    2    0    0  0.14311455248E-01  0.61836635205E-02  0.18114831830E-01  0.23899844729E-01  0.00000000000E+00 0. -1.
     999901    1    3    3    0    0  0.24014930709E-01 -0.12412513961E+00  0.18582088708E-01  0.88922947612E+00  0.88000000000E+00 0. -1.
        -11    1    4    4    0    0 -0.15735589808E-01  0.60331573638E-01 -0.89845896120E-02  0.62995964440E-01  0.51100000000E-03 0. -1.
         11    1    4    4    0    0 -0.22590796149E-01  0.57609902448E-01 -0.27712330926E-01  0.67804714711E-01  0.51100000000E-03 0.  1.
</event>
<event>
 8    1  0.1126407E+005  0.1043930E+01  0.7957747E-01            NaN
         13   -1    0    0    0    0  0.00000000000E+00  0.00000000000E+00  0.74505805969E-08  0.10566000000E+00  0.10566000000E+00 0.  1.
     999900   -1    0    0    0    0 -0.00000000000E+00 -0.00000000000E+00 -0.74505805969E-08  0.93827000000E+00  0.93827000000E+00 0.  1.
     999902    2    1    2    0    0  0.14043665694E-01  0.20825527249E-01  0.58175628389E-03  0.10188050011E+01  0.10184951471E+01 0.  0.
     999903    2    3    3    0    0 -0.95341210408E-01  0.63172386147E-01 -0.56885600310E-01  0.12916417204E+00  0.19149805323E-01 0.  0.
         14    1    1    2    0    0 -0.14043665694E-01 -0.20825527249E-01 -0.58175628389E-03  0.25124998939E-01  0.00000000000E+00 0.  1.
     999901    1    3    3    0    0  0.10938487610E+00 -0.42346858898E-01  0.57467356593E-01  0.88964082902E+00  0.88000000000E+00 0. -1.
        -11    1    4    4    0    0 -0.50582850626E-01  0.43516980318E-01 -0.37748489017E-01  0.76665258739E-01  0.51100000000E-03 0. -1.
         11    1    4    4    0    0 -0.44758359782E-01  0.19655405829E-01 -0.19137111292E-01  0.52498913306E-01  0.51100000000E-03 0.  1.
</event>
<event>
 8    1  0.1126407E+005  0.1043930E+01  0.7957747E-01            NaN
         13   -1    0    0    0    0  0.00000000000E+00  0.00000000000E+00  0.74505805969E-08  0.10566000000E+00  0.10566000000E+00 0. -1.
     999900   -1    0    0    0    0 -0.00000000000E+00 -0.00000000000E+00 -0.74505805969E-08  0.93827000000E+00  0.93827000000E+00 0. -1.
     999902    2    1    2    0    0 -0.21875174148E-01  0.60495052832E-02 -0.31851901754E-02  0.10210113352E+01  0.10207540749E+01 0.  0.
     999903    2    3    3    0    0 -0.79890599127E-01 -0.33161245780E-01  0.98231687669E-01  0.13242332291E+00  0.20107111621E-01 0.  0.
         14    1    1    2    0    0  0.21875174148E-01 -0.60495052832E-02  0.31851901754E-02  0.22918664765E-01  0.00000000000E+00 0. -1.
     999901    1    3    3    0    0  0.58015424979E-01  0.39210751063E-01 -0.10141687784E+00  0.88858801232E+00  0.88000000000E+00 0. -1.
        -11    1    4    4    0    0 -0.44492809171E-01 -0.27444854120E-01  0.50169478941E-01  0.72457351759E-01  0.51100000000E-03 0. -1.
         11    1    4    4    0    0 -0.35397789955E-01 -0.57163916595E-02  0.48062208729E-01  0.59965971152E-01  0.51100000000E-03 0.  1.
</event>
<event>
 8    1  0.1126407E+005  0.1043930E+01  0.7957747E-01            NaN
         13   -1    0    0    0    0  0.00000000000E+00  0.00000000000E+00  0.74505805969E-08  0.10566000000E+00  0.10566000000E+00 0. -1.
     999900   -1    0    0    0    0 -0.00000000000E+00 -0.00000000000E+00 -0.74505805969E-08  0.93827000000E+00  0.93827000000E+00 0.  1.
     999902    2    1    2    0    0  0.56993010211E-02 -0.79935978251E-02  0.21819447000E-01  0.10200036985E+01  0.10197230393E+01 0.  0.
     999903    2    3    3    0    0 -0.74386658273E-01 -0.47966924698E-01 -0.90390668115E-01  0.12837443824E+00  0.21801897093E-01 0.  0.
         14    1    1    2    0    0 -0.56993010211E-02  0.79935978251E-02 -0.21819447000E-01  0.23926301546E-01  0.00000000000E+00 0.  1.
     999901    1    3    3    0    0  0.80085959294E-01  0.39973326873E-01  0.11221011511E+00  0.89162926021E+00  0.88000000000E+00 0. -1.
        -11    1    4    4    0    0 -0.37387171642E-01 -0.21942238180E-01 -0.29171531559E-01  0.52254203603E-01  0.51100000000E-03 0.  1.
         11    1    4    4    0    0 -0.36999486632E-01 -0.26024686518E-01 -0.61219136556E-01  0.76120234636E-01  0.51100000000E-03 0. -1.
</event>
<event>
 8    1  0.1126407E+005  0.1043930E+01  0.7957747E-01            NaN
         13   -1    0    0    0    0  0.00000000000E+00  0.00000000000E+00  0.74505805969E-08  0.10566000000E+00  0.10566000000E+00 0. -1.
     999900   -1    0    0    0    0 -0.00000000000E+00 -0.00000000000E+00 -0.74505805969E-08  0.93827000000E+00  0.93827000000E+00 0.  1.
     999902    2    1    2    0    0  0.56307131278E-02  0.12573239763E-01  0.19393209418E-01  0.10201416024E+01  0.10198642072E+01 0.  0.
     999903    2    3    3    0    0 -0.46147236173E-01  0.70903258102E-01  0.10059183816E+00  0.13296824596E+00  0.20124540105E-01 0.  0.
         14    1    1    2    0    0 -0.56307131278E-02 -0.12573239763E-01 -0.19393209418E-01  0.23788397592E-01  0.00000000000E+00 0.  1.
     999901    1    3    3    0    0  0.51777949300E-01 -0.58330018338E-01 -0.81198628743E-01  0.88717335644E+00  0.88000000000E+00 0.  1.
        -11    1    4    4    0    0 -0.94509839256E-02  0.26897692989E-01  0.23723425226E-01  0.37092708323E-01  0.51100000000E-03 0.  1.
         11    1    4    4    0    0 -0.36696252247E-01  0.44005565113E-01  0.76868412935E-01  0.95875537641E-01  0.51100000000E-03 0. -1.
</event>
<event>
 8    1  0.1126407E+005  0.1043930E+01  0.7957747E-01            NaN
         13   -1    0    0    0    0  0.00000000000E+00  0.00000000000E+00  0.74505805969E-08  0.10566000000E+00  0.10566000000E+00 0.  1.
     999900   -1    0    0    0    0 -0.00000000000E+00 -0.00000000000E+00 -0.74505805969E-08  0.93827000000E+00  0.93827000000E+00 0.  1.
     999902    2    1    2    0    0 -0.16864200987E-01  0.15247329161E-01  0.36202131665E-02  0.10209085260E+01  0.10206489260E+01 0.  0.
     999903    2    3    3    0    0  0.13867577628E-01 -0.96073302178E-01  0.83275408227E-01  0.12979592073E+00  0.22131387726E-01 0.  0.
         14    1    1    2    0    0  0.16864200987E-01 -0.15247329161E-01 -0.36202131665E-02  0.23021473994E-01  0.00000000000E+00 0. -1.
     999901    1    3    3    0    0 -0.30731778616E-01  0.11132063134E+00 -0.79655195061E-01  0.89111260527E+00  0.88000000000E+00 0.  1.
        -11    1    4    4    0    0  0.16351828522E-01 -0.80337165769E-01  0.77570062039E-01  0.11286637296E+00  0.51100000000E-03 0. -1.
         11    1    4    4    0    0 -0.24842508941E-02 -0.15736136409E-01  0.57053461882E-02  0.16929547770E-01  0.51100000000E-03 0.  1.
</event>
<event>
 8    1  0.1126407E+005  0.1043930E+01  0.7957747E-01            NaN
         13   -1    0    0    0    0  0.00000000000E+00  0.00000000000E+00  0.74505805969E-08  0.10566000000E+00  0.10566000000E+00 0. -1.
     999900   -1    0    0    0    0 -0.00000000000E+00 -0.00000000000E+00 -0.74505805969E-08  0.93827000000E+00  0.93827000000E+00 0. -1.
     999902    2    1    2    0    0  0.13950360273E-02  0.54842403098E-02 -0.21726040454E-01  0.10214790791E+01  0.10212323267E+01 0.  0.
     999903    2    3    3    0    0  0.96512034994E-03 -0.12848162412E+00 -0.18341758966E-01  0.13133387123E+00  0.20092446745E-01 0.  0.
         14    1    1    2    0    0 -0.13950360273E-02 -0.54842403098E-02  0.21726040454E-01  0.22450920941E-01  0.00000000000E+00 0.  1.
     999901    1    3    3    0    0  0.42991567737E-03  0.13396586443E+00 -0.33842814883E-02  0.89014520783E+00  0.88000000000E+00 0. -1.
        -11    1    4    4    0    0  0.70538149954E-02 -0.64369748906E-01 -0.16853548054E-01  0.66914304025E-01  0.51100000000E-03 0.  1.
         11    1    4    4    0    0 -0.60886946455E-02 -0.64111875215E-01 -0.14882109119E-02  0.64419567204E-01  0.51100000000E-03 0. -1.
</event>
<event>
 8    1  0.1126407E+005  0.1043930E+01  0.7957747E-01            NaN
         13   -1    0    0    0    0  0.00000000000E+00  0.00000000000E+00  0.74505805969E-08  0.10566000000E+00  0.10566000000E+00 0.  1.
     999900   -1    0    0    0    0 -0.00000000000E+00 -0.00000000000E+00 -0.74505805969E-08  0.93827000000E+00  0.93827000000E+00 0. -1.
     999902    2    1    2    0    0 -0.17403937612E-01  0.16875298202E-01 -0.51755421339E-03  0.10196825136E+01  0.10193941769E+01 0.  0.
     999903    2    3    3    0    0 -0.53131912672E-01 -0.99234196379E-01  0.60313258899E-01  0.12925660947E+00  0.19978889324E-01 0.  0.
         14    1    1    2    0    0  0.17403937612E-01 -0.16875298202E-01  0.51755421339E-03  0.24247486389E-01  0.00000000000E+00 0. -1.
     999901    1    3    3    0    0  0.35727975060E-01  0.11610949458E+00 -0.60830813113E-01  0.89042590414E+00  0.88000000000E+00 0. -1.
        -11    1    4    4    0    0 -0.29258747972E-01 -0.62428556446E-01  0.46872850956E-01  0.83371003775E-01  0.51100000000E-03 0.  1.
         11    1    4    4    0    0 -0.23873164701E-01 -0.36805639933E-01  0.13440407944E-01  0.45885605699E-01  0.51100000000E-03 0. -1.
</event>
<event>
 8    1  0.1126407E+005  0.1043930E+01  0.7957747E-01            NaN
         13   -1    0    0    0    0  0.00000000000E+00  0.00000000000E+00  0.74505805969E-08  0.10566000000E+00  0.10566000000E+00 0. -1.
     999900   -1    0    0    0    0 -0.00000000000E+00 -0.00000000000E+00 -0.74505805969E-08  0.93827000000E+00  0.93827000000E+00 0. -1.
     999902    2    1    2    0    0 -0.17226147488E-01  0.74604989617E-02  0.87240533396E-02  0.10232295578E+01  0.10230201462E+01 0.  0.
     999903    2    3    3    0    0 -0.42241670771E-01 -0.50639058986E-01 -0.11322957594E+00  0.13257023865E+00  0.20131027391E-01 0.  0.
         14    1    1    2    0    0  0.17226147488E-01 -0.74604989617E-02 -0.87240533396E-02  0.20700442235E-01  0.00000000000E+00 0.  1.
     999901    1    3    3    0    0  0.25015523283E-01  0.58099557947E-01  0.12195362928E+00  0.89065931912E+00  0.88000000000E+00 0.  1.
        -11    1    4    4    0    0 -0.34424415313E-01 -0.41398044330E-01 -0.10476491613E+00  0.11779128667E+00  0.51100000000E-03 0. -1.
         11    1    4    4    0    0 -0.78172554581E-02 -0.92410146562E-02 -0.84646598085E-02  0.14778951974E-01  0.51100000000E-03 0.  1.
</event>
<event>
 8    1  0.1126407E+005  0.1043930E+01  0.7957747E-01            NaN
         13   -1    0    0    0    0  0.00000000000E+00  0.00000000000E+00  0.74505805969E-08  0.10566000000E+00  0.10566000000E+00 0.  1.
     999900   -1    0    0    0    0 -0.00000000000E+00 -0.00000000000E+00 -0.74505805969E-08  0.93827000000E+00  0.93827000000E+00 0.  1.
     999902    2    1    2    0    0 -0.58108124758E-02  0.34677082732E-02 -0.26142139251E-01  0.10169262598E+01  0.10165676642E+01 0.  0.
     999903    2    3    3    0    0 -0.65870466755E-01  0.90235244955E-01  0.56543484935E-01  0.12677308196E+00  0.19822482172E-01 0.  0.
         14    1    1    2    0    0  0.58108124758E-02 -0.34677082732E-02  0.26142139251E-01  0.27003740239E-01  0.00000000000E+00 0.  1.
     999901    1    3    3    0    0  0.60059654279E-01 -0.86767536682E-01 -0.82685624186E-01  0.89015317780E+00  0.88000000000E+00 0. -1.
        -11    1    4    4    0    0 -0.25186342184E-01  0.46007799813E-01  0.34401013402E-01  0.62727667901E-01  0.51100000000E-03 0. -1.
         11    1    4    4    0    0 -0.40684124570E-01  0.44227445143E-01  0.22142471533E-01  0.64045414063E-01  0.51100000000E-03 0.  1.
</event>
<event>
 8    1  0.1126407E+005  0.1043930E+01  0.7957747E-01            NaN
         13   -1    0    0    0    0  0.00000000000E+00  0.00000000000E+00  0.74505805969E-08  0.10566000000E+00  0.10566000000E+00 0.  1.
     999900   -1    0    0    0    0 -0.00000000000E+00 -0.00000000000E+00 -0.74505805969E-08  0.93827000000E+00  0.93827000000E+00 0.  1.
     999902    2    1    2    0    0 -0.21700168777E-01  0.90765795061E-02 -0.12546460613E-02  0.10203746236E+01  0.10201026991E+01 0.  0.
     999903    2    3    3    0    0 -0.12770380672E-01  0.76969577152E-01  0.10358386428E+00  0.13151000315E+00  0.21860136332E-01 0.  0.
         14    1    1    2    0    0  0.21700168777E-01 -0.90765795061E-02  0.12546460613E-02  0.23555376397E-01  0.00000000000E+00 0.  1.
     999901    1    3    3    0    0 -0.89297881046E-02 -0.67892997646E-01 -0.10483851034E+00  0.88886462045E+00  0.88000000000E+00 0.  1.
        -11    1    4    4    0    0 -0.43968241154E-02  0.48848611646E-01  0.47852905321E-01  0.68525036233E-01  0.51100000000E-03 0.  1.
         11    1    4    4    0    0 -0.83735565570E-02  0.28120965506E-01  0.55730958955E-01  0.62984966916E-01  0.51100000000E-03 0. -1.
</event>
<event>
 8    1  0.1126407E+005  0.1043930E+01  0.7957747E-01            NaN
         13   -1    0    0    0    0  0.00000000000E+00  0.00000000000E+00  0.74505805969E-08  0.10566000000E+00  0.10566000000E+00 0.  1.
     999900   -1    0    0    0    0 -0.00000000000E+00 -0.00000000000E+00 -0.74505805969E-08  0.93827000000E+00  0.93827000000E+00 0. -1.
     999902    2    1    2    0    0  0.34559146261E-02  0.38044533990E-02  0.22271953477E-01  0.10210726790E+01  0.10208168096E+01 0.  0.
     999903    2    3    3    0    0 -0.54086026757E-01  0.10056564961E+00  0.64884867005E-01  0.13287806941E+00  0.20193741389E-01 0.  0.
         14    1    1    2    0    0 -0.34559146261E-02 -0.38044533990E-02 -0.22271953477E-01  0.22857320999E-01  0.00000000000E+00 0. -1.
     999901    1    3    3    0    0  0.57541941383E-01 -0.96761196212E-01 -0.42612913528E-01  0.88819460959E+00  0.88000000000E+00 0. -1.
        -11    1    4    4    0    0 -0.49848606765E-01  0.84280574184E-01  0.61718725205E-01  0.11574783343E+00  0.51100000000E-03 0.  1.
         11    1    4    4    0    0 -0.42374199919E-02  0.16285075427E-01  0.31661417999E-02  0.17130235981E-01  0.51100000000E-03 0. -1.
</event>
<event>
 8    1  0.1126407E+005  0.1043930E+01  0.7957747E-01            NaN
         13   -1    0    0    0    0  0.00000000000E+00  0.00000000000E+00  0.74505805969E-08  0.10566000000E+00  0.10566000000E+00 0. -1.
     999900   -1    0    0    0    0 -0.00000000000E+00 -0.00000000000E+00 -0.74505805969E-08  0.93827000000E+00  0.93827000000E+00 0. -1.
     999902    2    1    2    0    0  0.23160225475E-01  0.67399429188E-02 -0.12476919302E-02  0.10197767474E+01  0.10194906743E+01 0.  0.
     999903    2    3    3    0    0 -0.39946692601E-01  0.20650563415E-01  0.11942487855E+00  0.12919387215E+00  0.20163604984E-01 0.  0.
         14    1    1    2    0    0 -0.23160225475E-01 -0.67399429188E-02  0.12476919302E-02  0.24153252571E-01  0.00000000000E+00 0.  1.
     999901    1    3    3    0    0  0.63106918077E-01 -0.13910620497E-01 -0.12067257048E+00  0.89058287528E+00  0.88000000000E+00 0. -1.
        -11    1    4    4    0    0 -0.29398343324E-01  0.20806773982E-01  0.70810625077E-01  0.79445517045E-01  0.51100000000E-03 0. -1.
         11    1    4    4    0    0 -0.10548349278E-01 -0.15621056630E-03  0.48614253471E-01  0.49748355106E-01  0.51100000000E-03 0.  1.
</event>
<event>
 8    1  0.1126407E+005  0.1043930E+01  0.7957747E-01            NaN
         13   -1    0    0    0    0  0.00000000000E+00  0.00000000000E+00  0.74505805969E-08  0.10566000000E+00  0.10566000000E+00 0.  1.
     999900   -1    0    0    0    0 -0.00000000000E+00 -0.00000000000E+00 -0.74505805969E-08  0.93827000000E+00  0.93827000000E+00 0.  1.
     999902    2    1    2    0    0  0.19600472288E-01 -0.13277486526E-01 -0.15594263493E-02  0.10202044447E+01  0.10199285304E+01 0.  0.
     999903    2    3    3    0    0 -0.10694173090E+00 -0.27803690560E-01  0.62861155069E-01  0.12870349066E+00  0.20086927973E-01 0.  0.
         14    1    1    2    0    0 -0.19600472288E-01  0.13277486526E-01  0.15594263493E-02  0.23725555270E-01  0.00000000000E+00 0. -1.
     999901    1    3    3    0    0  0.12654220319E+00  0.14526204035E-01 -0.64420581418E-01  0.89150095407E+00  0.88000000000E+00 0.  1.
        -11    1    4    4    0    0 -0.50833147173E-01 -0.39207180437E-02  0.33618035104E-01  0.61072205518E-01  0.51100000000E-03 0.  1.
         11    1    4    4    0    0 -0.56108583728E-01 -0.23882972517E-01  0.29243119964E-01  0.67631285146E-01  0.51100000000E-03 0. -1.
</event>
<event>
 8    1  0.1126407E+005  0.1043930E+01  0.7957747E-01            NaN
         13   -1    0    0    0    0  0.00000000000E+00  0.00000000000E+00  0.74505805969E-08  0.10566000000E+00  0.10566000000E+00 0.  1.
     999900   -1    0    0    0    0 -0.00000000000E+00 -0.00000000000E+00 -0.74505805969E-08  0.93827000000E+00  0.93827000000E+00 0. -1.
     999902    2    1    2    0    0  0.89123023568E-02 -0.99821888517E-02  0.20701159783E-01  0.10192802283E+01  0.10189821258E+01 0.  0.
     999903    2    3    3    0    0 -0.11279942862E+00  0.57499803154E-01 -0.41694754566E-04  0.12810245104E+00  0.19501224685E-01 0.  0.
         14    1    1    2    0    0 -0.89123023568E-02  0.99821888517E-02 -0.20701159783E-01  0.24649771681E-01  0.00000000000E+00 0. -1.
     999901    1    3    3    0    0  0.12171173098E+00 -0.67481992006E-01  0.20742854537E-01  0.89117777728E+00  0.88000000000E+00 0.  1.
        -11    1    4    4    0    0 -0.36650316447E-01  0.27236885591E-01 -0.53986697911E-02  0.45983696990E-01  0.51100000000E-03 0.  1.
         11    1    4    4    0    0 -0.76149112173E-01  0.30262917564E-01  0.53569750365E-02  0.82118754050E-01  0.51100000000E-03 0. -1.
</event>
<event>
 8    1  0.1126407E+005  0.1043930E+01  0.7957747E-01            NaN
         13   -1    0    0    0    0  0.00000000000E+00  0.00000000000E+00  0.74505805969E-08  0.10566000000E+00  0.10566000000E+00 0. -1.
     999900   -1    0    0    0    0 -0.00000000000E+00 -0.00000000000E+00 -0.74505805969E-08  0.93827000000E+00  0.93827000000E+00 0. -1.
     999902    2    1    2    0    0  0.18056886953E-01  0.56701934084E-02 -0.12667667270E-01  0.10211556273E+01  0.10209016324E+01 0.  0.
     999903    2    3    3    0    0  0.43572670452E-01  0.65746456876E-01 -0.10618717196E+00  0.13379656217E+00  0.20115425847E-01 0.  0.
         14    1    1    2    0    0 -0.18056886953E-01 -0.56701934084E-02  0.12667667270E-01  0.22774372742E-01  0.00000000000E+00 0.  1.
     999901    1    3    3    0    0 -0.25515783499E-01 -0.60076263468E-01  0.93519504691E-01  0.88735906509E+00  0.88000000000E+00 0.  1.
        -11    1    4    4    0    0  0.89403767461E-02  0.20540325886E-01 -0.44611479614E-01  0.49922745900E-01  0.51100000000E-03 0.  1.
         11    1    4    4    0    0  0.34632293706E-01  0.45206130990E-01 -0.61575692347E-01  0.83873816268E-01  0.51100000000E-03 0. -1.
</event>
<event>
 8    1  0.1126407E+005  0.1043930E+01  0.7957747E-01            NaN
         13   -1    0    0    0    0  0.00000000000E+00  0.00000000000E+00  0.74505805969E-08  0.10566000000E+00  0.10566000000E+00 0.  1.
     999900   -1    0    0    0    0 -0.00000000000E+00 -0.00000000000E+00 -0.74505805969E-08  0.93827000000E+00  0.93827000000E+00 0.  1.
     999902    2    1    2    0    0  0.19020687197E-01 -0.14626851775E-01 -0.17407670827E-02  0.10198725354E+01  0.10195887538E+01 0.  0.
     999903    2    3    3    0    0 -0.72964443978E-01 -0.76682780594E-01  0.69193460198E-01  0.13007263244E+00  0.30448248730E-01 0.  0.
         14    1    1    2    0    0 -0.19020687197E-01  0.14626851775E-01  0.17407670827E-02  0.24057464628E-01  0.00000000000E+00 0. -1.
     999901    1    3    3    0    0  0.91985131175E-01  0.62055928819E-01 -0.70934227281E-01  0.88979990293E+00  0.88000000000E+00 0. -1.
        -11    1    4    4    0    0 -0.51689738794E-01 -0.44587153476E-01  0.59021396372E-01  0.90242061714E-01  0.51100000000E-03 0.  1.
         11    1    4    4    0    0 -0.21274705184E-01 -0.32095627118E-01  0.10172063826E-01  0.39830570725E-01  0.51100000000E-03 0. -1.
</event>
<event>
 8    1  0.1126407E+005  0.1043930E+01  0.7957747E-01            NaN
         13   -1    0    0    0    0  0.00000000000E+00  0.00000000000E+00  0.74505805969E-08  0.10566000000E+00  0.10566000000E+00 0. -1.
     999900   -1    0    0    0    0 -0.00000000000E+00 -0.00000000000E+00 -0.74505805969E-08  0.93827000000E+00  0.93827000000E+00 0.  1.
     999902    2    1    2    0    0 -0.13590724198E-02  0.16339584697E-01 -0.21320900345E-01  0.10170337196E+01  0.10166780105E+01 0.  0.
     999903    2    3    3    0    0  0.10936620916E+00  0.65577277302E-01  0.63465405669E-03  0.12845818277E+00  0.15484021727E-01 0.  0.
         14    1    1    2    0    0  0.13590724198E-02 -0.16339584697E-01  0.21320900345E-01  0.26896280364E-01  0.00000000000E+00 0. -1.
     999901    1    3    3    0    0 -0.11072528158E+00 -0.49237692605E-01 -0.21955554401E-01  0.88857553687E+00  0.88000000000E+00 0.  1.
        -11    1    4    4    0    0  0.46772511676E-01  0.27779762069E-01  0.79104073543E-02  0.54974709591E-01  0.51100000000E-03 0.  1.
         11    1    4    4    0    0  0.62593697487E-01  0.37797515233E-01 -0.72757532976E-02  0.73483473175E-01  0.51100000000E-03 0. -1.
</event>
<event>
 8    1  0.1126407E+005  0.1043930E+01  0.7957747E-01            NaN
         13   -1    0    0    0    0  0.00000000000E+00  0.00000000000E+00  0.74505805969E-08  0.10566000000E+00  0.10566000000E+00 0.  1.
     999900   -1    0    0    0    0 -0.00000000000E+00 -0.00000000000E+00 -0.74505805969E-08  0.93827000000E+00  0.93827000000E+00 0.  1.
     999902    2    1    2    0    0  0.63041747608E-03 -0.14011810338E-01  0.19321584896E-01  0.10200542404E+01  0.10197747797E+01 0.  0.
     999903    2    3    3    0    0  0.10948466500E+00  0.56119182461E-01  0.38425962322E-01  0.13037307242E+00  0.19604308806E-01 0.  0.
         14    1    1    2    0    0 -0.63041747608E-03  0.14011810338E-01 -0.19321584896E-01  0.23875759633E-01  0.00000000000E+00 0. -1.
     999901    1    3    3    0    0 -0.10885424752E+00 -0.70130992799E-01 -0.19104377426E-01  0.88968116794E+00  0.88000000000E+00 0.  1.
        -11    1    4    4    0    0  0.35960190375E-01  0.13089136353E-01  0.39705483807E-02  0.38477099133E-01  0.51100000000E-03 0. -1.
         11    1    4    4    0    0  0.73524474622E-01  0.43030046108E-01  0.34455413941E-01  0.91895973292E-01  0.51100000000E-03 0.  1.
</event>
<event>
 8    1  0.1126407E+005  0.1043930E+01  0.7957747E-01            NaN
         13   -1    0    0    0    0  0.00000000000E+00  0.00000000000E+00  0.74505805969E-08  0.10566000000E+00  0.10566000000E+00 0.  1.
     999900   -1    0    0    0    0 -0.00000000000E+00 -0.00000000000E+00 -0.74505805969E-08  0.93827000000E+00  0.93827000000E+00 0.  1.
     999902    2    1    2    0    0 -0.14998031060E-01 -0.11095163883E-01 -0.26621809358E-01  0.10114220882E+01  0.10108995381E+01 0.  0.
     999903    2    3    3    0    0  0.26980888187E-01  0.92600848526E-01  0.67403058561E-01  0.11937064996E+00  0.20082188445E-01 0.  0.
         14    1    1    2    0    0  0.14998031060E-01  0.11095163883E-01  0.26621809358E-01  0.32507911818E-01  0.00000000000E+00 0.  1.
     999901    1    3    3    0    0 -0.41978919248E-01 -0.10369601241E+00 -0.94024867919E-01  0.89205143822E+00  0.88000000000E+00 0.  1.
        -11    1    4    4    0    0  0.17691680939E-01  0.32403667295E-01  0.32371065334E-01  0.49103362619E-01  0.51100000000E-03 0.  1.
         11    1    4    4    0    0  0.92892072481E-02  0.60197181231E-01  0.35031993227E-01  0.70267287339E-01  0.51100000000E-03 0. -1.
</event>
<event>
 8    1  0.1126407E+005  0.1043930E+01  0.7957747E-01            NaN
         13   -1    0    0    0    0  0.00000000000E+00  0.00000000000E+00  0.74505805969E-08  0.10566000000E+00  0.10566000000E+00 0. -1.
     999900   -1    0    0    0    0 -0.00000000000E+00 -0.00000000000E+00 -0.74505805969E-08  0.93827000000E+00  0.93827000000E+00 0.  1.
     999902    2    1    2    0    0  0.43049882835E-04  0.23076238731E-01 -0.74469159176E-02  0.10196818825E+01  0.10193935306E+01 0.  0.
     999903    2    3    3    0    0  0.80772203052E-02 -0.64857078810E-01  0.10794591529E+00  0.12776690797E+00  0.20009497380E-01 0.  0.
         14    1    1    2    0    0 -0.43049882835E-04 -0.23076238731E-01  0.74469159176E-02  0.24248117534E-01  0.00000000000E+00 0.  1.
     999901    1    3    3    0    0 -0.80341704224E-02  0.87933317541E-01 -0.11539283121E+00  0.89191497449E+00  0.88000000000E+00 0.  1.
        -11    1    4    4    0    0 -0.51547478674E-02 -0.12360594975E-01  0.30057208204E-01  0.32909764808E-01  0.51100000000E-03 0. -1.
         11    1    4    4    0    0  0.13231968173E-01 -0.52496483835E-01  0.77888707088E-01  0.94857143166E-01  0.51100000000E-03 0.  1.
</event>
<event>
 8    1  0.1126407E+005  0.1043930E+01  0.7957747E-01            NaN
         13   -1    0    0    0    0  0.00000000000E+00  0.00000000000E+00  0.74505805969E-08  0.10566000000E+00  0.10566000000E+00 0. -1.
     999900   -1    0    0    0    0 -0.00000000000E+00 -0.00000000000E+00 -0.74505805969E-08  0.93827000000E+00  0.93827000000E+00 0.  1.
     999902    2    1    2    0    0  0.13136735667E-01 -0.11446739572E-01 -0.16377170573E-01  0.10200173802E+01  0.10197370458E+01 0.  0.
     999903    2    3    3    0    0 -0.71864668906E-01  0.54235260518E-01  0.87871286062E-01  0.12737685644E+00  0.19937565573E-01 0.  0.
         14    1    1    2    0    0 -0.13136735667E-01  0.11446739572E-01  0.16377170573E-01  0.23912619822E-01  0.00000000000E+00 0. -1.
     999901    1    3    3    0    0  0.85001404572E-01 -0.65682000089E-01 -0.10424845663E+00  0.89264052374E+00  0.88000000000E+00 0.  1.
        -11    1    4    4    0    0 -0.32792549892E-01  0.31162475095E-01  0.32076954467E-01  0.55458482772E-01  0.51100000000E-03 0. -1.
         11    1    4    4    0    0 -0.39072119013E-01  0.23072785423E-01  0.55794331595E-01  0.71918373664E-01  0.51100000000E-03 0.  1.
</event>
<event>
 8    1  0.1126407E+005  0.1043930E+01  0.7957747E-01            NaN
         13   -1    0    0    0    0  0.00000000000E+00  0.00000000000E+00  0.74505805969E-08  0.10566000000E+00  0.10566000000E+00 0. -1.
     999900   -1    0    0    0    0 -0.00000000000E+00 -0.00000000000E+00 -0.74505805969E-08  0.93827000000E+00  0.93827000000E+00 0.  1.
     999902    2    1    2    0    0  0.29383577951E-02  0.13057453694E-01 -0.16347872962E-01  0.10228021986E+01  0.10225839591E+01 0.  0.
     999903    2    3    3    0    0  0.61427689930E-01 -0.94377827830E-01 -0.67709201322E-01  0.13285763414E+00  0.19648906543E-01 0.  0.
         14    1    1    2    0    0 -0.29383577951E-02 -0.13057453694E-01  0.16347872962E-01  0.21127801445E-01  0.00000000000E+00 0. -1.
     999901    1    3    3    0    0 -0.58489332134E-01  0.10743528152E+00  0.51361328360E-01  0.88994456442E+00  0.88000000000E+00 0. -1.
        -11    1    4    4    0    0  0.29251928401E-01 -0.40320135270E-01 -0.40972076584E-01  0.64500858940E-01  0.51100000000E-03 0. -1.
         11    1    4    4    0    0  0.32175761528E-01 -0.54057692560E-01 -0.26737124738E-01  0.68356775196E-01  0.51100000000E-03 0.  1.
</event>
<event>
 8    1  0.1126407E+005  0.1043930E+01  0.7957747E-01            NaN
         13   -1    0    0    0    0  0.00000000000E+00  0.00000000000E+00  0.74505805969E-08  0.10566000000E+00  0.10566000000E+00 0.  1.
     999900   -1    0    0    0    0 -0.00000000000E+00 -0.00000000000E+00 -0.74505805969E-08  0.93827000000E+00  0.93827000000E+00 0.  1.
     999902    2    1    2    0    0 -0.21333587273E-01 -0.98179774325E-02 -0.61992649136E-02  0.10196412060E+01  0.10193518742E+01 0.  0.
     999903    2    3    3    0    0 -0.54464537143E-01  0.97699441761E-01 -0.64531880625E-01  0.13056283529E+00  0.19254184367E-01 0.  0.
         14    1    1    2    0    0  0.21333587273E-01  0.98179774325E-02  0.61992649136E-02  0.24288793965E-01  0.00000000000E+00 0. -1.
     999901    1    3    3    0    0  0.33130949870E-01 -0.10751741919E+00  0.58332615711E-01  0.88907837074E+00  0.88000000000E+00 0. -1.
        -11    1    4    4    0    0 -0.72136738603E-02  0.25203035326E-01 -0.21549488491E-01  0.33939234750E-01  0.51100000000E-03 0.  1.
         11    1    4    4    0    0 -0.47250863283E-01  0.72496406435E-01 -0.42982392134E-01  0.96623600541E-01  0.51100000000E-03 0. -1.
</event>
<event>
 8    1  0.1126407E+005  0.1043930E+01  0.7957747E-01            NaN
         13   -1    0    0    0    0  0.00000000000E+00  0.00000000000E+00  0.74505805969E-08  0.10566000000E+00  0.10566000000E+00 0.  1.
     999900   -1    0    0    0    0 -0.00000000000E+00 -0.00000000000E+00 -0.74505805969E-08  0.93827000000E+00  0.93827000000E+00 0.  1.
     999902    2    1    2    0    0  0.77224542170E-02  0.23003573608E-01  0.27476002618E-02  0.10195097214E+01  0.10192172105E+01 0.  0.
     999903    2    3    3    0    0 -0.10005639625E+00 -0.64440668228E-01  0.41777434084E-01  0.12777764062E+00  0.20442340633E-01 0.  0.
         14    1    1    2    0    0 -0.77224542170E-02 -0.23003573608E-01 -0.27476002618E-02  0.24420278563E-01  0.00000000000E+00 0.  1.
     999901    1    3    3    0    0  0.10777885047E+00  0.87444241836E-01 -0.39029833822E-01  0.89173208082E+00  0.88000000000E+00 0. -1.
        -11    1    4    4    0    0 -0.28164372200E-01 -0.27585122861E-01  0.81028816701E-02  0.40250325179E-01  0.51100000000E-03 0.  1.
         11    1    4    4    0    0 -0.71892024049E-01 -0.36855545367E-01  0.33674552414E-01  0.87527315436E-01  0.51100000000E-03 0. -1.
</event>
<event>
 8    1  0.1126407E+005  0.1043930E+01  0.7957747E-01            NaN
         13   -1    0    0    0    0  0.00000000000E+00  0.00000000000E+00  0.74505805969E-08  0.10566000000E+00  0.10566000000E+00 0.  1.
     999900   -1    0    0    0    0 -0.00000000000E+00 -0.00000000000E+00 -0.74505805969E-08  0.93827000000E+00  0.93827000000E+00 0. -1.
     999902    2    1    2    0    0 -0.81345796493E-02 -0.64615596471E-02  0.20902266160E-01  0.10205884519E+01  0.10203214984E+01 0.  0.
     999903    2    3    3    0    0 -0.72173250393E-01 -0.10841751180E+00 -0.71438491914E-02  0.13194760645E+00  0.19894756333E-01 0.  0.
         14    1    1    2    0    0  0.81345796493E-02  0.64615596471E-02 -0.20902266160E-01  0.23341548144E-01  0.00000000000E+00 0. -1.
     999901    1    3    3    0    0  0.64038670744E-01  0.10195595216E+00  0.28046115351E-01  0.88864084540E+00  0.88000000000E+00 0.  1.
        -11    1    4    4    0    0 -0.24173998412E-01 -0.51621850455E-01 -0.81083514072E-02  0.57577809329E-01  0.51100000000E-03 0. -1.
         11    1    4    4    0    0 -0.47999251981E-01 -0.56795661350E-01  0.96450221579E-03  0.74369797125E-01  0.51100000000E-03 0.  1.
</event>
<event>
 8    1  0.1126407E+005  0.1043930E+01  0.7957747E-01            NaN
         13   -1    0    0    0    0  0.00000000000E+00  0.00000000000E+00  0.74505805969E-08  0.10566000000E+00  0.10566000000E+00 0. -1.
     999900   -1    0    0    0    0 -0.00000000000E+00 -0.00000000000E+00 -0.74505805969E-08  0.93827000000E+00  0.93827000000E+00 0. -1.
     999902    2    1    2    0    0 -0.12996112337E-01 -0.21261460575E-01  0.43813306568E-02  0.10186289190E+01  0.10183146517E+01 0.  0.
     999903    2    3    3    0    0 -0.11326966821E+00  0.74474797452E-02  0.61344088395E-01  0.13064032389E+00  0.20452734688E-01 0.  0.
         14    1    1    2    0    0  0.12996112337E-01  0.21261460575E-01 -0.43813306568E-02  0.25301081004E-01  0.00000000000E+00 0.  1.
     999901    1    3    3    0    0  0.10027355587E+00 -0.28708940320E-01 -0.56962757738E-01  0.88798859510E+00  0.88000000000E+00 0.  1.
        -11    1    4    4    0    0 -0.38498938885E-01  0.61934900866E-02  0.11100442006E-01  0.40546375282E-01  0.51100000000E-03 0. -1.
         11    1    4    4    0    0 -0.74770729321E-01  0.12539896586E-02  0.50243646389E-01  0.90093948613E-01  0.51100000000E-03 0.  1.
</event>
<event>
 7    1  0.1126407E+005  0.1043930E+01  0.7957747E-01            NaN
         13   -1    0    0    0    0  0.00000000000E+00  0.00000000000E+00  0.74505805969E-08  0.10566000000E+00  0.10566000000E+00 0. -1.
     999900   -1    0    0    0    0 -0.00000000000E+00 -0.00000000000E+00 -0.74505805969E-08  0.93827000000E+00  0.93827000000E+00 0. -1.
     999903    2    1    2    0    0 -0.91460089817E-01  0.65788303588E-01 -0.17408173594E-01  0.11595353344E+00  0.21192651837E-01 0.  0.
         14    1    1    2    0    0  0.18435533790E-01  0.20106043398E-01 -0.28688526967E-01  0.39587289207E-01  0.00000000000E+00 0. -1.
     999901    1    1    2    0    0  0.73024556028E-01 -0.85894346986E-01  0.46096700561E-01  0.88838917735E+00  0.88000000000E+00 0. -1.
        -11    1    3    3    0    0 -0.39790805959E-01  0.38176405568E-01 -0.15721661804E-01  0.57342636422E-01  0.51100000000E-03 0.  1.
         11    1    3    3    0    0 -0.51669283858E-01  0.27611898020E-01 -0.16865117901E-02  0.58610897022E-01  0.51100000000E-03 0. -1.
</event>
<event>
 8    1  0.1126407E+005  0.1043930E+01  0.7957747E-01            NaN
         13   -1    0    0    0    0  0.00000000000E+00  0.00000000000E+00  0.74505805969E-08  0.10566000000E+00  0.10566000000E+00 0. -1.
     999900   -1    0    0    0    0 -0.00000000000E+00 -0.00000000000E+00 -0.74505805969E-08  0.93827000000E+00  0.93827000000E+00 0. -1.
     999902    2    1    2    0    0 -0.59639236615E-02  0.89339905410E-02  0.20558461623E-01  0.10207344203E+01  0.10204708334E+01 0.  0.
     999903    2    3    3    0    0 -0.27500855071E-01 -0.88588866235E-01 -0.86749037897E-01  0.12860805793E+00  0.20257165130E-01 0.  0.
         14    1    1    2    0    0  0.59639236615E-02 -0.89339905410E-02 -0.20558461623E-01  0.23195579681E-01  0.00000000000E+00 0.  1.
     999901    1    3    3    0    0  0.21536931409E-01  0.97522856776E-01  0.10730749952E+00  0.89212636238E+00  0.88000000000E+00 0.  1.
        -11    1    4    4    0    0 -0.24897702176E-01 -0.52044990404E-01 -0.45839588017E-01  0.73689249897E-01  0.51100000000E-03 0. -1.
         11    1    4    4    0    0 -0.26031528952E-02 -0.36543875830E-01 -0.40909449880E-01  0.54918808037E-01  0.51100000000E-03 0.  1.
</event>
<event>
 8    1  0.1126407E+005  0.1043930E+01  0.7957747E-01            NaN
         13   -1    0    0    0    0  0.00000000000E+00  0.00000000000E+00  0.74505805969E-08  0.10566000000E+00  0.10566000000E+00 0.  1.
     999900   -1    0    0    0    0 -0.00000000000E+00 -0.00000000000E+00 -0.74505805969E-08  0.93827000000E+00  0.93827000000E+00 0. -1.
     999902    2    1    2    0    0 -0.22039294478E-01  0.89648602908E-02  0.55094493448E-04  0.10201370965E+01  0.10198595950E+01 0.  0.
     999903    2    3    3    0    0  0.10483727510E+00 -0.67643459334E-01  0.18487370362E-01  0.12755306834E+00  0.19013430485E-01 0.  0.
         14    1    1    2    0    0  0.22039294478E-01 -0.89648602908E-02 -0.55094493448E-04  0.23792903491E-01  0.00000000000E+00 0. -1.
     999901    1    3    3    0    0 -0.12687656958E+00  0.76608319625E-01 -0.18432275869E-01  0.89258402817E+00  0.88000000000E+00 0. -1.
        -11    1    4    4    0    0  0.47398150434E-01 -0.41841503033E-01  0.84725311416E-02  0.63791386139E-01  0.51100000000E-03 0. -1.
         11    1    4    4    0    0  0.57439124670E-01 -0.25801956302E-01  0.10014839221E-01  0.63761682204E-01  0.51100000000E-03 0.  1.
</event>
<event>
 8    1  0.1126407E+005  0.1043930E+01  0.7957747E-01            NaN
         13   -1    0    0    0    0  0.00000000000E+00  0.00000000000E+00  0.74505805969E-08  0.10566000000E+00  0.10566000000E+00 0.  1.
     999900   -1    0    0    0    0 -0.00000000000E+00 -0.00000000000E+00 -0.74505805969E-08  0.93827000000E+00  0.93827000000E+00 0. -1.
     999902    2    1    2    0    0 -0.97628637404E-02  0.55548244479E-02 -0.19797338714E-01  0.10211680975E+01  0.10209143839E+01 0.  0.
     999903    2    3    3    0    0  0.53962716472E-01  0.11693269459E+00  0.16285888088E-01  0.13112990804E+00  0.18563210860E-01 0.  0.
         14    1    1    2    0    0  0.97628637404E-02 -0.55548244479E-02  0.19797338714E-01  0.22761902452E-01  0.00000000000E+00 0.  1.
     999901    1    3    3    0    0 -0.63725580212E-01 -0.11137787014E+00 -0.36083226803E-01  0.89003818951E+00  0.88000000000E+00 0. -1.
        -11    1    4    4    0    0  0.39937436947E-01  0.97352640412E-01  0.18853676554E-01  0.10690302945E+00  0.51100000000E-03 0. -1.
         11    1    4    4    0    0  0.14025279525E-01  0.19580054180E-01 -0.25677884660E-02  0.24226878587E-01  0.51100000000E-03 0.  1.
</event>
<event>
 7    1  0.1126407E+005  0.1043930E+01  0.7957747E-01            NaN
         13   -1    0    0    0    0  0.00000000000E+00  0.00000000000E+00  0.74505805969E-08  0.10566000000E+00  0.10566000000E+00 0.  1.
     999900   -1    0    0    0    0 -0.00000000000E+00 -0.00000000000E+00 -0.74505805969E-08  0.93827000000E+00  0.93827000000E+00 0.  1.
     999903    2    1    2    0    0  0.72418974226E-01 -0.71167490462E-01 -0.27679859132E-01  0.10707566292E+00  0.19740908308E-01 0.  0.
         14    1    1    2    0    0  0.38809840943E-01 -0.39497630539E-02 -0.22912039169E-01  0.45241197166E-01  0.00000000000E+00 0. -1.
     999901    1    1    2    0    0 -0.11122881517E+00  0.75117253516E-01  0.50591898300E-01  0.89161313992E+00  0.88000000000E+00 0.  1.
        -11    1    3    3    0    0  0.44875815285E-01 -0.52461439712E-01 -0.25875300422E-01  0.73728106900E-01  0.51100000000E-03 0.  1.
         11    1    3    3    0    0  0.27543158941E-01 -0.18706050750E-01 -0.18045587095E-02  0.33347556016E-01  0.51100000000E-03 0. -1.
</event>
<event>
 8    1  0.1126407E+005  0.1043930E+01  0.7957747E-01            NaN
         13   -1    0    0    0    0  0.00000000000E+00  0.00000000000E+00  0.74505805969E-08  0.10566000000E+00  0.10566000000E+00 0. -1.
     999900   -1    0    0    0    0 -0.00000000000E+00 -0.00000000000E+00 -0.74505805969E-08  0.93827000000E+00  0.93827000000E+00 0.  1.
     999902    2    1    2    0    0 -0.22137134384E-01  0.30164833985E-02 -0.44166532349E-02  0.10211559201E+01  0.10209019318E+01 0.  0.
     999903    2    3    3    0    0 -0.91143421482E-01 -0.89409142039E-01  0.30705054810E-01  0.13293415819E+00  0.20677815749E-01 0.  0.
         14    1    1    2    0    0  0.22137134384E-01 -0.30164833985E-02  0.44166532349E-02  0.22774079929E-01  0.00000000000E+00 0. -1.
     999901    1    3    3    0    0  0.69006287098E-01  0.92425625438E-01 -0.35121708045E-01  0.88822176188E+00  0.88000000000E+00 0. -1.
        -11    1    4    4    0    0 -0.14062780705E-01 -0.14837944714E-01 -0.26418461684E-02  0.20619575085E-01  0.51100000000E-03 0.  1.
         11    1    4    4    0    0 -0.77080640777E-01 -0.74571197325E-01  0.33346900978E-01  0.11231458311E+00  0.51100000000E-03 0. -1.
</event>
<event>
 8    1  0.1126407E+005  0.1043930E+01  0.7957747E-01            NaN
         13   -1    0    0    0    0  0.00000000000E+00  0.00000000000E+00  0.74505805969E-08  0.10566000000E+00  0.10566000000E+00 0.  1.
     999900   -1    0    0    0    0 -0.00000000000E+00 -0.00000000000E+00 -0.74505805969E-08  0.93827000000E+00  0.93827000000E+00 0.  1.
     999902    2    1    2    0    0  0.23216580153E-01 -0.61153346455E-02 -0.21783370742E-02  0.10198229043E+01  0.10195379365E+01 0.  0.
     999903    2    3    3    0    0 -0.99986712837E-01 -0.70612466368E-01  0.32504561954E-01  0.12822779724E+00  0.20058870530E-01 0.  0.
         14    1    1    2    0    0 -0.23216580153E-01  0.61153346455E-02  0.21783370742E-02  0.24107095724E-01  0.00000000000E+00 0.  1.
     999901    1    3    3    0    0  0.12320329299E+00  0.64497131723E-01 -0.34682899028E-01  0.89159510704E+00  0.88000000000E+00 0. -1.
        -11    1    4    4    0    0 -0.38905425041E-01 -0.36006209487E-01  0.21310970944E-01  0.57135784083E-01  0.51100000000E-03 0.  1.
         11    1    4    4    0    0 -0.61081287796E-01 -0.34606256881E-01  0.11193591010E-01  0.71092013158E-01  0.51100000000E-03 0. -1.
</event>
<event>
 8    1  0.1126407E+005  0.1043930E+01  0.7957747E-01            NaN
         13   -1    0    0    0    0  0.00000000000E+00  0.00000000000E+00  0.74505805969E-08  0.10566000000E+00  0.10566000000E+00 0. -1.
     999900   -1    0    0    0    0 -0.00000000000E+00 -0.00000000000E+00 -0.74505805969E-08  0.93827000000E+00  0.93827000000E+00 0.  1.
     999902    2    1    2    0    0 -0.18550930073E-01  0.15183672979E-01  0.10359651548E-02  0.10199351223E+01  0.10196528329E+01 0.  0.
     999903    2    3    3    0    0  0.27791474037E-01 -0.11296192409E+00 -0.49757443090E-01  0.12799965223E+00  0.19373835529E-01 0.  0.
         14    1    1    2    0    0  0.18550930073E-01 -0.15183672979E-01 -0.10359651548E-02  0.23994877693E-01  0.00000000000E+00 0.  1.
     999901    1    3    3    0    0 -0.46342404109E-01  0.12814559707E+00  0.50793408245E-01  0.89193547008E+00  0.88000000000E+00 0.  1.
        -11    1    4    4    0    0  0.17569868270E-01 -0.35037063783E-01 -0.19512532914E-01  0.43786940648E-01  0.51100000000E-03 0. -1.
         11    1    4    4    0    0  0.10221605767E-01 -0.77924860310E-01 -0.30244910176E-01  0.84212711578E-01  0.51100000000E-03 0.  1.
</event>
<event>
 8    1  0.1126407E+005  0.1043930E+01  0.7957747E-01            NaN
         13   -1    0    0    0    0  0.00000000000E+00  0.00000000000E+00  0.74505805969E-08  0.10566000000E+00  0.10566000000E+00 0. -1.
     999900   -1    0    0    0    0 -0.00000000000E+00 -0.00000000000E+00 -0.74505805969E-08  0.93827000000E+00  0.93827000000E+00 0.  1.
     999902    2    1    2    0    0 -0.53826052296E-02 -0.18796419975E-01  0.16085196663E-01  0.10186117972E+01  0.10182970991E+01 0.  0.
     999903    2    3    3    0    0  0.75390899113E-02 -0.33001057378E-01 -0.12152433956E+00  0.12771049714E+00  0.19897193511E-01 0.  0.
         14    1    1    2    0    0  0.53826052296E-02  0.18796419975E-01 -0.16085196663E-01  0.25318202831E-01  0.00000000000E+00 0.  1.
     999901    1    3    3    0    0 -0.12921695141E-01  0.14204637403E-01  0.13760953622E+00  0.89090130003E+00  0.88000000000E+00 0. -1.
        -11    1    4    4    0    0 -0.14390520225E-02 -0.20473923802E-01 -0.93460812083E-01  0.95689272872E-01  0.51100000000E-03 0. -1.
         11    1    4    4    0    0  0.89781419338E-02 -0.12527133575E-01 -0.28063527479E-01  0.32021224270E-01  0.51100000000E-03 0.  1.
</event>
<event>
 8    1  0.1126407E+005  0.1043930E+01  0.7957747E-01            NaN
         13   -1    0    0    0    0  0.00000000000E+00  0.00000000000E+00  0.74505805969E-08  0.10566000000E+00  0.10566000000E+00 0. -1.
     999900   -1    0    0    0    0 -0.00000000000E+00 -0.00000000000E+00 -0.74505805969E-08  0.93827000000E+00  0.93827000000E+00 0. -1.
     999902    2    1    2    0    0 -0.20893822647E-01 -0.31182343352E-02 -0.12882980400E-01  0.10191863868E+01  0.10188859822E+01 0.  0.
     999903    2    3    3    0    0  0.33971072756E-01  0.11798550364E+00 -0.34734337762E-01  0.12893150537E+00  0.18499891955E-01 0.  0.
         14    1    1    2    0    0  0.20893822647E-01  0.31182343352E-02  0.12882980400E-01  0.24743613199E-01  0.00000000000E+00 0. -1.
     999901    1    3    3    0    0 -0.54864895403E-01 -0.12110373798E+00  0.21851357362E-01  0.89025488143E+00  0.88000000000E+00 0.  1.
        -11    1    4    4    0    0  0.22296653662E-01  0.54959086396E-01 -0.23781209700E-01  0.63901870065E-01  0.51100000000E-03 0. -1.
         11    1    4    4    0    0  0.11674419095E-01  0.63026417246E-01 -0.10953128062E-01  0.65029635302E-01  0.51100000000E-03 0.  1.
</event>
<event>
 8    1  0.1126407E+005  0.1043930E+01  0.7957747E-01            NaN
         13   -1    0    0    0    0  0.00000000000E+00  0.00000000000E+00  0.74505805969E-08  0.10566000000E+00  0.10566000000E+00 0. -1.
     999900   -1    0    0    0    0 -0.00000000000E+00 -0.00000000000E+00 -0.74505805969E-08  0.93827000000E+00  0.93827000000E+00 0. -1.
     999902    2    1    2    0    0 -0.36833412559E-02  0.29957388913E-02 -0.22881993831E-01  0.10205606377E+01  0.10202930403E+01 0.  0.
     999903    2    3    3    0    0  0.12605170948E+00 -0.11551070161E-01 -0.26957604831E-01  0.13092059605E+00  0.19774461449E-01 0.  0.
         14    1    1    2    0    0  0.36833412559E-02 -0.29957388913E-02  0.22881993831E-01  0.23369362336E-01  0.00000000000E+00 0. -1.
     999901    1    3    3    0    0 -0.12973505074E+00  0.14546809052E-01  0.40756110000E-02  0.88964004162E+00  0.88000000000E+00 0.  1.
        -11    1    4    4    0    0  0.33812697309E-01 -0.52553139395E-02  0.12894700373E-02  0.34246761568E-01  0.51100000000E-03 0.  1.
         11    1    4    4    0    0  0.92239012174E-01 -0.62957562214E-02 -0.28247074868E-01  0.96673834479E-01  0.51100000000E-03 0. -1.
</event>
<event>
 8    1  0.1126407E+005  0.1043930E+01  0.7957747E-01            NaN
         13   -1    0    0    0    0  0.00000000000E+00  0.00000000000E+00  0.74505805969E-08  0.10566000000E+00  0.10566000000E+00 0. -1.
     999900   -1    0    0    0    0 -0.00000000000E+00 -0.00000000000E+00 -0.74505805969E-08  0.93827000000E+00  0.93827000000E+00 0. -1.
     999902    2    1    2    0    0 -0.21449864346E-01  0.82509214701E-02  0.42399513242E-02  0.10205601140E+01  0.10202925045E+01 0.  0.
     999903    2    3    3    0    0  0.82255332572E-01 -0.53557005031E-01  0.81250484640E-01  0.12898532189E+00  0.20031961551E-01 0.  0.
         14    1    1    2    0    0  0.21449864346E-01 -0.82509214701E-02 -0.42399513242E-02  0.23369886025E-01  0.00000000000E+00 0. -1.
     999901    1    3    3    0    0 -0.10370519692E+00  0.61807926501E-01 -0.77010533315E-01  0.89157479209E+00  0.88000000000E+00 0. -1.
        -11    1    4    4    0    0  0.51323452925E-01 -0.29303442714E-01  0.36692589504E-01  0.69565766154E-01  0.51100000000E-03 0.  1.
         11    1    4    4    0    0  0.30931879647E-01 -0.24253562316E-01  0.44557895136E-01  0.59419555733E-01  0.51100000000E-03 0. -1.
</event>
<event>
 8    1  0.1126407E+005  0.1043930E+01  0.7957747E-01            NaN
         13   -1    0    0    0    0  0.00000000000E+00  0.00000000000E+00  0.74505805969E-08  0.10566000000E+00  0.10566000000E+00 0.  1.
     999900   -1    0    0    0    0 -0.00000000000E+00 -0.00000000000E+00 -0.74505805969E-08  0.93827000000E+00  0.93827000000E+00 0. -1.
     999902    2    1    2    0    0  0.14649701352E-01 -0.28805374419E-01  0.13979595256E-02  0.10115831665E+01  0.10110658659E+01 0.  0.
     999903    2    3    3    0    0 -0.62488029441E-01 -0.97606924585E-01 -0.40423424444E-01  0.12454714078E+00  0.21120404379E-01 0.  0.
         14    1    1    2    0    0 -0.14649701352E-01  0.28805374419E-01 -0.13979595256E-02  0.32346833477E-01  0.00000000000E+00 0.  1.
     999901    1    3    3    0    0  0.77137730793E-01  0.68801550166E-01  0.41821383969E-01  0.88703602575E+00  0.88000000000E+00 0.  1.
        -11    1    4    4    0    0 -0.53231343499E-01 -0.73774838597E-01 -0.38860152900E-01  0.98927626805E-01  0.51100000000E-03 0. -1.
         11    1    4    4    0    0 -0.92566859415E-02 -0.23832085988E-01 -0.15632715433E-02  0.25619513971E-01  0.51100000000E-03 0.  1.
</event>
<event>
 8    1  0.1126407E+005  0.1043930E+01  0.7957747E-01            NaN
         13   -1    0    0    0    0  0.00000000000E+00  0.00000000000E+00  0.74505805969E-08  0.10566000000E+00  0.10566000000E+00 0.  1.
     999900   -1    0    0    0    0 -0.00000000000E+00 -0.00000000000E+00 -0.74505805969E-08  0.93827000000E+00  0.93827000000E+00 0. -1.
     999902    2    1    2    0    0 -0.23645324109E-01  0.19959606233E-02  0.32614464052E-02  0.10199775003E+01  0.10196962189E+01 0.  0.
     999903    2    3    3    0    0 -0.41272715995E-01  0.23481844411E-02  0.12422258735E+00  0.13152803821E+00  0.12626265098E-01 0.  0.
         14    1    1    2    0    0  0.23645324109E-01 -0.19959606233E-02 -0.32614464052E-02  0.23952499737E-01  0.00000000000E+00 0. -1.
     999901    1    3    3    0    0  0.17627391886E-01 -0.35222381779E-03 -0.12096114095E+00  0.88844946205E+00  0.88000000000E+00 0. -1.
        -11    1    4    4    0    0 -0.36179482635E-01 -0.92276923996E-03  0.11429706668E+00  0.11989114663E+00  0.51100000000E-03 0.  1.
         11    1    4    4    0    0 -0.50932333601E-02  0.32709536811E-02  0.99255206745E-02  0.11636891583E-01  0.51100000000E-03 0. -1.
</event>
<event>
 8    1  0.1126407E+005  0.1043930E+01  0.7957747E-01            NaN
         13   -1    0    0    0    0  0.00000000000E+00  0.00000000000E+00  0.74505805969E-08  0.10566000000E+00  0.10566000000E+00 0. -1.
     999900   -1    0    0    0    0 -0.00000000000E+00 -0.00000000000E+00 -0.74505805969E-08  0.93827000000E+00  0.93827000000E+00 0.  1.
     999902    2    1    2    0    0 -0.15979193321E-01  0.10974697221E-01  0.21594746056E-01  0.10149108399E+01  0.10144958853E+01 0.  0.
     999903    2    3    3    0    0  0.17227261471E-01  0.41405425254E-01  0.11871513036E+00  0.12842278754E+00  0.19696253609E-01 0.  0.
         14    1    1    2    0    0  0.15979193321E-01 -0.10974697221E-01 -0.21594746056E-01  0.29019160145E-01  0.00000000000E+00 0.  1.
     999901    1    3    3    0    0 -0.33206454792E-01 -0.30430728032E-01 -0.97120384299E-01  0.88648805231E+00  0.88000000000E+00 0.  1.
        -11    1    4    4    0    0 -0.14793485309E-02  0.19073847688E-01  0.36774011124E-01  0.41455869944E-01  0.51100000000E-03 0.  1.
         11    1    4    4    0    0  0.18706610002E-01  0.22331577566E-01  0.81941119232E-01  0.86966917597E-01  0.51100000000E-03 0. -1.
</event>
<event>
 8    1  0.1126407E+005  0.1043930E+01  0.7957747E-01            NaN
         13   -1    0    0    0    0  0.00000000000E+00  0.00000000000E+00  0.74505805969E-08  0.10566000000E+00  0.10566000000E+00 0. -1.
     999900   -1    0    0    0    0 -0.00000000000E+00 -0.00000000000E+00 -0.74505805969E-08  0.93827000000E+00  0.93827000000E+00 0.  1.
     999902    2    1    2    0    0  0.90589262513E-02  0.68759951132E-02 -0.20988733721E-01  0.10200580416E+01  0.10197786710E+01 0.  0.
     999903    2    3    3    0    0 -0.10084184859E+00  0.78377490568E-01  0.10305375441E-01  0.12979405525E+00  0.20692669214E-01 0.  0.
         14    1    1    2    0    0 -0.90589262513E-02 -0.68759951132E-02  0.20988733721E-01  0.23871958379E-01  0.00000000000E+00 0. -1.
     999901    1    3    3    0    0  0.10990077485E+00 -0.71501495455E-01 -0.31294109163E-01  0.89026398637E+00  0.88000000000E+00 0.  1.
        -11    1    4    4    0    0 -0.16107249980E-01  0.22708291761E-01 -0.36053726612E-03  0.27847820826E-01  0.51100000000E-03 0.  1.
         11    1    4    4    0    0 -0.84734598614E-01  0.55669198808E-01  0.10665912707E-01  0.10194623442E+00  0.51100000000E-03 0. -1.
</event>
<event>
 8    1  0.1126407E+005  0.1043930E+01  0.7957747E-01            NaN
         13   -1    0    0    0    0  0.00000000000E+00  0.00000000000E+00  0.74505805969E-08  0.10566000000E+00  0.10566000000E+00 0. -1.
     999900   -1    0    0    0    0 -0.00000000000E+00 -0.00000000000E+00 -0.74505805969E-08  0.93827000000E+00  0.93827000000E+00 0. -1.
     999902    2    1    2    0    0  0.12471755442E-01 -0.13872607801E-01 -0.16955635134E-01  0.10187211227E+01  0.10184091704E+01 0.  0.
     999903    2    3    3    0    0  0.11752325372E-01 -0.10736232532E+00 -0.72724244066E-01  0.13201317610E+00  0.21768714676E-01 0.  0.
         14    1    1    2    0    0 -0.12471755442E-01  0.13872607801E-01  0.16955635134E-01  0.25208877282E-01  0.00000000000E+00 0. -1.
     999901    1    3    3    0    0  0.71943007072E-03  0.93489717517E-01  0.55768608932E-01  0.88670794662E+00  0.88000000000E+00 0.  1.
        -11    1    4    4    0    0  0.14067586123E-01 -0.60957914868E-01 -0.32215667812E-01  0.70369558319E-01  0.51100000000E-03 0. -1.
         11    1    4    4    0    0 -0.23152607509E-02 -0.46404410450E-01 -0.40508576254E-01  0.61643617777E-01  0.51100000000E-03 0.  1.
</event>
<event>
 8    1  0.1126407E+005  0.1043930E+01  0.7957747E-01            NaN
         13   -1    0    0    0    0  0.00000000000E+00  0.00000000000E+00  0.74505805969E-08  0.10566000000E+00  0.10566000000E+00 0.  1.
     999900   -1    0    0    0    0 -0.00000000000E+00 -0.00000000000E+00 -0.74505805969E-08  0.93827000000E+00  0.93827000000E+00 0. -1.
     999902    2    1    2    0    0  0.19811610382E-02  0.18073870805E-01 -0.14690733905E-01  0.10205546397E+01  0.10202869034E+01 0.  0.
     999903    2    3    3    0    0 -0.30938565478E-01  0.11128785307E-01 -0.12718920036E+00  0.13275519867E+00  0.19126039553E-01 0.  0.
         14    1    1    2    0    0 -0.19811610382E-02 -0.18073870805E-01  0.14690733905E-01  0.23375360266E-01  0.00000000000E+00 0.  1.
     999901    1    3    3    0    0  0.32919726517E-01  0.69450854976E-02  0.11249846645E+00  0.88779944107E+00  0.88000000000E+00 0.  1.
        -11    1    4    4    0    0 -0.75410877192E-02  0.51330746253E-02 -0.71095888344E-01  0.71680561658E-01  0.51100000000E-03 0.  1.
         11    1    4    4    0    0 -0.23397477759E-01  0.59957106818E-02 -0.56093312013E-01  0.61074637008E-01  0.51100000000E-03 0. -1.
</event>
<event>
 7    1  0.1126407E+005  0.1043930E+01  0.7957747E-01            NaN
         13   -1    0    0    0    0  0.00000000000E+00  0.00000000000E+00  0.74505805969E-08  0.10566000000E+00  0.10566000000E+00 0.  1.
     999900   -1    0    0    0    0 -0.00000000000E+00 -0.00000000000E+00 -0.74505805969E-08  0.93827000000E+00  0.93827000000E+00 0.  1.
     999902    2    1    2    0    0 -0.29786303577E-02 -0.49878287105E-02  0.22586475513E-01  0.10206083459E+01  0.10203418526E+01 0.  0.
         14    1    1    2    0    0  0.29786303577E-02  0.49878287105E-02 -0.22586475513E-01  0.23321654104E-01  0.00000000000E+00 0. -1.
     999901    1    3    3    0    0 -0.10213662222E-02  0.51804829150E-01 -0.89314906581E-01  0.88603720918E+00  0.88000000000E+00 0.  1.
        -11    1    3    3    0    0  0.13015075640E-01 -0.46078637721E-01  0.10406932934E+00  0.11455705774E+00  0.51100000000E-03 0.  1.
         11    1    3    3    0    0 -0.14972339776E-01 -0.10714020139E-01  0.78320527553E-02  0.20014078976E-01  0.51100000000E-03 0. -1.
</event>
<event>
 8    1  0.1126407E+005  0.1043930E+01  0.7957747E-01            NaN
         13   -1    0    0    0    0  0.00000000000E+00  0.00000000000E+00  0.74505805969E-08  0.10566000000E+00  0.10566000000E+00 0.  1.
     999900   -1    0    0    0    0 -0.00000000000E+00 -0.00000000000E+00 -0.74505805969E-08  0.93827000000E+00  0.93827000000E+00 0.  1.
     999902    2    1    2    0    0 -0.23596787617E-01 -0.39567635809E-02  0.29732489103E-02  0.10198197413E+01  0.10195346979E+01 0.  0.
     999903    2    3    3    0    0  0.37037610906E-01  0.12020505654E+00 -0.19215139752E-01  0.12876137487E+00  0.19728908304E-01 0.  0.
         14    1    1    2    0    0  0.23596787617E-01  0.39567635809E-02 -0.29732489103E-02  0.24110258666E-01  0.00000000000E+00 0. -1.
     999901    1    3    3    0    0 -0.60634398523E-01 -0.12416182012E+00  0.22188388662E-01  0.89105836647E+00  0.88000000000E+00 0.  1.
        -11    1    4    4    0    0  0.28217078172E-01  0.71077615827E-01 -0.40068091870E-02  0.76580327846E-01  0.51100000000E-03 0.  1.
         11    1    4    4    0    0  0.88205327343E-02  0.49127440711E-01 -0.15208330565E-01  0.52181047020E-01  0.51100000000E-03 0. -1.
</event>
<event>
 8    1  0.1126407E+005  0.1043930E+01  0.7957747E-01            NaN
         13   -1    0    0    0    0  0.00000000000E+00  0.00000000000E+00  0.74505805969E-08  0.10566000000E+00  0.10566000000E+00 0. -1.
     999900   -1    0    0    0    0 -0.00000000000E+00 -0.00000000000E+00 -0.74505805969E-08  0.93827000000E+00  0.93827000000E+00 0. -1.
     999902    2    1    2    0    0  0.11378726840E-01  0.37179899563E-03  0.21106456085E-01  0.10199488377E+01  0.10196668747E+01 0.  0.
     999903    2    3    3    0    0 -0.38860097756E-01  0.12095494341E+00 -0.14658332001E-01  0.12958747603E+00  0.20924667574E-01 0.  0.
         14    1    1    2    0    0 -0.11378726840E-01 -0.37179899563E-03 -0.21106456085E-01  0.23981162346E-01  0.00000000000E+00 0. -1.
     999901    1    3    3    0    0  0.50238824595E-01 -0.12058314441E+00  0.35764788086E-01  0.89036136163E+00  0.88000000000E+00 0.  1.
        -11    1    4    4    0    0 -0.36607316352E-01  0.92843711109E-01 -0.17178962362E-01  0.10126908794E+00  0.51100000000E-03 0.  1.
         11    1    4    4    0    0 -0.22527814030E-02  0.28111232300E-01  0.25206303604E-02  0.28318388088E-01  0.51100000000E-03 0. -1.
</event>
<event>
 8    1  0.1126407E+005  0.1043930E+01  0.7957747E-01            NaN
         13   -1    0    0    0    0  0.00000000000E+00  0.00000000000E+00  0.74505805969E-08  0.10566000000E+00  0.10566000000E+00 0. -1.
     999900   -1    0    0    0    0 -0.00000000000E+00 -0.00000000000E+00 -0.74505805969E-08  0.93827000000E+00  0.93827000000E+00 0. -1.
     999902    2    1    2    0    0 -0.15291001262E-01  0.70955055904E-02  0.16617806680E-01  0.10202590808E+01  0.10199844506E+01 0.  0.
     999903    2    3    3    0    0  0.80534700600E-01 -0.37101694601E-01 -0.89512315576E-01  0.12762278276E+00  0.20316158511E-01 0.  0.
         14    1    1    2    0    0  0.15291001262E-01 -0.70955055904E-02 -0.16617806680E-01  0.23670919248E-01  0.00000000000E+00 0.  1.
     999901    1    3    3    0    0 -0.95825701862E-01  0.44197200192E-01  0.10613012226E+00  0.89263629799E+00  0.88000000000E+00 0.  1.
        -11    1    4    4    0    0  0.75522870424E-01 -0.28007663255E-01 -0.78393132141E-01  0.11240052245E+00  0.51100000000E-03 0.  1.
         11    1    4    4    0    0  0.50118301763E-02 -0.90940313461E-02 -0.11119183435E-01  0.15222260315E-01  0.51100000000E-03 0. -1.
</event>
<event>
 8    1  0.1126407E+005  0.1043930E+01  0.7957747E-01            NaN
         13   -1    0    0    0    0  0.00000000000E+00  0.00000000000E+00  0.74505805969E-08  0.10566000000E+00  0.10566000000E+00 0. -1.
     999900   -1    0    0    0    0 -0.00000000000E+00 -0.00000000000E+00 -0.74505805969E-08  0.93827000000E+00  0.93827000000E+00 0. -1.
     999902    2    1    2    0    0  0.16611994043E-02 -0.22990371856E-01 -0.57860005791E-02  0.10201645927E+01  0.10198877397E+01 0.  0.
     999903    2    3    3    0    0 -0.33471958068E-01 -0.10618910608E+00  0.69315625101E-01  0.13236020979E+00  0.17834545832E-01 0.  0.
         14    1    1    2    0    0 -0.16611994043E-02  0.22990371856E-01  0.57860005791E-02  0.23765407302E-01  0.00000000000E+00 0. -1.
     999901    1    3    3    0    0  0.35133157473E-01  0.83198734227E-01 -0.75101625680E-01  0.88780438291E+00  0.88000000000E+00 0. -1.
        -11    1    4    4    0    0 -0.89419923848E-02 -0.48892499026E-01  0.38243318040E-01  0.62715613563E-01  0.51100000000E-03 0.  1.
         11    1    4    4    0    0 -0.24529965683E-01 -0.57296607056E-01  0.31072307061E-01  0.69644596227E-01  0.51100000000E-03 0. -1.
</event>
<event>
 8    1  0.1126407E+005  0.1043930E+01  0.7957747E-01            NaN
         13   -1    0    0    0    0  0.00000000000E+00  0.00000000000E+00  0.74505805969E-08  0.10566000000E+00  0.10566000000E+00 0.  1.
     999900   -1    0    0    0    0 -0.00000000000E+00 -0.00000000000E+00 -0.74505805969E-08  0.93827000000E+00  0.93827000000E+00 0.  1.
     999902    2    1    2    0    0  0.13259339592E-01  0.11140164988E-01  0.17967401152E-01  0.10189752236E+01  0.10186696056E+01 0.  0.
     999903    2    3    3    0    0  0.10197697885E+00  0.54264128534E-01 -0.56863178701E-01  0.13030761899E+00  0.20068747220E-01 0.  0.
         14    1    1    2    0    0 -0.13259339592E-01 -0.11140164988E-01 -0.17967401152E-01  0.24954776427E-01  0.00000000000E+00 0. -1.
     999901    1    3    3    0    0 -0.88717639258E-01 -0.43123963546E-01  0.74830579853E-01  0.88866760458E+00  0.88000000000E+00 0. -1.
        -11    1    4    4    0    0  0.87345785581E-01  0.53805557968E-01 -0.50301934273E-01  0.11425791018E+00  0.51100000000E-03 0.  1.
         11    1    4    4    0    0  0.14631193269E-01  0.45857056563E-03 -0.65612444281E-02  0.16049708810E-01  0.51100000000E-03 0. -1.
</event>
<event>
 8    1  0.1126407E+005  0.1043930E+01  0.7957747E-01            NaN
         13   -1    0    0    0    0  0.00000000000E+00  0.00000000000E+00  0.74505805969E-08  0.10566000000E+00  0.10566000000E+00 0. -1.
     999900   -1    0    0    0    0 -0.00000000000E+00 -0.00000000000E+00 -0.74505805969E-08  0.93827000000E+00  0.93827000000E+00 0.  1.
     999902    2    1    2    0    0  0.11321317015E-01 -0.18794057025E-01  0.83958323909E-02  0.10204378992E+01  0.10201674506E+01 0.  0.
     999903    2    3    3    0    0 -0.19509232999E-01 -0.11477632868E+00 -0.59151509154E-01  0.13211039054E+00  0.20000961413E-01 0.  0.
         14    1    1    2    0    0 -0.11321317015E-01  0.18794057025E-01 -0.83958323909E-02  0.23492100799E-01  0.00000000000E+00 0. -1.
     999901    1    3    3    0    0  0.30830550014E-01  0.95982271655E-01  0.67547341544E-01  0.88832750866E+00  0.88000000000E+00 0.  1.
        -11    1    4    4    0    0 -0.15771984125E-01 -0.56670322556E-01 -0.38608786697E-01  0.70364625154E-01  0.51100000000E-03 0.  1.
         11    1    4    4    0    0 -0.37372488738E-02 -0.58106006124E-01 -0.20542722456E-01  0.61745765391E-01  0.51100000000E-03 0. -1.
</event>
<event>
 8    1  0.1126407E+005  0.1043930E+01  0.7957747E-01            NaN
         13   -1    0    0    0    0  0.00000000000E+00  0.00000000000E+00  0.74505805969E-08  0.10566000000E+00  0.10566000000E+00 0. -1.
     999900   -1    0    0    0    0 -0.00000000000E+00 -0.00000000000E+00 -0.74505805969E-08  0.93827000000E+00  0.93827000000E+00 0.  1.
     999902    2    1    2    0    0 -0.23404565309E-01  0.38998154885E-02 -0.96238100589E-03  0.10201832441E+01  0.10199068306E+01 0.  0.
     999903    2    3    3    0    0 -0.37045498251E-01  0.12415310751E+00 -0.13851796041E-01  0.13180659746E+00  0.19868161362E-01 0.  0.
         14    1    1    2    0    0  0.23404565309E-01 -0.38998154885E-02  0.96238100589E-03  0.23746755891E-01  0.00000000000E+00 0. -1.
     999901    1    3    3    0    0  0.13640932942E-01 -0.12025329202E+00  0.12889415035E-01  0.88837664665E+00  0.88000000000E+00 0.  1.
        -11    1    4    4    0    0 -0.53193914956E-02  0.22337653547E-01  0.50054293859E-02  0.23507065665E-01  0.51100000000E-03 0. -1.
         11    1    4    4    0    0 -0.31726106756E-01  0.10181545396E+00 -0.18857225427E-01  0.10829953179E+00  0.51100000000E-03 0.  1.
</event>
<event>
 8    1  0.1126407E+005  0.1043930E+01  0.7957747E-01            NaN
         13   -1    0    0    0    0  0.00000000000E+00  0.00000000000E+00  0.74505805969E-08  0.10566000000E+00  0.10566000000E+00 0.  1.
     999900   -1    0    0    0    0 -0.00000000000E+00 -0.00000000000E+00 -0.74505805969E-08  0.93827000000E+00  0.93827000000E+00 0. -1.
     999902    2    1    2    0    0 -0.13596170814E-01 -0.18827515031E-01 -0.13176258400E-01  0.10172289706E+01  0.10168784754E+01 0.  0.
     999903    2    3    3    0    0  0.11978699020E+00 -0.71502882126E-02 -0.35775856617E-01  0.12681436660E+00  0.20047992796E-01 0.  0.
         14    1    1    2    0    0  0.13596170814E-01  0.18827515031E-01  0.13176258400E-01  0.26701029352E-01  0.00000000000E+00 0.  1.
     999901    1    3    3    0    0 -0.13338316102E+00 -0.11677226818E-01  0.22599598218E-01  0.89041460405E+00  0.88000000000E+00 0. -1.
        -11    1    4    4    0    0  0.45593248903E-01  0.68638757337E-02 -0.15260797360E-01  0.48569642707E-01  0.51100000000E-03 0. -1.
         11    1    4    4    0    0  0.74193741300E-01 -0.14014163946E-01 -0.20515059257E-01  0.78244723889E-01  0.51100000000E-03 0.  1.
</event>
<event>
 8    1  0.1126407E+005  0.1043930E+01  0.7957747E-01            NaN
         13   -1    0    0    0    0  0.00000000000E+00  0.00000000000E+00  0.74505805969E-08  0.10566000000E+00  0.10566000000E+00 0.  1.
     999900   -1    0    0    0    0 -0.00000000000E+00 -0.00000000000E+00 -0.74505805969E-08  0.93827000000E+00  0.93827000000E+00 0.  1.
     999902    2    1    2    0    0  0.13325979959E-01  0.17428281628E-01  0.11758335480E-01  0.10190385317E+01  0.10187344815E+01 0.  0.
     999903    2    3    3    0    0 -0.83069799217E-02  0.16331778780E-01  0.12825147854E+00  0.13109718245E+00  0.20057332480E-01 0.  0.
         14    1    1    2    0    0 -0.13325979959E-01 -0.17428281628E-01 -0.11758335480E-01  0.24891468330E-01  0.00000000000E+00 0.  1.
     999901    1    3    3    0    0  0.21632959880E-01  0.10965028482E-02 -0.11649314306E+00  0.88794134922E+00  0.88000000000E+00 0.  1.
        -11    1    4    4    0    0 -0.29080578669E-02  0.43777904680E-02  0.97731561551E-01  0.97874108395E-01  0.51100000000E-03 0.  1.
         11    1    4    4    0    0 -0.53989220548E-02  0.11953988312E-01  0.30519916987E-01  0.33223074057E-01  0.51100000000E-03 0. -1.
</event>
<event>
 8    1  0.1126407E+005  0.1043930E+01  0.7957747E-01            NaN
         13   -1    0    0    0    0  0.00000000000E+00  0.00000000000E+00  0.74505805969E-08  0.10566000000E+00  0.10566000000E+00 0. -1.
     999900   -1    0    0    0    0 -0.00000000000E+00 -0.00000000000E+00 -0.74505805969E-08  0.93827000000E+00  0.93827000000E+00 0.  1.
     999902    2    1    2    0    0  0.23391322354E-01 -0.45699532571E-02  0.41058678123E-02  0.10197453647E+01  0.10194585388E+01 0.  0.
     999903    2    3    3    0    0  0.63017808765E-01  0.22192411728E-01  0.11155616611E+00  0.13192103004E+00  0.22240337466E-01 0.  0.
         14    1    1    2    0    0 -0.23391322354E-01  0.45699532571E-02 -0.41058678123E-02  0.24184635303E-01  0.00000000000E+00 0. -1.
     999901    1    3    3    0    0 -0.39626486411E-01 -0.26762364985E-01 -0.10745029829E+00  0.88782433466E+00  0.88000000000E+00 0.  1.
        -11    1    4    4    0    0  0.29880061975E-01  0.21421822699E-01  0.50819969876E-01  0.62726733141E-01  0.51100000000E-03 0.  1.
         11    1    4    4    0    0  0.33137746790E-01  0.77058902900E-03  0.60736196231E-01  0.69194296900E-01  0.51100000000E-03 0. -1.
</event>
<event>
 8    1  0.1126407E+005  0.1043930E+01  0.7957747E-01            NaN
         13   -1    0    0    0    0  0.00000000000E+00  0.00000000000E+00  0.74505805969E-08  0.10566000000E+00  0.10566000000E+00 0.  1.
     999900   -1    0    0    0    0 -0.00000000000E+00 -0.00000000000E+00 -0.74505805969E-08  0.93827000000E+00  0.93827000000E+00 0. -1.
     999902    2    1    2    0    0  0.21302049990E-01 -0.75310209050E-02  0.10800869002E-01  0.10188869894E+01  0.10185791794E+01 0.  0.
     999903    2    3    3    0    0  0.56839541151E-02  0.12012746023E+00 -0.37798924981E-01  0.12821165420E+00  0.23378526627E-01 0.  0.
         14    1    1    2    0    0 -0.21302049990E-01  0.75310209050E-02 -0.10800869002E-01  0.25043010619E-01  0.00000000000E+00 0. -1.
     999901    1    3    3    0    0  0.15618095875E-01 -0.12765848114E+00  0.48599793983E-01  0.89067533518E+00  0.88000000000E+00 0.  1.
        -11    1    4    4    0    0  0.36127892172E-02  0.11250952001E+00 -0.28729896810E-01  0.11617707360E+00  0.51100000000E-03 0.  1.
         11    1    4    4    0    0  0.20711648979E-02  0.76179402216E-02 -0.90690281712E-02  0.12034580600E-01  0.51100000000E-03 0. -1.
</event>
<event>
 8    1  0.1126407E+005  0.1043930E+01  0.7957747E-01            NaN
         13   -1    0    0    0    0  0.00000000000E+00  0.00000000000E+00  0.74505805969E-08  0.10566000000E+00  0.10566000000E+00 0. -1.
     999900   -1    0    0    0    0 -0.00000000000E+00 -0.00000000000E+00 -0.74505805969E-08  0.93827000000E+00  0.93827000000E+00 0.  1.
     999902    2    1    2    0    0  0.11100467144E-01  0.71929514593E-02  0.19660218906E-01  0.10202343648E+01  0.10199591540E+01 0.  0.
     999903    2    3    3    0    0 -0.88888012378E-01 -0.37119484429E-01  0.86368056091E-01  0.13095869123E+00  0.20292925531E-01 0.  0.
         14    1    1    2    0    0 -0.11100467144E-01 -0.71929514593E-02 -0.19660218906E-01  0.23695635230E-01  0.00000000000E+00 0.  1.
     999901    1    3    3    0    0  0.99988479521E-01  0.44312435889E-01 -0.66707837185E-01  0.88927567354E+00  0.88000000000E+00 0.  1.
        -11    1    4    4    0    0 -0.59482732641E-01 -0.21194701534E-01  0.68012451230E-01  0.92808218919E-01  0.51100000000E-03 0. -1.
         11    1    4    4    0    0 -0.29405279736E-01 -0.15924782895E-01  0.18355604861E-01  0.38150472310E-01  0.51100000000E-03 0.  1.
</event>
<event>
 8    1  0.1126407E+005  0.1043930E+01  0.7957747E-01            NaN
         13   -1    0    0    0    0  0.00000000000E+00  0.00000000000E+00  0.74505805969E-08  0.10566000000E+00  0.10566000000E+00 0. -1.
     999900   -1    0    0    0    0 -0.00000000000E+00 -0.00000000000E+00 -0.74505805969E-08  0.93827000000E+00  0.93827000000E+00 0. -1.
     999902    2    1    2    0    0  0.13473695226E-01 -0.14436456457E-01 -0.13621485331E-01  0.10199404898E+01  0.10196583281E+01 0.  0.
     999903    2    3    3    0    0  0.50995578686E-01  0.83817731734E-01 -0.82587262668E-01  0.13099839061E+00  0.26720052170E-01 0.  0.
         14    1    1    2    0    0 -0.13473695226E-01  0.14436456457E-01  0.13621485331E-01  0.23989510222E-01  0.00000000000E+00 0. -1.
     999901    1    3    3    0    0 -0.37521883459E-01 -0.98254188191E-01  0.68965777337E-01  0.88894209917E+00  0.88000000000E+00 0.  1.
        -11    1    4    4    0    0  0.38786978458E-01  0.68017193338E-01 -0.50406697324E-01  0.93122846518E-01  0.51100000000E-03 0.  1.
         11    1    4    4    0    0  0.12208600228E-01  0.15800538396E-01 -0.32180565345E-01  0.37875544089E-01  0.51100000000E-03 0. -1.
</event>
<event>
 8    1  0.1126407E+005  0.1043930E+01  0.7957747E-01            NaN
         13   -1    0    0    0    0  0.00000000000E+00  0.00000000000E+00  0.74505805969E-08  0.10566000000E+00  0.10566000000E+00 0. -1.
     999900   -1    0    0    0    0 -0.00000000000E+00 -0.00000000000E+00 -0.74505805969E-08  0.93827000000E+00  0.93827000000E+00 0. -1.
     999902    2    1    2    0    0 -0.18358637087E-01  0.24987031427E-02  0.17394807510E-02  0.10253206242E+01  0.10251517320E+01 0.  0.
     999903    2    3    3    0    0  0.23142914166E-01 -0.13125228917E+00 -0.45483068812E-02  0.13422509458E+00  0.15262078208E-01 0.  0.
         14    1    1    2    0    0  0.18358637087E-01 -0.24987031427E-02 -0.17394807510E-02  0.18609375765E-01  0.00000000000E+00 0. -1.
     999901    1    3    3    0    0 -0.41501551253E-01  0.13375099231E+00  0.62877876323E-02  0.89109552966E+00  0.88000000000E+00 0. -1.
        -11    1    4    4    0    0  0.27711476114E-02 -0.58239786163E-01 -0.35422376572E-02  0.58415413377E-01  0.51100000000E-03 0. -1.
         11    1    4    4    0    0  0.20371766554E-01 -0.73012503005E-01 -0.10060692240E-02  0.75809681201E-01  0.51100000000E-03 0.  1.
</event>
<event>
 8    1  0.1126407E+005  0.1043930E+01  0.7957747E-01            NaN
         13   -1    0    0    0    0  0.00000000000E+00  0.00000000000E+00  0.74505805969E-08  0.10566000000E+00  0.10566000000E+00 0. -1.
     999900   -1    0    0    0    0 -0.00000000000E+00 -0.00000000000E+00 -0.74505805969E-08  0.93827000000E+00  0.93827000000E+00 0.  1.
     999902    2    1    2    0    0 -0.15812736789E-01 -0.15577243542E-01 -0.85226082203E-02  0.10201533726E+01  0.10198762550E+01 0.  0.
     999903    2    3    3    0    0  0.44643390611E-01  0.70036201227E-01 -0.97275447924E-01  0.12950098706E+00  0.20245766766E-01 0.  0.
         14    1    1    2    0    0  0.15812736789E-01  0.15577243542E-01  0.85226082203E-02  0.23776627431E-01  0.00000000000E+00 0. -1.
     999901    1    3    3    0    0 -0.60456127400E-01 -0.85613444768E-01  0.88752839704E-01  0.89065238551E+00  0.88000000000E+00 0. -1.
        -11    1    4    4    0    0  0.27481919436E-01  0.51949413080E-01 -0.55431255284E-01  0.80789124259E-01  0.51100000000E-03 0.  1.
         11    1    4    4    0    0  0.17161471175E-01  0.18086788147E-01 -0.41844192640E-01  0.48711862796E-01  0.51100000000E-03 0. -1.
</event>
<event>
 8    1  0.1126407E+005  0.1043930E+01  0.7957747E-01            NaN
         13   -1    0    0    0    0  0.00000000000E+00  0.00000000000E+00  0.74505805969E-08  0.10566000000E+00  0.10566000000E+00 0. -1.
     999900   -1    0    0    0    0 -0.00000000000E+00 -0.00000000000E+00 -0.74505805969E-08  0.93827000000E+00  0.93827000000E+00 0. -1.
     999902    2    1    2    0    0  0.72758079747E-02  0.54620959791E-02 -0.22174759246E-01  0.10199614410E+01  0.10196797778E+01 0.  0.
     999903    2    3    3    0    0  0.11151080516E+00  0.58896452039E-01 -0.33087841872E-01  0.13213304516E+00  0.21468223299E-01 0.  0.
         14    1    1    2    0    0 -0.72758079747E-02 -0.54620959791E-02  0.22174759246E-01  0.23968559026E-01  0.00000000000E+00 0. -1.
     999901    1    3    3    0    0 -0.10423499719E+00 -0.53434356060E-01  0.10913082627E-01  0.88782839582E+00  0.88000000000E+00 0. -1.
        -11    1    4    4    0    0  0.43903226602E-01  0.21945750809E-01 -0.23724678834E-01  0.54518169370E-01  0.51100000000E-03 0. -1.
         11    1    4    4    0    0  0.67607578562E-01  0.36950701230E-01 -0.93631630379E-02  0.77614875787E-01  0.51100000000E-03 0.  1.
</event>
<event>
 8    1  0.1126407E+005  0.1043930E+01  0.7957747E-01            NaN
         13   -1    0    0    0    0  0.00000000000E+00  0.00000000000E+00  0.74505805969E-08  0.10566000000E+00  0.10566000000E+00 0. -1.
     999900   -1    0    0    0    0 -0.00000000000E+00 -0.00000000000E+00 -0.74505805969E-08  0.93827000000E+00  0.93827000000E+00 0. -1.
     999902    2    1    2    0    0 -0.21746914016E-01  0.92199660056E-02  0.26533635771E-02  0.10201607682E+01  0.10198838250E+01 0.  0.
     999903    2    3    3    0    0 -0.10607016964E+00 -0.55284905369E-01 -0.51976958690E-01  0.13209784138E+00  0.20998424096E-01 0.  0.
         14    1    1    2    0    0  0.21746914016E-01 -0.92199660056E-02 -0.26533635771E-02  0.23769231806E-01  0.00000000000E+00 0.  1.
     999901    1    3    3    0    0  0.84323255620E-01  0.64504871374E-01  0.54630322267E-01  0.88806292681E+00  0.88000000000E+00 0. -1.
        -11    1    4    4    0    0 -0.79311131678E-01 -0.41861703577E-01 -0.48495832861E-01  0.10195471917E+00  0.51100000000E-03 0.  1.
         11    1    4    4    0    0 -0.26759037958E-01 -0.13423201792E-01 -0.34811258290E-02  0.30143122215E-01  0.51100000000E-03 0. -1.
</event>
<event>
 8    1  0.1126407E+005  0.1043930E+01  0.7957747E-01            NaN
         13   -1    0    0    0    0  0.00000000000E+00  0.00000000000E+00  0.74505805969E-08  0.10566000000E+00  0.10566000000E+00 0.  1.
     999900   -1    0    0    0    0 -0.00000000000E+00 -0.00000000000E+00 -0.74505805969E-08  0.93827000000E+00  0.93827000000E+00 0. -1.
     999902    2    1    2    0    0 -0.28082601476E-02  0.49793780270E-02 -0.20907807633E-01  0.10222547387E+01  0.10220249184E+01 0.  0.
     999903    2    3    3    0    0  0.26504227203E-01 -0.87873113281E-01  0.89807843385E-01  0.12998865599E+00  0.20185238524E-01 0.  0.
         14    1    1    2    0    0  0.28082601476E-02 -0.49793780270E-02  0.20907807633E-01  0.21675261258E-01  0.00000000000E+00 0.  1.
     999901    1    3    3    0    0 -0.29312487350E-01  0.92852491308E-01 -0.11071565102E+00  0.89226608276E+00  0.88000000000E+00 0. -1.
        -11    1    4    4    0    0  0.53384985034E-02 -0.50178781561E-01  0.53337054653E-01  0.73426917444E-01  0.51100000000E-03 0. -1.
         11    1    4    4    0    0  0.21165728700E-01 -0.37694331720E-01  0.36470788732E-01  0.56561738542E-01  0.51100000000E-03 0.  1.
</event>
<event>
 8    1  0.1489900E+005  0.1043930E+01  0.7957747E-01            NaN
         13   -1    0    0    0    0  0.00000000000E+00  0.00000000000E+00  0.74505805969E-08  0.10566000000E+00  0.10566000000E+00 0. -1.
     999900   -1    0    0    0    0 -0.00000000000E+00 -0.00000000000E+00 -0.74505805969E-08  0.93827000000E+00  0.93827000000E+00 0. -1.
     999902    2    1    2    0    0 -0.92408078774E-04 -0.12577433447E-02 -0.23405198340E-01  0.10204908497E+01  0.10202216331E+01 0.  0.
     999903    2    3    3    0    0  0.56674694109E-01  0.10103665699E+00  0.53886379052E-01  0.12939004947E+00  0.20435656223E-01 0.  0.
         14    1    1    2    0    0  0.92408078774E-04  0.12577433447E-02  0.23405198340E-01  0.23439150303E-01  0.00000000000E+00 0. -1.
     999901    1    3    3    0    0 -0.56767102187E-01 -0.10229440034E+00 -0.77291577392E-01  0.89110080023E+00  0.88000000000E+00 0. -1.
        -11    1    4    4    0    0  0.12862161226E-01  0.42644689951E-01  0.18013074062E-01  0.48049315610E-01  0.51100000000E-03 0. -1.
         11    1    4    4    0    0  0.43812532883E-01  0.58391967044E-01  0.35873304990E-01  0.81340733860E-01  0.51100000000E-03 0.  1.
</event>
<event>
 8    1  0.1126407E+005  0.1043930E+01  0.7957747E-01            NaN
         13   -1    0    0    0    0  0.00000000000E+00  0.00000000000E+00  0.74505805969E-08  0.10566000000E+00  0.10566000000E+00 0.  1.
     999900   -1    0    0    0    0 -0.00000000000E+00 -0.00000000000E+00 -0.74505805969E-08  0.93827000000E+00  0.93827000000E+00 0.  1.
     999902    2    1    2    0    0  0.17542134482E-01  0.16373545710E-01 -0.18260628961E-02  0.10198643816E+01  0.10195804053E+01 0.  0.
     999903    2    3    3    0    0 -0.12128267733E+00  0.33004650417E-01  0.18112298082E-01  0.12860321887E+00  0.20296250758E-01 0.  0.
         14    1    1    2    0    0 -0.17542134482E-01 -0.16373545710E-01  0.18260628961E-02  0.24065618359E-01  0.00000000000E+00 0.  1.
     999901    1    3    3    0    0  0.13882481181E+00 -0.16631104707E-01 -0.19938360979E-01  0.89126116277E+00  0.88000000000E+00 0.  1.
        -11    1    4    4    0    0 -0.46495607814E-01  0.22778984829E-01  0.92857581805E-02  0.52604278551E-01  0.51100000000E-03 0. -1.
         11    1    4    4    0    0 -0.74787069511E-01  0.10225665588E-01  0.88265399020E-02  0.75998940324E-01  0.51100000000E-03 0.  1.
</event>
<event>
 8    1  0.1126407E+005  0.1043930E+01  0.7957747E-01            NaN
         13   -1    0    0    0    0  0.00000000000E+00  0.00000000000E+00  0.74505805969E-08  0.10566000000E+00  0.10566000000E+00 0.  1.
     999900   -1    0    0    0    0 -0.00000000000E+00 -0.00000000000E+00 -0.74505805969E-08  0.93827000000E+00  0.93827000000E+00 0.  1.
     999902    2    1    2    0    0 -0.45587840990E-02 -0.23252621558E-01  0.45542740264E-05  0.10202347063E+01  0.10199595036E+01 0.  0.
     999903    2    3    3    0    0 -0.13458354417E-01  0.88996403892E-01  0.89610705199E-01  0.12854624708E+00  0.19813428323E-01 0.  0.
         14    1    1    2    0    0  0.45587840990E-02  0.23252621558E-01 -0.45542740264E-05  0.23695293679E-01  0.00000000000E+00 0. -1.
     999901    1    3    3    0    0  0.88995703178E-02 -0.11224902545E+00 -0.89606150925E-01  0.89168845924E+00  0.88000000000E+00 0.  1.
        -11    1    4    4    0    0 -0.10199371330E-01  0.39997660475E-01  0.28572121465E-01  0.50204255448E-01  0.51100000000E-03 0.  1.
         11    1    4    4    0    0 -0.32589830864E-02  0.48998743416E-01  0.61038583733E-01  0.78341991629E-01  0.51100000000E-03 0. -1.
</event>
<event>
 8    1  0.1126407E+005  0.1043930E+01  0.7957747E-01            NaN
         13   -1    0    0    0    0  0.00000000000E+00  0.00000000000E+00  0.74505805969E-08  0.10566000000E+00  0.10566000000E+00 0.  1.
     999900   -1    0    0    0    0 -0.00000000000E+00 -0.00000000000E+00 -0.74505805969E-08  0.93827000000E+00  0.93827000000E+00 0.  1.
     999902    2    1    2    0    0  0.20658126999E-01  0.11195496460E-01  0.47075697804E-02  0.10199663074E+01  0.10196847599E+01 0.  0.
     999903    2    3    3    0    0 -0.41272792100E-01  0.68802370696E-01  0.10125913826E+00  0.13065410341E+00  0.19490307228E-01 0.  0.
         14    1    1    2    0    0 -0.20658126999E-01 -0.11195496460E-01 -0.47075697804E-02  0.23963692649E-01  0.00000000000E+00 0.  1.
     999901    1    3    3    0    0  0.61930919099E-01 -0.57606874236E-01 -0.96551568481E-01  0.88931220394E+00  0.88000000000E+00 0.  1.
        -11    1    4    4    0    0 -0.75780914196E-02  0.30785772170E-01  0.36617666105E-01  0.48438681131E-01  0.51100000000E-03 0. -1.
         11    1    4    4    0    0 -0.33694700680E-01  0.38016598526E-01  0.64641472156E-01  0.82215422281E-01  0.51100000000E-03 0.  1.
</event>
<event>
 8    1  0.1126407E+005  0.1043930E+01  0.7957747E-01            NaN
         13   -1    0    0    0    0  0.00000000000E+00  0.00000000000E+00  0.74505805969E-08  0.10566000000E+00  0.10566000000E+00 0. -1.
     999900   -1    0    0    0    0 -0.00000000000E+00 -0.00000000000E+00 -0.74505805969E-08  0.93827000000E+00  0.93827000000E+00 0. -1.
     999902    2    1    2    0    0 -0.12357343955E-01 -0.43164857020E-02  0.19282637262E-01  0.10206242904E+01  0.10203581656E+01 0.  0.
     999903    2    3    3    0    0  0.42296171990E-01 -0.41297997720E-01  0.11711287135E+00  0.13274738808E+00  0.20296640720E-01 0.  0.
         14    1    1    2    0    0  0.12357343955E-01  0.43164857020E-02 -0.19282637262E-01  0.23305709562E-01  0.00000000000E+00 0.  1.
     999901    1    3    3    0    0 -0.54653515945E-01  0.36981512018E-01 -0.97830234093E-01  0.88787690236E+00  0.88000000000E+00 0. -1.
        -11    1    4    4    0    0  0.37108764133E-01 -0.26174823672E-01  0.74741315190E-01  0.87456887019E-01  0.51100000000E-03 0.  1.
         11    1    4    4    0    0  0.51874078574E-02 -0.15123174049E-01  0.42371556165E-01  0.45290501062E-01  0.51100000000E-03 0. -1.
</event>
<event>
 8    1  0.1126407E+005  0.1043930E+01  0.7957747E-01            NaN
         13   -1    0    0    0    0  0.00000000000E+00  0.00000000000E+00  0.74505805969E-08  0.10566000000E+00  0.10566000000E+00 0.  1.
     999900   -1    0    0    0    0 -0.00000000000E+00 -0.00000000000E+00 -0.74505805969E-08  0.93827000000E+00  0.93827000000E+00 0. -1.
     999902    2    1    2    0    0 -0.18535329872E-01  0.25082055557E-01  0.81518654700E-02  0.10116946021E+01  0.10111809171E+01 0.  0.
     999903    2    3    3    0    0  0.48223242741E-01 -0.11505604950E-02 -0.10834174407E+00  0.12112421288E+00  0.24623901140E-01 0.  0.
         14    1    1    2    0    0  0.18535329872E-01 -0.25082055557E-01 -0.81518654700E-02  0.32235397858E-01  0.00000000000E+00 0. -1.
     999901    1    3    3    0    0 -0.66758572614E-01  0.26232616052E-01  0.11649360954E+00  0.89057038926E+00  0.88000000000E+00 0.  1.
        -11    1    4    4    0    0  0.31707962472E-01 -0.12060216359E-01 -0.60831537320E-01  0.69653289631E-01  0.51100000000E-03 0.  1.
         11    1    4    4    0    0  0.16515280269E-01  0.10909655864E-01 -0.47510206754E-01  0.51470923251E-01  0.51100000000E-03 0. -1.
</event>
<event>
 8    1  0.1126407E+005  0.1043930E+01  0.7957747E-01            NaN
         13   -1    0    0    0    0  0.00000000000E+00  0.00000000000E+00  0.74505805969E-08  0.10566000000E+00  0.10566000000E+00 0.  1.
     999900   -1    0    0    0    0 -0.00000000000E+00 -0.00000000000E+00 -0.74505805969E-08  0.93827000000E+00  0.93827000000E+00 0. -1.
     999902    2    1    2    0    0  0.20874410693E-01  0.15851134149E-01  0.18009012254E-01  0.10121286793E+01  0.10116289535E+01 0.  0.
     999903    2    3    3    0    0  0.86918434756E-01  0.89428532973E-01  0.88276836941E-02  0.12654427140E+00  0.19576716123E-01 0.  0.
         14    1    1    2    0    0 -0.20874410693E-01 -0.15851134149E-01 -0.18009012254E-01  0.31801320696E-01  0.00000000000E+00 0. -1.
     999901    1    3    3    0    0 -0.66044024063E-01 -0.73577398823E-01  0.91813285603E-02  0.88558440791E+00  0.88000000000E+00 0. -1.
        -11    1    4    4    0    0  0.22289036201E-01  0.12566385095E-01 -0.12006248183E-02  0.25620651633E-01  0.51100000000E-03 0.  1.
         11    1    4    4    0    0  0.64629398555E-01  0.76862147877E-01  0.10028308512E-01  0.10092361977E+00  0.51100000000E-03 0. -1.
</event>
<event>
 8    1  0.1126407E+005  0.1043930E+01  0.7957747E-01            NaN
         13   -1    0    0    0    0  0.00000000000E+00  0.00000000000E+00  0.74505805969E-08  0.10566000000E+00  0.10566000000E+00 0.  1.
     999900   -1    0    0    0    0 -0.00000000000E+00 -0.00000000000E+00 -0.74505805969E-08  0.93827000000E+00  0.93827000000E+00 0. -1.
     999902    2    1    2    0    0  0.20267219748E-01 -0.90095967702E-02 -0.67377625330E-02  0.10207496101E+01  0.10204863723E+01 0.  0.
     999903    2    3    3    0    0 -0.22086328062E-02  0.83075351540E-01 -0.99089756110E-01  0.13085428350E+00  0.19941706335E-01 0.  0.
         14    1    1    2    0    0 -0.20267219748E-01  0.90095967702E-02  0.67377625330E-02  0.23180389864E-01  0.00000000000E+00 0.  1.
     999901    1    3    3    0    0  0.22475852555E-01 -0.92084948310E-01  0.92351993577E-01  0.88989532664E+00  0.88000000000E+00 0.  1.
        -11    1    4    4    0    0 -0.26681872289E-02  0.43111422754E-01 -0.36309086891E-01  0.56429822849E-01  0.51100000000E-03 0. -1.
         11    1    4    4    0    0  0.45955442270E-03  0.39963928787E-01 -0.62780669220E-01  0.74424460650E-01  0.51100000000E-03 0.  1.
</event>
<event>
 8    1  0.1126407E+005  0.1043930E+01  0.7957747E-01            NaN
         13   -1    0    0    0    0  0.00000000000E+00  0.00000000000E+00  0.74505805969E-08  0.10566000000E+00  0.10566000000E+00 0. -1.
     999900   -1    0    0    0    0 -0.00000000000E+00 -0.00000000000E+00 -0.74505805969E-08  0.93827000000E+00  0.93827000000E+00 0.  1.
     999902    2    1    2    0    0  0.36550519817E-02 -0.21870348847E-01  0.28333792685E-01  0.10079511816E+01  0.10073088450E+01 0.  0.
     999903    2    3    3    0    0 -0.53263076247E-01 -0.84117207252E-01 -0.62479502379E-01  0.11926597343E+00  0.20199612722E-01 0.  0.
         14    1    1    2    0    0 -0.36550519817E-02  0.21870348847E-01 -0.28333792685E-01  0.35978818374E-01  0.00000000000E+00 0.  1.
     999901    1    3    3    0    0  0.56918128228E-01  0.62246858405E-01  0.90813295063E-01  0.88868520819E+00  0.88000000000E+00 0. -1.
        -11    1    4    4    0    0 -0.28726143600E-01 -0.54235387786E-01 -0.48220965273E-01  0.78052490206E-01  0.51100000000E-03 0.  1.
         11    1    4    4    0    0 -0.24536932646E-01 -0.29881819466E-01 -0.14258537106E-01  0.41213483226E-01  0.51100000000E-03 0. -1.
</event>
<event>
 8    1  0.1126407E+005  0.1043930E+01  0.7957747E-01            NaN
         13   -1    0    0    0    0  0.00000000000E+00  0.00000000000E+00  0.74505805969E-08  0.10566000000E+00  0.10566000000E+00 0.  1.
     999900   -1    0    0    0    0 -0.00000000000E+00 -0.00000000000E+00 -0.74505805969E-08  0.93827000000E+00  0.93827000000E+00 0. -1.
     999902    2    1    2    0    0  0.74590870617E-02  0.22304359311E-01 -0.30588220845E-02  0.10202133641E+01  0.10199376596E+01 0.  0.
     999903    2    3    3    0    0  0.68215894476E-01  0.42550226668E-02  0.10969642263E+00  0.13075796143E+00  0.19819835061E-01 0.  0.
         14    1    1    2    0    0 -0.74590870617E-02 -0.22304359311E-01  0.30588220845E-02  0.23716635862E-01  0.00000000000E+00 0. -1.
     999901    1    3    3    0    0 -0.60756807415E-01  0.18049336644E-01 -0.11275524471E+00  0.88945540271E+00  0.88000000000E+00 0. -1.
        -11    1    4    4    0    0  0.17016959811E-01 -0.71991204466E-02  0.33175574253E-01  0.37977415715E-01  0.51100000000E-03 0.  1.
         11    1    4    4    0    0  0.51198934665E-01  0.11454143113E-01  0.76520848377E-01  0.92780545712E-01  0.51100000000E-03 0. -1.
</event>
<event>
 8    1  0.1126407E+005  0.1043930E+01  0.7957747E-01            NaN
         13   -1    0    0    0    0  0.00000000000E+00  0.00000000000E+00  0.74505805969E-08  0.10566000000E+00  0.10566000000E+00 0.  1.
     999900   -1    0    0    0    0 -0.00000000000E+00 -0.00000000000E+00 -0.74505805969E-08  0.93827000000E+00  0.93827000000E+00 0.  1.
     999902    2    1    2    0    0  0.22722330848E-01  0.27311060238E-02 -0.41145054853E-02  0.10206772063E+01  0.10204123025E+01 0.  0.
     999903    2    3    3    0    0 -0.38214959776E-01 -0.84103202390E-01  0.88386751576E-01  0.12949258286E+00  0.20551869949E-01 0.  0.
         14    1    1    2    0    0 -0.22722330848E-01 -0.27311060238E-02  0.41145054853E-02  0.23252793696E-01  0.00000000000E+00 0.  1.
     999901    1    3    3    0    0  0.60937290625E-01  0.86834308414E-01 -0.92501257061E-01  0.89118462344E+00  0.88000000000E+00 0.  1.
        -11    1    4    4    0    0 -0.16080160777E-01 -0.47051568556E-01  0.34845542793E-01  0.60719804411E-01  0.51100000000E-03 0.  1.
         11    1    4    4    0    0 -0.22134798999E-01 -0.37051633834E-01  0.53541208783E-01  0.68772778448E-01  0.51100000000E-03 0. -1.
</event>
<event>
 7    1  0.1126407E+005  0.1043930E+01  0.7957747E-01            NaN
         13   -1    0    0    0    0  0.00000000000E+00  0.00000000000E+00  0.74505805969E-08  0.10566000000E+00  0.10566000000E+00 0.  1.
     999900   -1    0    0    0    0 -0.00000000000E+00 -0.00000000000E+00 -0.74505805969E-08  0.93827000000E+00  0.93827000000E+00 0.  1.
     999903    2    1    2    0    0  0.23335645163E-01 -0.47029289414E-01 -0.95340647918E-01  0.11082551011E+00  0.20884160207E-01 0.  0.
         14    1    1    2    0    0  0.11953774565E-01  0.14322010996E-01 -0.37452914727E-01  0.41841767970E-01  0.00000000000E+00 0. -1.
     999901    1    1    2    0    0 -0.35289419729E-01  0.32707278418E-01  0.13279356264E+00  0.89126272192E+00  0.88000000000E+00 0. -1.
        -11    1    3    3    0    0  0.12888044351E-01 -0.26618130371E-01 -0.73186561581E-01  0.78937699921E-01  0.51100000000E-03 0. -1.
         11    1    3    3    0    0  0.10447600812E-01 -0.20411159043E-01 -0.22154086336E-01  0.31887810188E-01  0.51100000000E-03 0.  1.
</event>
<event>
 8    1  0.1126407E+005  0.1043930E+01  0.7957747E-01            NaN
         13   -1    0    0    0    0  0.00000000000E+00  0.00000000000E+00  0.74505805969E-08  0.10566000000E+00  0.10566000000E+00 0. -1.
     999900   -1    0    0    0    0 -0.00000000000E+00 -0.00000000000E+00 -0.74505805969E-08  0.93827000000E+00  0.93827000000E+00 0.  1.
     999902    2    1    2    0    0 -0.73686936478E-02  0.55752157306E-02  0.21973218026E-01  0.10200929912E+01  0.10198144477E+01 0.  0.
     999903    2    3    3    0    0 -0.95429173594E-01  0.86932476273E-01  0.18306931556E-01  0.13195612474E+00  0.20329596882E-01 0.  0.
         14    1    1    2    0    0  0.73686936478E-02 -0.55752157306E-02 -0.21973218026E-01  0.23837008766E-01  0.00000000000E+00 0.  1.
     999901    1    3    3    0    0  0.88060479946E-01 -0.81357260542E-01  0.36662864703E-02  0.88813686650E+00  0.88000000000E+00 0. -1.
        -11    1    4    4    0    0 -0.70921144627E-01  0.67660282934E-01  0.22284005843E-01  0.10052144388E+00  0.51100000000E-03 0.  1.
         11    1    4    4    0    0 -0.24508028966E-01  0.19272193339E-01 -0.39770742879E-02  0.31434680860E-01  0.51100000000E-03 0. -1.
</event>
<event>
 8    1  0.1126407E+005  0.1043930E+01  0.7957747E-01            NaN
         13   -1    0    0    0    0  0.00000000000E+00  0.00000000000E+00  0.74505805969E-08  0.10566000000E+00  0.10566000000E+00 0. -1.
     999900   -1    0    0    0    0 -0.00000000000E+00 -0.00000000000E+00 -0.74505805969E-08  0.93827000000E+00  0.93827000000E+00 0.  1.
     999902    2    1    2    0    0 -0.11672958990E-01 -0.16631275875E-01  0.12679870643E-01  0.10199792917E+01  0.10196980529E+01 0.  0.
     999903    2    3    3    0    0  0.32280905197E-01  0.12175221155E+00 -0.13226050245E-01  0.12770520348E+00  0.16371705251E-01 0.  0.
         14    1    1    2    0    0  0.11672958990E-01  0.16631275875E-01 -0.12679870643E-01  0.23950708305E-01  0.00000000000E+00 0.  1.
     999901    1    3    3    0    0 -0.43953864187E-01 -0.13838348742E+00  0.25905920888E-01  0.89227408822E+00  0.88000000000E+00 0. -1.
        -11    1    4    4    0    0  0.26812897851E-01  0.85170599583E-01 -0.15566826359E-01  0.90639669727E-01  0.51100000000E-03 0. -1.
         11    1    4    4    0    0  0.54680073467E-02  0.36581611965E-01  0.23407761137E-02  0.37065533749E-01  0.51100000000E-03 0.  1.
</event>
<event>
 8    1  0.1126407E+005  0.1043930E+01  0.7957747E-01            NaN
         13   -1    0    0    0    0  0.00000000000E+00  0.00000000000E+00  0.74505805969E-08  0.10566000000E+00  0.10566000000E+00 0.  1.
     999900   -1    0    0    0    0 -0.00000000000E+00 -0.00000000000E+00 -0.74505805969E-08  0.93827000000E+00  0.93827000000E+00 0. -1.
     999902    2    1    2    0    0 -0.44125693647E-02  0.18008805509E-01 -0.15224030963E-01  0.10199391900E+01  0.10196569974E+01 0.  0.
     999903    2    3    3    0    0 -0.98155778195E-01  0.79620862495E-01  0.31214375238E-01  0.13160346501E+00  0.19263858518E-01 0.  0.
         14    1    1    2    0    0  0.44125693647E-02 -0.18008805509E-01  0.15224030963E-01  0.23990809970E-01  0.00000000000E+00 0.  1.
     999901    1    3    3    0    0  0.93743208830E-01 -0.61612056986E-01 -0.46438406201E-01  0.88833572502E+00  0.88000000000E+00 0. -1.
        -11    1    4    4    0    0 -0.49160955422E-01  0.51669960636E-01  0.20217586305E-01  0.74132289099E-01  0.51100000000E-03 0.  1.
         11    1    4    4    0    0 -0.48994822773E-01  0.27950901858E-01  0.10996788933E-01  0.57471175916E-01  0.51100000000E-03 0. -1.
</event>
<event>
 8    1  0.1126407E+005  0.1043930E+01  0.7957747E-01            NaN
         13   -1    0    0    0    0  0.00000000000E+00  0.00000000000E+00  0.74505805969E-08  0.10566000000E+00  0.10566000000E+00 0. -1.
     999900   -1    0    0    0    0 -0.00000000000E+00 -0.00000000000E+00 -0.74505805969E-08  0.93827000000E+00  0.93827000000E+00 0.  1.
     999902    2    1    2    0    0  0.52417656858E-02 -0.70815256583E-02  0.21471068652E-01  0.10207215769E+01  0.10204576947E+01 0.  0.
     999903    2    3    3    0    0  0.46645727996E-01 -0.10663360337E+00 -0.56047661077E-01  0.13075862390E+00  0.20246681301E-01 0.  0.
         14    1    1    2    0    0 -0.52417656858E-02  0.70815256583E-02 -0.21471068652E-01  0.23208423088E-01  0.00000000000E+00 0.  1.
     999901    1    3    3    0    0 -0.41403962310E-01  0.99552077716E-01  0.77518729729E-01  0.88996295301E+00  0.88000000000E+00 0. -1.
        -11    1    4    4    0    0  0.22480899430E-01 -0.44111338266E-01 -0.13339644035E-01  0.51277755672E-01  0.51100000000E-03 0. -1.
         11    1    4    4    0    0  0.24164828566E-01 -0.62522265108E-01 -0.42708017042E-01  0.79480868230E-01  0.51100000000E-03 0.  1.
</event>
<event>
 8    1  0.1126407E+005  0.1043930E+01  0.7957747E-01            NaN
         13   -1    0    0    0    0  0.00000000000E+00  0.00000000000E+00  0.74505805969E-08  0.10566000000E+00  0.10566000000E+00 0.  1.
     999900   -1    0    0    0    0 -0.00000000000E+00 -0.00000000000E+00 -0.74505805969E-08  0.93827000000E+00  0.93827000000E+00 0.  1.
     999902    2    1    2    0    0  0.12281079392E-01  0.58315625447E-02  0.19718517314E-01  0.10199789675E+01  0.10196977210E+01 0.  0.
     999903    2    3    3    0    0  0.61321865231E-01  0.81127796142E-01  0.83322491748E-01  0.13311934668E+00  0.20881388086E-01 0.  0.
         14    1    1    2    0    0 -0.12281079392E-01 -0.58315625447E-02 -0.19718517314E-01  0.23951032500E-01  0.00000000000E+00 0. -1.
     999901    1    3    3    0    0 -0.49040785839E-01 -0.75296233597E-01 -0.63603974433E-01  0.88685962082E+00  0.88000000000E+00 0. -1.
        -11    1    4    4    0    0  0.23827355494E-01  0.38919422036E-01  0.49395746423E-01  0.67250763320E-01  0.51100000000E-03 0. -1.
         11    1    4    4    0    0  0.37494509737E-01  0.42208374106E-01  0.33926745325E-01  0.65868583364E-01  0.51100000000E-03 0.  1.
</event>
<event>
 8    1  0.1126407E+005  0.1043930E+01  0.7957747E-01            NaN
         13   -1    0    0    0    0  0.00000000000E+00  0.00000000000E+00  0.74505805969E-08  0.10566000000E+00  0.10566000000E+00 0.  1.
     999900   -1    0    0    0    0 -0.00000000000E+00 -0.00000000000E+00 -0.74505805969E-08  0.93827000000E+00  0.93827000000E+00 0.  1.
     999902    2    1    2    0    0 -0.20975183718E-01 -0.56379820910E-02 -0.10541434290E-01  0.10197873611E+01  0.10195015424E+01 0.  0.
     999903    2    3    3    0    0  0.19196045051E-01 -0.98667692159E-02  0.12625986862E+00  0.12830196769E+00  0.73484154448E-02 0.  0.
         14    1    1    2    0    0  0.20975183718E-01  0.56379820910E-02  0.10541434290E-01  0.24142638856E-01  0.00000000000E+00 0.  1.
     999901    1    3    3    0    0 -0.40171228769E-01  0.42287871249E-02 -0.13680130291E+00  0.89148539345E+00  0.88000000000E+00 0.  1.
        -11    1    4    4    0    0  0.10190260164E-01 -0.29661094029E-02  0.78191321720E-01  0.78909968448E-01  0.51100000000E-03 0.  1.
         11    1    4    4    0    0  0.90057848873E-02 -0.69006598130E-02  0.48068546899E-01  0.49391999243E-01  0.51100000000E-03 0. -1.
</event>
<event>
 7    1  0.1676687E+005  0.1043930E+01  0.7957747E-01            NaN
         13   -1    0    0    0    0  0.00000000000E+00  0.00000000000E+00  0.74505805969E-08  0.10566000000E+00  0.10566000000E+00 0. -1.
     999900   -1    0    0    0    0 -0.00000000000E+00 -0.00000000000E+00 -0.74505805969E-08  0.93827000000E+00  0.93827000000E+00 0.  1.
     999903    2    1    2    0    0  0.56185219382E-01 -0.31725109607E-01 -0.79278066670E-01  0.10442135642E+00  0.21343532143E-01 0.  0.
         14    1    1    2    0    0  0.22313452204E-01 -0.12589950924E-01 -0.39380356297E-01  0.46980948006E-01  0.00000000000E+00 0.  1.
     999901    1    1    2    0    0 -0.78498671586E-01  0.44315060531E-01  0.11865842297E+00  0.89252769558E+00  0.88000000000E+00 0. -1.
        -11    1    3    3    0    0  0.72072208777E-02 -0.53275839775E-02 -0.25520402618E-01  0.27053266986E-01  0.51100000000E-03 0. -1.
         11    1    3    3    0    0  0.48977998504E-01 -0.26397525630E-01 -0.53757664052E-01  0.77368089431E-01  0.51100000000E-03 0.  1.
</event>
<event>
 8    1  0.1126407E+005  0.1043930E+01  0.7957747E-01            NaN
         13   -1    0    0    0    0  0.00000000000E+00  0.00000000000E+00  0.74505805969E-08  0.10566000000E+00  0.10566000000E+00 0. -1.
     999900   -1    0    0    0    0 -0.00000000000E+00 -0.00000000000E+00 -0.74505805969E-08  0.93827000000E+00  0.93827000000E+00 0. -1.
     999902    2    1    2    0    0 -0.16216549260E-01  0.16769161325E-01 -0.14526419001E-02  0.10205571223E+01  0.10202894435E+01 0.  0.
     999903    2    3    3    0    0 -0.68778479949E-01  0.11150251930E+00  0.16713499192E-01  0.13372727714E+00  0.20984577210E-01 0.  0.
         14    1    1    2    0    0  0.16216549260E-01 -0.16769161325E-01  0.14526419001E-02  0.23372877656E-01  0.00000000000E+00 0. -1.
     999901    1    3    3    0    0  0.52561930689E-01 -0.94733357975E-01 -0.18166141092E-01  0.88682984521E+00  0.88000000000E+00 0. -1.
        -11    1    4    4    0    0 -0.30971405641E-01  0.59215152596E-01 -0.92483075946E-03  0.66833963651E-01  0.51100000000E-03 0. -1.
         11    1    4    4    0    0 -0.37807074308E-01  0.52287366703E-01  0.17638329952E-01  0.66893313484E-01  0.51100000000E-03 0.  1.
</event>
<event>
 8    1  0.1126407E+005  0.1043930E+01  0.7957747E-01            NaN
         13   -1    0    0    0    0  0.00000000000E+00  0.00000000000E+00  0.74505805969E-08  0.10566000000E+00  0.10566000000E+00 0.  1.
     999900   -1    0    0    0    0 -0.00000000000E+00 -0.00000000000E+00 -0.74505805969E-08  0.93827000000E+00  0.93827000000E+00 0.  1.
     999902    2    1    2    0    0  0.17467360659E-01 -0.22080643887E-02  0.12992617711E-01  0.10220486757E+01  0.10218144172E+01 0.  0.
     999903    2    3    3    0    0  0.47079470309E-01 -0.12282400888E+00 -0.12287008945E-02  0.13321386037E+00  0.21028770898E-01 0.  0.
         14    1    1    2    0    0 -0.17467360659E-01  0.22080643887E-02 -0.12992617711E-01  0.21881324268E-01  0.00000000000E+00 0.  1.
     999901    1    3    3    0    0 -0.29612109651E-01  0.12061594449E+00  0.14221318606E-01  0.88883481537E+00  0.88000000000E+00 0.  1.
        -11    1    4    4    0    0  0.24429762341E-01 -0.82610108480E-01 -0.81847331015E-02  0.86536086623E-01  0.51100000000E-03 0.  1.
         11    1    4    4    0    0  0.22649707969E-01 -0.40213900402E-01  0.69560322070E-02  0.46677773743E-01  0.51100000000E-03 0. -1.
</event>
<event>
 8    1  0.1126407E+005  0.1043930E+01  0.7957747E-01            NaN
         13   -1    0    0    0    0  0.00000000000E+00  0.00000000000E+00  0.74505805969E-08  0.10566000000E+00  0.10566000000E+00 0. -1.
     999900   -1    0    0    0    0 -0.00000000000E+00 -0.00000000000E+00 -0.74505805969E-08  0.93827000000E+00  0.93827000000E+00 0. -1.
     999902    2    1    2    0    0  0.17041144312E-01  0.15793735848E-01  0.48518354873E-02  0.10201943096E+01  0.10199181567E+01 0.  0.
     999903    2    3    3    0    0  0.10542082536E+00 -0.30920631888E-02  0.77600207092E-01  0.13257954687E+00  0.20795019443E-01 0.  0.
         14    1    1    2    0    0 -0.17041144312E-01 -0.15793735848E-01 -0.48518354873E-02  0.23735690407E-01  0.00000000000E+00 0. -1.
     999901    1    3    3    0    0 -0.88379681049E-01  0.18885799037E-01 -0.72748371604E-01  0.88761476272E+00  0.88000000000E+00 0.  1.
        -11    1    4    4    0    0  0.88599836916E-01  0.46834001916E-02  0.60770729240E-01  0.10754165701E+00  0.51100000000E-03 0.  1.
         11    1    4    4    0    0  0.16820988445E-01 -0.77754633804E-02  0.16829477851E-01  0.25037889863E-01  0.51100000000E-03 0. -1.
</event>
<event>
 8    1  0.1126407E+005  0.1043930E+01  0.7957747E-01            NaN
         13   -1    0    0    0    0  0.00000000000E+00  0.00000000000E+00  0.74505805969E-08  0.10566000000E+00  0.10566000000E+00 0.  1.
     999900   -1    0    0    0    0 -0.00000000000E+00 -0.00000000000E+00 -0.74505805969E-08  0.93827000000E+00  0.93827000000E+00 0. -1.
     999902    2    1    2    0    0 -0.74332268992E-02  0.20885763652E-01 -0.88933342348E-02  0.10200436152E+01  0.10197639028E+01 0.  0.
     999903    2    3    3    0    0  0.29697279818E-02  0.13044651792E+00  0.13530312415E-01  0.13290518164E+00  0.21344897063E-01 0.  0.
         14    1    1    2    0    0  0.74332268992E-02 -0.20885763652E-01  0.88933342348E-02  0.23886384810E-01  0.00000000000E+00 0.  1.
     999901    1    3    3    0    0 -0.10402954881E-01 -0.10956075427E+00 -0.22423646650E-01  0.88713843355E+00  0.88000000000E+00 0.  1.
        -11    1    4    4    0    0  0.75175409327E-02  0.12126111731E+00  0.15422273986E-01  0.12246991323E+00  0.51100000000E-03 0. -1.
         11    1    4    4    0    0 -0.45478129508E-02  0.91854006191E-02 -0.18919615709E-02  0.10435268408E-01  0.51100000000E-03 0.  1.
</event>
<event>
 8    1  0.1126407E+005  0.1043930E+01  0.7957747E-01            NaN
         13   -1    0    0    0    0  0.00000000000E+00  0.00000000000E+00  0.74505805969E-08  0.10566000000E+00  0.10566000000E+00 0.  1.
     999900   -1    0    0    0    0 -0.00000000000E+00 -0.00000000000E+00 -0.74505805969E-08  0.93827000000E+00  0.93827000000E+00 0. -1.
     999902    2    1    2    0    0 -0.85008028393E-02 -0.21671443111E-01 -0.15849273122E-01  0.10157677104E+01  0.10153772338E+01 0.  0.
     999903    2    3    3    0    0  0.26897900979E-01  0.49923845267E-01  0.10789845851E+00  0.12352757760E+00  0.20027423045E-01 0.  0.
         14    1    1    2    0    0  0.85008028393E-02  0.21671443111E-01  0.15849273122E-01  0.28162289572E-01  0.00000000000E+00 0.  1.
     999901    1    3    3    0    0 -0.35398703818E-01 -0.71595288378E-01 -0.12374773164E+00  0.89224013283E+00  0.88000000000E+00 0. -1.
        -11    1    4    4    0    0  0.13976614417E-01  0.17493323789E-01  0.61565843183E-01  0.65513176503E-01  0.51100000000E-03 0.  1.
         11    1    4    4    0    0  0.12921286562E-01  0.32430521478E-01  0.46332615331E-01  0.58014401093E-01  0.51100000000E-03 0. -1.
</event>
<event>
 8    1  0.1126407E+005  0.1043930E+01  0.7957747E-01            NaN
         13   -1    0    0    0    0  0.00000000000E+00  0.00000000000E+00  0.74505805969E-08  0.10566000000E+00  0.10566000000E+00 0. -1.
     999900   -1    0    0    0    0 -0.00000000000E+00 -0.00000000000E+00 -0.74505805969E-08  0.93827000000E+00  0.93827000000E+00 0. -1.
     999902    2    1    2    0    0 -0.49500653931E-02  0.22218916817E-01 -0.27156421939E-02  0.10210049455E+01  0.10207475401E+01 0.  0.
     999903    2    3    3    0    0 -0.66661064796E-01  0.11481943716E+00  0.43604820532E-03  0.13399139600E+00  0.18063868814E-01 0.  0.
         14    1    1    2    0    0  0.49500653931E-02 -0.22218916817E-01  0.27156421939E-02  0.22925054513E-01  0.00000000000E+00 0. -1.
     999901    1    3    3    0    0  0.61710999403E-01 -0.92600520339E-01 -0.31516903993E-02  0.88701354948E+00  0.88000000000E+00 0. -1.
        -11    1    4    4    0    0 -0.27864902995E-01  0.54903723232E-01 -0.80951812252E-02  0.62102050882E-01  0.51100000000E-03 0. -1.
         11    1    4    4    0    0 -0.38796161801E-01  0.59915713923E-01  0.85312294306E-02  0.71889345122E-01  0.51100000000E-03 0.  1.
</event>
<event>
 8    1  0.1126407E+005  0.1043930E+01  0.7957747E-01            NaN
         13   -1    0    0    0    0  0.00000000000E+00  0.00000000000E+00  0.74505805969E-08  0.10566000000E+00  0.10566000000E+00 0.  1.
     999900   -1    0    0    0    0 -0.00000000000E+00 -0.00000000000E+00 -0.74505805969E-08  0.93827000000E+00  0.93827000000E+00 0. -1.
     999902    2    1    2    0    0 -0.51342739315E-02  0.14912252035E-01 -0.17817771183E-01  0.10201348534E+01  0.10198572989E+01 0.  0.
     999903    2    3    3    0    0  0.56283877408E-02  0.12033411300E+00  0.48279192260E-01  0.13131630490E+00  0.20027831337E-01 0.  0.
         14    1    1    2    0    0  0.51342739315E-02 -0.14912252035E-01  0.17817771183E-01  0.23795146553E-01  0.00000000000E+00 0.  1.
     999901    1    3    3    0    0 -0.10762661672E-01 -0.10542186097E+00 -0.66096963443E-01  0.88881854854E+00  0.88000000000E+00 0. -1.
        -11    1    4    4    0    0 -0.73624251129E-02  0.36549767359E-01  0.16390597053E-01  0.40730867783E-01  0.51100000000E-03 0.  1.
         11    1    4    4    0    0  0.12990812854E-01  0.83784345642E-01  0.31888595207E-01  0.90585437122E-01  0.51100000000E-03 0. -1.
</event>
<event>
 8    1  0.1126407E+005  0.1043930E+01  0.7957747E-01            NaN
         13   -1    0    0    0    0  0.00000000000E+00  0.00000000000E+00  0.74505805969E-08  0.10566000000E+00  0.10566000000E+00 0. -1.
     999900   -1    0    0    0    0 -0.00000000000E+00 -0.00000000000E+00 -0.74505805969E-08  0.93827000000E+00  0.93827000000E+00 0. -1.
     999902    2    1    2    0    0  0.10935828806E-01  0.17029403846E-01 -0.12291597150E-01  0.10202513956E+01  0.10199765850E+01 0.  0.
     999903    2    3    3    0    0  0.90322373698E-01 -0.49038321241E-01 -0.79716240701E-01  0.13164954414E+00  0.20347857413E-01 0.  0.
         14    1    1    2    0    0 -0.10935828806E-01 -0.17029403846E-01  0.12291597150E-01  0.23678604425E-01  0.00000000000E+00 0.  1.
     999901    1    3    3    0    0 -0.79386544891E-01  0.66067725087E-01  0.67424643552E-01  0.88860185143E+00  0.88000000000E+00 0.  1.
        -11    1    4    4    0    0  0.21597612622E-01 -0.16697359161E-01 -0.31480755025E-01  0.41672025771E-01  0.51100000000E-03 0.  1.
         11    1    4    4    0    0  0.68724761076E-01 -0.32340962080E-01 -0.48235485677E-01  0.89977518373E-01  0.51100000000E-03 0. -1.
</event>
<event>
 8    1  0.1126407E+005  0.1043930E+01  0.7957747E-01            NaN
         13   -1    0    0    0    0  0.00000000000E+00  0.00000000000E+00  0.74505805969E-08  0.10566000000E+00  0.10566000000E+00 0.  1.
     999900   -1    0    0    0    0 -0.00000000000E+00 -0.00000000000E+00 -0.74505805969E-08  0.93827000000E+00  0.93827000000E+00 0. -1.
     999902    2    1    2    0    0  0.11111808305E-01  0.14978247692E-01  0.14857722349E-01  0.10200852500E+01  0.10198065234E+01 0.  0.
     999903    2    3    3    0    0  0.59465107901E-01 -0.96005500985E-01 -0.58191824319E-01  0.12879872465E+00  0.21205371425E-01 0.  0.
         14    1    1    2    0    0 -0.11111808305E-01 -0.14978247692E-01 -0.14857722349E-01  0.23844749970E-01  0.00000000000E+00 0. -1.
     999901    1    3    3    0    0 -0.48353299596E-01  0.11098374868E+00  0.73049546668E-01  0.89128652538E+00  0.88000000000E+00 0.  1.
        -11    1    4    4    0    0  0.17026968294E-01 -0.41939466076E-01 -0.15314979093E-01  0.47787510603E-01  0.51100000000E-03 0. -1.
         11    1    4    4    0    0  0.42438139607E-01 -0.54066034909E-01 -0.42876845225E-01  0.81011214048E-01  0.51100000000E-03 0.  1.
</event>
<event>
 8    1  0.1126407E+005  0.1043930E+01  0.7957747E-01            NaN
         13   -1    0    0    0    0  0.00000000000E+00  0.00000000000E+00  0.74505805969E-08  0.10566000000E+00  0.10566000000E+00 0. -1.
     999900   -1    0    0    0    0 -0.00000000000E+00 -0.00000000000E+00 -0.74505805969E-08  0.93827000000E+00  0.93827000000E+00 0.  1.
     999902    2    1    2    0    0 -0.16594449948E-01 -0.16769737012E-01 -0.67670323126E-03  0.10203279286E+01  0.10200549123E+01 0.  0.
     999903    2    3    3    0    0 -0.10329643900E+00 -0.27728944784E-01 -0.75738741645E-01  0.13281925326E+00  0.21576569755E-01 0.  0.
         14    1    1    2    0    0  0.16594449948E-01  0.16769737012E-01  0.67670323126E-03  0.23602071431E-01  0.00000000000E+00 0.  1.
     999901    1    3    3    0    0  0.86701989047E-01  0.10959207772E-01  0.75062038414E-01  0.88750867531E+00  0.88000000000E+00 0. -1.
        -11    1    4    4    0    0 -0.42628831275E-01 -0.58542867705E-03 -0.30350077382E-01  0.52334962508E-01  0.51100000000E-03 0.  1.
         11    1    4    4    0    0 -0.60667607721E-01 -0.27143516107E-01 -0.45388664263E-01  0.80484290751E-01  0.51100000000E-03 0. -1.
</event>
<event>
 8    1  0.1126407E+005  0.1043930E+01  0.7957747E-01            NaN
         13   -1    0    0    0    0  0.00000000000E+00  0.00000000000E+00  0.74505805969E-08  0.10566000000E+00  0.10566000000E+00 0. -1.
     999900   -1    0    0    0    0 -0.00000000000E+00 -0.00000000000E+00 -0.74505805969E-08  0.93827000000E+00  0.93827000000E+00 0. -1.
     999902    2    1    2    0    0 -0.16239657355E-01 -0.16260293069E-01 -0.40765054921E-02  0.10205903021E+01  0.10203233915E+01 0.  0.
     999903    2    3    3    0    0 -0.10883970173E+00  0.25538990053E-01 -0.68093160314E-01  0.13243486502E+00  0.20099609624E-01 0.  0.
         14    1    1    2    0    0  0.16239657355E-01  0.16260293069E-01  0.40765054921E-02  0.23339697914E-01  0.00000000000E+00 0.  1.
     999901    1    3    3    0    0  0.92600044374E-01 -0.41799283121E-01  0.64016654822E-01  0.88815543706E+00  0.88000000000E+00 0.  1.
        -11    1    4    4    0    0 -0.70874831248E-01  0.82973322561E-02 -0.36740132057E-01  0.80263228515E-01  0.51100000000E-03 0. -1.
         11    1    4    4    0    0 -0.37964870481E-01  0.17241657797E-01 -0.31353028257E-01  0.52171636510E-01  0.51100000000E-03 0.  1.
</event>
<event>
 8    1  0.1126407E+005  0.1043930E+01  0.7957747E-01            NaN
         13   -1    0    0    0    0  0.00000000000E+00  0.00000000000E+00  0.74505805969E-08  0.10566000000E+00  0.10566000000E+00 0.  1.
     999900   -1    0    0    0    0 -0.00000000000E+00 -0.00000000000E+00 -0.74505805969E-08  0.93827000000E+00  0.93827000000E+00 0.  1.
     999902    2    1    2    0    0 -0.96614212701E-02  0.18536422675E-01 -0.10866468469E-01  0.10203710916E+01  0.10200990846E+01 0.  0.
     999903    2    3    3    0    0  0.92993583060E-01 -0.62118798352E-01 -0.61072676025E-01  0.12932452839E+00  0.22100006481E-01 0.  0.
         14    1    1    2    0    0  0.96614212701E-02 -0.18536422675E-01  0.10866468469E-01  0.23558908369E-01  0.00000000000E+00 0. -1.
     999901    1    3    3    0    0 -0.10265500433E+00  0.80655221027E-01  0.50206207556E-01  0.89104656324E+00  0.88000000000E+00 0. -1.
        -11    1    4    4    0    0  0.35236049162E-01 -0.12182634216E-01 -0.15306388213E-01  0.40305612241E-01  0.51100000000E-03 0.  1.
         11    1    4    4    0    0  0.57757533898E-01 -0.49936164136E-01 -0.45766287812E-01  0.89018916145E-01  0.51100000000E-03 0. -1.
</event>
<event>
 8    1  0.1126407E+005  0.1043930E+01  0.7957747E-01            NaN
         13   -1    0    0    0    0  0.00000000000E+00  0.00000000000E+00  0.74505805969E-08  0.10566000000E+00  0.10566000000E+00 0. -1.
     999900   -1    0    0    0    0 -0.00000000000E+00 -0.00000000000E+00 -0.74505805969E-08  0.93827000000E+00  0.93827000000E+00 0. -1.
     999902    2    1    2    0    0 -0.10770274626E-02 -0.27789002643E-01  0.94083128694E-02  0.10145717813E+01  0.10141469294E+01 0.  0.
     999903    2    3    3    0    0 -0.84158380232E-01  0.27279015643E-01  0.86910410552E-01  0.12556021050E+00  0.19625731589E-01 0.  0.
         14    1    1    2    0    0  0.10770274626E-02  0.27789002643E-01 -0.94083128694E-02  0.29358218732E-01  0.00000000000E+00 0.  1.
     999901    1    3    3    0    0  0.83081352769E-01 -0.55068018287E-01 -0.77502097683E-01  0.88901157077E+00  0.88000000000E+00 0. -1.
        -11    1    4    4    0    0 -0.49222891862E-01  0.23188101530E-01  0.43358941713E-01  0.69576145936E-01  0.51100000000E-03 0.  1.
         11    1    4    4    0    0 -0.34935488370E-01  0.40909141135E-02  0.43551468840E-01  0.55984064564E-01  0.51100000000E-03 0. -1.
</event>
<event>
 8    1  0.1126407E+005  0.1043930E+01  0.7957747E-01            NaN
         13   -1    0    0    0    0  0.00000000000E+00  0.00000000000E+00  0.74505805969E-08  0.10566000000E+00  0.10566000000E+00 0.  1.
     999900   -1    0    0    0    0 -0.00000000000E+00 -0.00000000000E+00 -0.74505805969E-08  0.93827000000E+00  0.93827000000E+00 0. -1.
     999902    2    1    2    0    0 -0.16456136595E-01  0.10782272464E-01 -0.47094050973E-02  0.10237003107E+01  0.10235004083E+01 0.  0.
     999903    2    3    3    0    0  0.67906907550E-01  0.58634561657E-01 -0.96898784683E-01  0.13358467415E+00  0.20152686687E-01 0.  0.
         14    1    1    2    0    0  0.16456136595E-01 -0.10782272464E-01  0.47094050973E-02  0.20229689258E-01  0.00000000000E+00 0.  1.
     999901    1    3    3    0    0 -0.84363044145E-01 -0.47852289193E-01  0.92189379586E-01  0.89011563659E+00  0.88000000000E+00 0. -1.
        -11    1    4    4    0    0  0.61518021855E-01  0.51591143450E-01 -0.75716438913E-01  0.11036010755E+00  0.51100000000E-03 0.  1.
         11    1    4    4    0    0  0.63888856951E-02  0.70434182068E-02 -0.21182345770E-01  0.23224566601E-01  0.51100000000E-03 0. -1.
</event>
<event>
 8    1  0.1126407E+005  0.1043930E+01  0.7957747E-01            NaN
         13   -1    0    0    0    0  0.00000000000E+00  0.00000000000E+00  0.74505805969E-08  0.10566000000E+00  0.10566000000E+00 0. -1.
     999900   -1    0    0    0    0 -0.00000000000E+00 -0.00000000000E+00 -0.74505805969E-08  0.93827000000E+00  0.93827000000E+00 0.  1.
     999902    2    1    2    0    0 -0.11222021660E-01 -0.14619199188E-01  0.11412492199E-01  0.10222528292E+01  0.10220229680E+01 0.  0.
     999903    2    3    3    0    0 -0.75601796596E-01 -0.78900328763E-01  0.77315215090E-01  0.13511135914E+00  0.18345118072E-01 0.  0.
         14    1    1    2    0    0  0.11222021660E-01  0.14619199188E-01 -0.11412492199E-01  0.21677170785E-01  0.00000000000E+00 0. -1.
     999901    1    3    3    0    0  0.64379774935E-01  0.64281129575E-01 -0.65902722890E-01  0.88714147007E+00  0.88000000000E+00 0.  1.
        -11    1    4    4    0    0 -0.21885849818E-01 -0.23798972036E-01  0.33490807518E-01  0.46554020250E-01  0.51100000000E-03 0.  1.
         11    1    4    4    0    0 -0.53715946778E-01 -0.55101356728E-01  0.43824407572E-01  0.88557338891E-01  0.51100000000E-03 0. -1.
</event>
<event>
 8    1  0.1126407E+005  0.1043930E+01  0.7957747E-01            NaN
         13   -1    0    0    0    0  0.00000000000E+00  0.00000000000E+00  0.74505805969E-08  0.10566000000E+00  0.10566000000E+00 0.  1.
     999900   -1    0    0    0    0 -0.00000000000E+00 -0.00000000000E+00 -0.74505805969E-08  0.93827000000E+00  0.93827000000E+00 0.  1.
     999902    2    1    2    0    0 -0.16223745039E-01 -0.45715884761E-02  0.15117517119E-01  0.10212882543E+01  0.10210372421E+01 0.  0.
     999903    2    3    3    0    0  0.31672495444E-01 -0.11133801796E+00 -0.57145534093E-01  0.13060589292E+00  0.19823874196E-01 0.  0.
         14    1    1    2    0    0  0.16223745039E-01  0.45715884761E-02 -0.15117517119E-01  0.22641745695E-01  0.00000000000E+00 0. -1.
     999901    1    3    3    0    0 -0.47896240483E-01  0.10676642948E+00  0.72263051212E-01  0.89068236139E+00  0.88000000000E+00 0. -1.
        -11    1    4    4    0    0  0.19939042051E-02 -0.29279157969E-01 -0.78534912761E-02  0.30383929824E-01  0.51100000000E-03 0.  1.
         11    1    4    4    0    0  0.29678591239E-01 -0.82058859986E-01 -0.49292042817E-01  0.10022196309E+00  0.51100000000E-03 0. -1.
</event>
<event>
 8    1  0.1126407E+005  0.1043930E+01  0.7957747E-01            NaN
         13   -1    0    0    0    0  0.00000000000E+00  0.00000000000E+00  0.74505805969E-08  0.10566000000E+00  0.10566000000E+00 0.  1.
     999900   -1    0    0    0    0 -0.00000000000E+00 -0.00000000000E+00 -0.74505805969E-08  0.93827000000E+00  0.93827000000E+00 0.  1.
     999902    2    1    2    0    0  0.53445424177E-02  0.10023550292E-01 -0.22556159532E-01  0.10186749802E+01  0.10183618704E+01 0.  0.
     999903    2    3    3    0    0 -0.10195606375E-01  0.12163236509E+00 -0.43709813022E-01  0.13123737626E+00  0.20354816291E-01 0.  0.
         14    1    1    2    0    0 -0.53445424177E-02 -0.10023550292E-01  0.22556159532E-01  0.25255019836E-01  0.00000000000E+00 0.  1.
     999901    1    3    3    0    0  0.15540148793E-01 -0.11160881480E+00  0.21153653491E-01  0.88743760390E+00  0.88000000000E+00 0. -1.
        -11    1    4    4    0    0 -0.15647532477E-01  0.65484304440E-01 -0.23918656745E-01  0.71452100474E-01  0.51100000000E-03 0. -1.
         11    1    4    4    0    0  0.54519261017E-02  0.56148060651E-01 -0.19791156277E-01  0.59785275787E-01  0.51100000000E-03 0.  1.
</event>
<event>
 8    1  0.1126407E+005  0.1043930E+01  0.7957747E-01            NaN
         13   -1    0    0    0    0  0.00000000000E+00  0.00000000000E+00  0.74505805969E-08  0.10566000000E+00  0.10566000000E+00 0. -1.
     999900   -1    0    0    0    0 -0.00000000000E+00 -0.00000000000E+00 -0.74505805969E-08  0.93827000000E+00  0.93827000000E+00 0. -1.
     999902    2    1    2    0    0  0.22765579599E-01 -0.67558929406E-02 -0.87555417490E-02  0.10186204521E+01  0.10183059718E+01 0.  0.
     999903    2    3    3    0    0  0.11008243930E+00  0.37603388036E-01 -0.58935989463E-01  0.13176642965E+00  0.18888697526E-01 0.  0.
         14    1    1    2    0    0 -0.22765579599E-01  0.67558929406E-02  0.87555417490E-02  0.25309547907E-01  0.00000000000E+00 0. -1.
     999901    1    3    3    0    0 -0.87316859699E-01 -0.44359280976E-01  0.50180447714E-01  0.88685402245E+00  0.88000000000E+00 0. -1.
        -11    1    4    4    0    0  0.19473531425E-01  0.12593782819E-01 -0.63125791090E-02  0.24040207317E-01  0.51100000000E-03 0.  1.
         11    1    4    4    0    0  0.90608907873E-01  0.25009605217E-01 -0.52623410354E-01  0.10772622233E+00  0.51100000000E-03 0. -1.
</event>
<event>
 8    1  0.1126407E+005  0.1043930E+01  0.7957747E-01            NaN
         13   -1    0    0    0    0  0.00000000000E+00  0.00000000000E+00  0.74505805969E-08  0.10566000000E+00  0.10566000000E+00 0.  1.
     999900   -1    0    0    0    0 -0.00000000000E+00 -0.00000000000E+00 -0.74505805969E-08  0.93827000000E+00  0.93827000000E+00 0. -1.
     999902    2    1    2    0    0  0.19572080911E-01 -0.12617739931E-01  0.53864002652E-02  0.10200283888E+01  0.10197483154E+01 0.  0.
     999903    2    3    3    0    0  0.12597106891E+00 -0.61296826949E-02 -0.36373149003E-01  0.13261264657E+00  0.18889808053E-01 0.  0.
         14    1    1    2    0    0 -0.19572080911E-01  0.12617739931E-01 -0.53864002652E-02  0.23901611242E-01  0.00000000000E+00 0. -1.
     999901    1    3    3    0    0 -0.10639898800E+00 -0.64880572361E-02  0.41759549268E-01  0.88741574219E+00  0.88000000000E+00 0. -1.
        -11    1    4    4    0    0  0.34076825072E-01 -0.10089563710E-01 -0.97201177474E-02  0.36847945844E-01  0.51100000000E-03 0.  1.
         11    1    4    4    0    0  0.91894243839E-01  0.39598810148E-02 -0.26653031255E-01  0.95764700723E-01  0.51100000000E-03 0. -1.
</event>
<event>
 8    1  0.1126407E+005  0.1043930E+01  0.7957747E-01            NaN
         13   -1    0    0    0    0  0.00000000000E+00  0.00000000000E+00  0.74505805969E-08  0.10566000000E+00  0.10566000000E+00 0.  1.
     999900   -1    0    0    0    0 -0.00000000000E+00 -0.00000000000E+00 -0.74505805969E-08  0.93827000000E+00  0.93827000000E+00 0.  1.
     999902    2    1    2    0    0 -0.41130822026E-02  0.22778417419E-01  0.89125403659E-02  0.10191266309E+01  0.10188247556E+01 0.  0.
     999903    2    3    3    0    0  0.12591361956E+00 -0.15359340203E-01 -0.53739724832E-02  0.12864050734E+00  0.20720801770E-01 0.  0.
         14    1    1    2    0    0  0.41130822026E-02 -0.22778417419E-01 -0.89125403659E-02  0.24803369148E-01  0.00000000000E+00 0.  1.
     999901    1    3    3    0    0 -0.13002670176E+00  0.38137757622E-01  0.14286512849E-01  0.89048612352E+00  0.88000000000E+00 0. -1.
        -11    1    4    4    0    0  0.26704510156E-01 -0.10651711274E-01  0.32833637552E-02  0.28941862661E-01  0.51100000000E-03 0.  1.
         11    1    4    4    0    0  0.99209109400E-01 -0.47076289290E-02 -0.86573362384E-02  0.99698644674E-01  0.51100000000E-03 0. -1.
</event>
<event>
 7    1  0.1126407E+005  0.1043930E+01  0.7957747E-01            NaN
         13   -1    0    0    0    0  0.00000000000E+00  0.00000000000E+00  0.74505805969E-08  0.10566000000E+00  0.10566000000E+00 0.  1.
     999900   -1    0    0    0    0 -0.00000000000E+00 -0.00000000000E+00 -0.74505805969E-08  0.93827000000E+00  0.93827000000E+00 0.  1.
     999903    2    1    2    0    0 -0.53833538318E-01 -0.95460372476E-01  0.27256062977E-01  0.11471188549E+00  0.20129360186E-01 0.  0.
         14    1    1    2    0    0 -0.25507077692E-01  0.34106244523E-01  0.53319671264E-02  0.42921752076E-01  0.00000000000E+00 0.  1.
     999901    1    1    2    0    0  0.79340616010E-01  0.61354127952E-01 -0.32588030103E-01  0.88629636244E+00  0.88000000000E+00 0.  1.
        -11    1    3    3    0    0 -0.16170443319E-02 -0.10759568626E-01 -0.18274464240E-02  0.11044629048E-01  0.51100000000E-03 0. -1.
         11    1    3    3    0    0 -0.52216493986E-01 -0.84700803850E-01  0.29083509401E-01  0.10366725644E+00  0.51100000000E-03 0.  1.
</event>
<event>
 8    1  0.1126407E+005  0.1043930E+01  0.7957747E-01            NaN
         13   -1    0    0    0    0  0.00000000000E+00  0.00000000000E+00  0.74505805969E-08  0.10566000000E+00  0.10566000000E+00 0. -1.
     999900   -1    0    0    0    0 -0.00000000000E+00 -0.00000000000E+00 -0.74505805969E-08  0.93827000000E+00  0.93827000000E+00 0.  1.
     999902    2    1    2    0    0 -0.26234555571E-02 -0.11378549130E-01  0.22246742823E-01  0.10188048838E+01  0.10184950269E+01 0.  0.
     999903    2    3    3    0    0  0.78288278579E-01  0.56249861705E-01  0.85282188557E-01  0.13027025974E+00  0.20104412053E-01 0.  0.
         14    1    1    2    0    0  0.26234555571E-02  0.11378549130E-01 -0.22246742823E-01  0.25125116230E-01  0.00000000000E+00 0.  1.
     999901    1    3    3    0    0 -0.80911734136E-01 -0.67628410835E-01 -0.63035445734E-01  0.88853462403E+00  0.88000000000E+00 0.  1.
        -11    1    4    4    0    0  0.50301468477E-01  0.25302435767E-01  0.54990429427E-01  0.78706158821E-01  0.51100000000E-03 0.  1.
         11    1    4    4    0    0  0.27986810102E-01  0.30947425938E-01  0.30291759130E-01  0.51564100924E-01  0.51100000000E-03 0. -1.
</event>
<event>
 8    1  0.1126407E+005  0.1043930E+01  0.7957747E-01            NaN
         13   -1    0    0    0    0  0.00000000000E+00  0.00000000000E+00  0.74505805969E-08  0.10566000000E+00  0.10566000000E+00 0. -1.
     999900   -1    0    0    0    0 -0.00000000000E+00 -0.00000000000E+00 -0.74505805969E-08  0.93827000000E+00  0.93827000000E+00 0.  1.
     999902    2    1    2    0    0 -0.30274502279E-02 -0.10794281459E-01  0.20396783571E-01  0.10206553196E+01  0.10203899111E+01 0.  0.
     999903    2    3    3    0    0 -0.19119878187E-02  0.11222062716E+00 -0.59261040516E-01  0.12853465460E+00  0.20301764773E-01 0.  0.
         14    1    1    2    0    0  0.30274502279E-02  0.10794281459E-01 -0.20396783571E-01  0.23274680388E-01  0.00000000000E+00 0.  1.
     999901    1    3    3    0    0 -0.11154624093E-02 -0.12301490862E+00  0.79657824087E-01  0.89212066501E+00  0.88000000000E+00 0. -1.
        -11    1    4    4    0    0  0.16373014163E-02  0.55228056311E-01 -0.18109271504E-01  0.58146588852E-01  0.51100000000E-03 0.  1.
         11    1    4    4    0    0 -0.35492892349E-02  0.56992570851E-01 -0.41151769012E-01  0.70388065750E-01  0.51100000000E-03 0. -1.
</event>
<event>
 8    1  0.1126407E+005  0.1043930E+01  0.7957747E-01            NaN
         13   -1    0    0    0    0  0.00000000000E+00  0.00000000000E+00  0.74505805969E-08  0.10566000000E+00  0.10566000000E+00 0. -1.
     999900   -1    0    0    0    0 -0.00000000000E+00 -0.00000000000E+00 -0.74505805969E-08  0.93827000000E+00  0.93827000000E+00 0. -1.
     999902    2    1    2    0    0  0.10425875426E-01 -0.11787272221E-01 -0.77774355440E-02  0.10263764486E+01  0.10262263332E+01 0.  0.
     999903    2    3    3    0    0  0.35906417532E-01 -0.11727421914E+00  0.58366212369E-01  0.13724668516E+00  0.19685643108E-01 0.  0.
         14    1    1    2    0    0 -0.10425875426E-01  0.11787272221E-01  0.77774355440E-02  0.17553551448E-01  0.00000000000E+00 0. -1.
     999901    1    3    3    0    0 -0.25480542106E-01  0.10548694692E+00 -0.66143647913E-01  0.88912976340E+00  0.88000000000E+00 0.  1.
        -11    1    4    4    0    0  0.20840120699E-01 -0.39907887288E-01  0.26372155752E-01  0.52179515315E-01  0.51100000000E-03 0. -1.
         11    1    4    4    0    0  0.15066296833E-01 -0.77366331855E-01  0.31994056617E-01  0.85067169841E-01  0.51100000000E-03 0.  1.
</event>
<event>
 8    1  0.1126407E+005  0.1043930E+01  0.7957747E-01            NaN
         13   -1    0    0    0    0  0.00000000000E+00  0.00000000000E+00  0.74505805969E-08  0.10566000000E+00  0.10566000000E+00 0.  1.
     999900   -1    0    0    0    0 -0.00000000000E+00 -0.00000000000E+00 -0.74505805969E-08  0.93827000000E+00  0.93827000000E+00 0. -1.
     999902    2    1    2    0    0 -0.15356462594E-01 -0.11999862487E-01  0.14816028175E-01  0.10194487350E+01  0.10191547434E+01 0.  0.
     999903    2    3    3    0    0  0.46781091214E-01  0.81760683618E-01  0.86226241629E-01  0.12941978372E+00  0.21005613356E-01 0.  0.
         14    1    1    2    0    0  0.15356462594E-01  0.11999862487E-01 -0.14816028176E-01  0.24481264960E-01  0.00000000000E+00 0. -1.
     999901    1    3    3    0    0 -0.62137553808E-01 -0.93760546105E-01 -0.71410213453E-01  0.89002895132E+00  0.88000000000E+00 0. -1.
        -11    1    4    4    0    0  0.87860950166E-02  0.30257945204E-01  0.37482692062E-01  0.48968888478E-01  0.51100000000E-03 0. -1.
         11    1    4    4    0    0  0.37994996197E-01  0.51502738414E-01  0.48743549567E-01  0.80450895244E-01  0.51100000000E-03 0.  1.
</event>
<event>
 8    1  0.1126407E+005  0.1043930E+01  0.7957747E-01            NaN
         13   -1    0    0    0    0  0.00000000000E+00  0.00000000000E+00  0.74505805969E-08  0.10566000000E+00  0.10566000000E+00 0.  1.
     999900   -1    0    0    0    0 -0.00000000000E+00 -0.00000000000E+00 -0.74505805969E-08  0.93827000000E+00  0.93827000000E+00 0.  1.
     999902    2    1    2    0    0  0.20844727270E-02 -0.14750723861E-01  0.18902774027E-01  0.10198625168E+01  0.10195784960E+01 0.  0.
     999903    2    3    3    0    0 -0.95407933310E-01  0.40720503054E-01  0.77217727171E-01  0.13082795055E+00  0.19812676467E-01 0.  0.
         14    1    1    2    0    0 -0.20844727270E-02  0.14750723861E-01 -0.18902774027E-01  0.24067483185E-01  0.00000000000E+00 0. -1.
     999901    1    3    3    0    0  0.97492406037E-01 -0.55471226914E-01 -0.58314953144E-01  0.88903456626E+00  0.88000000000E+00 0.  1.
        -11    1    4    4    0    0 -0.34723572809E-01  0.48502540357E-02  0.23761397477E-01  0.42357013633E-01  0.51100000000E-03 0.  1.
         11    1    4    4    0    0 -0.60684360501E-01  0.35870249018E-01  0.53456329693E-01  0.88470936919E-01  0.51100000000E-03 0. -1.
</event>
<event>
 8    1  0.1126407E+005  0.1043930E+01  0.7957747E-01            NaN
         13   -1    0    0    0    0  0.00000000000E+00  0.00000000000E+00  0.74505805969E-08  0.10566000000E+00  0.10566000000E+00 0.  1.
     999900   -1    0    0    0    0 -0.00000000000E+00 -0.00000000000E+00 -0.74505805969E-08  0.93827000000E+00  0.93827000000E+00 0.  1.
     999902    2    1    2    0    0 -0.19845812210E-01  0.37507420184E-02  0.14014460936E-01  0.10193468870E+01  0.10190504142E+01 0.  0.
     999903    2    3    3    0    0  0.10367599068E+00  0.14450684894E-01 -0.68320024516E-01  0.12684977664E+00  0.21580239711E-01 0.  0.
         14    1    1    2    0    0  0.19845812210E-01 -0.37507420184E-02 -0.14014460936E-01  0.24583112970E-01  0.00000000000E+00 0. -1.
     999901    1    3    3    0    0 -0.12352180289E+00 -0.10699942875E-01  0.82334485452E-01  0.89249711039E+00  0.88000000000E+00 0.  1.
        -11    1    4    4    0    0  0.55731081135E-01  0.14212613327E-01 -0.26935400133E-01  0.63511642109E-01  0.51100000000E-03 0. -1.
         11    1    4    4    0    0  0.47944909543E-01  0.23807156710E-03 -0.41384624383E-01  0.63338134528E-01  0.51100000000E-03 0.  1.
</event>
<event>
 8    1  0.1126407E+005  0.1043930E+01  0.7957747E-01            NaN
         13   -1    0    0    0    0  0.00000000000E+00  0.00000000000E+00  0.74505805969E-08  0.10566000000E+00  0.10566000000E+00 0. -1.
     999900   -1    0    0    0    0 -0.00000000000E+00 -0.00000000000E+00 -0.74505805969E-08  0.93827000000E+00  0.93827000000E+00 0.  1.
     999902    2    1    2    0    0 -0.15848835460E-01 -0.11402251588E-01 -0.18969234020E-02  0.10243138015E+01  0.10241259535E+01 0.  0.
     999903    2    3    3    0    0  0.92181323190E-01 -0.92190463597E-01  0.22236442562E-01  0.13370745198E+00  0.19665843866E-01 0.  0.
         14    1    1    2    0    0  0.15848835460E-01  0.11402251588E-01  0.18969234020E-02  0.19616198538E-01  0.00000000000E+00 0.  1.
     999901    1    3    3    0    0 -0.10803015865E+00  0.80788212009E-01 -0.24133365964E-01  0.89060634948E+00  0.88000000000E+00 0.  1.
        -11    1    4    4    0    0  0.22406393566E-01 -0.21368680778E-01  0.13882930531E-01  0.33936173502E-01  0.51100000000E-03 0. -1.
         11    1    4    4    0    0  0.69774929623E-01 -0.70821782819E-01  0.83535120310E-02  0.99771278482E-01  0.51100000000E-03 0.  1.
</event>
<event>
 8    1  0.1126407E+005  0.1043930E+01  0.7957747E-01            NaN
         13   -1    0    0    0    0  0.00000000000E+00  0.00000000000E+00  0.74505805969E-08  0.10566000000E+00  0.10566000000E+00 0.  1.
     999900   -1    0    0    0    0 -0.00000000000E+00 -0.00000000000E+00 -0.74505805969E-08  0.93827000000E+00  0.93827000000E+00 0. -1.
     999902    2    1    2    0    0 -0.13020955701E-01  0.10423902311E-01  0.16905755927E-01  0.10201811556E+01  0.10199046929E+01 0.  0.
     999903    2    3    3    0    0  0.32743956379E-01  0.11410571868E+00 -0.50396803947E-01  0.13036433131E+00  0.19045716478E-01 0.  0.
         14    1    1    2    0    0  0.13020955701E-01 -0.10423902311E-01 -0.16905755927E-01  0.23748844397E-01  0.00000000000E+00 0. -1.
     999901    1    3    3    0    0 -0.45764912080E-01 -0.10368181637E+00  0.67302559874E-01  0.88981682429E+00  0.88000000000E+00 0.  1.
        -11    1    4    4    0    0  0.12684186969E-01  0.23289375421E-01 -0.55024965201E-02  0.27089152728E-01  0.51100000000E-03 0. -1.
         11    1    4    4    0    0  0.20059769410E-01  0.90816343258E-01 -0.44894307427E-01  0.10327517859E+00  0.51100000000E-03 0.  1.
</event>
<event>
 8    1  0.1126407E+005  0.1043930E+01  0.7957747E-01            NaN
         13   -1    0    0    0    0  0.00000000000E+00  0.00000000000E+00  0.74505805969E-08  0.10566000000E+00  0.10566000000E+00 0. -1.
     999900   -1    0    0    0    0 -0.00000000000E+00 -0.00000000000E+00 -0.74505805969E-08  0.93827000000E+00  0.93827000000E+00 0.  1.
     999902    2    1    2    0    0  0.17656341230E-01 -0.10195641574E-01 -0.62515331500E-02  0.10226044482E+01  0.10223820608E+01 0.  0.
     999903    2    3    3    0    0  0.11432526176E+00  0.48288963934E-01 -0.47668755178E-01  0.13441487634E+00  0.19823199719E-01 0.  0.
         14    1    1    2    0    0 -0.17656341230E-01  0.10195641574E-01  0.62515331500E-02  0.21325551798E-01  0.00000000000E+00 0.  1.
     999901    1    3    3    0    0 -0.96668920533E-01 -0.58484605508E-01  0.41417222028E-01  0.88818957186E+00  0.88000000000E+00 0. -1.
        -11    1    4    4    0    0  0.39952889250E-01  0.92403266497E-02 -0.22216527971E-01  0.46641743451E-01  0.51100000000E-03 0. -1.
         11    1    4    4    0    0  0.74372372514E-01  0.39048637284E-01 -0.25452227207E-01  0.87773132893E-01  0.51100000000E-03 0.  1.
</event>
<event>
 8    1  0.1126407E+005  0.1043930E+01  0.7957747E-01            NaN
         13   -1    0    0    0    0  0.00000000000E+00  0.00000000000E+00  0.74505805969E-08  0.10566000000E+00  0.10566000000E+00 0. -1.
     999900   -1    0    0    0    0 -0.00000000000E+00 -0.00000000000E+00 -0.74505805969E-08  0.93827000000E+00  0.93827000000E+00 0. -1.
     999902    2    1    2    0    0  0.87936075562E-02  0.17955838119E-01  0.15157479202E-01  0.10188403840E+01  0.10185314130E+01 0.  0.
     999903    2    3    3    0    0 -0.56860521606E-01  0.55111948638E-01  0.10294923080E+00  0.13126028456E+00  0.18980842470E-01 0.  0.
         14    1    1    2    0    0 -0.87936075562E-02 -0.17955838119E-01 -0.15157479202E-01  0.25089616023E-01  0.00000000000E+00 0.  1.
     999901    1    3    3    0    0  0.65654129163E-01 -0.37156110519E-01 -0.87791751601E-01  0.88758009941E+00  0.88000000000E+00 0. -1.
        -11    1    4    4    0    0 -0.31126027507E-01  0.42718516616E-01  0.67402766762E-01  0.85656846419E-01  0.51100000000E-03 0.  1.
         11    1    4    4    0    0 -0.25734494100E-01  0.12393432022E-01  0.35546464041E-01  0.45603438145E-01  0.51100000000E-03 0. -1.
</event>
<event>
 8    1  0.1126407E+005  0.1043930E+01  0.7957747E-01            NaN
         13   -1    0    0    0    0  0.00000000000E+00  0.00000000000E+00  0.74505805969E-08  0.10566000000E+00  0.10566000000E+00 0.  1.
     999900   -1    0    0    0    0 -0.00000000000E+00 -0.00000000000E+00 -0.74505805969E-08  0.93827000000E+00  0.93827000000E+00 0.  1.
     999902    2    1    2    0    0 -0.55582597317E-02 -0.12127898683E-01 -0.18445689994E-01  0.10211654737E+01  0.10209117009E+01 0.  0.
     999903    2    3    3    0    0  0.63588416130E-01 -0.57516851463E-01 -0.10035534421E+00  0.13349965187E+00  0.19982168780E-01 0.  0.
         14    1    1    2    0    0  0.55582597317E-02  0.12127898683E-01  0.18445689994E-01  0.22764526287E-01  0.00000000000E+00 0.  1.
     999901    1    3    3    0    0 -0.69146675861E-01  0.45388952781E-01  0.81909654217E-01  0.88766582184E+00  0.88000000000E+00 0. -1.
        -11    1    4    4    0    0  0.38038088544E-01 -0.22145122182E-01 -0.56622421292E-01  0.71719330243E-01  0.51100000000E-03 0. -1.
         11    1    4    4    0    0  0.25550327585E-01 -0.35371729281E-01 -0.43732922919E-01  0.61780321625E-01  0.51100000000E-03 0.  1.
</event>
<event>
 8    1  0.1126407E+005  0.1043930E+01  0.7957747E-01            NaN
         13   -1    0    0    0    0  0.00000000000E+00  0.00000000000E+00  0.74505805969E-08  0.10566000000E+00  0.10566000000E+00 0. -1.
     999900   -1    0    0    0    0 -0.00000000000E+00 -0.00000000000E+00 -0.74505805969E-08  0.93827000000E+00  0.93827000000E+00 0. -1.
     999902    2    1    2    0    0  0.22222525512E-01  0.56147329207E-02  0.33814747042E-02  0.10207610502E+01  0.10204980751E+01 0.  0.
     999903    2    3    3    0    0 -0.19581844184E-01  0.63447515877E-01 -0.11068832690E+00  0.13053402532E+00  0.19447111901E-01 0.  0.
         14    1    1    2    0    0 -0.22222525512E-01 -0.56147329207E-02 -0.33814747042E-02  0.23168949849E-01  0.00000000000E+00 0. -1.
     999901    1    3    3    0    0  0.41804369696E-01 -0.57832782956E-01  0.11406980160E+00  0.89022702484E+00  0.88000000000E+00 0.  1.
        -11    1    4    4    0    0 -0.93738526663E-02  0.22053215198E-01 -0.23953371148E-01  0.33885668427E-01  0.51100000000E-03 0. -1.
         11    1    4    4    0    0 -0.10207991517E-01  0.41394300679E-01 -0.86734955750E-01  0.96648356889E-01  0.51100000000E-03 0.  1.
</event>
<event>
 8    1  0.1126407E+005  0.1043930E+01  0.7957747E-01            NaN
         13   -1    0    0    0    0  0.00000000000E+00  0.00000000000E+00  0.74505805969E-08  0.10566000000E+00  0.10566000000E+00 0. -1.
     999900   -1    0    0    0    0 -0.00000000000E+00 -0.00000000000E+00 -0.74505805969E-08  0.93827000000E+00  0.93827000000E+00 0. -1.
     999902    2    1    2    0    0  0.90978532460E-02 -0.20088310169E-01 -0.38994567558E-02  0.10215354269E+01  0.10212899253E+01 0.  0.
     999903    2    3    3    0    0 -0.42150905094E-01  0.73155073531E-01  0.96119665011E-01  0.12950146540E+00  0.20081731893E-01 0.  0.
         14    1    1    2    0    0 -0.90978532460E-02  0.20088310169E-01  0.38994567558E-02  0.22394573051E-01  0.00000000000E+00 0.  1.
     999901    1    3    3    0    0  0.51248758340E-01 -0.93243383700E-01 -0.10001912177E+00  0.89203396155E+00  0.88000000000E+00 0.  1.
        -11    1    4    4    0    0 -0.93517013851E-02  0.16411713322E-01  0.35536525971E-01  0.40248036623E-01  0.51100000000E-03 0.  1.
         11    1    4    4    0    0 -0.32799203709E-01  0.56743360209E-01  0.60583139040E-01  0.89253428778E-01  0.51100000000E-03 0. -1.
</event>
<event>
 8    1  0.1126407E+005  0.1043930E+01  0.7957747E-01            NaN
         13   -1    0    0    0    0  0.00000000000E+00  0.00000000000E+00  0.74505805969E-08  0.10566000000E+00  0.10566000000E+00 0.  1.
     999900   -1    0    0    0    0 -0.00000000000E+00 -0.00000000000E+00 -0.74505805969E-08  0.93827000000E+00  0.93827000000E+00 0. -1.
     999902    2    1    2    0    0  0.48664302148E-02  0.10262247427E-01  0.20633198288E-01  0.10203774049E+01  0.10201055453E+01 0.  0.
     999903    2    3    3    0    0  0.11057342604E+00 -0.64456383475E-01  0.19482166989E-01  0.13090668156E+00  0.19388051233E-01 0.  0.
         14    1    1    2    0    0 -0.48664302148E-02 -0.10262247427E-01 -0.20633198288E-01  0.23552595120E-01  0.00000000000E+00 0.  1.
     999901    1    3    3    0    0 -0.10570699582E+00  0.74718630903E-01  0.11510312991E-02  0.88947072332E+00  0.88000000000E+00 0.  1.
        -11    1    4    4    0    0  0.29809326873E-01 -0.22296797824E-01  0.13507451769E-01  0.39603731341E-01  0.51100000000E-03 0. -1.
         11    1    4    4    0    0  0.80764099162E-01 -0.42159585652E-01  0.59747152200E-02  0.91302950219E-01  0.51100000000E-03 0.  1.
</event>
<event>
 8    1  0.1126407E+005  0.1043930E+01  0.7957747E-01            NaN
         13   -1    0    0    0    0  0.00000000000E+00  0.00000000000E+00  0.74505805969E-08  0.10566000000E+00  0.10566000000E+00 0. -1.
     999900   -1    0    0    0    0 -0.00000000000E+00 -0.00000000000E+00 -0.74505805969E-08  0.93827000000E+00  0.93827000000E+00 0. -1.
     999902    2    1    2    0    0 -0.11484056810E-01  0.93947644339E-02  0.18030311353E-01  0.10205796834E+01  0.10203125270E+01 0.  0.
     999903    2    3    3    0    0 -0.80033924606E-01  0.84469286486E-01  0.61993097067E-01  0.13363662162E+00  0.21797089441E-01 0.  0.
         14    1    1    2    0    0  0.11484056810E-01 -0.93947644339E-02 -0.18030311353E-01  0.23350316638E-01  0.00000000000E+00 0.  1.
     999901    1    3    3    0    0  0.68549867795E-01 -0.75074522052E-01 -0.43962785714E-01  0.88694306174E+00  0.88000000000E+00 0.  1.
        -11    1    4    4    0    0 -0.46275350092E-01  0.62290758533E-01  0.45861756581E-01  0.90139383526E-01  0.51100000000E-03 0. -1.
         11    1    4    4    0    0 -0.33758574513E-01  0.22178527953E-01  0.16131340486E-01  0.43497238099E-01  0.51100000000E-03 0.  1.
</event>
<event>
 8    1  0.1126407E+005  0.1043930E+01  0.7957747E-01            NaN
         13   -1    0    0    0    0  0.00000000000E+00  0.00000000000E+00  0.74505805969E-08  0.10566000000E+00  0.10566000000E+00 0. -1.
     999900   -1    0    0    0    0 -0.00000000000E+00 -0.00000000000E+00 -0.74505805969E-08  0.93827000000E+00  0.93827000000E+00 0. -1.
     999902    2    1    2    0    0  0.60643740719E-03 -0.73002818222E-02 -0.22695057032E-01  0.10200819918E+01  0.10198031881E+01 0.  0.
     999903    2    3    3    0    0 -0.10674465780E+00  0.61742479033E-01 -0.38596866673E-01  0.13073165138E+00  0.19861794197E-01 0.  0.
         14    1    1    2    0    0 -0.60643740719E-03  0.73002818222E-02  0.22695057032E-01  0.23848008192E-01  0.00000000000E+00 0. -1.
     999901    1    3    3    0    0  0.10735109521E+00 -0.69042760855E-01  0.15901809641E-01  0.88935034043E+00  0.88000000000E+00 0.  1.
        -11    1    4    4    0    0 -0.53341971630E-01  0.19707048688E-01 -0.15373623582E-01  0.58909618302E-01  0.51100000000E-03 0. -1.
         11    1    4    4    0    0 -0.53402686174E-01  0.42035430345E-01 -0.23223243091E-01  0.71822033078E-01  0.51100000000E-03 0.  1.
</event>
<event>
 8    1  0.1126407E+005  0.1043930E+01  0.7957747E-01            NaN
         13   -1    0    0    0    0  0.00000000000E+00  0.00000000000E+00  0.74505805969E-08  0.10566000000E+00  0.10566000000E+00 0. -1.
     999900   -1    0    0    0    0 -0.00000000000E+00 -0.00000000000E+00 -0.74505805969E-08  0.93827000000E+00  0.93827000000E+00 0.  1.
     999902    2    1    2    0    0  0.11569350277E-01  0.96623100711E-02  0.18036598568E-01  0.10204240648E+01  0.10201532939E+01 0.  0.
     999903    2    3    3    0    0  0.40341441592E-02  0.11231454626E+00 -0.63910487098E-01  0.13064342567E+00  0.18770260748E-01 0.  0.
         14    1    1    2    0    0 -0.11569350277E-01 -0.96623100711E-02 -0.18036598568E-01  0.23505935200E-01  0.00000000000E+00 0.  1.
     999901    1    3    3    0    0  0.75352061183E-02 -0.10265223619E+00  0.81947085665E-01  0.88978063913E+00  0.88000000000E+00 0. -1.
        -11    1    4    4    0    0 -0.71082650788E-02  0.47106185437E-01 -0.23508502343E-01  0.53126555904E-01  0.51100000000E-03 0. -1.
         11    1    4    4    0    0  0.11142409238E-01  0.65208360822E-01 -0.40401984754E-01  0.77516869763E-01  0.51100000000E-03 0.  1.
</event>
<event>
 7    1  0.1126407E+005  0.1043930E+01  0.7957747E-01            NaN
         13   -1    0    0    0    0  0.00000000000E+00  0.00000000000E+00  0.74505805969E-08  0.10566000000E+00  0.10566000000E+00 0. -1.
     999900   -1    0    0    0    0 -0.00000000000E+00 -0.00000000000E+00 -0.74505805969E-08  0.93827000000E+00  0.93827000000E+00 0. -1.
     999903    2    1    2    0    0 -0.68993460123E-01  0.62194556877E-01  0.59838710366E-01  0.11228784315E+00  0.19990698261E-01 0.  0.
         14    1    1    2    0    0 -0.17554564386E-01 -0.20596750659E-01 -0.37361485741E-01  0.46133171203E-01  0.00000000000E+00 0.  1.
     999901    1    1    2    0    0  0.86548024508E-01 -0.41597806219E-01 -0.22477224625E-01  0.88550898564E+00  0.88000000000E+00 0.  1.
        -11    1    3    3    0    0 -0.40262246277E-01  0.44400437787E-01  0.29220278185E-01  0.66682329962E-01  0.51100000000E-03 0.  1.
         11    1    3    3    0    0 -0.28731213846E-01  0.17794119090E-01  0.30618432181E-01  0.45605513192E-01  0.51100000000E-03 0. -1.
</event>
<event>
 8    1  0.1126407E+005  0.1043930E+01  0.7957747E-01            NaN
         13   -1    0    0    0    0  0.00000000000E+00  0.00000000000E+00  0.74505805969E-08  0.10566000000E+00  0.10566000000E+00 0.  1.
     999900   -1    0    0    0    0 -0.00000000000E+00 -0.00000000000E+00 -0.74505805969E-08  0.93827000000E+00  0.93827000000E+00 0. -1.
     999902    2    1    2    0    0  0.15406151772E-01 -0.16105660095E-01  0.71890387691E-02  0.10205115441E+01  0.10202428081E+01 0.  0.
     999903    2    3    3    0    0 -0.33515413054E-01 -0.12388672602E+00 -0.23854634686E-01  0.13204444432E+00  0.19886877181E-01 0.  0.
         14    1    1    2    0    0 -0.15406151772E-01  0.16105660095E-01 -0.71890387691E-02  0.23418455926E-01  0.00000000000E+00 0. -1.
     999901    1    3    3    0    0  0.48921564826E-01  0.10778106593E+00  0.31043673455E-01  0.88846709975E+00  0.88000000000E+00 0. -1.
        -11    1    4    4    0    0 -0.19374169830E-01 -0.36700928981E-01 -0.91799108104E-02  0.42507040925E-01  0.51100000000E-03 0.  1.
         11    1    4    4    0    0 -0.14141243225E-01 -0.87185797041E-01 -0.14674723876E-01  0.89537403399E-01  0.51100000000E-03 0. -1.
</event>
<event>
 8    1  0.1126407E+005  0.1043930E+01  0.7957747E-01            NaN
         13   -1    0    0    0    0  0.00000000000E+00  0.00000000000E+00  0.74505805969E-08  0.10566000000E+00  0.10566000000E+00 0. -1.
     999900   -1    0    0    0    0 -0.00000000000E+00 -0.00000000000E+00 -0.74505805969E-08  0.93827000000E+00  0.93827000000E+00 0. -1.
     999902    2    1    2    0    0  0.12242739440E-01  0.21408444188E-01 -0.90702863542E-03  0.10192514901E+01  0.10189526835E+01 0.  0.
     999903    2    3    3    0    0  0.10636151306E-01 -0.64215751635E-01 -0.10892541906E+00  0.12852029790E+00  0.20394351694E-01 0.  0.
         14    1    1    2    0    0 -0.12242739440E-01 -0.21408444188E-01  0.90702863542E-03  0.24678509933E-01  0.00000000000E+00 0.  1.
     999901    1    3    3    0    0  0.16065881346E-02  0.85624195824E-01  0.10801839043E+00  0.89073119217E+00  0.88000000000E+00 0.  1.
        -11    1    4    4    0    0 -0.58784362603E-02 -0.12779202173E-01 -0.19659097483E-01  0.24178611538E-01  0.51100000000E-03 0. -1.
         11    1    4    4    0    0  0.16514587566E-01 -0.51436549462E-01 -0.89266321578E-01  0.10434168636E+00  0.51100000000E-03 0.  1.
</event>
<event>
 8    1  0.1126407E+005  0.1043930E+01  0.7957747E-01            NaN
         13   -1    0    0    0    0  0.00000000000E+00  0.00000000000E+00  0.74505805969E-08  0.10566000000E+00  0.10566000000E+00 0.  1.
     999900   -1    0    0    0    0 -0.00000000000E+00 -0.00000000000E+00 -0.74505805969E-08  0.93827000000E+00  0.93827000000E+00 0. -1.
     999902    2    1    2    0    0  0.21050466751E-01 -0.15861050197E-02  0.86968047672E-02  0.10210986117E+01  0.10208433291E+01 0.  0.
     999903    2    3    3    0    0  0.12102252961E+00 -0.48722375885E-01 -0.19637657902E-01  0.13373223686E+00  0.21871236411E-01 0.  0.
         14    1    1    2    0    0 -0.21050466751E-01  0.15861050197E-02 -0.86968047672E-02  0.22831388323E-01  0.00000000000E+00 0. -1.
     999901    1    3    3    0    0 -0.99972062859E-01  0.47136270866E-01  0.28334462669E-01  0.88736637482E+00  0.88000000000E+00 0.  1.
        -11    1    4    4    0    0  0.62931249322E-01 -0.18208679360E-01 -0.18602349375E-01  0.68104380685E-01  0.51100000000E-03 0.  1.
         11    1    4    4    0    0  0.58091280289E-01 -0.30513696526E-01 -0.10353085276E-02  0.65627856174E-01  0.51100000000E-03 0. -1.
</event>
<event>
 8    1  0.1126407E+005  0.1043930E+01  0.7957747E-01            NaN
         13   -1    0    0    0    0  0.00000000000E+00  0.00000000000E+00  0.74505805969E-08  0.10566000000E+00  0.10566000000E+00 0. -1.
     999900   -1    0    0    0    0 -0.00000000000E+00 -0.00000000000E+00 -0.74505805969E-08  0.93827000000E+00  0.93827000000E+00 0.  1.
     999902    2    1    2    0    0 -0.16002614691E-01  0.10229895078E-01 -0.14338428661E-01  0.10201324168E+01  0.10198548048E+01 0.  0.
     999903    2    3    3    0    0 -0.76617205145E-01 -0.15797658653E-01  0.10207297923E+00  0.13001827915E+00  0.19133679244E-01 0.  0.
         14    1    1    2    0    0  0.16002614691E-01 -0.10229895078E-01  0.14338428661E-01  0.23797583212E-01  0.00000000000E+00 0. -1.
     999901    1    3    3    0    0  0.60614590455E-01  0.26027553731E-01 -0.11641140789E+00  0.89011413763E+00  0.88000000000E+00 0.  1.
        -11    1    4    4    0    0 -0.37180202754E-01 -0.32604063733E-03  0.57899975050E-01  0.68812368155E-01  0.51100000000E-03 0. -1.
         11    1    4    4    0    0 -0.39437002391E-01 -0.15471618015E-01  0.44173004183E-01  0.61205910998E-01  0.51100000000E-03 0.  1.
</event>
<event>
 8    1  0.1126407E+005  0.1043930E+01  0.7957747E-01            NaN
         13   -1    0    0    0    0  0.00000000000E+00  0.00000000000E+00  0.74505805969E-08  0.10566000000E+00  0.10566000000E+00 0. -1.
     999900   -1    0    0    0    0 -0.00000000000E+00 -0.00000000000E+00 -0.74505805969E-08  0.93827000000E+00  0.93827000000E+00 0.  1.
     999902    2    1    2    0    0 -0.22393018479E-01 -0.63265142488E-02 -0.54042944512E-02  0.10200411227E+01  0.10197613513E+01 0.  0.
     999903    2    3    3    0    0  0.94872567986E-01 -0.58374226607E-01 -0.61454202236E-01  0.12897335072E+00  0.21193200227E-01 0.  0.
         14    1    1    2    0    0  0.22393018479E-01  0.63265142488E-02  0.54042944512E-02  0.23888877279E-01  0.00000000000E+00 0.  1.
     999901    1    3    3    0    0 -0.11726558647E+00  0.52047712358E-01  0.56049907785E-01  0.89106777200E+00  0.88000000000E+00 0.  1.
        -11    1    4    4    0    0  0.67673390179E-01 -0.33166093840E-01 -0.33223341736E-01  0.82363396458E-01  0.51100000000E-03 0.  1.
         11    1    4    4    0    0  0.27199177807E-01 -0.25208132767E-01 -0.28230860500E-01  0.46609954265E-01  0.51100000000E-03 0. -1.
</event>
<event>
 8    1  0.1126407E+005  0.1043930E+01  0.7957747E-01            NaN
         13   -1    0    0    0    0  0.00000000000E+00  0.00000000000E+00  0.74505805969E-08  0.10566000000E+00  0.10566000000E+00 0.  1.
     999900   -1    0    0    0    0 -0.00000000000E+00 -0.00000000000E+00 -0.74505805969E-08  0.93827000000E+00  0.93827000000E+00 0. -1.
     999902    2    1    2    0    0 -0.22598853453E-01 -0.21082018286E-02 -0.65255285339E-02  0.10203135817E+01  0.10200402295E+01 0.  0.
     999903    2    3    3    0    0 -0.43500330436E-01  0.96363865891E-01  0.74350329291E-01  0.13088987823E+00  0.20637716896E-01 0.  0.
         14    1    1    2    0    0  0.22598853453E-01  0.21082018286E-02  0.65255285339E-02  0.23616418335E-01  0.00000000000E+00 0.  1.
     999901    1    3    3    0    0  0.20901476983E-01 -0.98472067720E-01 -0.80875857825E-01  0.88942370344E+00  0.88000000000E+00 0.  1.
        -11    1    4    4    0    0 -0.31128798806E-01  0.46634723216E-01  0.44486234064E-01  0.71575733784E-01  0.51100000000E-03 0.  1.
         11    1    4    4    0    0 -0.12371531630E-01  0.49729142675E-01  0.29864095227E-01  0.59314144441E-01  0.51100000000E-03 0. -1.
</event>
<event>
 8    1  0.1126407E+005  0.1043930E+01  0.7957747E-01            NaN
         13   -1    0    0    0    0  0.00000000000E+00  0.00000000000E+00  0.74505805969E-08  0.10566000000E+00  0.10566000000E+00 0.  1.
     999900   -1    0    0    0    0 -0.00000000000E+00 -0.00000000000E+00 -0.74505805969E-08  0.93827000000E+00  0.93827000000E+00 0.  1.
     999902    2    1    2    0    0 -0.20882418067E-01 -0.10816547688E-01  0.18400427778E-02  0.10203406201E+01  0.10200679007E+01 0.  0.
     999903    2    3    3    0    0  0.39187104091E-01 -0.94906188771E-01  0.78738324686E-01  0.13096288199E+00  0.20217291864E-01 0.  0.
         14    1    1    2    0    0  0.20882418067E-01  0.10816547688E-01 -0.18400427778E-02  0.23589379933E-01  0.00000000000E+00 0. -1.
     999901    1    3    3    0    0 -0.60069522157E-01  0.84089641083E-01 -0.76898281908E-01  0.88937773808E+00  0.88000000000E+00 0.  1.
        -11    1    4    4    0    0  0.28871777406E-01 -0.82848210858E-01  0.59450588866E-01  0.10598131538E+00  0.51100000000E-03 0.  1.
         11    1    4    4    0    0  0.10315326685E-01 -0.12057977913E-01  0.19287735820E-01  0.24981566605E-01  0.51100000000E-03 0. -1.
</event>
<event>
 8    1  0.1126407E+005  0.1043930E+01  0.7957747E-01            NaN
         13   -1    0    0    0    0  0.00000000000E+00  0.00000000000E+00  0.74505805969E-08  0.10566000000E+00  0.10566000000E+00 0. -1.
     999900   -1    0    0    0    0 -0.00000000000E+00 -0.00000000000E+00 -0.74505805969E-08  0.93827000000E+00  0.93827000000E+00 0. -1.
     999902    2    1    2    0    0 -0.21259966061E-01 -0.11977391556E-01 -0.31754441258E-02  0.10193225314E+01  0.10190254636E+01 0.  0.
     999903    2    3    3    0    0  0.10018203923E+00 -0.13810849975E-01  0.75184298421E-01  0.12753120409E+00  0.19604813837E-01 0.  0.
         14    1    1    2    0    0  0.21259966061E-01  0.11977391556E-01  0.31754441258E-02  0.24607468598E-01  0.00000000000E+00 0.  1.
     999901    1    3    3    0    0 -0.12144200529E+00  0.18334584190E-02 -0.78359742547E-01  0.89179132731E+00  0.88000000000E+00 0. -1.
        -11    1    4    4    0    0  0.52143453732E-01 -0.16636981375E-02  0.28492798351E-01  0.59445843736E-01  0.51100000000E-03 0.  1.
         11    1    4    4    0    0  0.48038585500E-01 -0.12147151838E-01  0.46691500071E-01  0.68085360353E-01  0.51100000000E-03 0. -1.
</event>
<event>
 8    1  0.1126407E+005  0.1043930E+01  0.7957747E-01            NaN
         13   -1    0    0    0    0  0.00000000000E+00  0.00000000000E+00  0.74505805969E-08  0.10566000000E+00  0.10566000000E+00 0.  1.
     999900   -1    0    0    0    0 -0.00000000000E+00 -0.00000000000E+00 -0.74505805969E-08  0.93827000000E+00  0.93827000000E+00 0. -1.
     999902    2    1    2    0    0 -0.87121726956E-02 -0.13273699025E-01  0.20750875402E-01  0.10178016271E+01  0.10174661962E+01 0.  0.
     999903    2    3    3    0    0 -0.11932709329E+00  0.37805212653E-01  0.25558983226E-01  0.12939415655E+00  0.20527952432E-01 0.  0.
         14    1    1    2    0    0  0.87121726956E-02  0.13273699025E-01 -0.20750875402E-01  0.26128372870E-01  0.00000000000E+00 0. -1.
     999901    1    3    3    0    0  0.11061492059E+00 -0.51078911678E-01 -0.48081078242E-02  0.88840747058E+00  0.88000000000E+00 0.  1.
        -11    1    4    4    0    0 -0.72306042255E-01  0.19793528906E-01  0.54292379463E-02  0.75164388369E-01  0.51100000000E-03 0.  1.
         11    1    4    4    0    0 -0.47021051030E-01  0.18011683746E-01  0.20129745280E-01  0.54229768185E-01  0.51100000000E-03 0. -1.
</event>
<event>
 8    1  0.1126407E+005  0.1043930E+01  0.7957747E-01            NaN
         13   -1    0    0    0    0  0.00000000000E+00  0.00000000000E+00  0.74505805969E-08  0.10566000000E+00  0.10566000000E+00 0.  1.
     999900   -1    0    0    0    0 -0.00000000000E+00 -0.00000000000E+00 -0.74505805969E-08  0.93827000000E+00  0.93827000000E+00 0.  1.
     999902    2    1    2    0    0 -0.73089874209E-02 -0.21301293775E-01  0.40683577651E-02  0.10210451153E+01  0.10207886214E+01 0.  0.
     999903    2    3    3    0    0 -0.56410097416E-01  0.10696298127E+00 -0.41188939814E-01  0.12924308218E+00  0.19597629353E-01 0.  0.
         14    1    1    2    0    0  0.73089874209E-02  0.21301293775E-01 -0.40683577651E-02  0.22884884717E-01  0.00000000000E+00 0.  1.
     999901    1    3    3    0    0  0.49101109995E-01 -0.12826427505E+00  0.45257297579E-01  0.89180203310E+00  0.88000000000E+00 0. -1.
        -11    1    4    4    0    0 -0.27447175891E-01  0.42530569771E-01 -0.26305835969E-01  0.57047830427E-01  0.51100000000E-03 0. -1.
         11    1    4    4    0    0 -0.28962921525E-01  0.64432411502E-01 -0.14883103846E-01  0.72195251757E-01  0.51100000000E-03 0.  1.
</event>
<event>
 8    1  0.1126407E+005  0.1043930E+01  0.7957747E-01            NaN
         13   -1    0    0    0    0  0.00000000000E+00  0.00000000000E+00  0.74505805969E-08  0.10566000000E+00  0.10566000000E+00 0.  1.
     999900   -1    0    0    0    0 -0.00000000000E+00 -0.00000000000E+00 -0.74505805969E-08  0.93827000000E+00  0.93827000000E+00 0.  1.
     999902    2    1    2    0    0 -0.21965359631E-01 -0.98121363652E-02 -0.66007287204E-03  0.10198636181E+01  0.10195796235E+01 0.  0.
     999903    2    3    3    0    0  0.54177376432E-01  0.10564001255E+00 -0.43773304957E-01  0.12801964867E+00  0.19440366485E-01 0.  0.
         14    1    1    2    0    0  0.21965359631E-01  0.98121363652E-02  0.66007287204E-03  0.24066381946E-01  0.00000000000E+00 0. -1.
     999901    1    3    3    0    0 -0.76142736064E-01 -0.11545214892E+00  0.43113232085E-01  0.89184396938E+00  0.88000000000E+00 0. -1.
        -11    1    4    4    0    0  0.32683291697E-01  0.80661956474E-01 -0.27576143456E-01  0.91297609976E-01  0.51100000000E-03 0.  1.
         11    1    4    4    0    0  0.21494084735E-01  0.24978056080E-01 -0.16197161501E-01  0.36722038694E-01  0.51100000000E-03 0. -1.
</event>
<event>
 8    1  0.1126407E+005  0.1043930E+01  0.7957747E-01            NaN
         13   -1    0    0    0    0  0.00000000000E+00  0.00000000000E+00  0.74505805969E-08  0.10566000000E+00  0.10566000000E+00 0.  1.
     999900   -1    0    0    0    0 -0.00000000000E+00 -0.00000000000E+00 -0.74505805969E-08  0.93827000000E+00  0.93827000000E+00 0.  1.
     999902    2    1    2    0    0  0.22205285575E-01  0.91558988778E-03  0.71161456145E-02  0.10205943504E+01  0.10203275335E+01 0.  0.
     999903    2    3    3    0    0 -0.48633670409E-01 -0.48306194573E-01  0.10914570240E+00  0.13050953863E+00  0.20523961318E-01 0.  0.
         14    1    1    2    0    0 -0.22205285575E-01 -0.91558988778E-03 -0.71161456145E-02  0.23335649567E-01  0.00000000000E+00 0. -1.
     999901    1    3    3    0    0  0.70838955984E-01  0.49221784461E-01 -0.10202955679E+00  0.89008481181E+00  0.88000000000E+00 0.  1.
        -11    1    4    4    0    0 -0.14761166556E-01 -0.19900012283E-01  0.23632312342E-01  0.34243975158E-01  0.51100000000E-03 0.  1.
         11    1    4    4    0    0 -0.33872503853E-01 -0.28406182290E-01  0.85513390059E-01  0.96265563469E-01  0.51100000000E-03 0. -1.
</event>
<event>
 8    1  0.1126407E+005  0.1043930E+01  0.7957747E-01            NaN
         13   -1    0    0    0    0  0.00000000000E+00  0.00000000000E+00  0.74505805969E-08  0.10566000000E+00  0.10566000000E+00 0. -1.
     999900   -1    0    0    0    0 -0.00000000000E+00 -0.00000000000E+00 -0.74505805969E-08  0.93827000000E+00  0.93827000000E+00 0.  1.
     999902    2    1    2    0    0  0.80591372773E-02 -0.14233284487E-01  0.18083672450E-01  0.10195464955E+01  0.10192548755E+01 0.  0.
     999903    2    3    3    0    0 -0.33251826920E-01  0.80317465534E-01 -0.90244271616E-01  0.12692037920E+00  0.20203337174E-01 0.  0.
         14    1    1    2    0    0 -0.80591372773E-02  0.14233284487E-01 -0.18083672450E-01  0.24383504470E-01  0.00000000000E+00 0.  1.
     999901    1    3    3    0    0  0.41310964198E-01 -0.94550750021E-01  0.10832794407E+00  0.89262611633E+00  0.88000000000E+00 0. -1.
        -11    1    4    4    0    0 -0.92867646778E-03  0.14905763785E-01 -0.79083966330E-02  0.16907042683E-01  0.51100000000E-03 0.  1.
         11    1    4    4    0    0 -0.32323150453E-01  0.65411701749E-01 -0.82335874983E-01  0.11001333651E+00  0.51100000000E-03 0. -1.
</event>
<event>
 8    1  0.1126407E+005  0.1043930E+01  0.7957747E-01            NaN
         13   -1    0    0    0    0  0.00000000000E+00  0.00000000000E+00  0.74505805969E-08  0.10566000000E+00  0.10566000000E+00 0.  1.
     999900   -1    0    0    0    0 -0.00000000000E+00 -0.00000000000E+00 -0.74505805969E-08  0.93827000000E+00  0.93827000000E+00 0.  1.
     999902    2    1    2    0    0  0.21461413799E-01  0.74595099065E-02  0.66932061097E-02  0.10202438104E+01  0.10199688216E+01 0.  0.
     999903    2    3    3    0    0 -0.48470585541E-01 -0.11588120146E+00  0.20515608977E-01  0.12878743208E+00  0.19684052808E-01 0.  0.
         14    1    1    2    0    0 -0.21461413799E-01 -0.74595099065E-02 -0.66932061097E-02  0.23686189612E-01  0.00000000000E+00 0. -1.
     999901    1    3    3    0    0  0.69931999340E-01  0.12334071137E+00 -0.13822402867E-01  0.89145637831E+00  0.88000000000E+00 0.  1.
        -11    1    4    4    0    0 -0.10541585668E-01 -0.25548482801E-01  0.12939364096E-01  0.30521111808E-01  0.51100000000E-03 0. -1.
         11    1    4    4    0    0 -0.37928999873E-01 -0.90332718658E-01  0.75762448810E-02  0.98266320268E-01  0.51100000000E-03 0.  1.
</event>
<event>
 8    1  0.1126407E+005  0.1043930E+01  0.7957747E-01            NaN
         13   -1    0    0    0    0  0.00000000000E+00  0.00000000000E+00  0.74505805969E-08  0.10566000000E+00  0.10566000000E+00 0.  1.
     999900   -1    0    0    0    0 -0.00000000000E+00 -0.00000000000E+00 -0.74505805969E-08  0.93827000000E+00  0.93827000000E+00 0. -1.
     999902    2    1    2    0    0  0.70538160739E-02 -0.21469467200E-01  0.74851009136E-02  0.10201240957E+01  0.10198462872E+01 0.  0.
     999903    2    3    3    0    0 -0.58099454402E-01 -0.43771724024E-02 -0.11365089431E+00  0.12927560998E+00  0.20023768841E-01 0.  0.
         14    1    1    2    0    0 -0.70538160739E-02  0.21469467200E-01 -0.74851009136E-02  0.23805904283E-01  0.00000000000E+00 0. -1.
     999901    1    3    3    0    0  0.65153270475E-01 -0.17092294797E-01  0.12113599523E+00  0.89084848573E+00  0.88000000000E+00 0.  1.
        -11    1    4    4    0    0 -0.39545921951E-01  0.64686984265E-02 -0.71814455963E-01  0.82239292364E-01  0.51100000000E-03 0.  1.
         11    1    4    4    0    0 -0.18553532451E-01 -0.10845870829E-01 -0.41836438349E-01  0.47036317619E-01  0.51100000000E-03 0. -1.
</event>
<event>
 8    1  0.1126407E+005  0.1043930E+01  0.7957747E-01            NaN
         13   -1    0    0    0    0  0.00000000000E+00  0.00000000000E+00  0.74505805969E-08  0.10566000000E+00  0.10566000000E+00 0. -1.
     999900   -1    0    0    0    0 -0.00000000000E+00 -0.00000000000E+00 -0.74505805969E-08  0.93827000000E+00  0.93827000000E+00 0. -1.
     999902    2    1    2    0    0  0.21422125038E-01  0.90216790779E-02  0.55494296773E-02  0.10200324205E+01  0.10197524428E+01 0.  0.
     999903    2    3    3    0    0 -0.30027972715E-01  0.11892676335E+00  0.41452919334E-01  0.13097938462E+00  0.19799002166E-01 0.  0.
         14    1    1    2    0    0 -0.21422125038E-01 -0.90216790779E-02 -0.55494296773E-02  0.23897579465E-01  0.00000000000E+00 0.  1.
     999901    1    3    3    0    0  0.51450097754E-01 -0.10990508427E+00 -0.35903489656E-01  0.88905303592E+00  0.88000000000E+00 0. -1.
        -11    1    4    4    0    0 -0.43197571814E-02  0.56348519335E-01  0.21142974493E-01  0.60341548081E-01  0.51100000000E-03 0.  1.
         11    1    4    4    0    0 -0.25708215534E-01  0.62578244015E-01  0.20309944841E-01  0.70637836535E-01  0.51100000000E-03 0. -1.
</event>
<event>
 8    1  0.1126407E+005  0.1043930E+01  0.7957747E-01            NaN
         13   -1    0    0    0    0  0.00000000000E+00  0.00000000000E+00  0.74505805969E-08  0.10566000000E+00  0.10566000000E+00 0.  1.
     999900   -1    0    0    0    0 -0.00000000000E+00 -0.00000000000E+00 -0.74505805969E-08  0.93827000000E+00  0.93827000000E+00 0. -1.
     999902    2    1    2    0    0 -0.25853471626E-01 -0.36778185033E-02 -0.36967507624E-02  0.10175558780E+01  0.10172140240E+01 0.  0.
     999903    2    3    3    0    0  0.10431010248E-01 -0.31789182913E-01 -0.12226565220E+00  0.12841843261E+00  0.20568082122E-01 0.  0.
         14    1    1    2    0    0  0.25853471626E-01  0.36778185033E-02  0.36967507624E-02  0.26374121981E-01  0.00000000000E+00 0. -1.
     999901    1    3    3    0    0 -0.36284481874E-01  0.28111364410E-01  0.11856890144E+00  0.88913744541E+00  0.88000000000E+00 0.  1.
        -11    1    4    4    0    0  0.14247490023E-02  0.25076677553E-02 -0.19201690681E-01  0.19423808928E-01  0.51100000000E-03 0.  1.
         11    1    4    4    0    0  0.90062612460E-02 -0.34296850669E-01 -0.10306396152E+00  0.10899462369E+00  0.51100000000E-03 0. -1.
</event>
<event>
 8    1  0.1126407E+005  0.1043930E+01  0.7957747E-01            NaN
         13   -1    0    0    0    0  0.00000000000E+00  0.00000000000E+00  0.74505805969E-08  0.10566000000E+00  0.10566000000E+00 0. -1.
     999900   -1    0    0    0    0 -0.00000000000E+00 -0.00000000000E+00 -0.74505805969E-08  0.93827000000E+00  0.93827000000E+00 0. -1.
     999902    2    1    2    0    0 -0.21157374706E-02  0.22349526439E-01  0.68529679281E-02  0.10204578709E+01  0.10201878873E+01 0.  0.
     999903    2    3    3    0    0 -0.17887960967E-01 -0.13855517407E-01 -0.12601137689E+00  0.12960855568E+00  0.20188018418E-01 0.  0.
         14    1    1    2    0    0  0.21157374706E-02 -0.22349526439E-01 -0.68529679281E-02  0.23472129143E-01  0.00000000000E+00 0. -1.
     999901    1    3    3    0    0  0.15772223496E-01  0.36205043846E-01  0.13286434482E+00  0.89084931518E+00  0.88000000000E+00 0.  1.
        -11    1    4    4    0    0 -0.33400198830E-02  0.44618441780E-02 -0.12278079913E-01  0.13493559709E-01  0.51100000000E-03 0. -1.
         11    1    4    4    0    0 -0.14547941084E-01 -0.18317361585E-01 -0.11373329698E+00  0.11611499597E+00  0.51100000000E-03 0.  1.
</event>
<event>
 8    1  0.1126407E+005  0.1043930E+01  0.7957747E-01            NaN
         13   -1    0    0    0    0  0.00000000000E+00  0.00000000000E+00  0.74505805969E-08  0.10566000000E+00  0.10566000000E+00 0. -1.
     999900   -1    0    0    0    0 -0.00000000000E+00 -0.00000000000E+00 -0.74505805969E-08  0.93827000000E+00  0.93827000000E+00 0. -1.
     999902    2    1    2    0    0  0.44808375662E-02  0.20012279305E-01  0.11630867892E-01  0.10203536068E+01  0.10200811912E+01 0.  0.
     999903    2    3    3    0    0 -0.73282216906E-02 -0.12620190401E+00 -0.51274925197E-02  0.12805383435E+00  0.19770429975E-01 0.  0.
         14    1    1    2    0    0 -0.44808375662E-02 -0.20012279305E-01 -0.11630867892E-01  0.23576393197E-01  0.00000000000E+00 0. -1.
     999901    1    3    3    0    0  0.11809059257E-01  0.14621418332E+00  0.16758360412E-01  0.89229977246E+00  0.88000000000E+00 0.  1.
        -11    1    4    4    0    0 -0.94261773747E-02 -0.85453840183E-01 -0.11550760195E-01  0.86746139995E-01  0.51100000000E-03 0. -1.
         11    1    4    4    0    0  0.20979556841E-02 -0.40748063830E-01  0.64232676750E-02  0.41307694350E-01  0.51100000000E-03 0.  1.
</event>
<event>
 8    1  0.1126407E+005  0.1043930E+01  0.7957747E-01            NaN
         13   -1    0    0    0    0  0.00000000000E+00  0.00000000000E+00  0.74505805969E-08  0.10566000000E+00  0.10566000000E+00 0.  1.
     999900   -1    0    0    0    0 -0.00000000000E+00 -0.00000000000E+00 -0.74505805969E-08  0.93827000000E+00  0.93827000000E+00 0. -1.
     999902    2    1    2    0    0 -0.22817775659E-01  0.57373812382E-02  0.49443925444E-03  0.10203967703E+01  0.10201253629E+01 0.  0.
     999903    2    3    3    0    0  0.17611215113E-02 -0.12576897601E+00  0.25868971350E-01  0.12992391218E+00  0.19750503815E-01 0.  0.
         14    1    1    2    0    0  0.22817775659E-01 -0.57373812382E-02 -0.49443925444E-03  0.23533229691E-01  0.00000000000E+00 0. -1.
     999901    1    3    3    0    0 -0.24578897170E-01  0.13150635725E+00 -0.25374532096E-01  0.89047285813E+00  0.88000000000E+00 0. -1.
        -11    1    4    4    0    0  0.29236470732E-03 -0.71886368077E-01  0.24675134014E-01  0.76005649475E-01  0.51100000000E-03 0. -1.
         11    1    4    4    0    0  0.14687568040E-02 -0.53882607937E-01  0.11938373362E-02  0.53918262706E-01  0.51100000000E-03 0.  1.
</event>
<event>
 8    1  0.1126407E+005  0.1043930E+01  0.7957747E-01            NaN
         13   -1    0    0    0    0  0.00000000000E+00  0.00000000000E+00  0.74505805969E-08  0.10566000000E+00  0.10566000000E+00 0.  1.
     999900   -1    0    0    0    0 -0.00000000000E+00 -0.00000000000E+00 -0.74505805969E-08  0.93827000000E+00  0.93827000000E+00 0.  1.
     999902    2    1    2    0    0  0.89491459148E-02 -0.21919352510E-01  0.34014425579E-02  0.10200110736E+01  0.10197305896E+01 0.  0.
     999903    2    3    3    0    0  0.58579110675E-01 -0.23998004528E-01  0.11370739756E+00  0.13173473268E+00  0.20426725264E-01 0.  0.
         14    1    1    2    0    0 -0.89491459148E-02  0.21919352510E-01 -0.34014425579E-02  0.23918926366E-01  0.00000000000E+00 0.  1.
     999901    1    3    3    0    0 -0.49629964760E-01  0.20786520182E-02 -0.11030595500E+00  0.88827634096E+00  0.88000000000E+00 0.  1.
        -11    1    4    4    0    0  0.24046407978E-01 -0.20668946751E-01  0.58071247606E-01  0.66166199951E-01  0.51100000000E-03 0.  1.
         11    1    4    4    0    0  0.34532702697E-01 -0.33290577773E-02  0.55636149952E-01  0.65568532725E-01  0.51100000000E-03 0. -1.
</event>
<event>
 8    1  0.1126407E+005  0.1043930E+01  0.7957747E-01            NaN
         13   -1    0    0    0    0  0.00000000000E+00  0.00000000000E+00  0.74505805969E-08  0.10566000000E+00  0.10566000000E+00 0. -1.
     999900   -1    0    0    0    0 -0.00000000000E+00 -0.00000000000E+00 -0.74505805969E-08  0.93827000000E+00  0.93827000000E+00 0.  1.
     999902    2    1    2    0    0  0.24811504056E-01  0.24302559485E-03 -0.11437806948E-02  0.10190909576E+01  0.10187882026E+01 0.  0.
     999903    2    3    3    0    0 -0.19560748650E-01  0.32340968602E-01  0.12163827566E+00  0.12888052844E+00  0.19640757829E-01 0.  0.
         14    1    1    2    0    0 -0.24811504056E-01 -0.24302559485E-03  0.11437806948E-02  0.24839042438E-01  0.00000000000E+00 0.  1.
     999901    1    3    3    0    0  0.44372252705E-01 -0.32097943007E-01 -0.12278205635E+00  0.89021042912E+00  0.88000000000E+00 0.  1.
        -11    1    4    4    0    0 -0.97333460907E-02  0.18612666038E-02  0.39266680533E-01  0.40501057524E-01  0.51100000000E-03 0.  1.
         11    1    4    4    0    0 -0.98274025590E-02  0.30479701998E-01  0.82371595126E-01  0.88379470916E-01  0.51100000000E-03 0. -1.
</event>
<event>
 8    1  0.1126407E+005  0.1043930E+01  0.7957747E-01            NaN
         13   -1    0    0    0    0  0.00000000000E+00  0.00000000000E+00  0.74505805969E-08  0.10566000000E+00  0.10566000000E+00 0. -1.
     999900   -1    0    0    0    0 -0.00000000000E+00 -0.00000000000E+00 -0.74505805969E-08  0.93827000000E+00  0.93827000000E+00 0. -1.
     999902    2    1    2    0    0  0.19678399470E-01 -0.58120537151E-02 -0.10879597854E-01  0.10207053359E+01  0.10204410800E+01 0.  0.
     999903    2    3    3    0    0  0.87469146765E-01  0.31169776799E-01  0.90818629334E-01  0.13148895579E+00  0.20467423840E-01 0.  0.
         14    1    1    2    0    0 -0.19678399470E-01  0.58120537151E-02  0.10879597854E-01  0.23224664121E-01  0.00000000000E+00 0. -1.
     999901    1    3    3    0    0 -0.67790747295E-01 -0.36981830514E-01 -0.10169822719E+00  0.88921638009E+00  0.88000000000E+00 0. -1.
        -11    1    4    4    0    0  0.46525266329E-01  0.16113157666E-01  0.33930453044E-01  0.59797750975E-01  0.51100000000E-03 0. -1.
         11    1    4    4    0    0  0.40943880436E-01  0.15056619133E-01  0.56888176291E-01  0.71691204813E-01  0.51100000000E-03 0.  1.
</event>
<event>
 8    1  0.1126407E+005  0.1043930E+01  0.7957747E-01            NaN
         13   -1    0    0    0    0  0.00000000000E+00  0.00000000000E+00  0.74505805969E-08  0.10566000000E+00  0.10566000000E+00 0.  1.
     999900   -1    0    0    0    0 -0.00000000000E+00 -0.00000000000E+00 -0.74505805969E-08  0.93827000000E+00  0.93827000000E+00 0. -1.
     999902    2    1    2    0    0  0.69717229622E-02 -0.50737057982E-02  0.22617162886E-01  0.10197249702E+01  0.10194376545E+01 0.  0.
     999903    2    3    3    0    0 -0.74092504847E-01 -0.67155697059E-01 -0.76833354898E-01  0.12825652533E+00  0.23383433097E-01 0.  0.
         14    1    1    2    0    0 -0.69717229622E-02  0.50737057982E-02 -0.22617162886E-01  0.24205029821E-01  0.00000000000E+00 0.  1.
     999901    1    3    3    0    0  0.81064227810E-01  0.62081991261E-01  0.99450517785E-01  0.89146844485E+00  0.88000000000E+00 0.  1.
        -11    1    4    4    0    0 -0.60783040024E-01 -0.41632861762E-01 -0.59032252901E-01  0.94408374293E-01  0.51100000000E-03 0.  1.
         11    1    4    4    0    0 -0.13309464823E-01 -0.25522835297E-01 -0.17801101998E-01  0.33848151040E-01  0.51100000000E-03 0. -1.
</event>
<event>
 8    1  0.1126407E+005  0.1043930E+01  0.7957747E-01            NaN
         13   -1    0    0    0    0  0.00000000000E+00  0.00000000000E+00  0.74505805969E-08  0.10566000000E+00  0.10566000000E+00 0.  1.
     999900   -1    0    0    0    0 -0.00000000000E+00 -0.00000000000E+00 -0.74505805969E-08  0.93827000000E+00  0.93827000000E+00 0.  1.
     999902    2    1    2    0    0  0.58729731614E-02  0.22773798712E-01 -0.39483167549E-03  0.10204078059E+01  0.10201366559E+01 0.  0.
     999903    2    3    3    0    0  0.57255500213E-01  0.97561454051E-01  0.67356700564E-01  0.13315157034E+00  0.19899395792E-01 0.  0.
         14    1    1    2    0    0 -0.58729731614E-02 -0.22773798712E-01  0.39483167549E-03  0.23522194064E-01  0.00000000000E+00 0. -1.
     999901    1    3    3    0    0 -0.51382527052E-01 -0.74787655339E-01 -0.67751532240E-01  0.88725623559E+00  0.88000000000E+00 0. -1.
        -11    1    4    4    0    0  0.24224335982E-01  0.54288856475E-01  0.26523852287E-01  0.65098957382E-01  0.51100000000E-03 0.  1.
         11    1    4    4    0    0  0.33031164231E-01  0.43272597576E-01  0.40832848277E-01  0.68052612962E-01  0.51100000000E-03 0. -1.
</event>
<event>
 8    1  0.1126407E+005  0.1043930E+01  0.7957747E-01            NaN
         13   -1    0    0    0    0  0.00000000000E+00  0.00000000000E+00  0.74505805969E-08  0.10566000000E+00  0.10566000000E+00 0. -1.
     999900   -1    0    0    0    0 -0.00000000000E+00 -0.00000000000E+00 -0.74505805969E-08  0.93827000000E+00  0.93827000000E+00 0. -1.
     999902    2    1    2    0    0 -0.16624939703E-01 -0.15496199608E-01 -0.73074742979E-02  0.10200570026E+01  0.10197776074E+01 0.  0.
     999903    2    3    3    0    0  0.22490167081E-01 -0.11253428435E+00  0.60603708974E-01  0.13126101351E+00  0.19669045651E-01 0.  0.
         14    1    1    2    0    0  0.16624939703E-01  0.15496199608E-01  0.73074742979E-02  0.23872997362E-01  0.00000000000E+00 0. -1.
     999901    1    3    3    0    0 -0.39115106784E-01  0.97038084747E-01 -0.67911183272E-01  0.88879598912E+00  0.88000000000E+00 0. -1.
        -11    1    4    4    0    0  0.19811540148E-01 -0.10226786467E+00  0.60840466830E-01  0.12063596807E+00  0.51100000000E-03 0. -1.
         11    1    4    4    0    0  0.26786269331E-02 -0.10266419689E-01 -0.23675785605E-03  0.10625045447E-01  0.51100000000E-03 0.  1.
</event>
<event>
 8    1  0.1126407E+005  0.1043930E+01  0.7957747E-01            NaN
         13   -1    0    0    0    0  0.00000000000E+00  0.00000000000E+00  0.74505805969E-08  0.10566000000E+00  0.10566000000E+00 0.  1.
     999900   -1    0    0    0    0 -0.00000000000E+00 -0.00000000000E+00 -0.74505805969E-08  0.93827000000E+00  0.93827000000E+00 0. -1.
     999902    2    1    2    0    0  0.36979956668E-02 -0.19343898355E-01  0.11562489096E-01  0.10210924710E+01  0.10208370495E+01 0.  0.
     999903    2    3    3    0    0 -0.29427078932E-02 -0.11644641470E+00  0.63438312941E-01  0.13420798096E+00  0.20467915805E-01 0.  0.
         14    1    1    2    0    0 -0.36979956668E-02  0.19343898355E-01 -0.11562489096E-01  0.22837528973E-01  0.00000000000E+00 0. -1.
     999901    1    3    3    0    0  0.66407035600E-02  0.97102516347E-01 -0.51875823846E-01  0.88688449007E+00  0.88000000000E+00 0.  1.
        -11    1    4    4    0    0  0.30451630070E-02 -0.61187731071E-01  0.43572913969E-01  0.75180259404E-01  0.51100000000E-03 0. -1.
         11    1    4    4    0    0 -0.59878709002E-02 -0.55258683630E-01  0.19865398973E-01  0.59027721554E-01  0.51100000000E-03 0.  1.
</event>
