<event>
 8    1  0.1061721E+005  0.1043930E+01  0.7957747E-01            NaN
         13   -1    0    0    0    0  0.00000000000E+00  0.00000000000E+00  0.74505805969E-08  0.10566000000E+00  0.10566000000E+00 0.  1.
     999900   -1    0    0    0    0 -0.00000000000E+00 -0.00000000000E+00 -0.74505805969E-08  0.93827000000E+00  0.93827000000E+00 0. -1.
     999902    2    1    2    0    0 -0.22633737309E-01  0.25307811150E-02 -0.99965020624E-02  0.10190579078E+01  0.10187543367E+01 0.  0.
     999903    2    3    3    0    0 -0.50019547906E-01 -0.55097975064E-01  0.10398039357E+00  0.12941652560E+00  0.19974304062E-01 0.  0.
         14    1    1    2    0    0  0.22633737309E-01 -0.25307811150E-02  0.99965020624E-02  0.24872092214E-01  0.00000000000E+00 0.  1.
     999901    1    3    3    0    0  0.27385810596E-01  0.57628756179E-01 -0.11397689563E+00  0.88964138219E+00  0.88000000000E+00 0. -1.
        -11    1    4    4    0    0 -0.35607037509E-01 -0.26635332760E-01  0.68809399630E-01  0.81928607151E-01  0.51100000000E-03 0. -1.
         11    1    4    4    0    0 -0.14412510396E-01 -0.28462642304E-01  0.35170993939E-01  0.47487918448E-01  0.51100000000E-03 0.  1.
</event>
<event>
 8    1  0.1061721E+005  0.1043930E+01  0.7957747E-01            NaN
         13   -1    0    0    0    0  0.00000000000E+00  0.00000000000E+00  0.74505805969E-08  0.10566000000E+00  0.10566000000E+00 0.  1.
     999900   -1    0    0    0    0 -0.00000000000E+00 -0.00000000000E+00 -0.74505805969E-08  0.93827000000E+00  0.93827000000E+00 0.  1.
     999902    2    1    2    0    0 -0.13608385811E-01  0.15132369179E-01 -0.12066984204E-01  0.10202701422E+01  0.10199957717E+01 0.  0.
     999903    2    3    3    0    0 -0.79112900900E-01 -0.16873462973E-01 -0.10298986469E+00  0.13258653589E+00  0.20705371969E-01 0.  0.
         14    1    1    2    0    0  0.13608385811E-01 -0.15132369179E-01  0.12066984204E-01  0.23659857757E-01  0.00000000000E+00 0.  1.
     999901    1    3    3    0    0  0.65504515089E-01  0.32005832152E-01  0.90922880490E-01  0.88768360635E+00  0.88000000000E+00 0. -1.
        -11    1    4    4    0    0 -0.40999050383E-01 -0.33923935424E-02 -0.66082290670E-01  0.77843180353E-01  0.51100000000E-03 0.  1.
         11    1    4    4    0    0 -0.38113850517E-01 -0.13481069431E-01 -0.36907574024E-01  0.54743355538E-01  0.51100000000E-03 0. -1.
</event>
<event>
 8    1  0.1061721E+005  0.1043930E+01  0.7957747E-01            NaN
         13   -1    0    0    0    0  0.00000000000E+00  0.00000000000E+00  0.74505805969E-08  0.10566000000E+00  0.10566000000E+00 0.  1.
     999900   -1    0    0    0    0 -0.00000000000E+00 -0.00000000000E+00 -0.74505805969E-08  0.93827000000E+00  0.93827000000E+00 0. -1.
     999902    2    1    2    0    0 -0.25307507312E-01  0.14666577613E-02  0.62453782620E-03  0.10185723373E+01  0.10182566451E+01 0.  0.
     999903    2    3    3    0    0 -0.72999604708E-01  0.10156366356E+00 -0.33048792293E-01  0.13097567218E+00  0.20451992278E-01 0.  0.
         14    1    1    2    0    0  0.25307507312E-01 -0.14666577613E-02 -0.62453782620E-03  0.25357662724E-01  0.00000000000E+00 0.  1.
     999901    1    3    3    0    0  0.47692097396E-01 -0.10009700580E+00  0.33673330119E-01  0.88759666509E+00  0.88000000000E+00 0.  1.
        -11    1    4    4    0    0 -0.46170794369E-01  0.73061211847E-01 -0.14422538293E-01  0.87623933152E-01  0.51100000000E-03 0.  1.
         11    1    4    4    0    0 -0.26828810338E-01  0.28502451715E-01 -0.18626253999E-01  0.43351739031E-01  0.51100000000E-03 0. -1.
</event>
<event>
 8    1  0.1061721E+005  0.1043930E+01  0.7957747E-01            NaN
         13   -1    0    0    0    0  0.00000000000E+00  0.00000000000E+00  0.74505805969E-08  0.10566000000E+00  0.10566000000E+00 0. -1.
     999900   -1    0    0    0    0 -0.00000000000E+00 -0.00000000000E+00 -0.74505805969E-08  0.93827000000E+00  0.93827000000E+00 0.  1.
     999902    2    1    2    0    0 -0.59960766148E-02 -0.85580882159E-02 -0.20410111100E-01  0.10210004025E+01  0.10207428939E+01 0.  0.
     999903    2    3    3    0    0  0.32745073853E-01  0.10366296563E+00 -0.71451295867E-01  0.13156257764E+00  0.19625846433E-01 0.  0.
         14    1    1    2    0    0  0.59960766148E-02  0.85580882159E-02  0.20410111100E-01  0.22929597550E-01  0.00000000000E+00 0. -1.
     999901    1    3    3    0    0 -0.38741150467E-01 -0.11222105385E+00  0.51041184767E-01  0.88943782481E+00  0.88000000000E+00 0.  1.
        -11    1    4    4    0    0  0.24113096398E-01  0.91439453376E-01 -0.67154599508E-01  0.11598541463E+00  0.51100000000E-03 0.  1.
         11    1    4    4    0    0  0.86319774543E-02  0.12223512256E-01 -0.42966963593E-02  0.15577163004E-01  0.51100000000E-03 0. -1.
</event>
<event>
 8    1  0.1061721E+005  0.1043930E+01  0.7957747E-01            NaN
         13   -1    0    0    0    0  0.00000000000E+00  0.00000000000E+00  0.74505805969E-08  0.10566000000E+00  0.10566000000E+00 0. -1.
     999900   -1    0    0    0    0 -0.00000000000E+00 -0.00000000000E+00 -0.74505805969E-08  0.93827000000E+00  0.93827000000E+00 0. -1.
     999902    2    1    2    0    0  0.29962977032E-03 -0.19093633755E-01 -0.16232471403E-01  0.10188670841E+01  0.10185587785E+01 0.  0.
     999903    2    3    3    0    0 -0.69077085625E-01  0.28635225652E-01  0.10089126879E+00  0.12712208509E+00  0.19732118304E-01 0.  0.
         14    1    1    2    0    0 -0.29962977032E-03  0.19093633755E-01  0.16232471403E-01  0.25062915948E-01  0.00000000000E+00 0. -1.
     999901    1    3    3    0    0  0.69376715395E-01 -0.47728859407E-01 -0.11712374019E+00  0.89174499896E+00  0.88000000000E+00 0. -1.
        -11    1    4    4    0    0 -0.36075090485E-01  0.10918935980E-01  0.35602999848E-01  0.51850458394E-01  0.51100000000E-03 0. -1.
         11    1    4    4    0    0 -0.33001995140E-01  0.17716289672E-01  0.65288268942E-01  0.75271626695E-01  0.51100000000E-03 0.  1.
</event>
<event>
 8    1  0.1061721E+005  0.1043930E+01  0.7957747E-01            NaN
         13   -1    0    0    0    0  0.00000000000E+00  0.00000000000E+00  0.74505805969E-08  0.10566000000E+00  0.10566000000E+00 0. -1.
     999900   -1    0    0    0    0 -0.00000000000E+00 -0.00000000000E+00 -0.74505805969E-08  0.93827000000E+00  0.93827000000E+00 0.  1.
     999902    2    1    2    0    0  0.23011838607E-01 -0.24908329436E-02 -0.22221273265E-02  0.10206773267E+01  0.10204124257E+01 0.  0.
     999903    2    3    3    0    0 -0.73948211134E-01 -0.76201624007E-01  0.70996546079E-01  0.12927645949E+00  0.19921545913E-01 0.  0.
         14    1    1    2    0    0 -0.23011838607E-01  0.24908329436E-02  0.22221273265E-02  0.23252673281E-01  0.00000000000E+00 0.  1.
     999901    1    3    3    0    0  0.96960049741E-01  0.73710791063E-01 -0.73218673405E-01  0.89140086723E+00  0.88000000000E+00 0. -1.
        -11    1    4    4    0    0 -0.64287733733E-01 -0.72817489085E-01  0.68086042917E-01  0.11862238316E+00  0.51100000000E-03 0.  1.
         11    1    4    4    0    0 -0.96604774012E-02 -0.33841349222E-02  0.29105031615E-02  0.10654076330E-01  0.51100000000E-03 0. -1.
</event>
<event>
 8    1  0.1061721E+005  0.1043930E+01  0.7957747E-01            NaN
         13   -1    0    0    0    0  0.00000000000E+00  0.00000000000E+00  0.74505805969E-08  0.10566000000E+00  0.10566000000E+00 0.  1.
     999900   -1    0    0    0    0 -0.00000000000E+00 -0.00000000000E+00 -0.74505805969E-08  0.93827000000E+00  0.93827000000E+00 0. -1.
     999902    2    1    2    0    0 -0.74039081376E-02  0.14572270027E-01  0.16027595439E-01  0.10210378021E+01  0.10207811424E+01 0.  0.
     999903    2    3    3    0    0 -0.93887476823E-01  0.28852656003E-01 -0.84295813515E-01  0.13101076685E+00  0.20265803519E-01 0.  0.
         14    1    1    2    0    0  0.74039081376E-02 -0.14572270027E-01 -0.16027595439E-01  0.22892197907E-01  0.00000000000E+00 0. -1.
     999901    1    3    3    0    0  0.86483568686E-01 -0.14280385976E-01  0.10032340895E+00  0.89002703524E+00  0.88000000000E+00 0.  1.
        -11    1    4    4    0    0 -0.26546634546E-01  0.17781534928E-01 -0.24362202035E-01  0.40183140732E-01  0.51100000000E-03 0.  1.
         11    1    4    4    0    0 -0.67340842277E-01  0.11071121075E-01 -0.59933611480E-01  0.90827626120E-01  0.51100000000E-03 0. -1.
</event>
<event>
 8    1  0.1061721E+005  0.1043930E+01  0.7957747E-01            NaN
         13   -1    0    0    0    0  0.00000000000E+00  0.00000000000E+00  0.74505805969E-08  0.10566000000E+00  0.10566000000E+00 0. -1.
     999900   -1    0    0    0    0 -0.00000000000E+00 -0.00000000000E+00 -0.74505805969E-08  0.93827000000E+00  0.93827000000E+00 0.  1.
     999902    2    1    2    0    0 -0.14864704153E-01 -0.93830805599E-02  0.14844465931E-01  0.10209221796E+01  0.10206628910E+01 0.  0.
     999903    2    3    3    0    0  0.78361226251E-01  0.10048892819E+00 -0.55083202861E-02  0.12897085341E+00  0.19095365110E-01 0.  0.
         14    1    1    2    0    0  0.14864704153E-01  0.93830805599E-02 -0.14844465931E-01  0.23007820391E-01  0.00000000000E+00 0. -1.
     999901    1    3    3    0    0 -0.93225930404E-01 -0.10987200875E+00  0.20352786217E-01  0.89195132620E+00  0.88000000000E+00 0. -1.
        -11    1    4    4    0    0  0.30601690770E-01  0.26335720169E-01  0.21569662411E-02  0.40434481067E-01  0.51100000000E-03 0. -1.
         11    1    4    4    0    0  0.47759535481E-01  0.74153208018E-01 -0.76652865272E-02  0.88536372341E-01  0.51100000000E-03 0.  1.
</event>
<event>
 8    1  0.1061721E+005  0.1043930E+01  0.7957747E-01            NaN
         13   -1    0    0    0    0  0.00000000000E+00  0.00000000000E+00  0.74505805969E-08  0.10566000000E+00  0.10566000000E+00 0. -1.
     999900   -1    0    0    0    0 -0.00000000000E+00 -0.00000000000E+00 -0.74505805969E-08  0.93827000000E+00  0.93827000000E+00 0. -1.
     999902    2    1    2    0    0 -0.23416436952E-01 -0.39930624260E-02 -0.64878716530E-02  0.10193054889E+01  0.10190080045E+01 0.  0.
     999903    2    3    3    0    0 -0.67095029395E-01 -0.10978961288E+00 -0.17048718115E-01  0.13183027181E+00  0.23088085862E-01 0.  0.
         14    1    1    2    0    0  0.23416436952E-01  0.39930624260E-02  0.64878716530E-02  0.24624511074E-01  0.00000000000E+00 0. -1.
     999901    1    3    3    0    0  0.43678592444E-01  0.10579655045E+00  0.10560846462E-01  0.88747521712E+00  0.88000000000E+00 0. -1.
        -11    1    4    4    0    0 -0.43871577053E-01 -0.79408880250E-01 -0.20384198880E-02  0.90746359775E-01  0.51100000000E-03 0. -1.
         11    1    4    4    0    0 -0.23223452343E-01 -0.30380732631E-01 -0.15010298227E-01  0.41083912031E-01  0.51100000000E-03 0.  1.
</event>
<event>
 8    1  0.1061721E+005  0.1043930E+01  0.7957747E-01            NaN
         13   -1    0    0    0    0  0.00000000000E+00  0.00000000000E+00  0.74505805969E-08  0.10566000000E+00  0.10566000000E+00 0.  1.
     999900   -1    0    0    0    0 -0.00000000000E+00 -0.00000000000E+00 -0.74505805969E-08  0.93827000000E+00  0.93827000000E+00 0. -1.
     999902    2    1    2    0    0  0.28913682251E-02  0.19177051374E-01  0.13829006579E-01  0.10201106647E+01  0.10198325390E+01 0.  0.
     999903    2    3    3    0    0 -0.71183302179E-01 -0.84310897217E-01 -0.61400212629E-01  0.12777874906E+00  0.19545656874E-01 0.  0.
         14    1    1    2    0    0 -0.28913682251E-02 -0.19177051374E-01 -0.13829006579E-01  0.23819335268E-01  0.00000000000E+00 0. -1.
     999901    1    3    3    0    0  0.74074670405E-01  0.10348794859E+00  0.75229219208E-01  0.89233191567E+00  0.88000000000E+00 0.  1.
        -11    1    4    4    0    0 -0.11145693691E-01 -0.26247355555E-01 -0.14687476222E-01  0.32080106612E-01  0.51100000000E-03 0. -1.
         11    1    4    4    0    0 -0.60037608489E-01 -0.58063541662E-01 -0.46712736407E-01  0.95698642451E-01  0.51100000000E-03 0.  1.
</event>
<event>
 8    1  0.1061721E+005  0.1043930E+01  0.7957747E-01            NaN
         13   -1    0    0    0    0  0.00000000000E+00  0.00000000000E+00  0.74505805969E-08  0.10566000000E+00  0.10566000000E+00 0. -1.
     999900   -1    0    0    0    0 -0.00000000000E+00 -0.00000000000E+00 -0.74505805969E-08  0.93827000000E+00  0.93827000000E+00 0.  1.
     999902    2    1    2    0    0 -0.22277159615E-01  0.23626531659E-02  0.77722204114E-02  0.10202179486E+01  0.10199423520E+01 0.  0.
     999903    2    3    3    0    0  0.83959308018E-01 -0.86668142702E-01  0.39957666384E-01  0.12878731610E+00  0.20712926459E-01 0.  0.
         14    1    1    2    0    0  0.22277159615E-01 -0.23626531659E-02 -0.77722204114E-02  0.23712051379E-01  0.00000000000E+00 0.  1.
     999901    1    3    3    0    0 -0.10623646763E+00  0.89030795868E-01 -0.32185445972E-01  0.89143063252E+00  0.88000000000E+00 0.  1.
        -11    1    4    4    0    0  0.35066331671E-01 -0.31272209173E-01  0.56625946299E-02  0.47327843627E-01  0.51100000000E-03 0. -1.
         11    1    4    4    0    0  0.48892976348E-01 -0.55395933529E-01  0.34295071754E-01  0.81459472471E-01  0.51100000000E-03 0.  1.
</event>
<event>
 8    1  0.1061721E+005  0.1043930E+01  0.7957747E-01            NaN
         13   -1    0    0    0    0  0.00000000000E+00  0.00000000000E+00  0.74505805969E-08  0.10566000000E+00  0.10566000000E+00 0.  1.
     999900   -1    0    0    0    0 -0.00000000000E+00 -0.00000000000E+00 -0.74505805969E-08  0.93827000000E+00  0.93827000000E+00 0.  1.
     999902    2    1    2    0    0  0.21186931185E-01  0.88492619113E-02 -0.62364217905E-02  0.10201373867E+01  0.10198598920E+01 0.  0.
     999903    2    3    3    0    0 -0.23180617873E-01 -0.96707735736E-01  0.79044494552E-01  0.12863102453E+00  0.20203493639E-01 0.  0.
         14    1    1    2    0    0 -0.21186931185E-01 -0.88492619113E-02  0.62364217905E-02  0.23792613269E-01  0.00000000000E+00 0. -1.
     999901    1    3    3    0    0  0.44367549058E-01  0.10555699765E+00 -0.85280916343E-01  0.89150636221E+00  0.88000000000E+00 0.  1.
        -11    1    4    4    0    0 -0.33440524515E-02 -0.49780989981E-01  0.31941565353E-01  0.59244023905E-01  0.51100000000E-03 0.  1.
         11    1    4    4    0    0 -0.19836565422E-01 -0.46926745755E-01  0.47102929199E-01  0.69387000620E-01  0.51100000000E-03 0. -1.
</event>
<event>
 8    1  0.1283302E+005  0.1043930E+01  0.7957747E-01            NaN
         13   -1    0    0    0    0  0.00000000000E+00  0.00000000000E+00  0.74505805969E-08  0.10566000000E+00  0.10566000000E+00 0.  1.
     999900   -1    0    0    0    0 -0.00000000000E+00 -0.00000000000E+00 -0.74505805969E-08  0.93827000000E+00  0.93827000000E+00 0.  1.
     999902    2    1    2    0    0  0.60553259341E-02 -0.23391680211E-01 -0.10081998664E-02  0.10197462422E+01  0.10194594373E+01 0.  0.
     999903    2    3    3    0    0  0.35945514150E-01  0.10639614058E+00  0.57697511996E-01  0.12779071505E+00  0.19729299137E-01 0.  0.
         14    1    1    2    0    0 -0.60553259341E-02  0.23391680211E-01  0.10081998664E-02  0.24183757819E-01  0.00000000000E+00 0. -1.
     999901    1    3    3    0    0 -0.29890188216E-01 -0.12978782079E+00 -0.58705711863E-01  0.89195552713E+00  0.88000000000E+00 0. -1.
        -11    1    4    4    0    0  0.88286733045E-02  0.51883567583E-01  0.32762349706E-01  0.61995828381E-01  0.51100000000E-03 0.  1.
         11    1    4    4    0    0  0.27116840845E-01  0.54512572996E-01  0.24935162291E-01  0.65794886667E-01  0.51100000000E-03 0. -1.
</event>
<event>
 8    1  0.1061721E+005  0.1043930E+01  0.7957747E-01            NaN
         13   -1    0    0    0    0  0.00000000000E+00  0.00000000000E+00  0.74505805969E-08  0.10566000000E+00  0.10566000000E+00 0.  1.
     999900   -1    0    0    0    0 -0.00000000000E+00 -0.00000000000E+00 -0.74505805969E-08  0.93827000000E+00  0.93827000000E+00 0. -1.
     999902    2    1    2    0    0 -0.70486642594E-02  0.17491800040E-01  0.10849862530E-01  0.10221730183E+01  0.10219414431E+01 0.  0.
     999903    2    3    3    0    0 -0.75662104740E-01  0.10647011042E+00  0.27006746693E-01  0.13488164064E+00  0.20076207519E-01 0.  0.
         14    1    1    2    0    0  0.70486642594E-02 -0.17491800040E-01 -0.10849862530E-01  0.21756981716E-01  0.00000000000E+00 0.  1.
     999901    1    3    3    0    0  0.68613440481E-01 -0.88978310381E-01 -0.16156884163E-01  0.88729137764E+00  0.88000000000E+00 0. -1.
        -11    1    4    4    0    0 -0.19792772056E-01  0.29598803244E-01 -0.15765350217E-02  0.35645330168E-01  0.51100000000E-03 0. -1.
         11    1    4    4    0    0 -0.55869332684E-01  0.76871307177E-01  0.28583281714E-01  0.99236310473E-01  0.51100000000E-03 0.  1.
</event>
<event>
 8    1  0.1061721E+005  0.1043930E+01  0.7957747E-01            NaN
         13   -1    0    0    0    0  0.00000000000E+00  0.00000000000E+00  0.74505805969E-08  0.10566000000E+00  0.10566000000E+00 0.  1.
     999900   -1    0    0    0    0 -0.00000000000E+00 -0.00000000000E+00 -0.74505805969E-08  0.93827000000E+00  0.93827000000E+00 0.  1.
     999902    2    1    2    0    0 -0.18915140417E-02  0.23381473856E-01  0.35830138231E-02  0.10202000794E+01  0.10199240623E+01 0.  0.
     999903    2    3    3    0    0  0.11891554797E+00  0.24668814501E-01 -0.44321970235E-01  0.13065475114E+00  0.18888329550E-01 0.  0.
         14    1    1    2    0    0  0.18915140417E-02 -0.23381473856E-01 -0.35830138231E-02  0.23729920630E-01  0.00000000000E+00 0.  1.
     999901    1    3    3    0    0 -0.12080706201E+00 -0.12873406458E-02  0.47904984058E-01  0.88954532823E+00  0.88000000000E+00 0. -1.
        -11    1    4    4    0    0  0.69401036043E-01  0.13162432124E-01 -0.15880625930E-01  0.72403099548E-01  0.51100000000E-03 0. -1.
         11    1    4    4    0    0  0.49514511923E-01  0.11506382378E-01 -0.28441344305E-01  0.58251651593E-01  0.51100000000E-03 0.  1.
</event>
<event>
 8    1  0.1061721E+005  0.1043930E+01  0.7957747E-01            NaN
         13   -1    0    0    0    0  0.00000000000E+00  0.00000000000E+00  0.74505805969E-08  0.10566000000E+00  0.10566000000E+00 0.  1.
     999900   -1    0    0    0    0 -0.00000000000E+00 -0.00000000000E+00 -0.74505805969E-08  0.93827000000E+00  0.93827000000E+00 0.  1.
     999902    2    1    2    0    0 -0.23533366134E-01 -0.23889346143E-02  0.23749326090E-02  0.10201567664E+01  0.10198797289E+01 0.  0.
     999903    2    3    3    0    0 -0.80051325847E-01  0.92858923706E-01  0.44875354248E-01  0.13219690239E+00  0.20766056442E-01 0.  0.
         14    1    1    2    0    0  0.23533366134E-01  0.23889346143E-02 -0.23749326090E-02  0.23773233585E-01  0.00000000000E+00 0. -1.
     999901    1    3    3    0    0  0.56517959713E-01 -0.95247858320E-01 -0.42500421639E-01  0.88795986403E+00  0.88000000000E+00 0.  1.
        -11    1    4    4    0    0 -0.31897509759E-01  0.25413732316E-01  0.21416804447E-01  0.46067879838E-01  0.51100000000E-03 0. -1.
         11    1    4    4    0    0 -0.48153816088E-01  0.67445191390E-01  0.23458549802E-01  0.86129022549E-01  0.51100000000E-03 0.  1.
</event>
<event>
 8    1  0.1061721E+005  0.1043930E+01  0.7957747E-01            NaN
         13   -1    0    0    0    0  0.00000000000E+00  0.00000000000E+00  0.74505805969E-08  0.10566000000E+00  0.10566000000E+00 0.  1.
     999900   -1    0    0    0    0 -0.00000000000E+00 -0.00000000000E+00 -0.74505805969E-08  0.93827000000E+00  0.93827000000E+00 0.  1.
     999902    2    1    2    0    0 -0.20167732479E-01  0.42225881838E-02 -0.11150948486E-01  0.10205011431E+01  0.10202321656E+01 0.  0.
     999903    2    3    3    0    0  0.10473890008E+00 -0.69087557679E-01  0.15634319156E-01  0.12826042730E+00  0.21516910979E-01 0.  0.
         14    1    1    2    0    0  0.20167732479E-01 -0.42225881838E-02  0.11150948486E-01  0.23428856918E-01  0.00000000000E+00 0.  1.
     999901    1    3    3    0    0 -0.12490663256E+00  0.73310145863E-01 -0.26785267642E-01  0.89224071579E+00  0.88000000000E+00 0. -1.
        -11    1    4    4    0    0  0.66185069784E-01 -0.50625218497E-01  0.18700679895E-01  0.85401128562E-01  0.51100000000E-03 0. -1.
         11    1    4    4    0    0  0.38553830299E-01 -0.18462339182E-01 -0.30663607385E-02  0.42859298734E-01  0.51100000000E-03 0.  1.
</event>
<event>
 8    1  0.1061721E+005  0.1043930E+01  0.7957747E-01            NaN
         13   -1    0    0    0    0  0.00000000000E+00  0.00000000000E+00  0.74505805969E-08  0.10566000000E+00  0.10566000000E+00 0.  1.
     999900   -1    0    0    0    0 -0.00000000000E+00 -0.00000000000E+00 -0.74505805969E-08  0.93827000000E+00  0.93827000000E+00 0.  1.
     999902    2    1    2    0    0 -0.22242356167E-01  0.89656488302E-02  0.89215648098E-03  0.10199320582E+01  0.10196496958E+01 0.  0.
     999903    2    3    3    0    0 -0.11552401175E+00  0.61155579578E-01 -0.15966552975E-01  0.13330391055E+00  0.20717131827E-01 0.  0.
         14    1    1    2    0    0  0.22242356167E-01 -0.89656488302E-02 -0.89215648098E-03  0.23997941786E-01  0.00000000000E+00 0. -1.
     999901    1    3    3    0    0  0.93281655581E-01 -0.52189930748E-01  0.16858709456E-01  0.88662814766E+00  0.88000000000E+00 0. -1.
        -11    1    4    4    0    0 -0.57122773456E-01  0.34560185117E-01  0.15449992822E-02  0.66783723963E-01  0.51100000000E-03 0.  1.
         11    1    4    4    0    0 -0.58401238292E-01  0.26595394462E-01 -0.17511552257E-01  0.66520186590E-01  0.51100000000E-03 0. -1.
</event>
<event>
 8    1  0.1061721E+005  0.1043930E+01  0.7957747E-01            NaN
         13   -1    0    0    0    0  0.00000000000E+00  0.00000000000E+00  0.74505805969E-08  0.10566000000E+00  0.10566000000E+00 0.  1.
     999900   -1    0    0    0    0 -0.00000000000E+00 -0.00000000000E+00 -0.74505805969E-08  0.93827000000E+00  0.93827000000E+00 0.  1.
     999902    2    1    2    0    0  0.14748839365E-01 -0.17627373617E-01 -0.92477389140E-02  0.10191555527E+01  0.10188543897E+01 0.  0.
     999903    2    3    3    0    0  0.95853464394E-01  0.25270824111E-01 -0.83493671181E-01  0.13127567682E+00  0.20871248373E-01 0.  0.
         14    1    1    2    0    0 -0.14748839365E-01  0.17627373617E-01  0.92477389140E-02  0.24774447285E-01  0.00000000000E+00 0. -1.
     999901    1    3    3    0    0 -0.81104625029E-01 -0.42898197728E-01  0.74245932267E-01  0.88787987590E+00  0.88000000000E+00 0.  1.
        -11    1    4    4    0    0  0.36478887647E-01  0.44570343208E-02 -0.42464222901E-01  0.56160891611E-01  0.51100000000E-03 0.  1.
         11    1    4    4    0    0  0.59374576747E-01  0.20813789790E-01 -0.41029448279E-01  0.75114785205E-01  0.51100000000E-03 0. -1.
</event>
<event>
 8    1  0.1061721E+005  0.1043930E+01  0.7957747E-01            NaN
         13   -1    0    0    0    0  0.00000000000E+00  0.00000000000E+00  0.74505805969E-08  0.10566000000E+00  0.10566000000E+00 0.  1.
     999900   -1    0    0    0    0 -0.00000000000E+00 -0.00000000000E+00 -0.74505805969E-08  0.93827000000E+00  0.93827000000E+00 0.  1.
     999902    2    1    2    0    0  0.80837156473E-03  0.22735887063E-01 -0.45099221117E-02  0.10207370394E+01  0.10204735127E+01 0.  0.
     999903    2    3    3    0    0  0.56440807609E-01 -0.51467018230E-01 -0.10365920798E+00  0.13032611178E+00  0.20130704993E-01 0.  0.
         14    1    1    2    0    0 -0.80837156473E-03 -0.22735887063E-01  0.45099221117E-02  0.23192960625E-01  0.00000000000E+00 0.  1.
     999901    1    3    3    0    0 -0.55632436044E-01  0.74202905293E-01  0.99149285867E-01  0.89041092760E+00  0.88000000000E+00 0. -1.
        -11    1    4    4    0    0  0.18364869465E-01 -0.30152043197E-01 -0.48534173352E-01  0.60018674122E-01  0.51100000000E-03 0. -1.
         11    1    4    4    0    0  0.38075938145E-01 -0.21314975033E-01 -0.55125034626E-01  0.70307437656E-01  0.51100000000E-03 0.  1.
</event>
<event>
 8    1  0.1061721E+005  0.1043930E+01  0.7957747E-01            NaN
         13   -1    0    0    0    0  0.00000000000E+00  0.00000000000E+00  0.74505805969E-08  0.10566000000E+00  0.10566000000E+00 0. -1.
     999900   -1    0    0    0    0 -0.00000000000E+00 -0.00000000000E+00 -0.74505805969E-08  0.93827000000E+00  0.93827000000E+00 0.  1.
     999902    2    1    2    0    0 -0.18483942015E-02 -0.22046939236E-01  0.85214908862E-02  0.10202213539E+01  0.10199458374E+01 0.  0.
     999903    2    3    3    0    0  0.75661843536E-01  0.82973901340E-01 -0.58269349391E-01  0.12809006862E+00  0.20059056062E-01 0.  0.
         14    1    1    2    0    0  0.18483942015E-02  0.22046939236E-01 -0.85214908862E-02  0.23708646054E-01  0.00000000000E+00 0. -1.
     999901    1    3    3    0    0 -0.77510237738E-01 -0.10502084058E+00  0.66790840277E-01  0.89213128532E+00  0.88000000000E+00 0. -1.
        -11    1    4    4    0    0  0.14073157620E-01  0.20016803818E-01 -0.21759971264E-01  0.32748796480E-01  0.51100000000E-03 0.  1.
         11    1    4    4    0    0  0.61588685917E-01  0.62957097522E-01 -0.36509378127E-01  0.95341272141E-01  0.51100000000E-03 0. -1.
</event>
<event>
 8    1  0.1061721E+005  0.1043930E+01  0.7957747E-01            NaN
         13   -1    0    0    0    0  0.00000000000E+00  0.00000000000E+00  0.74505805969E-08  0.10566000000E+00  0.10566000000E+00 0. -1.
     999900   -1    0    0    0    0 -0.00000000000E+00 -0.00000000000E+00 -0.74505805969E-08  0.93827000000E+00  0.93827000000E+00 0. -1.
     999902    2    1    2    0    0  0.20362160799E-01 -0.11162948803E-01  0.38856636996E-02  0.10203858415E+01  0.10201141789E+01 0.  0.
     999903    2    3    3    0    0 -0.11811596142E+00  0.15594422256E-01  0.43166142178E-01  0.12828993675E+00  0.20010639447E-01 0.  0.
         14    1    1    2    0    0 -0.20362160799E-01  0.11162948803E-01 -0.38856636996E-02  0.23544158528E-01  0.00000000000E+00 0.  1.
     999901    1    3    3    0    0  0.13847812222E+00 -0.26757371059E-01 -0.39280478479E-01  0.89209590473E+00  0.88000000000E+00 0. -1.
        -11    1    4    4    0    0 -0.57180437412E-01  0.17309572660E-01  0.24011018812E-01  0.64389547860E-01  0.51100000000E-03 0. -1.
         11    1    4    4    0    0 -0.60935524012E-01 -0.17151504033E-02  0.19155123366E-01  0.63900388886E-01  0.51100000000E-03 0.  1.
</event>
<event>
 8    1  0.1061721E+005  0.1043930E+01  0.7957747E-01            NaN
         13   -1    0    0    0    0  0.00000000000E+00  0.00000000000E+00  0.74505805969E-08  0.10566000000E+00  0.10566000000E+00 0.  1.
     999900   -1    0    0    0    0 -0.00000000000E+00 -0.00000000000E+00 -0.74505805969E-08  0.93827000000E+00  0.93827000000E+00 0.  1.
     999902    2    1    2    0    0 -0.10666465176E-01  0.10454482109E-01  0.21331342789E-01  0.10178897262E+01  0.10175565826E+01 0.  0.
     999903    2    3    3    0    0 -0.84277524340E-01  0.35071899812E-01 -0.86739146624E-01  0.12788757114E+00  0.22334100168E-01 0.  0.
         14    1    1    2    0    0  0.10666465176E-01 -0.10454482109E-01 -0.21331342789E-01  0.26040273822E-01  0.00000000000E+00 0. -1.
     999901    1    3    3    0    0  0.73611059164E-01 -0.24617417704E-01  0.10807048941E+00  0.89000215504E+00  0.88000000000E+00 0. -1.
        -11    1    4    4    0    0 -0.61480833049E-01  0.21921637187E-01 -0.73902728302E-01  0.98601852827E-01  0.51100000000E-03 0. -1.
         11    1    4    4    0    0 -0.22796691291E-01  0.13150262626E-01 -0.12836418322E-01  0.29285718316E-01  0.51100000000E-03 0.  1.
</event>
<event>
 8    1  0.1061721E+005  0.1043930E+01  0.7957747E-01            NaN
         13   -1    0    0    0    0  0.00000000000E+00  0.00000000000E+00  0.74505805969E-08  0.10566000000E+00  0.10566000000E+00 0. -1.
     999900   -1    0    0    0    0 -0.00000000000E+00 -0.00000000000E+00 -0.74505805969E-08  0.93827000000E+00  0.93827000000E+00 0. -1.
     999902    2    1    2    0    0  0.19555904138E-02 -0.21383973863E-01  0.84852266824E-02  0.10208410905E+01  0.10205799499E+01 0.  0.
     999903    2    3    3    0    0  0.15852163650E-01  0.11487693384E+00  0.53263119287E-01  0.12912072544E+00  0.19677419568E-01 0.  0.
         14    1    1    2    0    0 -0.19555904138E-02  0.21383973863E-01 -0.84852266824E-02  0.23088909543E-01  0.00000000000E+00 0. -1.
     999901    1    3    3    0    0 -0.13896573236E-01 -0.13626090771E+00 -0.44777892604E-01  0.89172036502E+00  0.88000000000E+00 0. -1.
        -11    1    4    4    0    0  0.19920802348E-01  0.89354203875E-01  0.44780340176E-01  0.10191443521E+00  0.51100000000E-03 0.  1.
         11    1    4    4    0    0 -0.40686386983E-02  0.25522729968E-01  0.84827791108E-02  0.27206290235E-01  0.51100000000E-03 0. -1.
</event>
<event>
 8    1  0.1061721E+005  0.1043930E+01  0.7957747E-01            NaN
         13   -1    0    0    0    0  0.00000000000E+00  0.00000000000E+00  0.74505805969E-08  0.10566000000E+00  0.10566000000E+00 0.  1.
     999900   -1    0    0    0    0 -0.00000000000E+00 -0.00000000000E+00 -0.74505805969E-08  0.93827000000E+00  0.93827000000E+00 0. -1.
     999902    2    1    2    0    0 -0.20162858209E-01 -0.44775992143E-02 -0.11270098698E-01  0.10204011906E+01  0.10201298863E+01 0.  0.
     999903    2    3    3    0    0 -0.82645058325E-01 -0.24235448412E-02  0.99931156379E-01  0.13120269557E+00  0.19794748692E-01 0.  0.
         14    1    1    2    0    0  0.20162858209E-01  0.44775992143E-02  0.11270098698E-01  0.23528809374E-01  0.00000000000E+00 0.  1.
     999901    1    3    3    0    0  0.62482200115E-01 -0.20540543730E-02 -0.11120125508E+00  0.88919849505E+00  0.88000000000E+00 0. -1.
        -11    1    4    4    0    0 -0.14939219312E-01 -0.38706827212E-02  0.30649657213E-01  0.34319456095E-01  0.51100000000E-03 0.  1.
         11    1    4    4    0    0 -0.67705839012E-01  0.14471378799E-02  0.69281499166E-01  0.96883239480E-01  0.51100000000E-03 0. -1.
</event>
<event>
 8    1  0.1061721E+005  0.1043930E+01  0.7957747E-01            NaN
         13   -1    0    0    0    0  0.00000000000E+00  0.00000000000E+00  0.74505805969E-08  0.10566000000E+00  0.10566000000E+00 0.  1.
     999900   -1    0    0    0    0 -0.00000000000E+00 -0.00000000000E+00 -0.74505805969E-08  0.93827000000E+00  0.93827000000E+00 0. -1.
     999902    2    1    2    0    0 -0.94189305398E-02  0.10245945328E-01 -0.19351714359E-01  0.10200933791E+01  0.10198148447E+01 0.  0.
     999903    2    3    3    0    0  0.46148609714E-01  0.97274755435E-01 -0.74436501777E-01  0.13234561134E+00  0.19557500394E-01 0.  0.
         14    1    1    2    0    0  0.94189305398E-02 -0.10245945328E-01  0.19351714359E-01  0.23836620919E-01  0.00000000000E+00 0.  1.
     999901    1    3    3    0    0 -0.55567540254E-01 -0.87028810107E-01  0.55084787418E-01  0.88774776774E+00  0.88000000000E+00 0. -1.
        -11    1    4    4    0    0  0.15079841844E-01  0.45704118254E-01 -0.42409047066E-01  0.64148705750E-01  0.51100000000E-03 0. -1.
         11    1    4    4    0    0  0.31068767871E-01  0.51570637181E-01 -0.32027454711E-01  0.68196905594E-01  0.51100000000E-03 0.  1.
</event>
<event>
 8    1  0.1061721E+005  0.1043930E+01  0.7957747E-01            NaN
         13   -1    0    0    0    0  0.00000000000E+00  0.00000000000E+00  0.74505805969E-08  0.10566000000E+00  0.10566000000E+00 0. -1.
     999900   -1    0    0    0    0 -0.00000000000E+00 -0.00000000000E+00 -0.74505805969E-08  0.93827000000E+00  0.93827000000E+00 0.  1.
     999902    2    1    2    0    0  0.17583497638E-01  0.10585540622E-01  0.13062176264E-01  0.10196019605E+01  0.10193116816E+01 0.  0.
     999903    2    3    3    0    0 -0.68686445866E-01  0.10752324546E+00 -0.11848880985E-01  0.12973681194E+00  0.20301926786E-01 0.  0.
         14    1    1    2    0    0 -0.17583497638E-01 -0.10585540622E-01 -0.13062176264E-01  0.24328039547E-01  0.00000000000E+00 0.  1.
     999901    1    3    3    0    0  0.86269943504E-01 -0.96937704836E-01  0.24911057249E-01  0.88986514852E+00  0.88000000000E+00 0. -1.
        -11    1    4    4    0    0 -0.53283232339E-01  0.65921933580E-01 -0.58135447672E-02  0.84963889972E-01  0.51100000000E-03 0.  1.
         11    1    4    4    0    0 -0.15403213526E-01  0.41601311878E-01 -0.60353362175E-02  0.44772921964E-01  0.51100000000E-03 0. -1.
</event>
<event>
 8    1  0.1061721E+005  0.1043930E+01  0.7957747E-01            NaN
         13   -1    0    0    0    0  0.00000000000E+00  0.00000000000E+00  0.74505805969E-08  0.10566000000E+00  0.10566000000E+00 0.  1.
     999900   -1    0    0    0    0 -0.00000000000E+00 -0.00000000000E+00 -0.74505805969E-08  0.93827000000E+00  0.93827000000E+00 0. -1.
     999902    2    1    2    0    0 -0.72067991753E-02  0.19259155227E-01  0.11207322164E-01  0.10205108394E+01  0.10202420871E+01 0.  0.
     999903    2    3    3    0    0 -0.11023921364E+00 -0.17530046496E-01  0.67353651443E-01  0.13196059651E+00  0.20422975177E-01 0.  0.
         14    1    1    2    0    0  0.72067991753E-02 -0.19259155227E-01 -0.11207322164E-01  0.23419160628E-01  0.00000000000E+00 0. -1.
     999901    1    3    3    0    0  0.10303241447E+00  0.36789201723E-01 -0.56146329279E-01  0.88855024286E+00  0.88000000000E+00 0. -1.
        -11    1    4    4    0    0 -0.47162189406E-01 -0.10700081848E-01  0.18101410677E-01  0.51639965633E-01  0.51100000000E-03 0. -1.
         11    1    4    4    0    0 -0.63077024234E-01 -0.68299646477E-02  0.49252240767E-01  0.80320630879E-01  0.51100000000E-03 0.  1.
</event>
<event>
 8    1  0.1061721E+005  0.1043930E+01  0.7957747E-01            NaN
         13   -1    0    0    0    0  0.00000000000E+00  0.00000000000E+00  0.74505805969E-08  0.10566000000E+00  0.10566000000E+00 0. -1.
     999900   -1    0    0    0    0 -0.00000000000E+00 -0.00000000000E+00 -0.74505805969E-08  0.93827000000E+00  0.93827000000E+00 0. -1.
     999902    2    1    2    0    0 -0.11750871316E-01 -0.14939708055E-01 -0.12869031869E-01  0.10209759190E+01  0.10207178539E+01 0.  0.
     999903    2    3    3    0    0  0.20282428037E-01  0.85857545686E-01 -0.94685562504E-01  0.13087470941E+00  0.19492018297E-01 0.  0.
         14    1    1    2    0    0  0.11750871316E-01  0.14939708055E-01  0.12869031869E-01  0.22954081003E-01  0.00000000000E+00 0. -1.
     999901    1    3    3    0    0 -0.32033299353E-01 -0.10079725374E+00  0.81816530634E-01  0.89010120959E+00  0.88000000000E+00 0.  1.
        -11    1    4    4    0    0  0.12730076113E-01  0.41828847861E-01 -0.60369746412E-01  0.74541765166E-01  0.51100000000E-03 0. -1.
         11    1    4    4    0    0  0.75523519237E-02  0.44028697825E-01 -0.34315816092E-01  0.56332944241E-01  0.51100000000E-03 0.  1.
</event>
<event>
 8    1  0.1061721E+005  0.1043930E+01  0.7957747E-01            NaN
         13   -1    0    0    0    0  0.00000000000E+00  0.00000000000E+00  0.74505805969E-08  0.10566000000E+00  0.10566000000E+00 0. -1.
     999900   -1    0    0    0    0 -0.00000000000E+00 -0.00000000000E+00 -0.74505805969E-08  0.93827000000E+00  0.93827000000E+00 0. -1.
     999902    2    1    2    0    0 -0.11790529574E-02  0.92418326633E-02  0.19792323668E-01  0.10220544951E+01  0.10218203625E+01 0.  0.
     999903    2    3    3    0    0  0.12103828236E+00  0.19119534324E-01  0.48007302665E-01  0.13310526651E+00  0.19912018298E-01 0.  0.
         14    1    1    2    0    0  0.11790529574E-02 -0.92418326633E-02 -0.19792323668E-01  0.21875504863E-01  0.00000000000E+00 0.  1.
     999901    1    3    3    0    0 -0.12221733532E+00 -0.98777016609E-02 -0.28214978997E-01  0.88894922863E+00  0.88000000000E+00 0.  1.
        -11    1    4    4    0    0  0.63247325329E-01  0.18590684120E-01  0.31065241133E-01  0.72877623623E-01  0.51100000000E-03 0. -1.
         11    1    4    4    0    0  0.57790957033E-01  0.52885020433E-03  0.16942061532E-01  0.60227642883E-01  0.51100000000E-03 0.  1.
</event>
<event>
 8    1  0.1061721E+005  0.1043930E+01  0.7957747E-01            NaN
         13   -1    0    0    0    0  0.00000000000E+00  0.00000000000E+00  0.74505805969E-08  0.10566000000E+00  0.10566000000E+00 0.  1.
     999900   -1    0    0    0    0 -0.00000000000E+00 -0.00000000000E+00 -0.74505805969E-08  0.93827000000E+00  0.93827000000E+00 0.  1.
     999902    2    1    2    0    0  0.12548082489E-01  0.60692731733E-02  0.15322790406E-01  0.10232157934E+01  0.10230061004E+01 0.  0.
     999903    2    3    3    0    0 -0.87113467668E-01  0.94120830393E-01  0.29522968848E-01  0.13311066115E+00  0.19983880006E-01 0.  0.
         14    1    1    2    0    0 -0.12548082489E-01 -0.60692731733E-02 -0.15322790406E-01  0.20714206642E-01  0.00000000000E+00 0. -1.
     999901    1    3    3    0    0  0.99661550157E-01 -0.88051557220E-01 -0.14200178442E-01  0.89010513220E+00  0.88000000000E+00 0. -1.
        -11    1    4    4    0    0 -0.62411108058E-01  0.55718192638E-01  0.24452805892E-01  0.87165728568E-01  0.51100000000E-03 0. -1.
         11    1    4    4    0    0 -0.24702359611E-01  0.38402637755E-01  0.50701629555E-02  0.45944932585E-01  0.51100000000E-03 0.  1.
</event>
<event>
 8    1  0.1061721E+005  0.1043930E+01  0.7957747E-01            NaN
         13   -1    0    0    0    0  0.00000000000E+00  0.00000000000E+00  0.74505805969E-08  0.10566000000E+00  0.10566000000E+00 0.  1.
     999900   -1    0    0    0    0 -0.00000000000E+00 -0.00000000000E+00 -0.74505805969E-08  0.93827000000E+00  0.93827000000E+00 0.  1.
     999902    2    1    2    0    0 -0.21141659636E-01  0.10641628224E-01  0.53208940758E-02  0.10196704465E+01  0.10193818193E+01 0.  0.
     999903    2    3    3    0    0 -0.63591201828E-01 -0.31054223573E-01 -0.10786288001E+00  0.13042859276E+00  0.19209663547E-01 0.  0.
         14    1    1    2    0    0  0.21141659636E-01 -0.10641628224E-01 -0.53208940758E-02  0.24259553524E-01  0.00000000000E+00 0.  1.
     999901    1    3    3    0    0  0.42449542192E-01  0.41695851797E-01  0.11318377408E+00  0.88924185372E+00  0.88000000000E+00 0.  1.
        -11    1    4    4    0    0 -0.37171231677E-01 -0.81895017914E-02 -0.62293863721E-01  0.73003801149E-01  0.51100000000E-03 0.  1.
         11    1    4    4    0    0 -0.26419970151E-01 -0.22864721782E-01 -0.45569016286E-01  0.57424791608E-01  0.51100000000E-03 0. -1.
</event>
<event>
 8    1  0.1061721E+005  0.1043930E+01  0.7957747E-01            NaN
         13   -1    0    0    0    0  0.00000000000E+00  0.00000000000E+00  0.74505805969E-08  0.10566000000E+00  0.10566000000E+00 0.  1.
     999900   -1    0    0    0    0 -0.00000000000E+00 -0.00000000000E+00 -0.74505805969E-08  0.93827000000E+00  0.93827000000E+00 0. -1.
     999902    2    1    2    0    0  0.39682651081E-03 -0.10672701772E-01  0.21903323163E-01  0.10195615860E+01  0.10192703312E+01 0.  0.
     999903    2    3    3    0    0 -0.68005633393E-01  0.29148530542E-01 -0.10165367083E+00  0.12741195853E+00  0.20638201918E-01 0.  0.
         14    1    1    2    0    0 -0.39682651081E-03  0.10672701772E-01 -0.21903323163E-01  0.24368413981E-01  0.00000000000E+00 0. -1.
     999901    1    3    3    0    0  0.68402459904E-01 -0.39821232314E-01  0.12355699399E+00  0.89214962749E+00  0.88000000000E+00 0.  1.
        -11    1    4    4    0    0 -0.46698352118E-01  0.28810656099E-01 -0.65558007023E-01  0.85492124791E-01  0.51100000000E-03 0. -1.
         11    1    4    4    0    0 -0.21307281275E-01  0.33787444326E-03 -0.36095663802E-01  0.41919833740E-01  0.51100000000E-03 0.  1.
</event>
<event>
 8    1  0.1061721E+005  0.1043930E+01  0.7957747E-01            NaN
         13   -1    0    0    0    0  0.00000000000E+00  0.00000000000E+00  0.74505805969E-08  0.10566000000E+00  0.10566000000E+00 0. -1.
     999900   -1    0    0    0    0 -0.00000000000E+00 -0.00000000000E+00 -0.74505805969E-08  0.93827000000E+00  0.93827000000E+00 0.  1.
     999902    2    1    2    0    0 -0.11140605629E-01  0.96023780734E-02  0.18575237341E-01  0.10202370010E+01  0.10199618523E+01 0.  0.
     999903    2    3    3    0    0 -0.12816398567E+00  0.61716704742E-02 -0.21279490705E-01  0.13158935399E+00  0.19971094587E-01 0.  0.
         14    1    1    2    0    0  0.11140605629E-01 -0.96023780734E-02 -0.18575237341E-01  0.23692998981E-01  0.00000000000E+00 0. -1.
     999901    1    3    3    0    0  0.11702338004E+00  0.34307075993E-02  0.39854728046E-01  0.88864764703E+00  0.88000000000E+00 0. -1.
        -11    1    4    4    0    0 -0.32837021199E-01  0.57412902174E-02  0.21985447193E-02  0.33411481477E-01  0.51100000000E-03 0.  1.
         11    1    4    4    0    0 -0.95326964468E-01  0.43038025679E-03 -0.23478035424E-01  0.98177872509E-01  0.51100000000E-03 0. -1.
</event>
<event>
 8    1  0.1061721E+005  0.1043930E+01  0.7957747E-01            NaN
         13   -1    0    0    0    0  0.00000000000E+00  0.00000000000E+00  0.74505805969E-08  0.10566000000E+00  0.10566000000E+00 0. -1.
     999900   -1    0    0    0    0 -0.00000000000E+00 -0.00000000000E+00 -0.74505805969E-08  0.93827000000E+00  0.93827000000E+00 0. -1.
     999902    2    1    2    0    0  0.20894340972E-01 -0.10822652094E-01  0.74633428309E-02  0.10192438750E+01  0.10189448817E+01 0.  0.
     999903    2    3    3    0    0  0.48440061234E-01 -0.10047173860E+00  0.67854650483E-01  0.13220225505E+00  0.20788767632E-01 0.  0.
         14    1    1    2    0    0 -0.20894340972E-01  0.10822652094E-01 -0.74633428309E-02  0.24686125034E-01  0.00000000000E+00 0. -1.
     999901    1    3    3    0    0 -0.27545720262E-01  0.89649086506E-01 -0.60391307652E-01  0.88704161991E+00  0.88000000000E+00 0. -1.
        -11    1    4    4    0    0  0.33836389485E-01 -0.47076715025E-01  0.31618345470E-01  0.66038619324E-01  0.51100000000E-03 0. -1.
         11    1    4    4    0    0  0.14603671749E-01 -0.53395023574E-01  0.36236305013E-01  0.66163635730E-01  0.51100000000E-03 0.  1.
</event>
<event>
 8    1  0.1061721E+005  0.1043930E+01  0.7957747E-01            NaN
         13   -1    0    0    0    0  0.00000000000E+00  0.00000000000E+00  0.74505805969E-08  0.10566000000E+00  0.10566000000E+00 0.  1.
     999900   -1    0    0    0    0 -0.00000000000E+00 -0.00000000000E+00 -0.74505805969E-08  0.93827000000E+00  0.93827000000E+00 0. -1.
     999902    2    1    2    0    0 -0.10227797427E-01 -0.87936414649E-02 -0.18309582251E-01  0.10211884791E+01  0.10209352247E+01 0.  0.
     999903    2    3    3    0    0  0.47123418970E-01 -0.62169861652E-01 -0.10609088679E+00  0.13335756033E+00  0.21053605986E-01 0.  0.
         14    1    1    2    0    0  0.10227797427E-01  0.87936414649E-02  0.18309582251E-01  0.22741520895E-01  0.00000000000E+00 0.  1.
     999901    1    3    3    0    0 -0.57351216397E-01  0.53376220187E-01  0.87781304536E-01  0.88783091877E+00  0.88000000000E+00 0.  1.
        -11    1    4    4    0    0  0.32669951060E-01 -0.40368891153E-01 -0.53183325551E-01  0.74335054401E-01  0.51100000000E-03 0. -1.
         11    1    4    4    0    0  0.14453467910E-01 -0.21800970499E-01 -0.52907561236E-01  0.59022505930E-01  0.51100000000E-03 0.  1.
</event>
<event>
 8    1  0.1061721E+005  0.1043930E+01  0.7957747E-01            NaN
         13   -1    0    0    0    0  0.00000000000E+00  0.00000000000E+00  0.74505805969E-08  0.10566000000E+00  0.10566000000E+00 0. -1.
     999900   -1    0    0    0    0 -0.00000000000E+00 -0.00000000000E+00 -0.74505805969E-08  0.93827000000E+00  0.93827000000E+00 0. -1.
     999902    2    1    2    0    0 -0.26106557903E-02  0.23729105710E-02 -0.23783837051E-01  0.10198859335E+01  0.10196024717E+01 0.  0.
     999903    2    3    3    0    0 -0.47256434713E-01 -0.80869885844E-01 -0.91171144073E-01  0.13226909170E+00  0.20244160858E-01 0.  0.
         14    1    1    2    0    0  0.26106557903E-02 -0.23729105710E-02  0.23783837051E-01  0.24044066484E-01  0.00000000000E+00 0. -1.
     999901    1    3    3    0    0  0.44645778923E-01  0.83242796415E-01  0.67387307023E-01  0.88761684182E+00  0.88000000000E+00 0. -1.
        -11    1    4    4    0    0 -0.20911070346E-01 -0.39619617037E-01 -0.29973884207E-01  0.53904376192E-01  0.51100000000E-03 0.  1.
         11    1    4    4    0    0 -0.26345364367E-01 -0.41250268807E-01 -0.61197259866E-01  0.78364715507E-01  0.51100000000E-03 0. -1.
</event>
<event>
 8    1  0.1061721E+005  0.1043930E+01  0.7957747E-01            NaN
         13   -1    0    0    0    0  0.00000000000E+00  0.00000000000E+00  0.74505805969E-08  0.10566000000E+00  0.10566000000E+00 0.  1.
     999900   -1    0    0    0    0 -0.00000000000E+00 -0.00000000000E+00 -0.74505805969E-08  0.93827000000E+00  0.93827000000E+00 0.  1.
     999902    2    1    2    0    0  0.13112675632E-01  0.58200208483E-02 -0.19346847890E-01  0.10198444145E+01  0.10195599612E+01 0.  0.
     999903    2    3    3    0    0  0.79189884947E-01  0.24896462359E-01  0.97228205812E-01  0.12949625151E+00  0.20617551624E-01 0.  0.
         14    1    1    2    0    0 -0.13112675632E-01 -0.58200208483E-02  0.19346847890E-01  0.24085585485E-01  0.00000000000E+00 0. -1.
     999901    1    3    3    0    0 -0.66077209316E-01 -0.19076441511E-01 -0.11657505370E+00  0.89034816300E+00  0.88000000000E+00 0.  1.
        -11    1    4    4    0    0  0.46015522740E-01  0.10773046214E-01  0.69319404877E-01  0.83898318644E-01  0.51100000000E-03 0.  1.
         11    1    4    4    0    0  0.33174362207E-01  0.14123416145E-01  0.27908800935E-01  0.45597932871E-01  0.51100000000E-03 0. -1.
</event>
<event>
 8    1  0.1061721E+005  0.1043930E+01  0.7957747E-01            NaN
         13   -1    0    0    0    0  0.00000000000E+00  0.00000000000E+00  0.74505805969E-08  0.10566000000E+00  0.10566000000E+00 0. -1.
     999900   -1    0    0    0    0 -0.00000000000E+00 -0.00000000000E+00 -0.74505805969E-08  0.93827000000E+00  0.93827000000E+00 0. -1.
     999902    2    1    2    0    0  0.14411585792E-01 -0.22305719849E-01 -0.13511531057E-01  0.10141340202E+01  0.10136962121E+01 0.  0.
     999903    2    3    3    0    0  0.39248167598E-01  0.11078918455E+00  0.28473712200E-01  0.12279016394E+00  0.21260526806E-01 0.  0.
         14    1    1    2    0    0 -0.14411585792E-01  0.22305719849E-01  0.13511531057E-01  0.29795979838E-01  0.00000000000E+00 0. -1.
     999901    1    3    3    0    0 -0.24836581806E-01 -0.13309490440E+00 -0.41985243256E-01  0.89134385622E+00  0.88000000000E+00 0.  1.
        -11    1    4    4    0    0  0.75119451998E-02  0.49536707151E-01  0.73569908803E-02  0.50642878195E-01  0.51100000000E-03 0.  1.
         11    1    4    4    0    0  0.31736222398E-01  0.61252477403E-01  0.21116721319E-01  0.72147285745E-01  0.51100000000E-03 0. -1.
</event>
<event>
 8    1  0.1061721E+005  0.1043930E+01  0.7957747E-01            NaN
         13   -1    0    0    0    0  0.00000000000E+00  0.00000000000E+00  0.74505805969E-08  0.10566000000E+00  0.10566000000E+00 0. -1.
     999900   -1    0    0    0    0 -0.00000000000E+00 -0.00000000000E+00 -0.74505805969E-08  0.93827000000E+00  0.93827000000E+00 0.  1.
     999902    2    1    2    0    0 -0.95081951686E-03 -0.10437756447E-01  0.20882949425E-01  0.10205644614E+01  0.10202969526E+01 0.  0.
     999903    2    3    3    0    0  0.50779862329E-01 -0.11330423400E+00  0.42654621658E-01  0.13279670947E+00  0.19977623399E-01 0.  0.
         14    1    1    2    0    0  0.95081951686E-03  0.10437756447E-01 -0.20882949425E-01  0.23365538600E-01  0.00000000000E+00 0. -1.
     999901    1    3    3    0    0 -0.51730681846E-01  0.10286647756E+00 -0.21771672234E-01  0.88776775193E+00  0.88000000000E+00 0. -1.
        -11    1    4    4    0    0  0.94704607188E-02 -0.11026085401E-01  0.10371035855E-01  0.17862913850E-01  0.51100000000E-03 0. -1.
         11    1    4    4    0    0  0.41309401610E-01 -0.10227814860E+00  0.32283585803E-01  0.11493379562E+00  0.51100000000E-03 0.  1.
</event>
<event>
 8    1  0.1061721E+005  0.1043930E+01  0.7957747E-01            NaN
         13   -1    0    0    0    0  0.00000000000E+00  0.00000000000E+00  0.74505805969E-08  0.10566000000E+00  0.10566000000E+00 0.  1.
     999900   -1    0    0    0    0 -0.00000000000E+00 -0.00000000000E+00 -0.74505805969E-08  0.93827000000E+00  0.93827000000E+00 0. -1.
     999902    2    1    2    0    0 -0.28676440171E-02 -0.18007804530E-01  0.14636993965E-01  0.10205473997E+01  0.10202794955E+01 0.  0.
     999903    2    3    3    0    0  0.54788089694E-01 -0.11907381145E+00 -0.51294006513E-02  0.13266833597E+00  0.19856214972E-01 0.  0.
         14    1    1    2    0    0  0.28676440171E-02  0.18007804530E-01 -0.14636993965E-01  0.23382600337E-01  0.00000000000E+00 0. -1.
     999901    1    3    3    0    0 -0.57655733711E-01  0.10106600692E+00  0.19766394617E-01  0.88787906369E+00  0.88000000000E+00 0.  1.
        -11    1    4    4    0    0  0.38852262221E-01 -0.77257945026E-01  0.55595157680E-02  0.86657127150E-01  0.51100000000E-03 0. -1.
         11    1    4    4    0    0  0.15935827473E-01 -0.41815866424E-01 -0.10688916419E-01  0.46011208822E-01  0.51100000000E-03 0.  1.
</event>
<event>
 8    1  0.1061721E+005  0.1043930E+01  0.7957747E-01            NaN
         13   -1    0    0    0    0  0.00000000000E+00  0.00000000000E+00  0.74505805969E-08  0.10566000000E+00  0.10566000000E+00 0.  1.
     999900   -1    0    0    0    0 -0.00000000000E+00 -0.00000000000E+00 -0.74505805969E-08  0.93827000000E+00  0.93827000000E+00 0. -1.
     999902    2    1    2    0    0 -0.23377561478E-01  0.91642028610E-03 -0.36225521729E-02  0.10202556871E+01  0.10199809773E+01 0.  0.
     999903    2    3    3    0    0 -0.11567659764E+00  0.44398055400E-01 -0.47766519734E-01  0.13326163158E+00  0.11169578217E-01 0.  0.
         14    1    1    2    0    0  0.23377561478E-01 -0.91642028610E-03  0.36225521729E-02  0.23674312895E-01  0.00000000000E+00 0. -1.
     999901    1    3    3    0    0  0.92299036166E-01 -0.43481635114E-01  0.44143967561E-01  0.88699405553E+00  0.88000000000E+00 0.  1.
        -11    1    4    4    0    0 -0.90656696944E-01  0.30127618608E-01 -0.34860581493E-01  0.10169479518E+00  0.51100000000E-03 0.  1.
         11    1    4    4    0    0 -0.25019900700E-01  0.14270436791E-01 -0.12905938241E-01  0.31566836397E-01  0.51100000000E-03 0. -1.
</event>
<event>
 8    1  0.1061721E+005  0.1043930E+01  0.7957747E-01            NaN
         13   -1    0    0    0    0  0.00000000000E+00  0.00000000000E+00  0.74505805969E-08  0.10566000000E+00  0.10566000000E+00 0.  1.
     999900   -1    0    0    0    0 -0.00000000000E+00 -0.00000000000E+00 -0.74505805969E-08  0.93827000000E+00  0.93827000000E+00 0.  1.
     999902    2    1    2    0    0  0.14020229987E-01  0.47831992540E-02  0.18756022627E-01  0.10200294931E+01  0.10197494460E+01 0.  0.
     999903    2    3    3    0    0 -0.29942797815E-01  0.12183646424E+00 -0.27785134701E-01  0.12997314998E+00  0.19501560090E-01 0.  0.
         14    1    1    2    0    0 -0.14020229987E-01 -0.47831992540E-02 -0.18756022627E-01  0.23900506873E-01  0.00000000000E+00 0. -1.
     999901    1    3    3    0    0  0.43963027802E-01 -0.11705326498E+00  0.46541157328E-01  0.89005634315E+00  0.88000000000E+00 0. -1.
        -11    1    4    4    0    0 -0.25194425250E-01  0.11239944850E+00 -0.20174736656E-01  0.11694304686E+00  0.51100000000E-03 0. -1.
         11    1    4    4    0    0 -0.47483725653E-02  0.94370157315E-02 -0.76103980447E-02  0.13030103121E-01  0.51100000000E-03 0.  1.
</event>
<event>
 8    1  0.1061721E+005  0.1043930E+01  0.7957747E-01            NaN
         13   -1    0    0    0    0  0.00000000000E+00  0.00000000000E+00  0.74505805969E-08  0.10566000000E+00  0.10566000000E+00 0. -1.
     999900   -1    0    0    0    0 -0.00000000000E+00 -0.00000000000E+00 -0.74505805969E-08  0.93827000000E+00  0.93827000000E+00 0. -1.
     999902    2    1    2    0    0  0.18442841590E-01  0.20016510663E-01  0.36291398949E-02  0.10164714902E+01  0.10161005465E+01 0.  0.
     999903    2    3    3    0    0 -0.69220908366E-01 -0.94726326024E-01 -0.34447269367E-01  0.12389058933E+00  0.19941232666E-01 0.  0.
         14    1    1    2    0    0 -0.18442841590E-01 -0.20016510663E-01 -0.36291398949E-02  0.27458509817E-01  0.00000000000E+00 0.  1.
     999901    1    3    3    0    0  0.87663749956E-01  0.11474283669E+00  0.38076409261E-01  0.89258090085E+00  0.88000000000E+00 0. -1.
        -11    1    4    4    0    0 -0.22383169878E-01 -0.46148888795E-01 -0.18701223878E-01  0.54595999179E-01  0.51100000000E-03 0. -1.
         11    1    4    4    0    0 -0.46837738489E-01 -0.48577437229E-01 -0.15746045488E-01  0.69294590150E-01  0.51100000000E-03 0.  1.
</event>
<event>
 8    1  0.1061721E+005  0.1043930E+01  0.7957747E-01            NaN
         13   -1    0    0    0    0  0.00000000000E+00  0.00000000000E+00  0.74505805969E-08  0.10566000000E+00  0.10566000000E+00 0.  1.
     999900   -1    0    0    0    0 -0.00000000000E+00 -0.00000000000E+00 -0.74505805969E-08  0.93827000000E+00  0.93827000000E+00 0. -1.
     999902    2    1    2    0    0 -0.15743122485E-01  0.91589086547E-02 -0.13209168304E-01  0.10214308080E+01  0.10211829816E+01 0.  0.
     999903    2    3    3    0    0 -0.11787739666E+00  0.56490443011E-01 -0.23085380075E-01  0.13420523146E+00  0.19795418239E-01 0.  0.
         14    1    1    2    0    0  0.15743122485E-01 -0.91589086547E-02  0.13209168304E-01  0.22499191999E-01  0.00000000000E+00 0.  1.
     999901    1    3    3    0    0  0.10213427418E+00 -0.47331534356E-01  0.98762117710E-02  0.88722557654E+00  0.88000000000E+00 0. -1.
        -11    1    4    4    0    0 -0.11439688765E+00  0.50163903834E-01 -0.22676372199E-01  0.12695489013E+00  0.51100000000E-03 0. -1.
         11    1    4    4    0    0 -0.34805090131E-02  0.63265391769E-02 -0.40900787655E-03  0.72503413292E-02  0.51100000000E-03 0.  1.
</event>
<event>
 8    1  0.1061721E+005  0.1043930E+01  0.7957747E-01            NaN
         13   -1    0    0    0    0  0.00000000000E+00  0.00000000000E+00  0.74505805969E-08  0.10566000000E+00  0.10566000000E+00 0.  1.
     999900   -1    0    0    0    0 -0.00000000000E+00 -0.00000000000E+00 -0.74505805969E-08  0.93827000000E+00  0.93827000000E+00 0.  1.
     999902    2    1    2    0    0 -0.29867610719E-01  0.59522374619E-02  0.10917884790E-01  0.10115772025E+01  0.10110597079E+01 0.  0.
     999903    2    3    3    0    0 -0.10069313945E+00 -0.70570058127E-01  0.15878173549E-01  0.12540762404E+00  0.18860390635E-01 0.  0.
         14    1    1    2    0    0  0.29867610719E-01 -0.59522374619E-02 -0.10917884790E-01  0.32352797548E-01  0.00000000000E+00 0.  1.
     999901    1    3    3    0    0  0.70825528733E-01  0.76522295589E-01 -0.49602887586E-02  0.88616957841E+00  0.88000000000E+00 0. -1.
        -11    1    4    4    0    0 -0.33026380105E-01 -0.33613177584E-01  0.92048918439E-02  0.48016441403E-01  0.51100000000E-03 0. -1.
         11    1    4    4    0    0 -0.67666759346E-01 -0.36956880544E-01  0.66732817047E-02  0.77391182635E-01  0.51100000000E-03 0.  1.
</event>
<event>
 8    1  0.1061721E+005  0.1043930E+01  0.7957747E-01            NaN
         13   -1    0    0    0    0  0.00000000000E+00  0.00000000000E+00  0.74505805969E-08  0.10566000000E+00  0.10566000000E+00 0.  1.
     999900   -1    0    0    0    0 -0.00000000000E+00 -0.00000000000E+00 -0.74505805969E-08  0.93827000000E+00  0.93827000000E+00 0. -1.
     999902    2    1    2    0    0  0.19963109907E-02  0.20727210610E-01  0.10986288757E-01  0.10203864009E+01  0.10201147514E+01 0.  0.
     999903    2    3    3    0    0 -0.11707867517E+00 -0.27817324038E-01  0.46033919926E-01  0.13035058106E+00  0.19772013107E-01 0.  0.
         14    1    1    2    0    0 -0.19963109907E-02 -0.20727210610E-01 -0.10986288757E-01  0.23543599085E-01  0.00000000000E+00 0. -1.
     999901    1    3    3    0    0  0.11907498616E+00  0.48544534648E-01 -0.35047631169E-01  0.89003581985E+00  0.88000000000E+00 0.  1.
        -11    1    4    4    0    0 -0.76014910623E-01 -0.21249813726E-01  0.20502579942E-01  0.81550218428E-01  0.51100000000E-03 0. -1.
         11    1    4    4    0    0 -0.41063764549E-01 -0.65675103119E-02  0.25531339984E-01  0.48800362632E-01  0.51100000000E-03 0.  1.
</event>
<event>
 8    1  0.1061721E+005  0.1043930E+01  0.7957747E-01            NaN
         13   -1    0    0    0    0  0.00000000000E+00  0.00000000000E+00  0.74505805969E-08  0.10566000000E+00  0.10566000000E+00 0. -1.
     999900   -1    0    0    0    0 -0.00000000000E+00 -0.00000000000E+00 -0.74505805969E-08  0.93827000000E+00  0.93827000000E+00 0. -1.
     999902    2    1    2    0    0 -0.14411686629E-01 -0.19752404768E-01  0.14854504320E-02  0.10194338622E+01  0.10191395089E+01 0.  0.
     999903    2    3    3    0    0  0.66486434893E-01  0.35874969175E-01 -0.10100064646E+00  0.12806283344E+00  0.22169783160E-01 0.  0.
         14    1    1    2    0    0  0.14411686629E-01  0.19752404768E-01 -0.14854504320E-02  0.24496137831E-01  0.00000000000E+00 0.  1.
     999901    1    3    3    0    0 -0.80898121522E-01 -0.55627373944E-01  0.10248609689E+00  0.89137102873E+00  0.88000000000E+00 0.  1.
        -11    1    4    4    0    0  0.14234879050E-01  0.14482840659E-01 -0.15287824189E-01  0.25423672916E-01  0.51100000000E-03 0. -1.
         11    1    4    4    0    0  0.52251555844E-01  0.21392128517E-01 -0.85712822273E-01  0.10263916053E+00  0.51100000000E-03 0.  1.
</event>
<event>
 8    1  0.1061721E+005  0.1043930E+01  0.7957747E-01            NaN
         13   -1    0    0    0    0  0.00000000000E+00  0.00000000000E+00  0.74505805969E-08  0.10566000000E+00  0.10566000000E+00 0.  1.
     999900   -1    0    0    0    0 -0.00000000000E+00 -0.00000000000E+00 -0.74505805969E-08  0.93827000000E+00  0.93827000000E+00 0. -1.
     999902    2    1    2    0    0  0.60620493361E-02  0.20382371399E-01 -0.11688952055E-01  0.10196643637E+01  0.10193755900E+01 0.  0.
     999903    2    3    3    0    0 -0.88237539419E-01 -0.17928140390E-01  0.88908389332E-01  0.12810397153E+00  0.19966077416E-01 0.  0.
         14    1    1    2    0    0 -0.60620493361E-02 -0.20382371399E-01  0.11688952055E-01  0.24265636323E-01  0.00000000000E+00 0.  1.
     999901    1    3    3    0    0  0.94299588755E-01  0.38310511789E-01 -0.10059734139E+00  0.89156039215E+00  0.88000000000E+00 0. -1.
        -11    1    4    4    0    0 -0.54733395038E-01 -0.15869385272E-01  0.43814119701E-01  0.71885465343E-01  0.51100000000E-03 0.  1.
         11    1    4    4    0    0 -0.33504144381E-01 -0.20587551177E-02  0.45094269630E-01  0.56218506186E-01  0.51100000000E-03 0. -1.
</event>
<event>
 8    1  0.1061721E+005  0.1043930E+01  0.7957747E-01            NaN
         13   -1    0    0    0    0  0.00000000000E+00  0.00000000000E+00  0.74505805969E-08  0.10566000000E+00  0.10566000000E+00 0.  1.
     999900   -1    0    0    0    0 -0.00000000000E+00 -0.00000000000E+00 -0.74505805969E-08  0.93827000000E+00  0.93827000000E+00 0. -1.
     999902    2    1    2    0    0 -0.21950663301E-01  0.15492604597E-01  0.19078069603E-02  0.10169950386E+01  0.10166382919E+01 0.  0.
     999903    2    3    3    0    0 -0.79749932666E-01  0.52139427149E-02 -0.10001615423E+00  0.12916909832E+00  0.17151906466E-01 0.  0.
         14    1    1    2    0    0  0.21950663301E-01 -0.15492604597E-01 -0.19078069603E-02  0.26934961369E-01  0.00000000000E+00 0. -1.
     999901    1    3    3    0    0  0.57799269365E-01  0.10278661882E-01  0.10192396119E+00  0.88782594031E+00  0.88000000000E+00 0.  1.
        -11    1    4    4    0    0 -0.18579945125E-01  0.62486037187E-02 -0.33323358885E-01  0.38664800241E-01  0.51100000000E-03 0.  1.
         11    1    4    4    0    0 -0.61169987541E-01 -0.10346610038E-02 -0.66692795340E-01  0.90504298077E-01  0.51100000000E-03 0. -1.
</event>
<event>
 8    1  0.1061721E+005  0.1043930E+01  0.7957747E-01            NaN
         13   -1    0    0    0    0  0.00000000000E+00  0.00000000000E+00  0.74505805969E-08  0.10566000000E+00  0.10566000000E+00 0.  1.
     999900   -1    0    0    0    0 -0.00000000000E+00 -0.00000000000E+00 -0.74505805969E-08  0.93827000000E+00  0.93827000000E+00 0.  1.
     999902    2    1    2    0    0 -0.38021743597E-02  0.18838563157E-01 -0.12561972385E-01  0.10209702277E+01  0.10207120332E+01 0.  0.
     999903    2    3    3    0    0  0.32609196179E-01  0.11949352378E+00  0.42983916005E-01  0.13274584465E+00  0.20779324734E-01 0.  0.
         14    1    1    2    0    0  0.38021743597E-02 -0.18838563157E-01  0.12561972385E-01  0.22959772253E-01  0.00000000000E+00 0.  1.
     999901    1    3    3    0    0 -0.36411370539E-01 -0.10065496063E+00 -0.55545888391E-01  0.88822438309E+00  0.88000000000E+00 0.  1.
        -11    1    4    4    0    0  0.13600226903E-01  0.76703094863E-01  0.34317765683E-01  0.85125208346E-01  0.51100000000E-03 0. -1.
         11    1    4    4    0    0  0.19008969276E-01  0.42790428920E-01  0.86661503223E-02  0.47620636309E-01  0.51100000000E-03 0.  1.
</event>
<event>
 7    1  0.1061721E+005  0.1043930E+01  0.7957747E-01            NaN
         13   -1    0    0    0    0  0.00000000000E+00  0.00000000000E+00  0.74505805969E-08  0.10566000000E+00  0.10566000000E+00 0.  1.
     999900   -1    0    0    0    0 -0.00000000000E+00 -0.00000000000E+00 -0.74505805969E-08  0.93827000000E+00  0.93827000000E+00 0. -1.
     999902    2    1    2    0    0 -0.11865568292E-01  0.36707934897E-02  0.20319388042E-01  0.10201152154E+01  0.10198371972E+01 0.  0.
         14    1    1    2    0    0  0.11865568292E-01 -0.36707934897E-02 -0.20319388042E-01  0.23814784612E-01  0.00000000000E+00 0. -1.
     999901    1    3    3    0    0  0.48066478556E-01 -0.95666343887E-01  0.63752792996E-01  0.88877829312E+00  0.88000000000E+00 0.  1.
        -11    1    3    3    0    0 -0.32843099806E-01  0.39593431915E-01 -0.40841439537E-01  0.65685564321E-01  0.51100000000E-03 0.  1.
         11    1    3    3    0    0 -0.27088947042E-01  0.59743705461E-01 -0.25919654176E-02  0.65651357943E-01  0.51100000000E-03 0. -1.
</event>
<event>
 8    1  0.1061721E+005  0.1043930E+01  0.7957747E-01            NaN
         13   -1    0    0    0    0  0.00000000000E+00  0.00000000000E+00  0.74505805969E-08  0.10566000000E+00  0.10566000000E+00 0. -1.
     999900   -1    0    0    0    0 -0.00000000000E+00 -0.00000000000E+00 -0.74505805969E-08  0.93827000000E+00  0.93827000000E+00 0. -1.
     999902    2    1    2    0    0  0.16141992573E-01 -0.87848112887E-02 -0.14665110137E-01  0.10204182521E+01  0.10201473457E+01 0.  0.
     999903    2    3    3    0    0  0.88114696952E-01  0.19287724580E-01  0.92528034537E-01  0.13055393228E+00  0.18619235183E-01 0.  0.
         14    1    1    2    0    0 -0.16141992573E-01  0.87848112887E-02  0.14665110137E-01  0.23511747892E-01  0.00000000000E+00 0. -1.
     999901    1    3    3    0    0 -0.71972704379E-01 -0.28072535869E-01 -0.10719314467E+00  0.88986431983E+00  0.88000000000E+00 0. -1.
        -11    1    4    4    0    0  0.53130307655E-01  0.26073580540E-02  0.49886817149E-01  0.72928619579E-01  0.51100000000E-03 0.  1.
         11    1    4    4    0    0  0.34984389298E-01  0.16680366526E-01  0.42641217388E-01  0.57625312696E-01  0.51100000000E-03 0. -1.
</event>
<event>
 8    1  0.1061721E+005  0.1043930E+01  0.7957747E-01            NaN
         13   -1    0    0    0    0  0.00000000000E+00  0.00000000000E+00  0.74505805969E-08  0.10566000000E+00  0.10566000000E+00 0. -1.
     999900   -1    0    0    0    0 -0.00000000000E+00 -0.00000000000E+00 -0.74505805969E-08  0.93827000000E+00  0.93827000000E+00 0. -1.
     999902    2    1    2    0    0 -0.39064227689E-02  0.18655122941E-01 -0.15620141319E-01  0.10192873020E+01  0.10189893726E+01 0.  0.
     999903    2    3    3    0    0  0.63056842151E-01  0.96561409500E-01  0.57237173449E-01  0.13032067907E+00  0.20177071700E-01 0.  0.
         14    1    1    2    0    0  0.39064227689E-02 -0.18655122941E-01  0.15620141319E-01  0.24642698018E-01  0.00000000000E+00 0. -1.
     999901    1    3    3    0    0 -0.66963264920E-01 -0.77906286560E-01 -0.72857314768E-01  0.88896662291E+00  0.88000000000E+00 0. -1.
        -11    1    4    4    0    0  0.13487225428E-01  0.28310218909E-01  0.69810923755E-02  0.32130523123E-01  0.51100000000E-03 0.  1.
         11    1    4    4    0    0  0.49569616723E-01  0.68251190592E-01  0.50256081074E-01  0.98190155948E-01  0.51100000000E-03 0. -1.
</event>
<event>
 8    1  0.1061721E+005  0.1043930E+01  0.7957747E-01            NaN
         13   -1    0    0    0    0  0.00000000000E+00  0.00000000000E+00  0.74505805969E-08  0.10566000000E+00  0.10566000000E+00 0. -1.
     999900   -1    0    0    0    0 -0.00000000000E+00 -0.00000000000E+00 -0.74505805969E-08  0.93827000000E+00  0.93827000000E+00 0. -1.
     999902    2    1    2    0    0 -0.21496485427E-01  0.60638065997E-02  0.56582293536E-02  0.10208890756E+01  0.10206290318E+01 0.  0.
     999903    2    3    3    0    0 -0.83190863678E-01  0.21148420935E-01  0.10034183144E+00  0.13353417121E+00  0.19872499505E-01 0.  0.
         14    1    1    2    0    0  0.21496485427E-01 -0.60638065997E-02 -0.56582293536E-02  0.23040924365E-01  0.00000000000E+00 0.  1.
     999901    1    3    3    0    0  0.61694378251E-01 -0.15084614336E-01 -0.94683602089E-01  0.88735490442E+00  0.88000000000E+00 0. -1.
        -11    1    4    4    0    0 -0.10646144764E-01  0.10161272218E-01  0.17429925255E-01  0.22817871654E-01  0.51100000000E-03 0. -1.
         11    1    4    4    0    0 -0.72544718915E-01  0.10987148717E-01  0.82911906188E-01  0.11071629956E+00  0.51100000000E-03 0.  1.
</event>
<event>
 8    1  0.1061721E+005  0.1043930E+01  0.7957747E-01            NaN
         13   -1    0    0    0    0  0.00000000000E+00  0.00000000000E+00  0.74505805969E-08  0.10566000000E+00  0.10566000000E+00 0. -1.
     999900   -1    0    0    0    0 -0.00000000000E+00 -0.00000000000E+00 -0.74505805969E-08  0.93827000000E+00  0.93827000000E+00 0.  1.
     999902    2    1    2    0    0 -0.57421443946E-02 -0.15135768525E-01 -0.16457830494E-01  0.10208448555E+01  0.10205838011E+01 0.  0.
     999903    2    3    3    0    0 -0.16221810114E-01  0.21918769677E-01 -0.12827940626E+00  0.13293330193E+00  0.21727335414E-01 0.  0.
         14    1    1    2    0    0  0.57421443946E-02  0.15135768525E-01  0.16457830494E-01  0.23085144480E-01  0.00000000000E+00 0. -1.
     999901    1    3    3    0    0  0.10479665720E-01 -0.37054538202E-01  0.11182157576E+00  0.88791155359E+00  0.88000000000E+00 0. -1.
        -11    1    4    4    0    0 -0.99438184486E-02  0.11349022637E-01 -0.27211956758E-01  0.31119632899E-01  0.51100000000E-03 0.  1.
         11    1    4    4    0    0 -0.62779916656E-02  0.10569747039E-01 -0.10106744950E+00  0.10181366903E+00  0.51100000000E-03 0. -1.
</event>
<event>
 8    1  0.1061721E+005  0.1043930E+01  0.7957747E-01            NaN
         13   -1    0    0    0    0  0.00000000000E+00  0.00000000000E+00  0.74505805969E-08  0.10566000000E+00  0.10566000000E+00 0.  1.
     999900   -1    0    0    0    0 -0.00000000000E+00 -0.00000000000E+00 -0.74505805969E-08  0.93827000000E+00  0.93827000000E+00 0.  1.
     999902    2    1    2    0    0 -0.17263674953E-01  0.13693093589E-01 -0.14926185292E-01  0.10173155999E+01  0.10169674053E+01 0.  0.
     999903    2    3    3    0    0 -0.91084293476E-01 -0.26395535693E-01  0.83338696153E-01  0.12787050950E+00  0.20309015285E-01 0.  0.
         14    1    1    2    0    0  0.17263674953E-01 -0.13693093589E-01  0.14926185292E-01  0.26614400093E-01  0.00000000000E+00 0. -1.
     999901    1    3    3    0    0  0.73820618523E-01  0.40088629281E-01 -0.98264881446E-01  0.88944509040E+00  0.88000000000E+00 0.  1.
        -11    1    4    4    0    0 -0.61057926454E-02 -0.44565835673E-02  0.14380914161E-01  0.16254650228E-01  0.51100000000E-03 0.  1.
         11    1    4    4    0    0 -0.84978500830E-01 -0.21938952125E-01  0.68957781993E-01  0.11161585928E+00  0.51100000000E-03 0. -1.
</event>
<event>
 8    1  0.1061721E+005  0.1043930E+01  0.7957747E-01            NaN
         13   -1    0    0    0    0  0.00000000000E+00  0.00000000000E+00  0.74505805969E-08  0.10566000000E+00  0.10566000000E+00 0. -1.
     999900   -1    0    0    0    0 -0.00000000000E+00 -0.00000000000E+00 -0.74505805969E-08  0.93827000000E+00  0.93827000000E+00 0. -1.
     999902    2    1    2    0    0  0.63312034958E-02  0.19248386602E-01 -0.11928100760E-01  0.10204169374E+01  0.10201460004E+01 0.  0.
     999903    2    3    3    0    0 -0.64087672503E-01  0.10580387297E+00  0.40707667689E-01  0.13181061601E+00  0.20377315353E-01 0.  0.
         14    1    1    2    0    0 -0.63312034958E-02 -0.19248386602E-01  0.11928100760E-01  0.23513062587E-01  0.00000000000E+00 0. -1.
     999901    1    3    3    0    0  0.70418875999E-01 -0.86555486372E-01 -0.52635768449E-01  0.88860632140E+00  0.88000000000E+00 0. -1.
        -11    1    4    4    0    0 -0.32508807275E-01  0.63349255810E-01  0.32470268346E-01  0.78259377774E-01  0.51100000000E-03 0.  1.
         11    1    4    4    0    0 -0.31578865228E-01  0.42454617164E-01  0.82373993435E-02  0.53551238236E-01  0.51100000000E-03 0. -1.
</event>
<event>
 8    1  0.1061721E+005  0.1043930E+01  0.7957747E-01            NaN
         13   -1    0    0    0    0  0.00000000000E+00  0.00000000000E+00  0.74505805969E-08  0.10566000000E+00  0.10566000000E+00 0.  1.
     999900   -1    0    0    0    0 -0.00000000000E+00 -0.00000000000E+00 -0.74505805969E-08  0.93827000000E+00  0.93827000000E+00 0. -1.
     999902    2    1    2    0    0 -0.11352014589E-01  0.10502152879E-01  0.39838688945E-02  0.10279601953E+01  0.10278361389E+01 0.  0.
     999903    2    3    3    0    0  0.48722154896E-01 -0.88564012379E-01 -0.88324914197E-01  0.13557915429E+00  0.19052137528E-01 0.  0.
         14    1    1    2    0    0  0.11352014589E-01 -0.10502152879E-01 -0.39838688945E-02  0.15969804686E-01  0.00000000000E+00 0.  1.
     999901    1    3    3    0    0 -0.60074169485E-01  0.99066165259E-01  0.92308783092E-01  0.89238104102E+00  0.88000000000E+00 0.  1.
        -11    1    4    4    0    0  0.39359196910E-01 -0.79856167758E-01 -0.70126368326E-01  0.11333191327E+00  0.51100000000E-03 0.  1.
         11    1    4    4    0    0  0.93629579862E-02 -0.87078446219E-02 -0.18198545872E-01  0.22247241021E-01  0.51100000000E-03 0. -1.
</event>
<event>
 8    1  0.1061721E+005  0.1043930E+01  0.7957747E-01            NaN
         13   -1    0    0    0    0  0.00000000000E+00  0.00000000000E+00  0.74505805969E-08  0.10566000000E+00  0.10566000000E+00 0.  1.
     999900   -1    0    0    0    0 -0.00000000000E+00 -0.00000000000E+00 -0.74505805969E-08  0.93827000000E+00  0.93827000000E+00 0. -1.
     999902    2    1    2    0    0  0.32011212596E-02  0.12375108346E-03  0.23842712780E-01  0.10198730375E+01  0.10195892679E+01 0.  0.
     999903    2    3    3    0    0  0.66039576302E-01  0.37362904813E-01  0.10737494491E+00  0.13290457144E+00  0.19417363859E-01 0.  0.
         14    1    1    2    0    0 -0.32011212596E-02 -0.12375108346E-03 -0.23842712780E-01  0.24056962492E-01  0.00000000000E+00 0. -1.
     999901    1    3    3    0    0 -0.62838455042E-01 -0.37239153730E-01 -0.83532232133E-01  0.88696846607E+00  0.88000000000E+00 0. -1.
        -11    1    4    4    0    0  0.20464360270E-01  0.17464909782E-01  0.51476151298E-01  0.58085010015E-01  0.51100000000E-03 0. -1.
         11    1    4    4    0    0  0.45575216031E-01  0.19897995031E-01  0.55898793614E-01  0.74819561420E-01  0.51100000000E-03 0.  1.
</event>
<event>
 8    1  0.1061721E+005  0.1043930E+01  0.7957747E-01            NaN
         13   -1    0    0    0    0  0.00000000000E+00  0.00000000000E+00  0.74505805969E-08  0.10566000000E+00  0.10566000000E+00 0. -1.
     999900   -1    0    0    0    0 -0.00000000000E+00 -0.00000000000E+00 -0.74505805969E-08  0.93827000000E+00  0.93827000000E+00 0.  1.
     999902    2    1    2    0    0  0.22312228549E-01  0.48409911483E-02 -0.31054471721E-02  0.10208884171E+01  0.10206283583E+01 0.  0.
     999903    2    3    3    0    0 -0.35644345642E-01 -0.85085035171E-01 -0.89804602868E-01  0.13017948697E+00  0.19283400775E-01 0.  0.
         14    1    1    2    0    0 -0.22312228549E-01 -0.48409911483E-02  0.31054471721E-02  0.23041582851E-01  0.00000000000E+00 0.  1.
     999901    1    3    3    0    0  0.57956574191E-01  0.89926026319E-01  0.86699155696E-01  0.89070893018E+00  0.88000000000E+00 0. -1.
        -11    1    4    4    0    0 -0.13049866492E-01 -0.33666124244E-01 -0.22621779654E-01  0.42611183659E-01  0.51100000000E-03 0. -1.
         11    1    4    4    0    0 -0.22594479150E-01 -0.51418910926E-01 -0.67182823214E-01  0.87568303312E-01  0.51100000000E-03 0.  1.
</event>
<event>
 8    1  0.1061721E+005  0.1043930E+01  0.7957747E-01            NaN
         13   -1    0    0    0    0  0.00000000000E+00  0.00000000000E+00  0.74505805969E-08  0.10566000000E+00  0.10566000000E+00 0. -1.
     999900   -1    0    0    0    0 -0.00000000000E+00 -0.00000000000E+00 -0.74505805969E-08  0.93827000000E+00  0.93827000000E+00 0. -1.
     999902    2    1    2    0    0 -0.13947653037E-01 -0.11650608392E-01  0.14770639722E-01  0.10205110867E+01  0.10202423401E+01 0.  0.
     999903    2    3    3    0    0 -0.39960730896E-01  0.59167558164E-01  0.10885606996E+00  0.13228591194E+00  0.23500182538E-01 0.  0.
         14    1    1    2    0    0  0.13947653037E-01  0.11650608392E-01 -0.14770639722E-01  0.23418913274E-01  0.00000000000E+00 0.  1.
     999901    1    3    3    0    0  0.26013077859E-01 -0.70818166556E-01 -0.94085430235E-01  0.88822517478E+00  0.88000000000E+00 0. -1.
        -11    1    4    4    0    0 -0.21526673699E-01  0.41835880691E-01  0.52446099507E-01  0.70459158867E-01  0.51100000000E-03 0. -1.
         11    1    4    4    0    0 -0.18434057196E-01  0.17331677473E-01  0.56409970451E-01  0.61826753077E-01  0.51100000000E-03 0.  1.
</event>
<event>
 8    1  0.1061721E+005  0.1043930E+01  0.7957747E-01            NaN
         13   -1    0    0    0    0  0.00000000000E+00  0.00000000000E+00  0.74505805969E-08  0.10566000000E+00  0.10566000000E+00 0.  1.
     999900   -1    0    0    0    0 -0.00000000000E+00 -0.00000000000E+00 -0.74505805969E-08  0.93827000000E+00  0.93827000000E+00 0.  1.
     999902    2    1    2    0    0  0.18066435174E-01 -0.12479323604E-01  0.81258709901E-02  0.10205171963E+01  0.10202485916E+01 0.  0.
     999903    2    3    3    0    0  0.59408686584E-01  0.54495592803E-02 -0.11467790652E+00  0.13084793508E+00  0.20274864603E-01 0.  0.
         14    1    1    2    0    0 -0.18066435174E-01  0.12479323604E-01 -0.81258709901E-02  0.23412803695E-01  0.00000000000E+00 0. -1.
     999901    1    3    3    0    0 -0.41342251410E-01 -0.17928882884E-01  0.12280377751E+00  0.88966926122E+00  0.88000000000E+00 0. -1.
        -11    1    4    4    0    0  0.48981698328E-01 -0.31357279484E-02 -0.95634441816E-01  0.10749533545E+00  0.51100000000E-03 0.  1.
         11    1    4    4    0    0  0.10426988256E-01  0.85852872288E-02 -0.19043464701E-01  0.23352599635E-01  0.51100000000E-03 0. -1.
</event>
<event>
 8    1  0.1061721E+005  0.1043930E+01  0.7957747E-01            NaN
         13   -1    0    0    0    0  0.00000000000E+00  0.00000000000E+00  0.74505805969E-08  0.10566000000E+00  0.10566000000E+00 0. -1.
     999900   -1    0    0    0    0 -0.00000000000E+00 -0.00000000000E+00 -0.74505805969E-08  0.93827000000E+00  0.93827000000E+00 0. -1.
     999902    2    1    2    0    0  0.44882995867E-02  0.73128877494E-02  0.21778978347E-01  0.10205217310E+01  0.10202532315E+01 0.  0.
     999903    2    3    3    0    0 -0.56063131759E-01 -0.98351768257E-01 -0.57766631451E-01  0.12858058976E+00  0.19489466202E-01 0.  0.
         14    1    1    2    0    0 -0.44882995867E-02 -0.73128877494E-02 -0.21778978347E-01  0.23408269014E-01  0.00000000000E+00 0. -1.
     999901    1    3    3    0    0  0.60551431346E-01  0.10566465601E+00  0.79545609797E-01  0.89194114122E+00  0.88000000000E+00 0. -1.
        -11    1    4    4    0    0 -0.17069904370E-01 -0.45033830019E-01 -0.31174363667E-01  0.57371853311E-01  0.51100000000E-03 0. -1.
         11    1    4    4    0    0 -0.38993227389E-01 -0.53317938238E-01 -0.26592267784E-01  0.71208736452E-01  0.51100000000E-03 0.  1.
</event>
<event>
 8    1  0.1061721E+005  0.1043930E+01  0.7957747E-01            NaN
         13   -1    0    0    0    0  0.00000000000E+00  0.00000000000E+00  0.74505805969E-08  0.10566000000E+00  0.10566000000E+00 0.  1.
     999900   -1    0    0    0    0 -0.00000000000E+00 -0.00000000000E+00 -0.74505805969E-08  0.93827000000E+00  0.93827000000E+00 0. -1.
     999902    2    1    2    0    0 -0.17684788337E-01 -0.15676307437E-01  0.38384017484E-02  0.10199877428E+01  0.10197067048E+01 0.  0.
     999903    2    3    3    0    0 -0.17684497809E-01 -0.11154134947E+00 -0.65481144896E-01  0.13207147091E+00  0.20021962602E-01 0.  0.
         14    1    1    2    0    0  0.17684788337E-01  0.15676307437E-01 -0.38384017484E-02  0.23942257232E-01  0.00000000000E+00 0. -1.
     999901    1    3    3    0    0 -0.29052800573E-06  0.95865042035E-01  0.69319546645E-01  0.88791627186E+00  0.88000000000E+00 0.  1.
        -11    1    4    4    0    0 -0.10635097187E-01 -0.72054635529E-01 -0.30943313539E-01  0.79137384131E-01  0.51100000000E-03 0. -1.
         11    1    4    4    0    0 -0.70494006223E-02 -0.39486713943E-01 -0.34537831357E-01  0.52934086778E-01  0.51100000000E-03 0.  1.
</event>
<event>
 8    1  0.1061721E+005  0.1043930E+01  0.7957747E-01            NaN
         13   -1    0    0    0    0  0.00000000000E+00  0.00000000000E+00  0.74505805969E-08  0.10566000000E+00  0.10566000000E+00 0.  1.
     999900   -1    0    0    0    0 -0.00000000000E+00 -0.00000000000E+00 -0.74505805969E-08  0.93827000000E+00  0.93827000000E+00 0.  1.
     999902    2    1    2    0    0  0.17166609493E-01 -0.13425220130E-01  0.10794833951E-01  0.10196101016E+01  0.10193200194E+01 0.  0.
     999903    2    3    3    0    0 -0.11324083650E+00 -0.17143640786E-01  0.58208312232E-01  0.12872965704E+00  0.81071275073E-02 0.  0.
         14    1    1    2    0    0 -0.17166609493E-01  0.13425220130E-01 -0.10794833951E-01  0.24319898377E-01  0.00000000000E+00 0. -1.
     999901    1    3    3    0    0  0.13040744600E+00  0.37184206558E-02 -0.47413478281E-01  0.89088044459E+00  0.88000000000E+00 0.  1.
        -11    1    4    4    0    0 -0.60433636745E-01 -0.10275175846E-01  0.35460169013E-01  0.70820112937E-01  0.51100000000E-03 0. -1.
         11    1    4    4    0    0 -0.52807199759E-01 -0.68684649398E-02  0.22748143219E-01  0.57909544100E-01  0.51100000000E-03 0.  1.
</event>
<event>
 8    1  0.1061721E+005  0.1043930E+01  0.7957747E-01            NaN
         13   -1    0    0    0    0  0.00000000000E+00  0.00000000000E+00  0.74505805969E-08  0.10566000000E+00  0.10566000000E+00 0.  1.
     999900   -1    0    0    0    0 -0.00000000000E+00 -0.00000000000E+00 -0.74505805969E-08  0.93827000000E+00  0.93827000000E+00 0. -1.
     999902    2    1    2    0    0 -0.11526421805E-01  0.18843789620E-01 -0.60078662715E-02  0.10210380524E+01  0.10207813984E+01 0.  0.
     999903    2    3    3    0    0  0.78023988927E-01  0.80026704458E-01 -0.68053885249E-01  0.13221167252E+00  0.18883293653E-01 0.  0.
         14    1    1    2    0    0  0.11526421805E-01 -0.18843789620E-01  0.60078662715E-02  0.22891947580E-01  0.00000000000E+00 0. -1.
     999901    1    3    3    0    0 -0.89550410732E-01 -0.61182914838E-01  0.62046018978E-01  0.88882637990E+00  0.88000000000E+00 0.  1.
        -11    1    4    4    0    0  0.49771011238E-01  0.47762346140E-01 -0.31398092368E-01  0.75792457367E-01  0.51100000000E-03 0. -1.
         11    1    4    4    0    0  0.28252977689E-01  0.32264358318E-01 -0.36655792881E-01  0.56419215155E-01  0.51100000000E-03 0.  1.
</event>
<event>
 8    1  0.1061721E+005  0.1043930E+01  0.7957747E-01            NaN
         13   -1    0    0    0    0  0.00000000000E+00  0.00000000000E+00  0.74505805969E-08  0.10566000000E+00  0.10566000000E+00 0. -1.
     999900   -1    0    0    0    0 -0.00000000000E+00 -0.00000000000E+00 -0.74505805969E-08  0.93827000000E+00  0.93827000000E+00 0. -1.
     999902    2    1    2    0    0  0.94521912150E-02  0.93054464872E-03  0.21505416022E-01  0.10204205817E+01  0.10201497296E+01 0.  0.
     999903    2    3    3    0    0 -0.10232444233E+00  0.58507594047E-02  0.79749416338E-01  0.13142643776E+00  0.20209311071E-01 0.  0.
         14    1    1    2    0    0 -0.94521912150E-02 -0.93054464872E-03 -0.21505416022E-01  0.23509418333E-01  0.00000000000E+00 0.  1.
     999901    1    3    3    0    0  0.11177663354E+00 -0.49202147560E-02 -0.58244000316E-01  0.88899414390E+00  0.88000000000E+00 0. -1.
        -11    1    4    4    0    0 -0.62326917878E-01  0.10496018327E-01  0.39746992589E-01  0.74665223724E-01  0.51100000000E-03 0. -1.
         11    1    4    4    0    0 -0.39997524449E-01 -0.46452589224E-02  0.40002423750E-01  0.56761214041E-01  0.51100000000E-03 0.  1.
</event>
<event>
 8    1  0.1061721E+005  0.1043930E+01  0.7957747E-01            NaN
         13   -1    0    0    0    0  0.00000000000E+00  0.00000000000E+00  0.74505805969E-08  0.10566000000E+00  0.10566000000E+00 0.  1.
     999900   -1    0    0    0    0 -0.00000000000E+00 -0.00000000000E+00 -0.74505805969E-08  0.93827000000E+00  0.93827000000E+00 0.  1.
     999902    2    1    2    0    0  0.14858737135E-01  0.53228613504E-02 -0.15383525066E-01  0.10218898601E+01  0.10216521514E+01 0.  0.
     999903    2    3    3    0    0 -0.17870935532E-02  0.13120175588E+00 -0.26168147399E-02  0.13268483953E+00  0.19527531106E-01 0.  0.
         14    1    1    2    0    0 -0.14858737135E-01 -0.53228613504E-02  0.15383525066E-01  0.22040139874E-01  0.00000000000E+00 0.  1.
     999901    1    3    3    0    0  0.16645830688E-01 -0.12587889453E+00 -0.12766710327E-01  0.88920502060E+00  0.88000000000E+00 0. -1.
        -11    1    4    4    0    0  0.21397159104E-02  0.23231251955E-01 -0.75585041615E-02  0.24528790384E-01  0.51100000000E-03 0. -1.
         11    1    4    4    0    0 -0.39268094636E-02  0.10797050393E+00  0.49416894216E-02  0.10815604914E+00  0.51100000000E-03 0.  1.
</event>
<event>
 8    1  0.1061721E+005  0.1043930E+01  0.7957747E-01            NaN
         13   -1    0    0    0    0  0.00000000000E+00  0.00000000000E+00  0.74505805969E-08  0.10566000000E+00  0.10566000000E+00 0. -1.
     999900   -1    0    0    0    0 -0.00000000000E+00 -0.00000000000E+00 -0.74505805969E-08  0.93827000000E+00  0.93827000000E+00 0.  1.
     999902    2    1    2    0    0  0.18882803847E-01  0.31008759792E-02 -0.14091073657E-01  0.10201658659E+01  0.10198890429E+01 0.  0.
     999903    2    3    3    0    0  0.36919854481E-01 -0.74306962175E-01  0.97422886237E-01  0.12957467357E+00  0.20341508900E-01 0.  0.
         14    1    1    2    0    0 -0.18882803847E-01 -0.31008759792E-02  0.14091073657E-01  0.23764134106E-01  0.00000000000E+00 0. -1.
     999901    1    3    3    0    0 -0.18037050634E-01  0.77407838154E-01 -0.11151395989E+00  0.89059119233E+00  0.88000000000E+00 0.  1.
        -11    1    4    4    0    0  0.12489145488E-01 -0.92978608351E-02  0.23011453089E-01  0.27788793881E-01  0.51100000000E-03 0.  1.
         11    1    4    4    0    0  0.24430708993E-01 -0.65009101339E-01  0.74411433148E-01  0.10178587968E+00  0.51100000000E-03 0. -1.
</event>
<event>
 8    1  0.1061721E+005  0.1043930E+01  0.7957747E-01            NaN
         13   -1    0    0    0    0  0.00000000000E+00  0.00000000000E+00  0.74505805969E-08  0.10566000000E+00  0.10566000000E+00 0. -1.
     999900   -1    0    0    0    0 -0.00000000000E+00 -0.00000000000E+00 -0.74505805969E-08  0.93827000000E+00  0.93827000000E+00 0. -1.
     999902    2    1    2    0    0 -0.10259881238E-01  0.17929743259E-01 -0.11095686329E-01  0.10204810104E+01  0.10202115651E+01 0.  0.
     999903    2    3    3    0    0 -0.25498928498E-01 -0.24346439271E-01 -0.12557637900E+00  0.13192862979E+00  0.19818979179E-01 0.  0.
         14    1    1    2    0    0  0.10259881238E-01 -0.17929743259E-01  0.11095686329E-01  0.23448989561E-01  0.00000000000E+00 0. -1.
     999901    1    3    3    0    0  0.15239047261E-01  0.42276182530E-01  0.11448069267E+00  0.88855238065E+00  0.88000000000E+00 0.  1.
        -11    1    4    4    0    0 -0.99070863298E-02 -0.22412738263E-01 -0.69738671056E-01  0.73920393381E-01  0.51100000000E-03 0.  1.
         11    1    4    4    0    0 -0.15591842169E-01 -0.19337010085E-02 -0.55837707939E-01  0.58008236404E-01  0.51100000000E-03 0. -1.
</event>
<event>
 8    1  0.1061721E+005  0.1043930E+01  0.7957747E-01            NaN
         13   -1    0    0    0    0  0.00000000000E+00  0.00000000000E+00  0.74505805969E-08  0.10566000000E+00  0.10566000000E+00 0. -1.
     999900   -1    0    0    0    0 -0.00000000000E+00 -0.00000000000E+00 -0.74505805969E-08  0.93827000000E+00  0.93827000000E+00 0.  1.
     999902    2    1    2    0    0  0.94551502316E-03  0.23278885440E-01 -0.65059419493E-02  0.10197405852E+01  0.10194536446E+01 0.  0.
     999903    2    3    3    0    0 -0.71824503984E-01 -0.95733247966E-01 -0.40421603693E-01  0.12810745683E+00  0.21307283045E-01 0.  0.
         14    1    1    2    0    0 -0.94551502316E-03 -0.23278885440E-01  0.65059419493E-02  0.24189414764E-01  0.00000000000E+00 0. -1.
     999901    1    3    3    0    0  0.72770019007E-01  0.11901213341E+00  0.33915661744E-01  0.89163312841E+00  0.88000000000E+00 0. -1.
        -11    1    4    4    0    0 -0.40394777619E-01 -0.48067706911E-01 -0.10554063507E-01  0.63670180494E-01  0.51100000000E-03 0.  1.
         11    1    4    4    0    0 -0.31429726365E-01 -0.47665541055E-01 -0.29867540186E-01  0.64437276333E-01  0.51100000000E-03 0. -1.
</event>
<event>
 8    1  0.1061721E+005  0.1043930E+01  0.7957747E-01            NaN
         13   -1    0    0    0    0  0.00000000000E+00  0.00000000000E+00  0.74505805969E-08  0.10566000000E+00  0.10566000000E+00 0.  1.
     999900   -1    0    0    0    0 -0.00000000000E+00 -0.00000000000E+00 -0.74505805969E-08  0.93827000000E+00  0.93827000000E+00 0.  1.
     999902    2    1    2    0    0 -0.13483664245E-01  0.92475957006E-02  0.17542720009E-01  0.10199492942E+01  0.10196673420E+01 0.  0.
     999903    2    3    3    0    0  0.12503970961E+00  0.48623102791E-02  0.25492629528E-01  0.12906705901E+00  0.18704558841E-01 0.  0.
         14    1    1    2    0    0  0.13483664245E-01 -0.92475957006E-02 -0.17542720009E-01  0.23980705849E-01  0.00000000000E+00 0. -1.
     999901    1    3    3    0    0 -0.13852337385E+00  0.43852854215E-02 -0.79499095195E-02  0.89088223514E+00  0.88000000000E+00 0.  1.
        -11    1    4    4    0    0  0.11255068342E+00  0.56552204522E-02  0.28383283305E-01  0.11621320815E+00  0.51100000000E-03 0. -1.
         11    1    4    4    0    0  0.12489026188E-01 -0.79291017311E-03 -0.28906537769E-02  0.12853850860E-01  0.51100000000E-03 0.  1.
</event>
<event>
 8    1  0.1061721E+005  0.1043930E+01  0.7957747E-01            NaN
         13   -1    0    0    0    0  0.00000000000E+00  0.00000000000E+00  0.74505805969E-08  0.10566000000E+00  0.10566000000E+00 0. -1.
     999900   -1    0    0    0    0 -0.00000000000E+00 -0.00000000000E+00 -0.74505805969E-08  0.93827000000E+00  0.93827000000E+00 0.  1.
     999902    2    1    2    0    0 -0.17476827760E-01 -0.13519401485E-01  0.83066664662E-02  0.10203246101E+01  0.10200515161E+01 0.  0.
     999903    2    3    3    0    0  0.56099099796E-01  0.66065753163E-01  0.94246294208E-01  0.12952001110E+00  0.19526304447E-01 0.  0.
         14    1    1    2    0    0  0.17476827760E-01  0.13519401485E-01 -0.83066664662E-02  0.23605389911E-01  0.00000000000E+00 0.  1.
     999901    1    3    3    0    0 -0.73575927557E-01 -0.79585154649E-01 -0.85939627742E-01  0.89080459898E+00  0.88000000000E+00 0.  1.
        -11    1    4    4    0    0  0.41511675945E-01  0.38461331937E-01  0.69819492058E-01  0.89875001454E-01  0.51100000000E-03 0.  1.
         11    1    4    4    0    0  0.14587423851E-01  0.27604421226E-01  0.24426802150E-01  0.39645009650E-01  0.51100000000E-03 0. -1.
</event>
<event>
 8    1  0.1061721E+005  0.1043930E+01  0.7957747E-01            NaN
         13   -1    0    0    0    0  0.00000000000E+00  0.00000000000E+00  0.74505805969E-08  0.10566000000E+00  0.10566000000E+00 0. -1.
     999900   -1    0    0    0    0 -0.00000000000E+00 -0.00000000000E+00 -0.74505805969E-08  0.93827000000E+00  0.93827000000E+00 0.  1.
     999902    2    1    2    0    0 -0.94215714327E-02 -0.18963016786E-01  0.81323526907E-02  0.10212474698E+01  0.10209955423E+01 0.  0.
     999903    2    3    3    0    0  0.26391909477E-01 -0.12722032691E+00 -0.22369018762E-01  0.13336651821E+00  0.20117423190E-01 0.  0.
         14    1    1    2    0    0  0.94215714327E-02  0.18963016786E-01 -0.81323526907E-02  0.22682530153E-01  0.00000000000E+00 0.  1.
     999901    1    3    3    0    0 -0.35813480909E-01  0.10825731012E+00  0.30501371452E-01  0.88788095163E+00  0.88000000000E+00 0. -1.
        -11    1    4    4    0    0  0.50988059845E-02 -0.62230890651E-01 -0.40904806126E-02  0.62575352387E-01  0.51100000000E-03 0. -1.
         11    1    4    4    0    0  0.21293103492E-01 -0.64989436258E-01 -0.18278538149E-01  0.70791165828E-01  0.51100000000E-03 0.  1.
</event>
<event>
 8    1  0.1061721E+005  0.1043930E+01  0.7957747E-01            NaN
         13   -1    0    0    0    0  0.00000000000E+00  0.00000000000E+00  0.74505805969E-08  0.10566000000E+00  0.10566000000E+00 0. -1.
     999900   -1    0    0    0    0 -0.00000000000E+00 -0.00000000000E+00 -0.74505805969E-08  0.93827000000E+00  0.93827000000E+00 0.  1.
     999902    2    1    2    0    0  0.22895554587E-01  0.84376874287E-02  0.10438148423E-01  0.10173902952E+01  0.10170440781E+01 0.  0.
     999903    2    3    3    0    0  0.44469650134E-01  0.87437825149E-01  0.83838709117E-01  0.13054526607E+00  0.19753842602E-01 0.  0.
         14    1    1    2    0    0 -0.22895554587E-01 -0.84376874287E-02 -0.10438148423E-01  0.26539704812E-01  0.00000000000E+00 0.  1.
     999901    1    3    3    0    0 -0.21574095547E-01 -0.79000137720E-01 -0.73400560694E-01  0.88684502912E+00  0.88000000000E+00 0.  1.
        -11    1    4    4    0    0  0.19524369105E-01  0.22671339624E-01  0.18243409454E-01  0.35046736493E-01  0.51100000000E-03 0.  1.
         11    1    4    4    0    0  0.24945281029E-01  0.64766485525E-01  0.65595299663E-01  0.95498529578E-01  0.51100000000E-03 0. -1.
</event>
<event>
 8    1  0.1061721E+005  0.1043930E+01  0.7957747E-01            NaN
         13   -1    0    0    0    0  0.00000000000E+00  0.00000000000E+00  0.74505805969E-08  0.10566000000E+00  0.10566000000E+00 0. -1.
     999900   -1    0    0    0    0 -0.00000000000E+00 -0.00000000000E+00 -0.74505805969E-08  0.93827000000E+00  0.93827000000E+00 0. -1.
     999902    2    1    2    0    0 -0.13819149243E-01 -0.16920135844E-01 -0.68474211017E-02  0.10210357418E+01  0.10207790353E+01 0.  0.
     999903    2    3    3    0    0  0.96127670059E-01  0.52797579867E-01 -0.65826563940E-01  0.12950481006E+00  0.20254528329E-01 0.  0.
         14    1    1    2    0    0  0.13819149243E-01  0.16920135844E-01  0.68474211017E-02  0.22894258200E-01  0.00000000000E+00 0. -1.
     999901    1    3    3    0    0 -0.10994681930E+00 -0.69717715711E-01  0.58979142839E-01  0.89153093174E+00  0.88000000000E+00 0.  1.
        -11    1    4    4    0    0  0.62873573537E-01  0.23406239178E-01 -0.41553078841E-01  0.78916777455E-01  0.51100000000E-03 0. -1.
         11    1    4    4    0    0  0.33254096522E-01  0.29391340689E-01 -0.24273485099E-01  0.50588032605E-01  0.51100000000E-03 0.  1.
</event>
<event>
 8    1  0.1061721E+005  0.1043930E+01  0.7957747E-01            NaN
         13   -1    0    0    0    0  0.00000000000E+00  0.00000000000E+00  0.74505805969E-08  0.10566000000E+00  0.10566000000E+00 0. -1.
     999900   -1    0    0    0    0 -0.00000000000E+00 -0.00000000000E+00 -0.74505805969E-08  0.93827000000E+00  0.93827000000E+00 0. -1.
     999902    2    1    2    0    0  0.11405595347E-01 -0.17389765003E-01 -0.83933688356E-02  0.10215036723E+01  0.10212574663E+01 0.  0.
     999903    2    3    3    0    0 -0.89579597526E-01  0.27447777841E-01  0.87086819588E-01  0.12946954697E+00  0.20009114086E-01 0.  0.
         14    1    1    2    0    0 -0.11405595347E-01  0.17389765003E-01  0.83933688356E-02  0.22426327664E-01  0.00000000000E+00 0.  1.
     999901    1    3    3    0    0  0.10098519287E+00 -0.44837542844E-01 -0.95480188424E-01  0.89203412536E+00  0.88000000000E+00 0. -1.
        -11    1    4    4    0    0 -0.49259847509E-01  0.47042805258E-02  0.43614880082E-01  0.65963487761E-01  0.51100000000E-03 0.  1.
         11    1    4    4    0    0 -0.40319750016E-01  0.22743497316E-01  0.43471939506E-01  0.63506059214E-01  0.51100000000E-03 0. -1.
</event>
<event>
 8    1  0.1061721E+005  0.1043930E+01  0.7957747E-01            NaN
         13   -1    0    0    0    0  0.00000000000E+00  0.00000000000E+00  0.74505805969E-08  0.10566000000E+00  0.10566000000E+00 0.  1.
     999900   -1    0    0    0    0 -0.00000000000E+00 -0.00000000000E+00 -0.74505805969E-08  0.93827000000E+00  0.93827000000E+00 0. -1.
     999902    2    1    2    0    0 -0.90369528606E-02  0.17750645368E-01  0.12647895421E-01  0.10203350601E+01  0.10200622107E+01 0.  0.
     999903    2    3    3    0    0  0.51440988557E-01  0.42475330378E-01 -0.10933540670E+00  0.12952148962E+00  0.19268007682E-01 0.  0.
         14    1    1    2    0    0  0.90369528606E-02 -0.17750645368E-01 -0.12647895421E-01  0.23594939851E-01  0.00000000000E+00 0. -1.
     999901    1    3    3    0    0 -0.60477941417E-01 -0.24724685010E-01  0.12198330212E+00  0.89081357053E+00  0.88000000000E+00 0.  1.
        -11    1    4    4    0    0  0.42437144522E-01  0.27578813408E-01 -0.68870732084E-01  0.85468947829E-01  0.51100000000E-03 0.  1.
         11    1    4    4    0    0  0.90038440343E-02  0.14896516970E-01 -0.40464674616E-01  0.44052541789E-01  0.51100000000E-03 0. -1.
</event>
<event>
 8    1  0.1061721E+005  0.1043930E+01  0.7957747E-01            NaN
         13   -1    0    0    0    0  0.00000000000E+00  0.00000000000E+00  0.74505805969E-08  0.10566000000E+00  0.10566000000E+00 0. -1.
     999900   -1    0    0    0    0 -0.00000000000E+00 -0.00000000000E+00 -0.74505805969E-08  0.93827000000E+00  0.93827000000E+00 0.  1.
     999902    2    1    2    0    0  0.16300972960E-01  0.15101731590E-01  0.12182364424E-01  0.10185884527E+01  0.10182731667E+01 0.  0.
     999903    2    3    3    0    0  0.45760766624E-01  0.11235710246E+00 -0.45602680984E-01  0.13085786402E+00  0.18055742235E-01 0.  0.
         14    1    1    2    0    0 -0.16300972960E-01 -0.15101731590E-01 -0.12182364424E-01  0.25341547297E-01  0.00000000000E+00 0. -1.
     999901    1    3    3    0    0 -0.29459793664E-01 -0.97255370873E-01  0.57785045408E-01  0.88773058868E+00  0.88000000000E+00 0.  1.
        -11    1    4    4    0    0  0.29832516616E-01  0.75014410820E-01 -0.39238121054E-01  0.89760972272E-01  0.51100000000E-03 0.  1.
         11    1    4    4    0    0  0.15928250008E-01  0.37342691643E-01 -0.63645599297E-02  0.41096891750E-01  0.51100000000E-03 0. -1.
</event>
<event>
 8    1  0.1061721E+005  0.1043930E+01  0.7957747E-01            NaN
         13   -1    0    0    0    0  0.00000000000E+00  0.00000000000E+00  0.74505805969E-08  0.10566000000E+00  0.10566000000E+00 0. -1.
     999900   -1    0    0    0    0 -0.00000000000E+00 -0.00000000000E+00 -0.74505805969E-08  0.93827000000E+00  0.93827000000E+00 0. -1.
     999902    2    1    2    0    0 -0.15363433194E-01  0.14277363236E-01  0.12096373468E-01  0.10197184236E+01  0.10194309506E+01 0.  0.
     999903    2    3    3    0    0  0.76182728262E-01 -0.16068549135E-01 -0.99098272120E-01  0.12749321477E+00  0.19288491860E-01 0.  0.
         14    1    1    2    0    0  0.15363433194E-01 -0.14277363236E-01 -0.12096373468E-01  0.24211576395E-01  0.00000000000E+00 0. -1.
     999901    1    3    3    0    0 -0.91546161456E-01  0.30345912371E-01  0.11119464559E+00  0.89222520884E+00  0.88000000000E+00 0.  1.
        -11    1    4    4    0    0  0.25169687254E-01 -0.94278962546E-02 -0.47807865929E-01  0.54847530026E-01  0.51100000000E-03 0. -1.
         11    1    4    4    0    0  0.51013041008E-01 -0.66406528807E-02 -0.51290406190E-01  0.72645684743E-01  0.51100000000E-03 0.  1.
</event>
<event>
 8    1  0.1061721E+005  0.1043930E+01  0.7957747E-01            NaN
         13   -1    0    0    0    0  0.00000000000E+00  0.00000000000E+00  0.74505805969E-08  0.10566000000E+00  0.10566000000E+00 0. -1.
     999900   -1    0    0    0    0 -0.00000000000E+00 -0.00000000000E+00 -0.74505805969E-08  0.93827000000E+00  0.93827000000E+00 0. -1.
     999902    2    1    2    0    0 -0.64061826720E-02 -0.19958628587E-01  0.79289766230E-02  0.10215189603E+01  0.10212730935E+01 0.  0.
     999903    2    3    3    0    0  0.50446857597E-01  0.78760386906E-01  0.88787137728E-01  0.13049945744E+00  0.19971694440E-01 0.  0.
         14    1    1    2    0    0  0.64061826720E-02  0.19958628587E-01 -0.79289766230E-02  0.22411039731E-01  0.00000000000E+00 0.  1.
     999901    1    3    3    0    0 -0.56853040269E-01 -0.98719015494E-01 -0.80858161105E-01  0.89101950283E+00  0.88000000000E+00 0. -1.
        -11    1    4    4    0    0  0.34872369470E-01  0.47850782212E-01  0.67811607544E-01  0.90024745206E-01  0.51100000000E-03 0.  1.
         11    1    4    4    0    0  0.15574488126E-01  0.30909604695E-01  0.20975530184E-01  0.40474712232E-01  0.51100000000E-03 0. -1.
</event>
<event>
 8    1  0.1061721E+005  0.1043930E+01  0.7957747E-01            NaN
         13   -1    0    0    0    0  0.00000000000E+00  0.00000000000E+00  0.74505805969E-08  0.10566000000E+00  0.10566000000E+00 0.  1.
     999900   -1    0    0    0    0 -0.00000000000E+00 -0.00000000000E+00 -0.74505805969E-08  0.93827000000E+00  0.93827000000E+00 0. -1.
     999902    2    1    2    0    0  0.68558419296E-02 -0.21565100609E-01  0.56820698511E-02  0.10205988609E+01  0.10203321483E+01 0.  0.
     999903    2    3    3    0    0 -0.12813941922E+00 -0.75615015209E-02  0.76265101962E-02  0.13019243565E+00  0.20372029319E-01 0.  0.
         14    1    1    2    0    0 -0.68558419296E-02  0.21565100609E-01 -0.56820698511E-02  0.23331139077E-01  0.00000000000E+00 0. -1.
     999901    1    3    3    0    0  0.13499526115E+00 -0.14003599088E-01 -0.19444403451E-02  0.89040642527E+00  0.88000000000E+00 0.  1.
        -11    1    4    4    0    0 -0.96276629195E-01 -0.12946529804E-01  0.10679848200E-01  0.97729843148E-01  0.51100000000E-03 0. -1.
         11    1    4    4    0    0 -0.31862790028E-01  0.53850282830E-02 -0.30533380040E-02  0.32462592501E-01  0.51100000000E-03 0.  1.
</event>
<event>
 8    1  0.1061721E+005  0.1043930E+01  0.7957747E-01            NaN
         13   -1    0    0    0    0  0.00000000000E+00  0.00000000000E+00  0.74505805969E-08  0.10566000000E+00  0.10566000000E+00 0.  1.
     999900   -1    0    0    0    0 -0.00000000000E+00 -0.00000000000E+00 -0.74505805969E-08  0.93827000000E+00  0.93827000000E+00 0. -1.
     999902    2    1    2    0    0  0.31561195663E-02  0.12054676515E-01  0.21491743482E-01  0.10190870663E+01  0.10187842153E+01 0.  0.
     999903    2    3    3    0    0 -0.39141879738E-01  0.12335361810E+00  0.28406634569E-02  0.13087288159E+00  0.19272776664E-01 0.  0.
         14    1    1    2    0    0 -0.31561195663E-02 -0.12054676515E-01 -0.21491743482E-01  0.24842933694E-01  0.00000000000E+00 0. -1.
     999901    1    3    3    0    0  0.42297999304E-01 -0.11129894158E+00  0.18651080025E-01  0.88821418471E+00  0.88000000000E+00 0. -1.
        -11    1    4    4    0    0 -0.29850462236E-01  0.97803115808E-01 -0.55691414499E-02  0.10240984335E+00  0.51100000000E-03 0.  1.
         11    1    4    4    0    0 -0.92914175018E-02  0.25550502288E-01  0.84098049068E-02  0.28463038241E-01  0.51100000000E-03 0. -1.
</event>
<event>
 8    1  0.1061721E+005  0.1043930E+01  0.7957747E-01            NaN
         13   -1    0    0    0    0  0.00000000000E+00  0.00000000000E+00  0.74505805969E-08  0.10566000000E+00  0.10566000000E+00 0.  1.
     999900   -1    0    0    0    0 -0.00000000000E+00 -0.00000000000E+00 -0.74505805969E-08  0.93827000000E+00  0.93827000000E+00 0. -1.
     999902    2    1    2    0    0 -0.50044593944E-03  0.18131318615E-01 -0.14467289757E-01  0.10207287579E+01  0.10204650409E+01 0.  0.
     999903    2    3    3    0    0  0.27009450261E-01 -0.33638144947E-01 -0.12352902593E+00  0.13206046546E+00  0.17874873176E-01 0.  0.
         14    1    1    2    0    0  0.50044593944E-03 -0.18131318615E-01  0.14467289757E-01  0.23201242074E-01  0.00000000000E+00 0.  1.
     999901    1    3    3    0    0 -0.27509896200E-01  0.51769463562E-01  0.10906173617E+00  0.88866829247E+00  0.88000000000E+00 0.  1.
        -11    1    4    4    0    0  0.27378693926E-01 -0.24450679097E-01 -0.87845698877E-01  0.95207964591E-01  0.51100000000E-03 0. -1.
         11    1    4    4    0    0 -0.36924366512E-03 -0.91874658494E-02 -0.35683327050E-01  0.36852500864E-01  0.51100000000E-03 0.  1.
</event>
<event>
 8    1  0.1061721E+005  0.1043930E+01  0.7957747E-01            NaN
         13   -1    0    0    0    0  0.00000000000E+00  0.00000000000E+00  0.74505805969E-08  0.10566000000E+00  0.10566000000E+00 0. -1.
     999900   -1    0    0    0    0 -0.00000000000E+00 -0.00000000000E+00 -0.74505805969E-08  0.93827000000E+00  0.93827000000E+00 0. -1.
     999902    2    1    2    0    0  0.11300853981E-02  0.20164030998E-01  0.12678061363E-01  0.10200846969E+01  0.10198059572E+01 0.  0.
     999903    2    3    3    0    0 -0.29431984217E-01 -0.79887719386E-01 -0.92767140100E-01  0.12763689264E+00  0.20908005082E-01 0.  0.
         14    1    1    2    0    0 -0.11300853981E-02 -0.20164030998E-01 -0.12678061363E-01  0.23845303081E-01  0.00000000000E+00 0.  1.
     999901    1    3    3    0    0  0.30562069615E-01  0.10005175038E+00  0.10544520146E+00  0.89244780428E+00  0.88000000000E+00 0.  1.
        -11    1    4    4    0    0 -0.20336699230E-02 -0.34045118653E-01 -0.39811020281E-01  0.52425035758E-01  0.51100000000E-03 0.  1.
         11    1    4    4    0    0 -0.27398314294E-01 -0.45842600733E-01 -0.52956119819E-01  0.75211856880E-01  0.51100000000E-03 0. -1.
</event>
<event>
 8    1  0.1061721E+005  0.1043930E+01  0.7957747E-01            NaN
         13   -1    0    0    0    0  0.00000000000E+00  0.00000000000E+00  0.74505805969E-08  0.10566000000E+00  0.10566000000E+00 0.  1.
     999900   -1    0    0    0    0 -0.00000000000E+00 -0.00000000000E+00 -0.74505805969E-08  0.93827000000E+00  0.93827000000E+00 0. -1.
     999902    2    1    2    0    0  0.20546364835E-01  0.51447286674E-02  0.10292482424E-01  0.10203809759E+01  0.10201091998E+01 0.  0.
     999903    2    3    3    0    0  0.31051028459E-01 -0.11967106285E+00 -0.36177699746E-01  0.13029738006E+00  0.19576813828E-01 0.  0.
         14    1    1    2    0    0 -0.20546364835E-01 -0.51447286674E-02 -0.10292482424E-01  0.23549024087E-01  0.00000000000E+00 0. -1.
     999901    1    3    3    0    0 -0.10504663623E-01  0.12481579152E+00  0.46470182170E-01  0.89008359585E+00  0.88000000000E+00 0. -1.
        -11    1    4    4    0    0  0.16833973742E-01 -0.55917517493E-01 -0.26985780852E-01  0.64332300781E-01  0.51100000000E-03 0.  1.
         11    1    4    4    0    0  0.14217054717E-01 -0.63753545359E-01 -0.91919188943E-02  0.65965079282E-01  0.51100000000E-03 0. -1.
</event>
<event>
 8    1  0.1061721E+005  0.1043930E+01  0.7957747E-01            NaN
         13   -1    0    0    0    0  0.00000000000E+00  0.00000000000E+00  0.74505805969E-08  0.10566000000E+00  0.10566000000E+00 0.  1.
     999900   -1    0    0    0    0 -0.00000000000E+00 -0.00000000000E+00 -0.74505805969E-08  0.93827000000E+00  0.93827000000E+00 0.  1.
     999902    2    1    2    0    0  0.47429440538E-02 -0.22046841745E-01  0.63181140271E-02  0.10205104075E+01  0.10202416451E+01 0.  0.
     999903    2    3    3    0    0  0.71658092329E-01 -0.88349246794E-01  0.66831510999E-01  0.13341654705E+00  0.19825553202E-01 0.  0.
         14    1    1    2    0    0 -0.47429440538E-02  0.22046841745E-01 -0.63181140271E-02  0.23419592526E-01  0.00000000000E+00 0. -1.
     999901    1    3    3    0    0 -0.66915148275E-01  0.66302405049E-01 -0.60513396972E-01  0.88709386042E+00  0.88000000000E+00 0. -1.
        -11    1    4    4    0    0  0.37624986392E-01 -0.35660442053E-01  0.38577585548E-01  0.64620414391E-01  0.51100000000E-03 0. -1.
         11    1    4    4    0    0  0.34033105937E-01 -0.52688804742E-01  0.28253925451E-01  0.68796132662E-01  0.51100000000E-03 0.  1.
</event>
<event>
 8    1  0.1061721E+005  0.1043930E+01  0.7957747E-01            NaN
         13   -1    0    0    0    0  0.00000000000E+00  0.00000000000E+00  0.74505805969E-08  0.10566000000E+00  0.10566000000E+00 0. -1.
     999900   -1    0    0    0    0 -0.00000000000E+00 -0.00000000000E+00 -0.74505805969E-08  0.93827000000E+00  0.93827000000E+00 0.  1.
     999902    2    1    2    0    0  0.55502651823E-02 -0.17262447601E-01  0.15842626081E-01  0.10198512471E+01  0.10195669570E+01 0.  0.
     999903    2    3    3    0    0  0.73928254165E-01  0.10200891265E+00  0.19451076783E-01  0.12916935793E+00  0.20860815323E-01 0.  0.
         14    1    1    2    0    0 -0.55502651823E-02  0.17262447601E-01 -0.15842626081E-01  0.24078752915E-01  0.00000000000E+00 0.  1.
     999901    1    3    3    0    0 -0.68377988983E-01 -0.11927136025E+00 -0.36084507021E-02  0.89068188916E+00  0.88000000000E+00 0. -1.
        -11    1    4    4    0    0  0.53358057607E-01  0.79748220316E-01  0.22932851928E-01  0.98656159330E-01  0.51100000000E-03 0. -1.
         11    1    4    4    0    0  0.20570196558E-01  0.22260692334E-01 -0.34817751448E-02  0.30513198600E-01  0.51100000000E-03 0.  1.
</event>
<event>
 8    1  0.1061721E+005  0.1043930E+01  0.7957747E-01            NaN
         13   -1    0    0    0    0  0.00000000000E+00  0.00000000000E+00  0.74505805969E-08  0.10566000000E+00  0.10566000000E+00 0. -1.
     999900   -1    0    0    0    0 -0.00000000000E+00 -0.00000000000E+00 -0.74505805969E-08  0.93827000000E+00  0.93827000000E+00 0.  1.
     999902    2    1    2    0    0 -0.17393844049E-01 -0.15220050732E-01  0.59806837725E-02  0.10200560742E+01  0.10197766570E+01 0.  0.
     999903    2    3    3    0    0 -0.81735234161E-01 -0.10117224181E+00  0.20736823296E-01  0.13340770122E+00  0.21239771384E-01 0.  0.
         14    1    1    2    0    0  0.17393844049E-01  0.15220050732E-01 -0.59806837725E-02  0.23873925808E-01  0.00000000000E+00 0.  1.
     999901    1    3    3    0    0  0.64341390112E-01  0.85952191083E-01 -0.14756139523E-01  0.88664837297E+00  0.88000000000E+00 0. -1.
        -11    1    4    4    0    0 -0.11525115174E-01 -0.27658207737E-01  0.75094135131E-02  0.30894289882E-01  0.51100000000E-03 0. -1.
         11    1    4    4    0    0 -0.70210118986E-01 -0.73514034078E-01  0.13227409783E-01  0.10251341134E+00  0.51100000000E-03 0.  1.
</event>
<event>
 8    1  0.1061721E+005  0.1043930E+01  0.7957747E-01            NaN
         13   -1    0    0    0    0  0.00000000000E+00  0.00000000000E+00  0.74505805969E-08  0.10566000000E+00  0.10566000000E+00 0. -1.
     999900   -1    0    0    0    0 -0.00000000000E+00 -0.00000000000E+00 -0.74505805969E-08  0.93827000000E+00  0.93827000000E+00 0. -1.
     999902    2    1    2    0    0  0.16590139622E-01 -0.84564764008E-02  0.13329472800E-01  0.10210297910E+01  0.10207729496E+01 0.  0.
     999903    2    3    3    0    0 -0.10378110165E+00 -0.25496288498E-01 -0.69001323856E-01  0.12886503551E+00  0.20601866328E-01 0.  0.
         14    1    1    2    0    0 -0.16590139622E-01  0.84564764008E-02 -0.13329472800E-01  0.22900208971E-01  0.00000000000E+00 0.  1.
     999901    1    3    3    0    0  0.12037124127E+00  0.17039812097E-01  0.82330796655E-01  0.89216475552E+00  0.88000000000E+00 0.  1.
        -11    1    4    4    0    0 -0.28207835693E-02 -0.18328190850E-02 -0.76627806460E-02  0.83842336545E-02  0.51100000000E-03 0.  1.
         11    1    4    4    0    0 -0.10096031808E+00 -0.23663469413E-01 -0.61338543210E-01  0.12048080185E+00  0.51100000000E-03 0. -1.
</event>
<event>
 8    1  0.1061721E+005  0.1043930E+01  0.7957747E-01            NaN
         13   -1    0    0    0    0  0.00000000000E+00  0.00000000000E+00  0.74505805969E-08  0.10566000000E+00  0.10566000000E+00 0. -1.
     999900   -1    0    0    0    0 -0.00000000000E+00 -0.00000000000E+00 -0.74505805969E-08  0.93827000000E+00  0.93827000000E+00 0.  1.
     999902    2    1    2    0    0  0.12310007054E-01  0.12506639598E-01 -0.16194275030E-01  0.10200509956E+01  0.10197714581E+01 0.  0.
     999903    2    3    3    0    0  0.53477784413E-01 -0.45449855896E-01  0.10527124396E+00  0.12886772961E+00  0.24480484155E-01 0.  0.
         14    1    1    2    0    0 -0.12310007054E-01 -0.12506639598E-01  0.16194275030E-01  0.23879004406E-01  0.00000000000E+00 0. -1.
     999901    1    3    3    0    0 -0.41167777359E-01  0.57956495494E-01 -0.12146551899E+00  0.89118326598E+00  0.88000000000E+00 0.  1.
        -11    1    4    4    0    0  0.33845475428E-01 -0.41365596814E-01  0.67490955303E-01  0.86092502435E-01  0.51100000000E-03 0.  1.
         11    1    4    4    0    0  0.19632308985E-01 -0.40842590824E-02  0.37780288654E-01  0.42775227178E-01  0.51100000000E-03 0. -1.
</event>
<event>
 8    1  0.1061721E+005  0.1043930E+01  0.7957747E-01            NaN
         13   -1    0    0    0    0  0.00000000000E+00  0.00000000000E+00  0.74505805969E-08  0.10566000000E+00  0.10566000000E+00 0.  1.
     999900   -1    0    0    0    0 -0.00000000000E+00 -0.00000000000E+00 -0.74505805969E-08  0.93827000000E+00  0.93827000000E+00 0.  1.
     999902    2    1    2    0    0  0.14874164320E-01  0.17962769871E-01  0.66316267242E-02  0.10196837562E+01  0.10193954494E+01 0.  0.
     999903    2    3    3    0    0 -0.42266061156E-01 -0.71217734479E-01 -0.94915507124E-01  0.12753467218E+00  0.19943758031E-01 0.  0.
         14    1    1    2    0    0 -0.14874164320E-01 -0.17962769871E-01 -0.66316267242E-02  0.24246243805E-01  0.00000000000E+00 0.  1.
     999901    1    3    3    0    0  0.57140225476E-01  0.89180504349E-01  0.10154713385E+00  0.89214908402E+00  0.88000000000E+00 0. -1.
        -11    1    4    4    0    0 -0.14726553149E-02 -0.18134521945E-01 -0.21751929221E-01  0.28362601180E-01  0.51100000000E-03 0. -1.
         11    1    4    4    0    0 -0.40793405841E-01 -0.53083212534E-01 -0.73163577904E-01  0.99172070996E-01  0.51100000000E-03 0.  1.
</event>
<event>
 8    1  0.1061721E+005  0.1043930E+01  0.7957747E-01            NaN
         13   -1    0    0    0    0  0.00000000000E+00  0.00000000000E+00  0.74505805969E-08  0.10566000000E+00  0.10566000000E+00 0. -1.
     999900   -1    0    0    0    0 -0.00000000000E+00 -0.00000000000E+00 -0.74505805969E-08  0.93827000000E+00  0.93827000000E+00 0.  1.
     999902    2    1    2    0    0  0.14952576215E-01  0.88315595440E-02  0.10527350671E-01  0.10236223391E+01  0.10234208773E+01 0.  0.
     999903    2    3    3    0    0 -0.66132861044E-02 -0.12995404745E+00  0.11466470596E-01  0.13248407088E+00  0.22107896491E-01 0.  0.
         14    1    1    2    0    0 -0.14952576215E-01 -0.88315595440E-02 -0.10527350671E-01  0.20307660909E-01  0.00000000000E+00 0. -1.
     999901    1    3    3    0    0  0.21565862319E-01  0.13878560699E+00 -0.93911992478E-03  0.89113826821E+00  0.88000000000E+00 0.  1.
        -11    1    4    4    0    0 -0.41891059608E-02 -0.10880071704E+00  0.17656533673E-01  0.11030484549E+00  0.51100000000E-03 0.  1.
         11    1    4    4    0    0 -0.24241801436E-02 -0.21153330413E-01 -0.61900630776E-02  0.22179225388E-01  0.51100000000E-03 0. -1.
</event>
<event>
 8    1  0.1061721E+005  0.1043930E+01  0.7957747E-01            NaN
         13   -1    0    0    0    0  0.00000000000E+00  0.00000000000E+00  0.74505805969E-08  0.10566000000E+00  0.10566000000E+00 0. -1.
     999900   -1    0    0    0    0 -0.00000000000E+00 -0.00000000000E+00 -0.74505805969E-08  0.93827000000E+00  0.93827000000E+00 0.  1.
     999902    2    1    2    0    0 -0.16924353016E-01 -0.15613152886E-01  0.51688409582E-02  0.10203308224E+01  0.10200578738E+01 0.  0.
     999903    2    3    3    0    0  0.60535812216E-02 -0.83027395988E-02 -0.12794717079E+00  0.12999307736E+00  0.20546053580E-01 0.  0.
         14    1    1    2    0    0  0.16924353016E-01  0.15613152886E-01 -0.51688409582E-02  0.23599177631E-01  0.00000000000E+00 0. -1.
     999901    1    3    3    0    0 -0.22977934237E-01 -0.73104132868E-02  0.13311601175E+00  0.89033774501E+00  0.88000000000E+00 0. -1.
        -11    1    4    4    0    0  0.11257920381E-01  0.18856974073E-02 -0.58030698796E-01  0.59144904681E-01  0.51100000000E-03 0. -1.
         11    1    4    4    0    0 -0.52043391594E-02 -0.10188437006E-01 -0.69916471994E-01  0.70848172678E-01  0.51100000000E-03 0.  1.
</event>
<event>
 8    1  0.1061721E+005  0.1043930E+01  0.7957747E-01            NaN
         13   -1    0    0    0    0  0.00000000000E+00  0.00000000000E+00  0.74505805969E-08  0.10566000000E+00  0.10566000000E+00 0. -1.
     999900   -1    0    0    0    0 -0.00000000000E+00 -0.00000000000E+00 -0.74505805969E-08  0.93827000000E+00  0.93827000000E+00 0. -1.
     999902    2    1    2    0    0 -0.12905193732E-01 -0.12751213713E-01  0.15429498858E-01  0.10201138939E+01  0.10198358444E+01 0.  0.
     999903    2    3    3    0    0  0.33342685355E-01  0.56732058309E-01 -0.10761880449E+00  0.12764110640E+00  0.19498303952E-01 0.  0.
         14    1    1    2    0    0  0.12905193732E-01  0.12751213713E-01 -0.15429498858E-01  0.23816106135E-01  0.00000000000E+00 0.  1.
     999901    1    3    3    0    0 -0.46247879088E-01 -0.69483272022E-01  0.12304830334E+00  0.89247278747E+00  0.88000000000E+00 0.  1.
        -11    1    4    4    0    0  0.89587420506E-02  0.31748762528E-01 -0.43064247286E-01  0.54249732686E-01  0.51100000000E-03 0. -1.
         11    1    4    4    0    0  0.24383943305E-01  0.24983295781E-01 -0.64554557200E-01  0.73391373713E-01  0.51100000000E-03 0.  1.
</event>
<event>
 8    1  0.1061721E+005  0.1043930E+01  0.7957747E-01            NaN
         13   -1    0    0    0    0  0.00000000000E+00  0.00000000000E+00  0.74505805969E-08  0.10566000000E+00  0.10566000000E+00 0. -1.
     999900   -1    0    0    0    0 -0.00000000000E+00 -0.00000000000E+00 -0.74505805969E-08  0.93827000000E+00  0.93827000000E+00 0. -1.
     999902    2    1    2    0    0  0.20250495638E-01  0.11697974689E-01  0.29311976043E-02  0.10203605896E+01  0.10200883372E+01 0.  0.
     999903    2    3    3    0    0 -0.16278857537E-01 -0.70851785000E-01 -0.10483568703E+00  0.12920260258E+00  0.20440513691E-01 0.  0.
         14    1    1    2    0    0 -0.20250495638E-01 -0.11697974689E-01 -0.29311976043E-02  0.23569410362E-01  0.00000000000E+00 0.  1.
     999901    1    3    3    0    0  0.36529353174E-01  0.82549759689E-01  0.10776688463E+00  0.89115798705E+00  0.88000000000E+00 0.  1.
        -11    1    4    4    0    0 -0.72407269047E-02 -0.63255921740E-01 -0.87104715732E-01  0.10789454289E+00  0.51100000000E-03 0. -1.
         11    1    4    4    0    0 -0.90381306319E-02 -0.75958632598E-02 -0.17730971294E-01  0.21308059696E-01  0.51100000000E-03 0.  1.
</event>
<event>
 8    1  0.1061721E+005  0.1043930E+01  0.7957747E-01            NaN
         13   -1    0    0    0    0  0.00000000000E+00  0.00000000000E+00  0.74505805969E-08  0.10566000000E+00  0.10566000000E+00 0.  1.
     999900   -1    0    0    0    0 -0.00000000000E+00 -0.00000000000E+00 -0.74505805969E-08  0.93827000000E+00  0.93827000000E+00 0. -1.
     999902    2    1    2    0    0  0.74535456160E-02 -0.22801822003E-01 -0.79507387625E-02  0.10186576302E+01  0.10183440847E+01 0.  0.
     999903    2    3    3    0    0  0.17485840981E-01  0.21213292687E-02  0.12546733075E+00  0.12819584455E+00  0.19541463609E-01 0.  0.
         14    1    1    2    0    0 -0.74535456160E-02  0.22801822003E-01  0.79507387625E-02  0.25272369809E-01  0.00000000000E+00 0. -1.
     999901    1    3    3    0    0 -0.10032295366E-01 -0.24923151272E-01 -0.13341806952E+00  0.89046178564E+00  0.88000000000E+00 0. -1.
        -11    1    4    4    0    0 -0.17185129578E-02 -0.53434420955E-02  0.30713822722E-01  0.31226682299E-01  0.51100000000E-03 0.  1.
         11    1    4    4    0    0  0.19204353939E-01  0.74647713641E-02  0.94753508031E-01  0.96969162248E-01  0.51100000000E-03 0. -1.
</event>
<event>
 8    1  0.1061721E+005  0.1043930E+01  0.7957747E-01            NaN
         13   -1    0    0    0    0  0.00000000000E+00  0.00000000000E+00  0.74505805969E-08  0.10566000000E+00  0.10566000000E+00 0.  1.
     999900   -1    0    0    0    0 -0.00000000000E+00 -0.00000000000E+00 -0.74505805969E-08  0.93827000000E+00  0.93827000000E+00 0. -1.
     999902    2    1    2    0    0  0.14263239995E-01  0.14189216309E-01 -0.12532437633E-01  0.10202269228E+01  0.10199515372E+01 0.  0.
     999903    2    3    3    0    0 -0.42473076943E-01 -0.94203129026E-01 -0.75572920619E-01  0.12952943620E+00  0.19708290829E-01 0.  0.
         14    1    1    2    0    0 -0.14263239995E-01 -0.14189216309E-01  0.12532437633E-01  0.23703077177E-01  0.00000000000E+00 0.  1.
     999901    1    3    3    0    0  0.56736316938E-01  0.10839234534E+00  0.63040482986E-01  0.89069748663E+00  0.88000000000E+00 0.  1.
        -11    1    4    4    0    0 -0.21811044083E-01 -0.26446379435E-01 -0.26957909514E-01  0.43613330939E-01  0.51100000000E-03 0.  1.
         11    1    4    4    0    0 -0.20662032860E-01 -0.67756749591E-01 -0.48615011105E-01  0.85916105258E-01  0.51100000000E-03 0. -1.
</event>
<event>
 8    1  0.1061721E+005  0.1043930E+01  0.7957747E-01            NaN
         13   -1    0    0    0    0  0.00000000000E+00  0.00000000000E+00  0.74505805969E-08  0.10566000000E+00  0.10566000000E+00 0.  1.
     999900   -1    0    0    0    0 -0.00000000000E+00 -0.00000000000E+00 -0.74505805969E-08  0.93827000000E+00  0.93827000000E+00 0. -1.
     999902    2    1    2    0    0 -0.10672358252E-01  0.72300724610E-04  0.22234696196E-01  0.10192665417E+01  0.10189681040E+01 0.  0.
     999903    2    3    3    0    0  0.11989453410E+00 -0.41013321691E-01 -0.24667385831E-02  0.12834235719E+00  0.20220879963E-01 0.  0.
         14    1    1    2    0    0  0.10672358252E-01 -0.72300724610E-04 -0.22234696196E-01  0.24663458253E-01  0.00000000000E+00 0. -1.
     999901    1    3    3    0    0 -0.13056689235E+00  0.41085622416E-01  0.24701434779E-01  0.89092418456E+00  0.88000000000E+00 0.  1.
        -11    1    4    4    0    0  0.92083278861E-01 -0.23576059935E-01 -0.64422090098E-02  0.95272892397E-01  0.51100000000E-03 0. -1.
         11    1    4    4    0    0  0.27811255240E-01 -0.17437261756E-01  0.39754704267E-02  0.33069464793E-01  0.51100000000E-03 0.  1.
</event>
<event>
 8    1  0.1061721E+005  0.1043930E+01  0.7957747E-01            NaN
         13   -1    0    0    0    0  0.00000000000E+00  0.00000000000E+00  0.74505805969E-08  0.10566000000E+00  0.10566000000E+00 0.  1.
     999900   -1    0    0    0    0 -0.00000000000E+00 -0.00000000000E+00 -0.74505805969E-08  0.93827000000E+00  0.93827000000E+00 0. -1.
     999902    2    1    2    0    0  0.66676887907E-03 -0.18517866055E-01  0.15516602679E-01  0.10197614067E+01  0.10194749657E+01 0.  0.
     999903    2    3    3    0    0  0.81907035589E-01 -0.70730582323E-01 -0.70617169152E-01  0.13029798680E+00  0.16709369517E-01 0.  0.
         14    1    1    2    0    0 -0.66676887907E-03  0.18517866055E-01 -0.15516602679E-01  0.24168593311E-01  0.00000000000E+00 0. -1.
     999901    1    3    3    0    0 -0.81240266710E-01  0.52212716268E-01  0.86133771830E-01  0.88946341989E+00  0.88000000000E+00 0.  1.
        -11    1    4    4    0    0  0.49934566317E-01 -0.36121030646E-01 -0.32407944406E-01  0.69632792201E-01  0.51100000000E-03 0. -1.
         11    1    4    4    0    0  0.31972469273E-01 -0.34609551677E-01 -0.38209224746E-01  0.60665194596E-01  0.51100000000E-03 0.  1.
</event>
<event>
 8    1  0.1061721E+005  0.1043930E+01  0.7957747E-01            NaN
         13   -1    0    0    0    0  0.00000000000E+00  0.00000000000E+00  0.74505805969E-08  0.10566000000E+00  0.10566000000E+00 0.  1.
     999900   -1    0    0    0    0 -0.00000000000E+00 -0.00000000000E+00 -0.74505805969E-08  0.93827000000E+00  0.93827000000E+00 0.  1.
     999902    2    1    2    0    0 -0.21532814838E-01  0.90856263079E-02  0.96934071015E-03  0.10205387550E+01  0.10202706504E+01 0.  0.
     999903    2    3    3    0    0  0.11213493003E+00  0.60270172432E-01  0.27253453839E-02  0.12897271297E+00  0.20488947436E-01 0.  0.
         14    1    1    2    0    0  0.21532814838E-01 -0.90856263079E-02 -0.96934071015E-03  0.23391244979E-01  0.00000000000E+00 0.  1.
     999901    1    3    3    0    0 -0.13366774487E+00 -0.51184546124E-01 -0.17560046737E-02  0.89156604205E+00  0.88000000000E+00 0.  1.
        -11    1    4    4    0    0  0.57123703357E-01  0.19397658293E-01  0.35331422104E-02  0.60432862313E-01  0.51100000000E-03 0. -1.
         11    1    4    4    0    0  0.55011226671E-01  0.40872514139E-01 -0.80779682650E-03  0.68539850661E-01  0.51100000000E-03 0.  1.
</event>
<event>
 8    1  0.1061721E+005  0.1043930E+01  0.7957747E-01            NaN
         13   -1    0    0    0    0  0.00000000000E+00  0.00000000000E+00  0.74505805969E-08  0.10566000000E+00  0.10566000000E+00 0. -1.
     999900   -1    0    0    0    0 -0.00000000000E+00 -0.00000000000E+00 -0.74505805969E-08  0.93827000000E+00  0.93827000000E+00 0.  1.
     999902    2    1    2    0    0 -0.15722407809E-01  0.86352015871E-02  0.14213299973E-01  0.10210437878E+01  0.10207872638E+01 0.  0.
     999903    2    3    3    0    0 -0.44655170254E-01 -0.21307996473E-01 -0.11859979305E+00  0.13010438606E+00  0.20325486897E-01 0.  0.
         14    1    1    2    0    0  0.15722407809E-01 -0.86352015871E-02 -0.14213299973E-01  0.22886212222E-01  0.00000000000E+00 0.  1.
     999901    1    3    3    0    0  0.28932762445E-01  0.29943198060E-01  0.13281309302E+00  0.89093940172E+00  0.88000000000E+00 0. -1.
        -11    1    4    4    0    0 -0.31421397197E-01 -0.13499725491E-01 -0.55782800530E-01  0.65433391675E-01  0.51100000000E-03 0. -1.
         11    1    4    4    0    0 -0.13233773057E-01 -0.78082709822E-02 -0.62816992517E-01  0.64670994387E-01  0.51100000000E-03 0.  1.
</event>
<event>
 8    1  0.1061721E+005  0.1043930E+01  0.7957747E-01            NaN
         13   -1    0    0    0    0  0.00000000000E+00  0.00000000000E+00  0.74505805969E-08  0.10566000000E+00  0.10566000000E+00 0.  1.
     999900   -1    0    0    0    0 -0.00000000000E+00 -0.00000000000E+00 -0.74505805969E-08  0.93827000000E+00  0.93827000000E+00 0.  1.
     999902    2    1    2    0    0 -0.11564642275E-01  0.70683008268E-02 -0.19628104335E-01  0.10200770273E+01  0.10197981061E+01 0.  0.
     999903    2    3    3    0    0  0.12178811914E+00  0.36879007817E-01 -0.13427552125E-01  0.12950974511E+00  0.20001693495E-01 0.  0.
         14    1    1    2    0    0  0.11564642275E-01 -0.70683008268E-02  0.19628104335E-01  0.23852972714E-01  0.00000000000E+00 0.  1.
     999901    1    3    3    0    0 -0.13335276141E+00 -0.29810706990E-01 -0.62005522102E-02  0.89056728217E+00  0.88000000000E+00 0.  1.
        -11    1    4    4    0    0  0.97011527561E-01  0.24247143415E-01 -0.17113836275E-01  0.10145099781E+00  0.51100000000E-03 0. -1.
         11    1    4    4    0    0  0.24776591577E-01  0.12631864402E-01  0.36862841506E-02  0.28058747304E-01  0.51100000000E-03 0.  1.
</event>
<event>
 8    1  0.1061721E+005  0.1043930E+01  0.7957747E-01            NaN
         13   -1    0    0    0    0  0.00000000000E+00  0.00000000000E+00  0.74505805969E-08  0.10566000000E+00  0.10566000000E+00 0. -1.
     999900   -1    0    0    0    0 -0.00000000000E+00 -0.00000000000E+00 -0.74505805969E-08  0.93827000000E+00  0.93827000000E+00 0. -1.
     999902    2    1    2    0    0  0.22298106622E-01 -0.92018824458E-03 -0.45670904202E-02  0.10211503903E+01  0.10208962772E+01 0.  0.
     999903    2    3    3    0    0 -0.79643501699E-01 -0.33990419431E-01 -0.94905440860E-01  0.13005738206E+00  0.20234721303E-01 0.  0.
         14    1    1    2    0    0 -0.22298106622E-01  0.92018824458E-03  0.45670904202E-02  0.22779609748E-01  0.00000000000E+00 0.  1.
     999901    1    3    3    0    0  0.10194160832E+00  0.33070231186E-01  0.90338350440E-01  0.89109300820E+00  0.88000000000E+00 0.  1.
        -11    1    4    4    0    0 -0.64384359844E-01 -0.20583984420E-01 -0.80676931447E-01  0.10525243273E+00  0.51100000000E-03 0. -1.
         11    1    4    4    0    0 -0.15259141855E-01 -0.13406435010E-01 -0.14228509413E-01  0.24804949324E-01  0.51100000000E-03 0.  1.
</event>
<event>
 7    1  0.1061721E+005  0.1043930E+01  0.7957747E-01            NaN
         13   -1    0    0    0    0  0.00000000000E+00  0.00000000000E+00  0.74505805969E-08  0.10566000000E+00  0.10566000000E+00 0. -1.
     999900   -1    0    0    0    0 -0.00000000000E+00 -0.00000000000E+00 -0.74505805969E-08  0.93827000000E+00  0.93827000000E+00 0. -1.
     999903    2    1    2    0    0 -0.46182096011E-02  0.31017055005E-01 -0.10811871170E+00  0.11442800361E+00  0.20511621816E-01 0.  0.
         14    1    1    2    0    0 -0.33137934293E-01 -0.69717837718E-02 -0.19645832689E-01  0.39149549170E-01  0.00000000000E+00 0.  1.
     999901    1    1    2    0    0  0.37756143894E-01 -0.24045271233E-01  0.12776454439E+00  0.89035244722E+00  0.88000000000E+00 0.  1.
        -11    1    3    3    0    0  0.63939336065E-02  0.12414741916E-01 -0.61066796987E-01  0.62645215452E-01  0.51100000000E-03 0.  1.
         11    1    3    3    0    0 -0.11012143208E-01  0.18602313088E-01 -0.47051914711E-01  0.51782788156E-01  0.51100000000E-03 0. -1.
</event>
<event>
 8    1  0.1061721E+005  0.1043930E+01  0.7957747E-01            NaN
         13   -1    0    0    0    0  0.00000000000E+00  0.00000000000E+00  0.74505805969E-08  0.10566000000E+00  0.10566000000E+00 0. -1.
     999900   -1    0    0    0    0 -0.00000000000E+00 -0.00000000000E+00 -0.74505805969E-08  0.93827000000E+00  0.93827000000E+00 0. -1.
     999902    2    1    2    0    0  0.14918334817E-01  0.11744382901E-01  0.14779342618E-01  0.10198693223E+01  0.10195854640E+01 0.  0.
     999903    2    3    3    0    0 -0.27536517466E-01 -0.80644159503E-01 -0.93095181061E-01  0.12747088544E+00  0.17898984349E-01 0.  0.
         14    1    1    2    0    0 -0.14918334817E-01 -0.11744382901E-01 -0.14779342618E-01  0.24060677705E-01  0.00000000000E+00 0.  1.
     999901    1    3    3    0    0  0.42454852283E-01  0.92388542404E-01  0.10787452368E+00  0.89239843686E+00  0.88000000000E+00 0.  1.
        -11    1    4    4    0    0 -0.16746553847E-01 -0.29844785158E-01 -0.28161502294E-01  0.44322563096E-01  0.51100000000E-03 0.  1.
         11    1    4    4    0    0 -0.10789963620E-01 -0.50799374345E-01 -0.64933678767E-01  0.83148322340E-01  0.51100000000E-03 0. -1.
</event>
<event>
 8    1  0.1061721E+005  0.1043930E+01  0.7957747E-01            NaN
         13   -1    0    0    0    0  0.00000000000E+00  0.00000000000E+00  0.74505805969E-08  0.10566000000E+00  0.10566000000E+00 0. -1.
     999900   -1    0    0    0    0 -0.00000000000E+00 -0.00000000000E+00 -0.74505805969E-08  0.93827000000E+00  0.93827000000E+00 0.  1.
     999902    2    1    2    0    0 -0.21904787109E-01 -0.28863929511E-02  0.82591736204E-02  0.10203426112E+01  0.10200699384E+01 0.  0.
     999903    2    3    3    0    0 -0.12574474913E-01 -0.58491967784E-01  0.11587511909E+00  0.13199570462E+00  0.20405761422E-01 0.  0.
         14    1    1    2    0    0  0.21904787109E-01  0.28863929511E-02 -0.82591736204E-02  0.23587388823E-01  0.00000000000E+00 0. -1.
     999901    1    3    3    0    0 -0.93303121961E-02  0.55605574833E-01 -0.10761594547E+00  0.88834690656E+00  0.88000000000E+00 0.  1.
        -11    1    4    4    0    0 -0.16023799835E-02 -0.47964244328E-01  0.87321199562E-01  0.99641303532E-01  0.51100000000E-03 0.  1.
         11    1    4    4    0    0 -0.10972094930E-01 -0.10527723456E-01  0.28553919524E-01  0.32354401084E-01  0.51100000000E-03 0. -1.
</event>
<event>
 8    1  0.1061721E+005  0.1043930E+01  0.7957747E-01            NaN
         13   -1    0    0    0    0  0.00000000000E+00  0.00000000000E+00  0.74505805969E-08  0.10566000000E+00  0.10566000000E+00 0.  1.
     999900   -1    0    0    0    0 -0.00000000000E+00 -0.00000000000E+00 -0.74505805969E-08  0.93827000000E+00  0.93827000000E+00 0.  1.
     999902    2    1    2    0    0  0.61855329409E-02 -0.20152627602E-01 -0.10729534362E-01  0.10202759914E+01  0.10200017580E+01 0.  0.
     999903    2    3    3    0    0  0.11778415273E+00 -0.49077389628E-01  0.26681458386E-01  0.13196834410E+00  0.20543778054E-01 0.  0.
         14    1    1    2    0    0 -0.61855329409E-02  0.20152627602E-01  0.10729534362E-01  0.23654008638E-01  0.00000000000E+00 0.  1.
     999901    1    3    3    0    0 -0.11159861979E+00  0.28924762026E-01 -0.37410992748E-01  0.88830764726E+00  0.88000000000E+00 0.  1.
        -11    1    4    4    0    0  0.60237989153E-01 -0.35971796000E-01  0.16461402335E-01  0.72068192238E-01  0.51100000000E-03 0. -1.
         11    1    4    4    0    0  0.57546163578E-01 -0.13105593629E-01  0.10220056051E-01  0.59900151866E-01  0.51100000000E-03 0.  1.
</event>
<event>
 8    1  0.1061721E+005  0.1043930E+01  0.7957747E-01            NaN
         13   -1    0    0    0    0  0.00000000000E+00  0.00000000000E+00  0.74505805969E-08  0.10566000000E+00  0.10566000000E+00 0. -1.
     999900   -1    0    0    0    0 -0.00000000000E+00 -0.00000000000E+00 -0.74505805969E-08  0.93827000000E+00  0.93827000000E+00 0.  1.
     999902    2    1    2    0    0 -0.22953831498E-01 -0.47448404839E-02 -0.36320222847E-02  0.10202111578E+01  0.10199354013E+01 0.  0.
     999903    2    3    3    0    0 -0.34885895724E-01 -0.12110288058E+00 -0.33834306193E-01  0.13195795871E+00  0.19626746712E-01 0.  0.
         14    1    1    2    0    0  0.22953831498E-01  0.47448404839E-02  0.36320222847E-02  0.23718842247E-01  0.00000000000E+00 0. -1.
     999901    1    3    3    0    0  0.11932064226E-01  0.11635804010E+00  0.30202283908E-01  0.88825319904E+00  0.88000000000E+00 0.  1.
        -11    1    4    4    0    0 -0.12328078591E-01 -0.31971667213E-01 -0.17836102302E-01  0.38633621270E-01  0.51100000000E-03 0. -1.
         11    1    4    4    0    0 -0.22557817133E-01 -0.89131213368E-01 -0.15998203890E-01  0.93324337442E-01  0.51100000000E-03 0.  1.
</event>
<event>
 8    1  0.1061721E+005  0.1043930E+01  0.7957747E-01            NaN
         13   -1    0    0    0    0  0.00000000000E+00  0.00000000000E+00  0.74505805969E-08  0.10566000000E+00  0.10566000000E+00 0.  1.
     999900   -1    0    0    0    0 -0.00000000000E+00 -0.00000000000E+00 -0.74505805969E-08  0.93827000000E+00  0.93827000000E+00 0.  1.
     999902    2    1    2    0    0 -0.11904412137E-01 -0.20116698153E-01 -0.38308958446E-02  0.10202430345E+01  0.10199680275E+01 0.  0.
     999903    2    3    3    0    0  0.37717700156E-01  0.11817450898E+00 -0.22506267812E-01  0.12786666684E+00  0.21342748606E-01 0.  0.
         14    1    1    2    0    0  0.11904412137E-01  0.20116698153E-01  0.38308958446E-02  0.23686965527E-01  0.00000000000E+00 0.  1.
     999901    1    3    3    0    0 -0.49622112293E-01 -0.13829120714E+00  0.18675371968E-01  0.89237636764E+00  0.88000000000E+00 0.  1.
        -11    1    4    4    0    0  0.35388746059E-01  0.79346808100E-01 -0.13340100822E-01  0.87900504630E-01  0.51100000000E-03 0. -1.
         11    1    4    4    0    0  0.23289540973E-02  0.38827700884E-01 -0.91661669905E-02  0.39966162206E-01  0.51100000000E-03 0.  1.
</event>
<event>
 8    1  0.1061721E+005  0.1043930E+01  0.7957747E-01            NaN
         13   -1    0    0    0    0  0.00000000000E+00  0.00000000000E+00  0.74505805969E-08  0.10566000000E+00  0.10566000000E+00 0.  1.
     999900   -1    0    0    0    0 -0.00000000000E+00 -0.00000000000E+00 -0.74505805969E-08  0.93827000000E+00  0.93827000000E+00 0. -1.
     999902    2    1    2    0    0 -0.87436974422E-02  0.20028272872E-01  0.52700618500E-02  0.10214498418E+01  0.10212024392E+01 0.  0.
     999903    2    3    3    0    0  0.64376185210E-01  0.93673442141E-01  0.66808952704E-01  0.13321723532E+00  0.19088966429E-01 0.  0.
         14    1    1    2    0    0  0.87436974422E-02 -0.20028272872E-01 -0.52700618500E-02  0.22480158165E-01  0.00000000000E+00 0. -1.
     999901    1    3    3    0    0 -0.73119882652E-01 -0.73645169268E-01 -0.61538890854E-01  0.88823260652E+00  0.88000000000E+00 0. -1.
        -11    1    4    4    0    0  0.44698660131E-01  0.58322821199E-01  0.52456997168E-01  0.90285765008E-01  0.51100000000E-03 0.  1.
         11    1    4    4    0    0  0.19677525079E-01  0.35350620941E-01  0.14351955536E-01  0.42931470309E-01  0.51100000000E-03 0. -1.
</event>
<event>
 8    1  0.1061721E+005  0.1043930E+01  0.7957747E-01            NaN
         13   -1    0    0    0    0  0.00000000000E+00  0.00000000000E+00  0.74505805969E-08  0.10566000000E+00  0.10566000000E+00 0.  1.
     999900   -1    0    0    0    0 -0.00000000000E+00 -0.00000000000E+00 -0.74505805969E-08  0.93827000000E+00  0.93827000000E+00 0.  1.
     999902    2    1    2    0    0 -0.21616184426E-01 -0.60474134668E-02  0.66586615391E-02  0.10205170033E+01  0.10202483941E+01 0.  0.
     999903    2    3    3    0    0  0.32950236890E-01  0.19700246255E-01 -0.12170209805E+00  0.12916021680E+00  0.19928450065E-01 0.  0.
         14    1    1    2    0    0  0.21616184426E-01  0.60474134668E-02 -0.66586615391E-02  0.23412996653E-01  0.00000000000E+00 0. -1.
     999901    1    3    3    0    0 -0.54566421316E-01 -0.25747659722E-01  0.12836075959E+00  0.89135678654E+00  0.88000000000E+00 0. -1.
        -11    1    4    4    0    0  0.31807348986E-01  0.20809105973E-01 -0.93824857864E-01  0.10123285739E+00  0.51100000000E-03 0.  1.
         11    1    4    4    0    0  0.11428879043E-02 -0.11088597182E-02 -0.27877240183E-01  0.27927359414E-01  0.51100000000E-03 0. -1.
</event>
<event>
 8    1  0.1061721E+005  0.1043930E+01  0.7957747E-01            NaN
         13   -1    0    0    0    0  0.00000000000E+00  0.00000000000E+00  0.74505805969E-08  0.10566000000E+00  0.10566000000E+00 0.  1.
     999900   -1    0    0    0    0 -0.00000000000E+00 -0.00000000000E+00 -0.74505805969E-08  0.93827000000E+00  0.93827000000E+00 0. -1.
     999902    2    1    2    0    0 -0.39589741973E-02 -0.18193382477E-01 -0.14679809309E-01  0.10202198873E+01  0.10199443362E+01 0.  0.
     999903    2    3    3    0    0  0.53229757231E-01 -0.11514524514E+00 -0.33624860684E-01  0.13284785166E+00  0.20641848282E-01 0.  0.
         14    1    1    2    0    0  0.39589741973E-02  0.18193382477E-01  0.14679809309E-01  0.23710112695E-01  0.00000000000E+00 0.  1.
     999901    1    3    3    0    0 -0.57188731428E-01  0.96951862665E-01  0.18945051374E-01  0.88737203565E+00  0.88000000000E+00 0. -1.
        -11    1    4    4    0    0  0.27749102689E-01 -0.41098248786E-01 -0.19426464619E-01  0.53260936923E-01  0.51100000000E-03 0. -1.
         11    1    4    4    0    0  0.25480654542E-01 -0.74046996356E-01 -0.14198396064E-01  0.79586914735E-01  0.51100000000E-03 0.  1.
</event>
<event>
 8    1  0.1061721E+005  0.1043930E+01  0.7957747E-01            NaN
         13   -1    0    0    0    0  0.00000000000E+00  0.00000000000E+00  0.74505805969E-08  0.10566000000E+00  0.10566000000E+00 0.  1.
     999900   -1    0    0    0    0 -0.00000000000E+00 -0.00000000000E+00 -0.74505805969E-08  0.93827000000E+00  0.93827000000E+00 0. -1.
     999902    2    1    2    0    0  0.18188270386E-01  0.36921710214E-02  0.84488282677E-02  0.10235381387E+01  0.10233349859E+01 0.  0.
     999903    2    3    3    0    0 -0.67614430811E-01  0.33951838255E-01 -0.10567761068E+00  0.13151650500E+00  0.20109577674E-01 0.  0.
         14    1    1    2    0    0 -0.18188270386E-01 -0.36921710214E-02 -0.84488282677E-02  0.20391861258E-01  0.00000000000E+00 0. -1.
     999901    1    3    3    0    0  0.85802701197E-01 -0.30259667233E-01  0.11412643895E+00  0.89202163374E+00  0.88000000000E+00 0.  1.
        -11    1    4    4    0    0 -0.48831936747E-01  0.21511503078E-01 -0.87831429894E-01  0.10277122170E+00  0.51100000000E-03 0.  1.
         11    1    4    4    0    0 -0.18782494064E-01  0.12440335176E-01 -0.17846180785E-01  0.28745283303E-01  0.51100000000E-03 0. -1.
</event>
<event>
 8    1  0.1061721E+005  0.1043930E+01  0.7957747E-01            NaN
         13   -1    0    0    0    0  0.00000000000E+00  0.00000000000E+00  0.74505805969E-08  0.10566000000E+00  0.10566000000E+00 0. -1.
     999900   -1    0    0    0    0 -0.00000000000E+00 -0.00000000000E+00 -0.74505805969E-08  0.93827000000E+00  0.93827000000E+00 0. -1.
     999902    2    1    2    0    0  0.13984306695E-01  0.18187250407E-01 -0.58844486281E-02  0.10202453289E+01  0.10199703758E+01 0.  0.
     999903    2    3    3    0    0 -0.15698225804E-01 -0.12443627643E+00 -0.14858011343E-01  0.12822344126E+00  0.22128470371E-01 0.  0.
         14    1    1    2    0    0 -0.13984306695E-01 -0.18187250407E-01  0.58844486281E-02  0.23684671134E-01  0.00000000000E+00 0.  1.
     999901    1    3    3    0    0  0.29682532499E-01  0.14262352684E+00  0.89735627150E-02  0.89202188761E+00  0.88000000000E+00 0. -1.
        -11    1    4    4    0    0 -0.19791214517E-01 -0.94800171238E-01 -0.60589116903E-02  0.97034716317E-01  0.51100000000E-03 0. -1.
         11    1    4    4    0    0  0.40929887128E-02 -0.29636105195E-01 -0.87990996528E-02  0.31188724941E-01  0.51100000000E-03 0.  1.
</event>
<event>
 8    1  0.1061721E+005  0.1043930E+01  0.7957747E-01            NaN
         13   -1    0    0    0    0  0.00000000000E+00  0.00000000000E+00  0.74505805969E-08  0.10566000000E+00  0.10566000000E+00 0.  1.
     999900   -1    0    0    0    0 -0.00000000000E+00 -0.00000000000E+00 -0.74505805969E-08  0.93827000000E+00  0.93827000000E+00 0.  1.
     999902    2    1    2    0    0  0.13753021234E-01  0.14979989879E-01 -0.14190479769E-01  0.10191325121E+01  0.10188307817E+01 0.  0.
     999903    2    3    3    0    0  0.35525231491E-01 -0.10929046612E+00  0.51989754581E-01  0.12767471793E+00  0.19785119691E-01 0.  0.
         14    1    1    2    0    0 -0.13753021234E-01 -0.14979989879E-01  0.14190479769E-01  0.24797487895E-01  0.00000000000E+00 0. -1.
     999901    1    3    3    0    0 -0.21772210257E-01  0.12427045600E+00 -0.66180234350E-01  0.89145779417E+00  0.88000000000E+00 0.  1.
        -11    1    4    4    0    0  0.28800402419E-01 -0.56798655921E-01  0.28714793513E-01  0.69859508883E-01  0.51100000000E-03 0. -1.
         11    1    4    4    0    0  0.67248290724E-02 -0.52491810195E-01  0.23274961069E-01  0.57815209049E-01  0.51100000000E-03 0.  1.
</event>
<event>
 8    1  0.1061721E+005  0.1043930E+01  0.7957747E-01            NaN
         13   -1    0    0    0    0  0.00000000000E+00  0.00000000000E+00  0.74505805969E-08  0.10566000000E+00  0.10566000000E+00 0.  1.
     999900   -1    0    0    0    0 -0.00000000000E+00 -0.00000000000E+00 -0.74505805969E-08  0.93827000000E+00  0.93827000000E+00 0. -1.
     999902    2    1    2    0    0  0.21786988248E-02 -0.21354158979E-01 -0.98778446191E-02  0.10203012326E+01  0.10200275911E+01 0.  0.
     999903    2    3    3    0    0 -0.85203630186E-01 -0.87006846883E-01 -0.48634228089E-01  0.13269320869E+00  0.20306390378E-01 0.  0.
         14    1    1    2    0    0 -0.21786988248E-02  0.21354158979E-01  0.98778446191E-02  0.23628767395E-01  0.00000000000E+00 0.  1.
     999901    1    3    3    0    0  0.87382329011E-01  0.65652687904E-01  0.38756383470E-01  0.88760802391E+00  0.88000000000E+00 0.  1.
        -11    1    4    4    0    0 -0.47100187316E-01 -0.61789498052E-01 -0.32749021482E-01  0.84315652424E-01  0.51100000000E-03 0. -1.
         11    1    4    4    0    0 -0.38103442871E-01 -0.25217348831E-01 -0.15885206607E-01  0.48377556269E-01  0.51100000000E-03 0.  1.
</event>
<event>
 8    1  0.1061721E+005  0.1043930E+01  0.7957747E-01            NaN
         13   -1    0    0    0    0  0.00000000000E+00  0.00000000000E+00  0.74505805969E-08  0.10566000000E+00  0.10566000000E+00 0.  1.
     999900   -1    0    0    0    0 -0.00000000000E+00 -0.00000000000E+00 -0.74505805969E-08  0.93827000000E+00  0.93827000000E+00 0.  1.
     999902    2    1    2    0    0  0.52621995079E-02  0.12856091651E-01  0.18595400309E-01  0.10207188228E+01  0.10204548772E+01 0.  0.
     999903    2    3    3    0    0 -0.70084785149E-01  0.85903950690E-01  0.70654919995E-01  0.13295570605E+00  0.19842787034E-01 0.  0.
         14    1    1    2    0    0 -0.52621995079E-02 -0.12856091651E-01 -0.18595400309E-01  0.23211177240E-01  0.00000000000E+00 0. -1.
     999901    1    3    3    0    0  0.75346984657E-01 -0.73047859040E-01 -0.52059519686E-01  0.88776311671E+00  0.88000000000E+00 0.  1.
        -11    1    4    4    0    0 -0.20471703066E-01  0.39941981996E-01  0.25327679264E-01  0.51538383852E-01  0.51100000000E-03 0.  1.
         11    1    4    4    0    0 -0.49613082084E-01  0.45961968695E-01  0.45327240731E-01  0.81417322195E-01  0.51100000000E-03 0. -1.
</event>
<event>
 8    1  0.1061721E+005  0.1043930E+01  0.7957747E-01            NaN
         13   -1    0    0    0    0  0.00000000000E+00  0.00000000000E+00  0.74505805969E-08  0.10566000000E+00  0.10566000000E+00 0. -1.
     999900   -1    0    0    0    0 -0.00000000000E+00 -0.00000000000E+00 -0.74505805969E-08  0.93827000000E+00  0.93827000000E+00 0.  1.
     999902    2    1    2    0    0 -0.55626082859E-02 -0.15588694436E-01  0.43335120743E-02  0.10268206654E+01  0.10266781139E+01 0.  0.
     999903    2    3    3    0    0 -0.67631730219E-01  0.84744021509E-01  0.79211844596E-01  0.13579541629E+00  0.20255336262E-01 0.  0.
         14    1    1    2    0    0  0.55626082859E-02  0.15588694436E-01 -0.43335120743E-02  0.17109334647E-01  0.00000000000E+00 0. -1.
     999901    1    3    3    0    0  0.62069121934E-01 -0.10033271595E+00 -0.74878332521E-01  0.89102524906E+00  0.88000000000E+00 0.  1.
        -11    1    4    4    0    0 -0.28196078807E-01  0.41563972533E-01  0.25227600932E-01  0.56207434051E-01  0.51100000000E-03 0. -1.
         11    1    4    4    0    0 -0.39435651413E-01  0.43180048976E-01  0.53984243664E-01  0.79587982239E-01  0.51100000000E-03 0.  1.
</event>
<event>
 8    1  0.1061721E+005  0.1043930E+01  0.7957747E-01            NaN
         13   -1    0    0    0    0  0.00000000000E+00  0.00000000000E+00  0.74505805969E-08  0.10566000000E+00  0.10566000000E+00 0.  1.
     999900   -1    0    0    0    0 -0.00000000000E+00 -0.00000000000E+00 -0.74505805969E-08  0.93827000000E+00  0.93827000000E+00 0. -1.
     999902    2    1    2    0    0  0.12788677654E-01 -0.37776045817E-02 -0.19640841961E-01  0.10201900917E+01  0.10199138395E+01 0.  0.
     999903    2    3    3    0    0  0.10761857005E+00 -0.52277296388E-01  0.49559891413E-01  0.13107048778E+00  0.20214291805E-01 0.  0.
         14    1    1    2    0    0 -0.12788677654E-01  0.37776045817E-02  0.19640841961E-01  0.23739908287E-01  0.00000000000E+00 0.  1.
     999901    1    3    3    0    0 -0.94829892395E-01  0.48499691806E-01 -0.69200733374E-01  0.88911960393E+00  0.88000000000E+00 0. -1.
        -11    1    4    4    0    0  0.96210081218E-01 -0.39127750498E-01  0.40981219853E-01  0.11165608845E+00  0.51100000000E-03 0. -1.
         11    1    4    4    0    0  0.11408488832E-01 -0.13149545890E-01  0.85786715605E-02  0.19414399328E-01  0.51100000000E-03 0.  1.
</event>
<event>
 8    1  0.1061721E+005  0.1043930E+01  0.7957747E-01            NaN
         13   -1    0    0    0    0  0.00000000000E+00  0.00000000000E+00  0.74505805969E-08  0.10566000000E+00  0.10566000000E+00 0.  1.
     999900   -1    0    0    0    0 -0.00000000000E+00 -0.00000000000E+00 -0.74505805969E-08  0.93827000000E+00  0.93827000000E+00 0. -1.
     999902    2    1    2    0    0  0.22096732129E-01 -0.88653963894E-02 -0.14334533683E-02  0.10200780480E+01  0.10197991510E+01 0.  0.
     999903    2    3    3    0    0  0.26821294712E-01  0.11633249191E+00  0.46357268208E-01  0.12992031718E+00  0.21855479355E-01 0.  0.
         14    1    1    2    0    0 -0.22096732129E-01  0.88653963894E-02  0.14334533683E-02  0.23851951964E-01  0.00000000000E+00 0. -1.
     999901    1    3    3    0    0 -0.47245625825E-02 -0.12519788830E+00 -0.47790721576E-01  0.89015773085E+00  0.88000000000E+00 0. -1.
        -11    1    4    4    0    0  0.14571884564E-01  0.98194471665E-01  0.40834847112E-01  0.10734169714E+00  0.51100000000E-03 0. -1.
         11    1    4    4    0    0  0.12249410148E-01  0.18138020244E-01  0.55224210957E-02  0.22578620044E-01  0.51100000000E-03 0.  1.
</event>
<event>
 7    1  0.1061721E+005  0.1043930E+01  0.7957747E-01            NaN
         13   -1    0    0    0    0  0.00000000000E+00  0.00000000000E+00  0.74505805969E-08  0.10566000000E+00  0.10566000000E+00 0.  1.
     999900   -1    0    0    0    0 -0.00000000000E+00 -0.00000000000E+00 -0.74505805969E-08  0.93827000000E+00  0.93827000000E+00 0.  1.
     999903    2    1    2    0    0 -0.24713361164E-01  0.71196454315E-01  0.55917958515E-02  0.78199694700E-01  0.20105689325E-01 0.  0.
         14    1    1    2    0    0  0.14173015545E-02 -0.60674608642E-01  0.56835402588E-01  0.83148540966E-01  0.00000000000E+00 0.  1.
     999901    1    1    2    0    0  0.23296059609E-01 -0.10521845674E-01 -0.62427198439E-01  0.88258176433E+00  0.88000000000E+00 0.  1.
        -11    1    3    3    0    0 -0.24628637429E-01  0.56348401145E-01 -0.19692894117E-02  0.61529272017E-01  0.51100000000E-03 0.  1.
         11    1    3    3    0    0 -0.84723734680E-04  0.14848053170E-01  0.75610852632E-02  0.16670422682E-01  0.51100000000E-03 0. -1.
</event>
<event>
 8    1  0.1061721E+005  0.1043930E+01  0.7957747E-01            NaN
         13   -1    0    0    0    0  0.00000000000E+00  0.00000000000E+00  0.74505805969E-08  0.10566000000E+00  0.10566000000E+00 0.  1.
     999900   -1    0    0    0    0 -0.00000000000E+00 -0.00000000000E+00 -0.74505805969E-08  0.93827000000E+00  0.93827000000E+00 0.  1.
     999902    2    1    2    0    0 -0.18163066473E-01 -0.12292408108E-01  0.87421834478E-02  0.10203201281E+01  0.10200469292E+01 0.  0.
     999903    2    3    3    0    0  0.11471022343E+00 -0.52527644900E-01 -0.19445715680E-01  0.12899036693E+00  0.18514590543E-01 0.  0.
         14    1    1    2    0    0  0.18163066473E-01  0.12292408108E-01 -0.87421834478E-02  0.23609871923E-01  0.00000000000E+00 0. -1.
     999901    1    3    3    0    0 -0.13287328991E+00  0.40235236792E-01  0.28187899128E-01  0.89132976115E+00  0.88000000000E+00 0.  1.
        -11    1    4    4    0    0  0.60360756190E-01 -0.27801420383E-01 -0.19567492434E-01  0.69278335317E-01  0.51100000000E-03 0.  1.
         11    1    4    4    0    0  0.54349467245E-01 -0.24726224517E-01  0.12177675411E-03  0.59712031612E-01  0.51100000000E-03 0. -1.
</event>
<event>
 8    1  0.1061721E+005  0.1043930E+01  0.7957747E-01            NaN
         13   -1    0    0    0    0  0.00000000000E+00  0.00000000000E+00  0.74505805969E-08  0.10566000000E+00  0.10566000000E+00 0.  1.
     999900   -1    0    0    0    0 -0.00000000000E+00 -0.00000000000E+00 -0.74505805969E-08  0.93827000000E+00  0.93827000000E+00 0. -1.
     999902    2    1    2    0    0  0.15651533959E-01  0.14238936361E-01 -0.11165245203E-01  0.10200055246E+01  0.10197249088E+01 0.  0.
     999903    2    3    3    0    0  0.94885036512E-01 -0.86731670623E-01 -0.13190820632E-01  0.13069280435E+00  0.19520720181E-01 0.  0.
         14    1    1    2    0    0 -0.15651533959E-01 -0.14238936361E-01  0.11165245203E-01  0.23924475426E-01  0.00000000000E+00 0. -1.
     999901    1    3    3    0    0 -0.79233502553E-01  0.10097060698E+00  0.20255754294E-02  0.88931272023E+00  0.88000000000E+00 0.  1.
        -11    1    4    4    0    0  0.67193597023E-01 -0.65520190560E-01 -0.13790043836E-02  0.93861800676E-01  0.51100000000E-03 0. -1.
         11    1    4    4    0    0  0.27691439488E-01 -0.21211480063E-01 -0.11811816248E-01  0.36831003672E-01  0.51100000000E-03 0.  1.
</event>
<event>
 8    1  0.1061721E+005  0.1043930E+01  0.7957747E-01            NaN
         13   -1    0    0    0    0  0.00000000000E+00  0.00000000000E+00  0.74505805969E-08  0.10566000000E+00  0.10566000000E+00 0.  1.
     999900   -1    0    0    0    0 -0.00000000000E+00 -0.00000000000E+00 -0.74505805969E-08  0.93827000000E+00  0.93827000000E+00 0. -1.
     999902    2    1    2    0    0 -0.66691140195E-02  0.11350262344E-01 -0.19763415701E-01  0.10201834605E+01  0.10199070521E+01 0.  0.
     999903    2    3    3    0    0 -0.11278330051E+00  0.15244000234E-01 -0.65790171960E-01  0.13260594613E+00  0.17422336365E-01 0.  0.
         14    1    1    2    0    0  0.66691140195E-02 -0.11350262344E-01  0.19763415701E-01  0.23746539479E-01  0.00000000000E+00 0.  1.
     999901    1    3    3    0    0  0.10611418649E+00 -0.38937378904E-02  0.46026756259E-01  0.88757751440E+00  0.88000000000E+00 0.  1.
        -11    1    4    4    0    0 -0.65405123613E-01  0.17321179380E-01 -0.40528114686E-01  0.78871050779E-01  0.51100000000E-03 0. -1.
         11    1    4    4    0    0 -0.47378176896E-01 -0.20771791456E-02 -0.25262057274E-01  0.53734895346E-01  0.51100000000E-03 0.  1.
</event>
<event>
 8    1  0.1061721E+005  0.1043930E+01  0.7957747E-01            NaN
         13   -1    0    0    0    0  0.00000000000E+00  0.00000000000E+00  0.74505805969E-08  0.10566000000E+00  0.10566000000E+00 0.  1.
     999900   -1    0    0    0    0 -0.00000000000E+00 -0.00000000000E+00 -0.74505805969E-08  0.93827000000E+00  0.93827000000E+00 0.  1.
     999902    2    1    2    0    0 -0.22584785977E-02  0.52526781906E-02 -0.21157374662E-01  0.10220136623E+01  0.10217786454E+01 0.  0.
     999903    2    3    3    0    0  0.70818500946E-01  0.11008513725E+00  0.52820651750E-02  0.13239063353E+00  0.19114970958E-01 0.  0.
         14    1    1    2    0    0  0.22584785977E-02 -0.52526781906E-02  0.21157374662E-01  0.21916337658E-01  0.00000000000E+00 0.  1.
     999901    1    3    3    0    0 -0.73076979543E-01 -0.10483245906E+00 -0.26439439837E-01  0.88962302881E+00  0.88000000000E+00 0. -1.
        -11    1    4    4    0    0  0.23027311191E-01  0.53201303259E-01  0.13234232280E-02  0.57988346236E-01  0.51100000000E-03 0.  1.
         11    1    4    4    0    0  0.47791189755E-01  0.56883833991E-01  0.39586419470E-02  0.74402287295E-01  0.51100000000E-03 0. -1.
</event>
<event>
 8    1  0.1061721E+005  0.1043930E+01  0.7957747E-01            NaN
         13   -1    0    0    0    0  0.00000000000E+00  0.00000000000E+00  0.74505805969E-08  0.10566000000E+00  0.10566000000E+00 0. -1.
     999900   -1    0    0    0    0 -0.00000000000E+00 -0.00000000000E+00 -0.74505805969E-08  0.93827000000E+00  0.93827000000E+00 0. -1.
     999902    2    1    2    0    0  0.47569454273E-02  0.35051688931E-01  0.73484691765E-02  0.10078017641E+01  0.10071539835E+01 0.  0.
     999903    2    3    3    0    0  0.66234853391E-01  0.38802723042E-01 -0.90377612538E-01  0.12025233427E+00  0.19995097655E-01 0.  0.
         14    1    1    2    0    0 -0.47569454273E-02 -0.35051688931E-01 -0.73484691765E-02  0.36128235854E-01  0.00000000000E+00 0. -1.
     999901    1    3    3    0    0 -0.61477907963E-01 -0.37510341115E-02  0.97726081715E-01  0.88754942988E+00  0.88000000000E+00 0. -1.
        -11    1    4    4    0    0  0.15021179480E-01  0.29138576677E-02 -0.95070480389E-02  0.18021417339E-01  0.51100000000E-03 0. -1.
         11    1    4    4    0    0  0.51213673910E-01  0.35888865375E-01 -0.80870564499E-01  0.10223091693E+00  0.51100000000E-03 0.  1.
</event>
<event>
 8    1  0.1061721E+005  0.1043930E+01  0.7957747E-01            NaN
         13   -1    0    0    0    0  0.00000000000E+00  0.00000000000E+00  0.74505805969E-08  0.10566000000E+00  0.10566000000E+00 0.  1.
     999900   -1    0    0    0    0 -0.00000000000E+00 -0.00000000000E+00 -0.74505805969E-08  0.93827000000E+00  0.93827000000E+00 0. -1.
     999902    2    1    2    0    0  0.88489751156E-02  0.22263377214E-01 -0.15037510806E-02  0.10199253423E+01  0.10196428199E+01 0.  0.
     999903    2    3    3    0    0 -0.69297910271E-01 -0.42198270854E-01  0.97689077154E-01  0.12857723017E+00  0.20150778935E-01 0.  0.
         14    1    1    2    0    0 -0.88489751156E-02 -0.22263377214E-01  0.15037510806E-02  0.24004657733E-01  0.00000000000E+00 0. -1.
     999901    1    3    3    0    0  0.78146885386E-01  0.64461648068E-01 -0.99192828235E-01  0.89134811210E+00  0.88000000000E+00 0. -1.
        -11    1    4    4    0    0 -0.31223108568E-01 -0.25908602838E-01  0.60910197909E-01  0.73187782724E-01  0.51100000000E-03 0.  1.
         11    1    4    4    0    0 -0.38074801702E-01 -0.16289668015E-01  0.36778879245E-01  0.55389447445E-01  0.51100000000E-03 0. -1.
</event>
<event>
 8    1  0.1061721E+005  0.1043930E+01  0.7957747E-01            NaN
         13   -1    0    0    0    0  0.00000000000E+00  0.00000000000E+00  0.74505805969E-08  0.10566000000E+00  0.10566000000E+00 0. -1.
     999900   -1    0    0    0    0 -0.00000000000E+00 -0.00000000000E+00 -0.74505805969E-08  0.93827000000E+00  0.93827000000E+00 0.  1.
     999902    2    1    2    0    0 -0.13545367223E-01 -0.12278509070E-01 -0.14638153424E-01  0.10205096180E+01  0.10202408373E+01 0.  0.
     999903    2    3    3    0    0 -0.60241687731E-01  0.52988275622E-01 -0.10328497740E+00  0.13242259582E+00  0.20763887699E-01 0.  0.
         14    1    1    2    0    0  0.13545367223E-01  0.12278509070E-01  0.14638153424E-01  0.23420382018E-01  0.00000000000E+00 0. -1.
     999901    1    3    3    0    0  0.46696320508E-01 -0.65266784692E-01  0.88646823978E-01  0.88808702216E+00  0.88000000000E+00 0. -1.
        -11    1    4    4    0    0 -0.11771615925E-02  0.86153441673E-02 -0.77808213708E-02  0.11679561924E-01  0.51100000000E-03 0.  1.
         11    1    4    4    0    0 -0.59064526139E-01  0.44372931455E-01 -0.95504156032E-01  0.12074303389E+00  0.51100000000E-03 0. -1.
</event>
<event>
 8    1  0.1061721E+005  0.1043930E+01  0.7957747E-01            NaN
         13   -1    0    0    0    0  0.00000000000E+00  0.00000000000E+00  0.74505805969E-08  0.10566000000E+00  0.10566000000E+00 0.  1.
     999900   -1    0    0    0    0 -0.00000000000E+00 -0.00000000000E+00 -0.74505805969E-08  0.93827000000E+00  0.93827000000E+00 0. -1.
     999902    2    1    2    0    0  0.92580882624E-02  0.73322590155E-02  0.22618147772E-01  0.10184142239E+01  0.10180945323E+01 0.  0.
     999903    2    3    3    0    0  0.45387498110E-01 -0.11840881588E+00 -0.26319504020E-02  0.12838404486E+00  0.19871163749E-01 0.  0.
         14    1    1    2    0    0 -0.92580882624E-02 -0.73322590155E-02 -0.22618147772E-01  0.25515776085E-01  0.00000000000E+00 0. -1.
     999901    1    3    3    0    0 -0.36129409848E-01  0.12574107490E+00  0.25250098174E-01  0.89003017906E+00  0.88000000000E+00 0. -1.
        -11    1    4    4    0    0  0.15465784650E-01 -0.50017262334E-01 -0.10228941785E-01  0.53346128231E-01  0.51100000000E-03 0. -1.
         11    1    4    4    0    0  0.29921713460E-01 -0.68391553546E-01  0.75969913829E-02  0.75037916628E-01  0.51100000000E-03 0.  1.
</event>
<event>
 8    1  0.1061721E+005  0.1043930E+01  0.7957747E-01            NaN
         13   -1    0    0    0    0  0.00000000000E+00  0.00000000000E+00  0.74505805969E-08  0.10566000000E+00  0.10566000000E+00 0.  1.
     999900   -1    0    0    0    0 -0.00000000000E+00 -0.00000000000E+00 -0.74505805969E-08  0.93827000000E+00  0.93827000000E+00 0. -1.
     999902    2    1    2    0    0 -0.21347532011E-01  0.64705948641E-02  0.80848826835E-02  0.10202034105E+01  0.10199274718E+01 0.  0.
     999903    2    3    3    0    0  0.89092706674E-01 -0.30232996947E-01 -0.85831528649E-01  0.12758675579E+00  0.77320407878E-02 0.  0.
         14    1    1    2    0    0  0.21347532011E-01 -0.64705948641E-02 -0.80848826835E-02  0.23726589491E-01  0.00000000000E+00 0. -1.
     999901    1    3    3    0    0 -0.11044023868E+00  0.36703591811E-01  0.93916411333E-01  0.89261665472E+00  0.88000000000E+00 0.  1.
        -11    1    4    4    0    0  0.40775062938E-01 -0.16888849008E-01 -0.36811069457E-01  0.57473080081E-01  0.51100000000E-03 0.  1.
         11    1    4    4    0    0  0.48317643735E-01 -0.13344147939E-01 -0.49020459193E-01  0.70113675705E-01  0.51100000000E-03 0. -1.
</event>
<event>
 8    1  0.1061721E+005  0.1043930E+01  0.7957747E-01            NaN
         13   -1    0    0    0    0  0.00000000000E+00  0.00000000000E+00  0.74505805969E-08  0.10566000000E+00  0.10566000000E+00 0.  1.
     999900   -1    0    0    0    0 -0.00000000000E+00 -0.00000000000E+00 -0.74505805969E-08  0.93827000000E+00  0.93827000000E+00 0. -1.
     999902    2    1    2    0    0 -0.85159867543E-02  0.18028806326E-01  0.12582910591E-01  0.10203526904E+01  0.10200802534E+01 0.  0.
     999903    2    3    3    0    0  0.26725321074E-01 -0.10399050931E+00  0.69188069722E-01  0.12943473281E+00  0.20930653388E-01 0.  0.
         14    1    1    2    0    0  0.85159867543E-02 -0.18028806326E-01 -0.12582910591E-01  0.23577309577E-01  0.00000000000E+00 0. -1.
     999901    1    3    3    0    0 -0.35241307828E-01  0.12201931564E+00 -0.56605159131E-01  0.89091795762E+00  0.88000000000E+00 0. -1.
        -11    1    4    4    0    0  0.22263451361E-01 -0.71182407226E-01  0.37012933558E-01  0.83263525847E-01  0.51100000000E-03 0. -1.
         11    1    4    4    0    0  0.44618697128E-02 -0.32808102085E-01  0.32175136164E-01  0.46171206958E-01  0.51100000000E-03 0.  1.
</event>
<event>
 8    1  0.1061721E+005  0.1043930E+01  0.7957747E-01            NaN
         13   -1    0    0    0    0  0.00000000000E+00  0.00000000000E+00  0.74505805969E-08  0.10566000000E+00  0.10566000000E+00 0. -1.
     999900   -1    0    0    0    0 -0.00000000000E+00 -0.00000000000E+00 -0.74505805969E-08  0.93827000000E+00  0.93827000000E+00 0.  1.
     999902    2    1    2    0    0 -0.85123384907E-02  0.18479310803E-01  0.98062721771E-02  0.10213444336E+01  0.10210946794E+01 0.  0.
     999903    2    3    3    0    0  0.37285849859E-01  0.10058675080E+00 -0.74552695863E-01  0.13232500682E+00  0.21068315853E-01 0.  0.
         14    1    1    2    0    0  0.85123384907E-02 -0.18479310803E-01 -0.98062721771E-02  0.22585566372E-01  0.00000000000E+00 0.  1.
     999901    1    3    3    0    0 -0.45798188350E-01 -0.82107439995E-01  0.84358968040E-01  0.88901942681E+00  0.88000000000E+00 0. -1.
        -11    1    4    4    0    0  0.19334361530E-01  0.46627590318E-01 -0.47635927984E-01  0.69407438150E-01  0.51100000000E-03 0. -1.
         11    1    4    4    0    0  0.17951488329E-01  0.53959160480E-01 -0.26916767879E-01  0.62917568667E-01  0.51100000000E-03 0.  1.
</event>
<event>
 8    1  0.1061721E+005  0.1043930E+01  0.7957747E-01            NaN
         13   -1    0    0    0    0  0.00000000000E+00  0.00000000000E+00  0.74505805969E-08  0.10566000000E+00  0.10566000000E+00 0. -1.
     999900   -1    0    0    0    0 -0.00000000000E+00 -0.00000000000E+00 -0.74505805969E-08  0.93827000000E+00  0.93827000000E+00 0. -1.
     999902    2    1    2    0    0  0.96470826846E-02 -0.20802402064E-01 -0.27389109935E-02  0.10208365427E+01  0.10205752981E+01 0.  0.
     999903    2    3    3    0    0 -0.71228310576E-01  0.64107270368E-01  0.83743694336E-01  0.12885575664E+00  0.20188742800E-01 0.  0.
         14    1    1    2    0    0 -0.96470826846E-02  0.20802402064E-01  0.27389109935E-02  0.23093457285E-01  0.00000000000E+00 0. -1.
     999901    1    3    3    0    0  0.80875393261E-01 -0.84909672432E-01 -0.86482605330E-01  0.89198078608E+00  0.88000000000E+00 0. -1.
        -11    1    4    4    0    0 -0.45214835085E-01  0.52149648229E-01  0.54700257133E-01  0.88070121912E-01  0.51100000000E-03 0. -1.
         11    1    4    4    0    0 -0.26013475491E-01  0.11957622139E-01  0.29043437203E-01  0.40785634725E-01  0.51100000000E-03 0.  1.
</event>
<event>
 8    1  0.1061721E+005  0.1043930E+01  0.7957747E-01            NaN
         13   -1    0    0    0    0  0.00000000000E+00  0.00000000000E+00  0.74505805969E-08  0.10566000000E+00  0.10566000000E+00 0.  1.
     999900   -1    0    0    0    0 -0.00000000000E+00 -0.00000000000E+00 -0.74505805969E-08  0.93827000000E+00  0.93827000000E+00 0. -1.
     999902    2    1    2    0    0  0.10291571893E-01  0.20905198102E-01 -0.62309039906E-02  0.10198101342E+01  0.10195248609E+01 0.  0.
     999903    2    3    3    0    0 -0.47763085021E-02  0.42814738457E-01 -0.12289929268E+00  0.13171183906E+00  0.19694096992E-01 0.  0.
         14    1    1    2    0    0 -0.10291571893E-01 -0.20905198102E-01  0.62309039906E-02  0.24119865760E-01  0.00000000000E+00 0.  1.
     999901    1    3    3    0    0  0.15067880395E-01 -0.21909540354E-01  0.11666838869E+00  0.88809829518E+00  0.88000000000E+00 0.  1.
        -11    1    4    4    0    0 -0.75125418919E-02  0.34484991174E-01 -0.73480297403E-01  0.81518514028E-01  0.51100000000E-03 0.  1.
         11    1    4    4    0    0  0.27362333898E-02  0.83297472829E-02 -0.49418995276E-01  0.50193325034E-01  0.51100000000E-03 0. -1.
</event>
<event>
 8    1  0.1061721E+005  0.1043930E+01  0.7957747E-01            NaN
         13   -1    0    0    0    0  0.00000000000E+00  0.00000000000E+00  0.74505805969E-08  0.10566000000E+00  0.10566000000E+00 0. -1.
     999900   -1    0    0    0    0 -0.00000000000E+00 -0.00000000000E+00 -0.74505805969E-08  0.93827000000E+00  0.93827000000E+00 0. -1.
     999902    2    1    2    0    0 -0.10673526354E-01  0.93460232792E-04  0.21346814520E-01  0.10200632996E+01  0.10197840535E+01 0.  0.
     999903    2    3    3    0    0  0.71250972297E-02 -0.12126087351E+00  0.45540419258E-01  0.13122754655E+00  0.19793249697E-01 0.  0.
         14    1    1    2    0    0  0.10673526354E-01 -0.93460232792E-04 -0.21346814520E-01  0.23866700438E-01  0.00000000000E+00 0.  1.
     999901    1    3    3    0    0 -0.17798623584E-01  0.12135433374E+00 -0.24193604738E-01  0.88883575301E+00  0.88000000000E+00 0.  1.
        -11    1    4    4    0    0 -0.49288389182E-02 -0.58632114407E-01  0.27465426265E-01  0.64935576180E-01  0.51100000000E-03 0. -1.
         11    1    4    4    0    0  0.12053936148E-01 -0.62628759100E-01  0.18074992993E-01  0.66291970372E-01  0.51100000000E-03 0.  1.
</event>
<event>
 8    1  0.1061721E+005  0.1043930E+01  0.7957747E-01            NaN
         13   -1    0    0    0    0  0.00000000000E+00  0.00000000000E+00  0.74505805969E-08  0.10566000000E+00  0.10566000000E+00 0.  1.
     999900   -1    0    0    0    0 -0.00000000000E+00 -0.00000000000E+00 -0.74505805969E-08  0.93827000000E+00  0.93827000000E+00 0.  1.
     999902    2    1    2    0    0 -0.15319924993E-01 -0.14305962371E-01 -0.10135162452E-01  0.10206473417E+01  0.10203817491E+01 0.  0.
     999903    2    3    3    0    0  0.40112633453E-01  0.11478210336E+00 -0.38399537372E-01  0.12905585890E+00  0.19923243510E-01 0.  0.
         14    1    1    2    0    0  0.15319924993E-01  0.14305962371E-01  0.10135162452E-01  0.23282658334E-01  0.00000000000E+00 0.  1.
     999901    1    3    3    0    0 -0.55432558446E-01 -0.12908806573E+00  0.28264374920E-01  0.89159148277E+00  0.88000000000E+00 0. -1.
        -11    1    4    4    0    0  0.36839223755E-01  0.10727678028E+00 -0.40744821221E-01  0.12052318272E+00  0.51100000000E-03 0.  1.
         11    1    4    4    0    0  0.32734096980E-02  0.75053230761E-02  0.23452838485E-02  0.85326761838E-02  0.51100000000E-03 0. -1.
</event>
<event>
 8    1  0.1061721E+005  0.1043930E+01  0.7957747E-01            NaN
         13   -1    0    0    0    0  0.00000000000E+00  0.00000000000E+00  0.74505805969E-08  0.10566000000E+00  0.10566000000E+00 0.  1.
     999900   -1    0    0    0    0 -0.00000000000E+00 -0.00000000000E+00 -0.74505805969E-08  0.93827000000E+00  0.93827000000E+00 0.  1.
     999902    2    1    2    0    0  0.16250645010E-01  0.84136914638E-02 -0.14857349258E-01  0.10203585237E+01  0.10200862230E+01 0.  0.
     999903    2    3    3    0    0 -0.15266833152E-01 -0.18305567064E-01  0.12458415139E+00  0.12842175336E+00  0.20069030349E-01 0.  0.
         14    1    1    2    0    0 -0.16250645010E-01 -0.84136914638E-02  0.14857349258E-01  0.23571476286E-01  0.00000000000E+00 0. -1.
     999901    1    3    3    0    0  0.31517478162E-01  0.26719258528E-01 -0.13944150065E+00  0.89193677035E+00  0.88000000000E+00 0.  1.
        -11    1    4    4    0    0 -0.94196029152E-03 -0.15865028412E-01  0.78645429237E-01  0.80236843635E-01  0.51100000000E-03 0.  1.
         11    1    4    4    0    0 -0.14324872860E-01 -0.24405386524E-02  0.45938722152E-01  0.48184909726E-01  0.51100000000E-03 0. -1.
</event>
<event>
 8    1  0.1061721E+005  0.1043930E+01  0.7957747E-01            NaN
         13   -1    0    0    0    0  0.00000000000E+00  0.00000000000E+00  0.74505805969E-08  0.10566000000E+00  0.10566000000E+00 0.  1.
     999900   -1    0    0    0    0 -0.00000000000E+00 -0.00000000000E+00 -0.74505805969E-08  0.93827000000E+00  0.93827000000E+00 0. -1.
     999902    2    1    2    0    0  0.15516630528E-01  0.26463044122E-02 -0.18195260095E-01  0.10198709842E+01  0.10195871656E+01 0.  0.
     999903    2    3    3    0    0 -0.39024810116E-01 -0.62524612947E-01 -0.10697105527E+00  0.13133108134E+00  0.19307595190E-01 0.  0.
         14    1    1    2    0    0 -0.15516630528E-01 -0.26463044122E-02  0.18195260095E-01  0.24059015772E-01  0.00000000000E+00 0.  1.
     999901    1    3    3    0    0  0.54541440643E-01  0.65170917359E-01  0.88775795173E-01  0.88853990289E+00  0.88000000000E+00 0.  1.
        -11    1    4    4    0    0 -0.23168736914E-01 -0.19409872742E-01 -0.40949835908E-01  0.50898759434E-01  0.51100000000E-03 0.  1.
         11    1    4    4    0    0 -0.15856073201E-01 -0.43114740205E-01 -0.66021219360E-01  0.80432321905E-01  0.51100000000E-03 0. -1.
</event>
<event>
 8    1  0.1061721E+005  0.1043930E+01  0.7957747E-01            NaN
         13   -1    0    0    0    0  0.00000000000E+00  0.00000000000E+00  0.74505805969E-08  0.10566000000E+00  0.10566000000E+00 0.  1.
     999900   -1    0    0    0    0 -0.00000000000E+00 -0.00000000000E+00 -0.74505805969E-08  0.93827000000E+00  0.93827000000E+00 0. -1.
     999902    2    1    2    0    0 -0.12501710188E-01  0.19772228507E-01  0.35953295746E-02  0.10202622968E+01  0.10199877422E+01 0.  0.
     999903    2    3    3    0    0  0.11849646885E+00 -0.18315146738E-01 -0.42002244681E-01  0.12858393003E+00  0.19818697616E-01 0.  0.
         14    1    1    2    0    0  0.12501710188E-01 -0.19772228507E-01 -0.35953295746E-02  0.23667703153E-01  0.00000000000E+00 0. -1.
     999901    1    3    3    0    0 -0.13099817904E+00  0.38087375245E-01  0.45597574255E-01  0.89167836681E+00  0.88000000000E+00 0. -1.
        -11    1    4    4    0    0  0.53862727295E-01 -0.18282266421E-01 -0.18780645153E-01  0.59903325538E-01  0.51100000000E-03 0.  1.
         11    1    4    4    0    0  0.64633741554E-01 -0.32880316919E-04 -0.23221599528E-01  0.68680604497E-01  0.51100000000E-03 0. -1.
</event>
<event>
 8    1  0.1061721E+005  0.1043930E+01  0.7957747E-01            NaN
         13   -1    0    0    0    0  0.00000000000E+00  0.00000000000E+00  0.74505805969E-08  0.10566000000E+00  0.10566000000E+00 0. -1.
     999900   -1    0    0    0    0 -0.00000000000E+00 -0.00000000000E+00 -0.74505805969E-08  0.93827000000E+00  0.93827000000E+00 0.  1.
     999902    2    1    2    0    0 -0.96361985481E-02 -0.18465851803E-01 -0.11303175463E-01  0.10202317768E+01  0.10199565053E+01 0.  0.
     999903    2    3    3    0    0  0.78165125423E-01 -0.24368244854E-03 -0.10426313198E+00  0.13080349223E+00  0.11353707594E-01 0.  0.
         14    1    1    2    0    0  0.96361985481E-02  0.18465851803E-01  0.11303175463E-01  0.23698223158E-01  0.00000000000E+00 0.  1.
     999901    1    3    3    0    0 -0.87801323971E-01 -0.18222169355E-01  0.92959956519E-01  0.88942828461E+00  0.88000000000E+00 0. -1.
        -11    1    4    4    0    0  0.10149430430E-01  0.29055309394E-02 -0.10256829784E-01  0.14728093098E-01  0.51100000000E-03 0. -1.
         11    1    4    4    0    0  0.68015694993E-01 -0.31492133880E-02 -0.94006302198E-01  0.11607539913E+00  0.51100000000E-03 0.  1.
</event>
<event>
 8    1  0.1061721E+005  0.1043930E+01  0.7957747E-01            NaN
         13   -1    0    0    0    0  0.00000000000E+00  0.00000000000E+00  0.74505805969E-08  0.10566000000E+00  0.10566000000E+00 0.  1.
     999900   -1    0    0    0    0 -0.00000000000E+00 -0.00000000000E+00 -0.74505805969E-08  0.93827000000E+00  0.93827000000E+00 0.  1.
     999902    2    1    2    0    0  0.17534867532E-01  0.13329342234E-01 -0.68673290421E-02  0.10208583041E+01  0.10205975573E+01 0.  0.
     999903    2    3    3    0    0 -0.36345098316E-01 -0.12194288727E+00  0.44509270689E-02  0.12882146084E+00  0.19599084013E-01 0.  0.
         14    1    1    2    0    0 -0.17534867532E-01 -0.13329342234E-01  0.68673290421E-02  0.23071695905E-01  0.00000000000E+00 0.  1.
     999901    1    3    3    0    0  0.53879965848E-01  0.13527222951E+00 -0.11318256111E-01  0.89203684325E+00  0.88000000000E+00 0.  1.
        -11    1    4    4    0    0 -0.31834216445E-01 -0.88246715988E-01 -0.35892847137E-02  0.93883141752E-01  0.51100000000E-03 0.  1.
         11    1    4    4    0    0 -0.45108818714E-02 -0.33696171285E-01  0.80402117826E-02  0.34938319093E-01  0.51100000000E-03 0. -1.
</event>
<event>
 8    1  0.1061721E+005  0.1043930E+01  0.7957747E-01            NaN
         13   -1    0    0    0    0  0.00000000000E+00  0.00000000000E+00  0.74505805969E-08  0.10566000000E+00  0.10566000000E+00 0. -1.
     999900   -1    0    0    0    0 -0.00000000000E+00 -0.00000000000E+00 -0.74505805969E-08  0.93827000000E+00  0.93827000000E+00 0. -1.
     999902    2    1    2    0    0 -0.18532108231E-01 -0.12871901833E-01 -0.86952330227E-02  0.10197487682E+01  0.10194620240E+01 0.  0.
     999903    2    3    3    0    0 -0.10188734585E+00 -0.76431911449E-01  0.28587798851E-01  0.13274369783E+00  0.24098936471E-01 0.  0.
         14    1    1    2    0    0  0.18532108231E-01  0.12871901833E-01  0.86952330227E-02  0.24181231764E-01  0.00000000000E+00 0. -1.
     999901    1    3    3    0    0  0.83355237615E-01  0.63560009616E-01 -0.37283031873E-01  0.88700507041E+00  0.88000000000E+00 0. -1.
        -11    1    4    4    0    0 -0.80613028940E-01 -0.69729350091E-01  0.28879893846E-01  0.11043075699E+00  0.51100000000E-03 0. -1.
         11    1    4    4    0    0 -0.21274316907E-01 -0.67025613579E-02 -0.29209499524E-03  0.22312940844E-01  0.51100000000E-03 0.  1.
</event>
<event>
 8    1  0.1061721E+005  0.1043930E+01  0.7957747E-01            NaN
         13   -1    0    0    0    0  0.00000000000E+00  0.00000000000E+00  0.74505805969E-08  0.10566000000E+00  0.10566000000E+00 0.  1.
     999900   -1    0    0    0    0 -0.00000000000E+00 -0.00000000000E+00 -0.74505805969E-08  0.93827000000E+00  0.93827000000E+00 0. -1.
     999902    2    1    2    0    0  0.35818562981E-02 -0.72602134290E-02 -0.22304276307E-01  0.10202019336E+01  0.10199259601E+01 0.  0.
     999903    2    3    3    0    0 -0.11136365682E+00  0.25060017831E-01 -0.61023304187E-01  0.13129460915E+00  0.22012773216E-01 0.  0.
         14    1    1    2    0    0 -0.35818562981E-02  0.72602134290E-02  0.22304276307E-01  0.23728066401E-01  0.00000000000E+00 0.  1.
     999901    1    3    3    0    0  0.11494551312E+00 -0.32320231260E-01  0.38719027880E-01  0.88890732445E+00  0.88000000000E+00 0. -1.
        -11    1    4    4    0    0 -0.68417497528E-01  0.45561364109E-02 -0.38527996689E-01  0.78653544083E-01  0.51100000000E-03 0.  1.
         11    1    4    4    0    0 -0.42946159292E-01  0.20503881420E-01 -0.22495307498E-01  0.52641065069E-01  0.51100000000E-03 0. -1.
</event>
<event>
 8    1  0.1061721E+005  0.1043930E+01  0.7957747E-01            NaN
         13   -1    0    0    0    0  0.00000000000E+00  0.00000000000E+00  0.74505805969E-08  0.10566000000E+00  0.10566000000E+00 0. -1.
     999900   -1    0    0    0    0 -0.00000000000E+00 -0.00000000000E+00 -0.74505805969E-08  0.93827000000E+00  0.93827000000E+00 0.  1.
     999902    2    1    2    0    0 -0.15599084616E-02  0.22666963731E-01 -0.48258078316E-02  0.10207025813E+01  0.10204382619E+01 0.  0.
     999903    2    3    3    0    0 -0.91799780963E-01  0.38337185407E-01  0.83894715137E-01  0.13151186966E+00  0.18976539823E-01 0.  0.
         14    1    1    2    0    0  0.15599084616E-02 -0.22666963731E-01  0.48258078316E-02  0.23227418720E-01  0.00000000000E+00 0. -1.
     999901    1    3    3    0    0  0.90239872501E-01 -0.15670221677E-01 -0.88720522969E-01  0.88919071162E+00  0.88000000000E+00 0.  1.
        -11    1    4    4    0    0 -0.44109616653E-01  0.25366302453E-01  0.33487201220E-01  0.60916018812E-01  0.51100000000E-03 0. -1.
         11    1    4    4    0    0 -0.47690164310E-01  0.12970882954E-01  0.50407513917E-01  0.70595850847E-01  0.51100000000E-03 0.  1.
</event>
<event>
 8    1  0.1061721E+005  0.1043930E+01  0.7957747E-01            NaN
         13   -1    0    0    0    0  0.00000000000E+00  0.00000000000E+00  0.74505805969E-08  0.10566000000E+00  0.10566000000E+00 0.  1.
     999900   -1    0    0    0    0 -0.00000000000E+00 -0.00000000000E+00 -0.74505805969E-08  0.93827000000E+00  0.93827000000E+00 0.  1.
     999902    2    1    2    0    0  0.13536930335E-01  0.18415163024E-01 -0.40127099501E-02  0.10207250748E+01  0.10204612730E+01 0.  0.
     999903    2    3    3    0    0  0.80953941099E-01  0.70655989202E-01  0.75883034442E-01  0.13299905444E+00  0.19613877149E-01 0.  0.
         14    1    1    2    0    0 -0.13536930335E-01 -0.18415163024E-01  0.40127099501E-02  0.23204925194E-01  0.00000000000E+00 0. -1.
     999901    1    3    3    0    0 -0.67417010763E-01 -0.52240826178E-01 -0.79895744393E-01  0.88772602036E+00  0.88000000000E+00 0.  1.
        -11    1    4    4    0    0  0.27376547459E-01  0.32447459087E-01  0.21297989437E-01  0.47499246594E-01  0.51100000000E-03 0. -1.
         11    1    4    4    0    0  0.53577393640E-01  0.38208530115E-01  0.54585045006E-01  0.85499807848E-01  0.51100000000E-03 0.  1.
</event>
<event>
 7    1  0.1061721E+005  0.1043930E+01  0.7957747E-01            NaN
         13   -1    0    0    0    0  0.00000000000E+00  0.00000000000E+00  0.74505805969E-08  0.10566000000E+00  0.10566000000E+00 0.  1.
     999900   -1    0    0    0    0 -0.00000000000E+00 -0.00000000000E+00 -0.74505805969E-08  0.93827000000E+00  0.93827000000E+00 0.  1.
     999903    2    1    2    0    0 -0.16057922341E-01 -0.83788106706E-01 -0.18748995828E-01  0.89797146062E-01  0.20825438792E-01 0.  0.
         14    1    1    2    0    0 -0.42083047530E-01  0.53198515471E-01 -0.20350555214E-01  0.70818147641E-01  0.00000000000E+00 0. -1.
     999901    1    1    2    0    0  0.58140969871E-01  0.30589591235E-01  0.39099551043E-01  0.88331470630E+00  0.88000000000E+00 0. -1.
        -11    1    3    3    0    0 -0.10354167090E-02 -0.57667337905E-01 -0.12010339912E-01  0.58916070258E-01  0.51100000000E-03 0. -1.
         11    1    3    3    0    0 -0.15022505632E-01 -0.26120768801E-01 -0.67386559159E-02  0.30881075803E-01  0.51100000000E-03 0.  1.
</event>
<event>
 8    1  0.1061721E+005  0.1043930E+01  0.7957747E-01            NaN
         13   -1    0    0    0    0  0.00000000000E+00  0.00000000000E+00  0.74505805969E-08  0.10566000000E+00  0.10566000000E+00 0.  1.
     999900   -1    0    0    0    0 -0.00000000000E+00 -0.00000000000E+00 -0.74505805969E-08  0.93827000000E+00  0.93827000000E+00 0.  1.
     999902    2    1    2    0    0 -0.11232410111E-01 -0.16036475624E-01  0.13254823267E-01  0.10202862709E+01  0.10200122787E+01 0.  0.
     999903    2    3    3    0    0 -0.86879338601E-01  0.55245563116E-01 -0.76145956198E-01  0.12967070498E+00  0.20400817749E-01 0.  0.
         14    1    1    2    0    0  0.11232410111E-01  0.16036475624E-01 -0.13254823267E-01  0.23643729131E-01  0.00000000000E+00 0. -1.
     999901    1    3    3    0    0  0.75646928490E-01 -0.71282038740E-01  0.89400779465E-01  0.89061556589E+00  0.88000000000E+00 0.  1.
        -11    1    4    4    0    0 -0.58650756161E-01  0.44348827248E-01 -0.62364411264E-01  0.96417377012E-01  0.51100000000E-03 0.  1.
         11    1    4    4    0    0 -0.28228582440E-01  0.10896735868E-01 -0.13781544933E-01  0.33253327967E-01  0.51100000000E-03 0. -1.
</event>
<event>
 8    1  0.1061721E+005  0.1043930E+01  0.7957747E-01            NaN
         13   -1    0    0    0    0  0.00000000000E+00  0.00000000000E+00  0.74505805969E-08  0.10566000000E+00  0.10566000000E+00 0.  1.
     999900   -1    0    0    0    0 -0.00000000000E+00 -0.00000000000E+00 -0.74505805969E-08  0.93827000000E+00  0.93827000000E+00 0. -1.
     999902    2    1    2    0    0  0.14303090602E-02  0.23567040489E-01  0.17254431431E-02  0.10202566324E+01  0.10199819447E+01 0.  0.
     999903    2    3    3    0    0  0.10348846869E+00 -0.41201122870E-01 -0.63198630870E-01  0.12962431860E+00  0.20025018122E-01 0.  0.
         14    1    1    2    0    0 -0.14303090602E-02 -0.23567040489E-01 -0.17254431431E-02  0.23673367641E-01  0.00000000000E+00 0.  1.
     999901    1    3    3    0    0 -0.10205815963E+00  0.64768163359E-01  0.64924074013E-01  0.89063231376E+00  0.88000000000E+00 0.  1.
        -11    1    4    4    0    0  0.11467434162E-01  0.39341786130E-03 -0.23525605581E-02  0.11724013223E-01  0.51100000000E-03 0. -1.
         11    1    4    4    0    0  0.92021034526E-01 -0.41594540732E-01 -0.60846070312E-01  0.11790030537E+00  0.51100000000E-03 0.  1.
</event>
<event>
 8    1  0.1061721E+005  0.1043930E+01  0.7957747E-01            NaN
         13   -1    0    0    0    0  0.00000000000E+00  0.00000000000E+00  0.74505805969E-08  0.10566000000E+00  0.10566000000E+00 0.  1.
     999900   -1    0    0    0    0 -0.00000000000E+00 -0.00000000000E+00 -0.74505805969E-08  0.93827000000E+00  0.93827000000E+00 0. -1.
     999902    2    1    2    0    0  0.87337324922E-03 -0.21657673623E-01  0.92251213784E-02  0.10203732500E+01  0.10201012934E+01 0.  0.
     999903    2    3    3    0    0  0.90801079052E-01  0.70646976562E-01 -0.54082365654E-01  0.12873712540E+00  0.20310438890E-01 0.  0.
         14    1    1    2    0    0 -0.87337324922E-03  0.21657673623E-01 -0.92251213784E-02  0.23556750031E-01  0.00000000000E+00 0. -1.
     999901    1    3    3    0    0 -0.89927705802E-01 -0.92304650185E-01  0.63307487032E-01  0.89163612457E+00  0.88000000000E+00 0.  1.
        -11    1    4    4    0    0  0.33759046542E-01  0.18463736893E-01 -0.10079706989E-01  0.39779949943E-01  0.51100000000E-03 0.  1.
         11    1    4    4    0    0  0.57042032510E-01  0.52183239669E-01 -0.44002658665E-01  0.88957175460E-01  0.51100000000E-03 0. -1.
</event>
<event>
 8    1  0.1061721E+005  0.1043930E+01  0.7957747E-01            NaN
         13   -1    0    0    0    0  0.00000000000E+00  0.00000000000E+00  0.74505805969E-08  0.10566000000E+00  0.10566000000E+00 0.  1.
     999900   -1    0    0    0    0 -0.00000000000E+00 -0.00000000000E+00 -0.74505805969E-08  0.93827000000E+00  0.93827000000E+00 0.  1.
     999902    2    1    2    0    0  0.34409108855E-02  0.22534468484E-01  0.36612119284E-02  0.10208421978E+01  0.10205810826E+01 0.  0.
     999903    2    3    3    0    0  0.12395582768E+00 -0.25048875540E-01  0.27799467652E-01  0.13102723098E+00  0.20070662026E-01 0.  0.
         14    1    1    2    0    0 -0.34409108855E-02 -0.22534468484E-01 -0.36612119284E-02  0.23087802198E-01  0.00000000000E+00 0. -1.
     999901    1    3    3    0    0 -0.12051491679E+00  0.47583344023E-01 -0.24138255723E-01  0.88981496683E+00  0.88000000000E+00 0.  1.
        -11    1    4    4    0    0  0.39662671280E-01 -0.11967581430E-01  0.40925985788E-03  0.41434033270E-01  0.51100000000E-03 0.  1.
         11    1    4    4    0    0  0.84293156398E-01 -0.13081294109E-01  0.27390207794E-01  0.89593197706E-01  0.51100000000E-03 0. -1.
</event>
<event>
 8    1  0.1061721E+005  0.1043930E+01  0.7957747E-01            NaN
         13   -1    0    0    0    0  0.00000000000E+00  0.00000000000E+00  0.74505805969E-08  0.10566000000E+00  0.10566000000E+00 0.  1.
     999900   -1    0    0    0    0 -0.00000000000E+00 -0.00000000000E+00 -0.74505805969E-08  0.93827000000E+00  0.93827000000E+00 0. -1.
     999902    2    1    2    0    0  0.64462590721E-02 -0.94665071431E-05  0.22758409689E-01  0.10202762570E+01  0.10200020299E+01 0.  0.
     999903    2    3    3    0    0 -0.23927413447E-01  0.42861204812E-01 -0.11630759071E+00  0.12780787836E+00  0.19944776792E-01 0.  0.
         14    1    1    2    0    0 -0.64462590721E-02  0.94665071431E-05 -0.22758409689E-01  0.23653742985E-01  0.00000000000E+00 0. -1.
     999901    1    3    3    0    0  0.30373672519E-01 -0.42870671319E-01  0.13906600040E+00  0.89246837866E+00  0.88000000000E+00 0.  1.
        -11    1    4    4    0    0 -0.20796940182E-01  0.29976482726E-01 -0.10182691198E+00  0.10816692361E+00  0.51100000000E-03 0. -1.
         11    1    4    4    0    0 -0.31304732645E-02  0.12884722086E-01 -0.14480678723E-01  0.19640954747E-01  0.51100000000E-03 0.  1.
</event>
<event>
 8    1  0.1061721E+005  0.1043930E+01  0.7957747E-01            NaN
         13   -1    0    0    0    0  0.00000000000E+00  0.00000000000E+00  0.74505805969E-08  0.10566000000E+00  0.10566000000E+00 0. -1.
     999900   -1    0    0    0    0 -0.00000000000E+00 -0.00000000000E+00 -0.74505805969E-08  0.93827000000E+00  0.93827000000E+00 0.  1.
     999902    2    1    2    0    0  0.65716063461E-02 -0.22512099851E-01  0.48123872111E-02  0.10199896633E+01  0.10197086709E+01 0.  0.
     999903    2    3    3    0    0  0.16545863494E-01  0.27776103971E-01 -0.12348668599E+00  0.12920964478E+00  0.20022315959E-01 0.  0.
         14    1    1    2    0    0 -0.65716063461E-02  0.22512099851E-01 -0.48123872111E-02  0.23940336680E-01  0.00000000000E+00 0. -1.
     999901    1    3    3    0    0 -0.99742571484E-02 -0.50288203822E-01  0.12829907320E+00  0.89078001854E+00  0.88000000000E+00 0. -1.
        -11    1    4    4    0    0  0.77576711911E-02  0.26314042509E-01 -0.10700873884E+00  0.11047054632E+00  0.51100000000E-03 0. -1.
         11    1    4    4    0    0  0.87881923033E-02  0.14620614615E-02 -0.16477947147E-01  0.18739098454E-01  0.51100000000E-03 0.  1.
</event>
<event>
 8    1  0.1061721E+005  0.1043930E+01  0.7957747E-01            NaN
         13   -1    0    0    0    0  0.00000000000E+00  0.00000000000E+00  0.74505805969E-08  0.10566000000E+00  0.10566000000E+00 0.  1.
     999900   -1    0    0    0    0 -0.00000000000E+00 -0.00000000000E+00 -0.74505805969E-08  0.93827000000E+00  0.93827000000E+00 0. -1.
     999902    2    1    2    0    0  0.12582996352E-01  0.96493020509E-02 -0.18278867820E-01  0.10197316977E+01  0.10194445436E+01 0.  0.
     999903    2    3    3    0    0  0.79838390477E-01  0.98549981547E-01 -0.32902847882E-01  0.13257867837E+00  0.20204977147E-01 0.  0.
         14    1    1    2    0    0 -0.12582996352E-01 -0.96493020509E-02  0.18278867820E-01  0.24198302338E-01  0.00000000000E+00 0.  1.
     999901    1    3    3    0    0 -0.67255394124E-01 -0.88900679496E-01  0.14623980062E-01  0.88715301930E+00  0.88000000000E+00 0.  1.
        -11    1    4    4    0    0  0.58141733627E-01  0.75814732950E-01 -0.15945151106E-01  0.96865080840E-01  0.51100000000E-03 0.  1.
         11    1    4    4    0    0  0.21696656850E-01  0.22735248597E-01 -0.16957696776E-01  0.35713597525E-01  0.51100000000E-03 0. -1.
</event>
<event>
 8    1  0.1061721E+005  0.1043930E+01  0.7957747E-01            NaN
         13   -1    0    0    0    0  0.00000000000E+00  0.00000000000E+00  0.74505805969E-08  0.10566000000E+00  0.10566000000E+00 0. -1.
     999900   -1    0    0    0    0 -0.00000000000E+00 -0.00000000000E+00 -0.74505805969E-08  0.93827000000E+00  0.93827000000E+00 0.  1.
     999902    2    1    2    0    0  0.20458587517E-01 -0.75070478367E-02  0.84293887540E-02  0.10205641239E+01  0.10202966073E+01 0.  0.
     999903    2    3    3    0    0  0.30051384315E-01  0.12423958310E+00  0.16996557128E-01  0.13066379641E+00  0.21108885154E-01 0.  0.
         14    1    1    2    0    0 -0.20458587517E-01  0.75070478367E-02 -0.84293887540E-02  0.23365876084E-01  0.00000000000E+00 0.  1.
     999901    1    3    3    0    0 -0.95927967983E-02 -0.13174663093E+00 -0.85671683743E-02  0.88990032750E+00  0.88000000000E+00 0. -1.
        -11    1    4    4    0    0  0.22215491084E-01  0.56436926820E-01  0.14495487198E-01  0.62362128116E-01  0.51100000000E-03 0.  1.
         11    1    4    4    0    0  0.78358932311E-02  0.67802656275E-01  0.25010699303E-02  0.68301668299E-01  0.51100000000E-03 0. -1.
</event>
<event>
 8    1  0.1061721E+005  0.1043930E+01  0.7957747E-01            NaN
         13   -1    0    0    0    0  0.00000000000E+00  0.00000000000E+00  0.74505805969E-08  0.10566000000E+00  0.10566000000E+00 0. -1.
     999900   -1    0    0    0    0 -0.00000000000E+00 -0.00000000000E+00 -0.74505805969E-08  0.93827000000E+00  0.93827000000E+00 0.  1.
     999902    2    1    2    0    0 -0.13930611396E-01 -0.18455373778E-01  0.10416991344E-04  0.10208072220E+01  0.10205453060E+01 0.  0.
     999903    2    3    3    0    0 -0.29982354054E-01 -0.92218220050E-01  0.89079600663E-01  0.13309559345E+00  0.19393815465E-01 0.  0.
         14    1    1    2    0    0  0.13930611396E-01  0.18455373778E-01 -0.10416991344E-04  0.23122778026E-01  0.00000000000E+00 0.  1.
     999901    1    3    3    0    0  0.16051742658E-01  0.73762846272E-01 -0.89069183672E-01  0.88771162852E+00  0.88000000000E+00 0.  1.
        -11    1    4    4    0    0 -0.20849701911E-01 -0.47011910767E-01  0.36006752779E-01  0.62781981415E-01  0.51100000000E-03 0. -1.
         11    1    4    4    0    0 -0.91326521429E-02 -0.45206309283E-01  0.53072847884E-01  0.70313612037E-01  0.51100000000E-03 0.  1.
</event>
<event>
 8    1  0.1061721E+005  0.1043930E+01  0.7957747E-01            NaN
         13   -1    0    0    0    0  0.00000000000E+00  0.00000000000E+00  0.74505805969E-08  0.10566000000E+00  0.10566000000E+00 0.  1.
     999900   -1    0    0    0    0 -0.00000000000E+00 -0.00000000000E+00 -0.74505805969E-08  0.93827000000E+00  0.93827000000E+00 0.  1.
     999902    2    1    2    0    0 -0.85346075530E-02  0.73865588970E-04  0.20338309579E-01  0.10218734405E+01  0.10216353736E+01 0.  0.
     999903    2    3    3    0    0  0.10729823969E-01 -0.12995678025E+00  0.82094088349E-03  0.13189590431E+00  0.19798024483E-01 0.  0.
         14    1    1    2    0    0  0.85346075530E-02 -0.73865588970E-04 -0.20338309579E-01  0.22056559540E-01  0.00000000000E+00 0. -1.
     999901    1    3    3    0    0 -0.19264431522E-01  0.13003064584E+00  0.19517368695E-01  0.88997753615E+00  0.88000000000E+00 0. -1.
        -11    1    4    4    0    0 -0.33445746636E-02 -0.70321215784E-01  0.41917746071E-02  0.70527240584E-01  0.51100000000E-03 0. -1.
         11    1    4    4    0    0  0.14074398633E-01 -0.59635564465E-01 -0.33708337236E-02  0.61368663722E-01  0.51100000000E-03 0.  1.
</event>
<event>
 8    1  0.1061721E+005  0.1043930E+01  0.7957747E-01            NaN
         13   -1    0    0    0    0  0.00000000000E+00  0.00000000000E+00  0.74505805969E-08  0.10566000000E+00  0.10566000000E+00 0.  1.
     999900   -1    0    0    0    0 -0.00000000000E+00 -0.00000000000E+00 -0.74505805969E-08  0.93827000000E+00  0.93827000000E+00 0.  1.
     999902    2    1    2    0    0  0.80662767989E-02 -0.92425539018E-02  0.20357117105E-01  0.10201623362E+01  0.10198854301E+01 0.  0.
     999903    2    3    3    0    0 -0.11384646356E+00  0.14784816693E-01 -0.54071343951E-01  0.12832175260E+00  0.19056596844E-01 0.  0.
         14    1    1    2    0    0 -0.80662767989E-02  0.92425539018E-02 -0.20357117105E-01  0.23767663765E-01  0.00000000000E+00 0.  1.
     999901    1    3    3    0    0  0.12191274036E+00 -0.24027370595E-01  0.74428461056E-01  0.89184058363E+00  0.88000000000E+00 0. -1.
        -11    1    4    4    0    0 -0.79910623474E-01  0.12814285543E-01 -0.47022789991E-01  0.93601910009E-01  0.51100000000E-03 0.  1.
         11    1    4    4    0    0 -0.33935840091E-01  0.19705311502E-02 -0.70485539603E-02  0.34719842592E-01  0.51100000000E-03 0. -1.
</event>
<event>
 8    1  0.1061721E+005  0.1043930E+01  0.7957747E-01            NaN
         13   -1    0    0    0    0  0.00000000000E+00  0.00000000000E+00  0.74505805969E-08  0.10566000000E+00  0.10566000000E+00 0. -1.
     999900   -1    0    0    0    0 -0.00000000000E+00 -0.00000000000E+00 -0.74505805969E-08  0.93827000000E+00  0.93827000000E+00 0. -1.
     999902    2    1    2    0    0  0.11125741440E-01 -0.20286917026E-01 -0.18344246730E-03  0.10207918329E+01  0.10205295642E+01 0.  0.
     999903    2    3    3    0    0 -0.54902743756E-01 -0.52337181483E-01  0.10540998015E+00  0.13144547113E+00  0.20326242358E-01 0.  0.
         14    1    1    2    0    0 -0.11125741440E-01  0.20286917026E-01  0.18344246730E-03  0.23138167087E-01  0.00000000000E+00 0. -1.
     999901    1    3    3    0    0  0.66028485197E-01  0.32050264457E-01 -0.10559342262E+00  0.88934636178E+00  0.88000000000E+00 0. -1.
        -11    1    4    4    0    0 -0.24775661336E-01 -0.10509418877E-01  0.38625520267E-01  0.47079435178E-01  0.51100000000E-03 0.  1.
         11    1    4    4    0    0 -0.30127082421E-01 -0.41827762606E-01  0.66784459885E-01  0.84366035956E-01  0.51100000000E-03 0. -1.
</event>
<event>
 8    1  0.1061721E+005  0.1043930E+01  0.7957747E-01            NaN
         13   -1    0    0    0    0  0.00000000000E+00  0.00000000000E+00  0.74505805969E-08  0.10566000000E+00  0.10566000000E+00 0. -1.
     999900   -1    0    0    0    0 -0.00000000000E+00 -0.00000000000E+00 -0.74505805969E-08  0.93827000000E+00  0.93827000000E+00 0.  1.
     999902    2    1    2    0    0  0.84439755177E-02  0.13779203091E-01  0.17198400374E-01  0.10203301666E+01  0.10200572027E+01 0.  0.
     999903    2    3    3    0    0 -0.23025908750E-02 -0.11998427116E+00 -0.40272178524E-01  0.12830380872E+00  0.20940193889E-01 0.  0.
         14    1    1    2    0    0 -0.84439755177E-02 -0.13779203091E-01 -0.17198400374E-01  0.23599833385E-01  0.00000000000E+00 0. -1.
     999901    1    3    3    0    0  0.10746566393E-01  0.13376347425E+00  0.57470578898E-01  0.89202635789E+00  0.88000000000E+00 0.  1.
        -11    1    4    4    0    0  0.27780199466E-02 -0.43462457464E-01 -0.24619321823E-01  0.50030737869E-01  0.51100000000E-03 0. -1.
         11    1    4    4    0    0 -0.50806108217E-02 -0.76521813694E-01 -0.15652856701E-01  0.78273070856E-01  0.51100000000E-03 0.  1.
</event>
<event>
 8    1  0.1061721E+005  0.1043930E+01  0.7957747E-01            NaN
         13   -1    0    0    0    0  0.00000000000E+00  0.00000000000E+00  0.74505805969E-08  0.10566000000E+00  0.10566000000E+00 0. -1.
     999900   -1    0    0    0    0 -0.00000000000E+00 -0.00000000000E+00 -0.74505805969E-08  0.93827000000E+00  0.93827000000E+00 0.  1.
     999902    2    1    2    0    0 -0.10991482307E-01 -0.13494947381E-01  0.10256196171E-01  0.10237281227E+01  0.10235287750E+01 0.  0.
     999903    2    3    3    0    0 -0.10203713931E+00  0.52106472894E-02  0.86488550619E-01  0.13555551399E+00  0.21361164315E-01 0.  0.
         14    1    1    2    0    0  0.10991482307E-01  0.13494947381E-01 -0.10256196171E-01  0.20201877338E-01  0.00000000000E+00 0.  1.
     999901    1    3    3    0    0  0.91045657004E-01 -0.18705594670E-01 -0.76232354448E-01  0.88817260867E+00  0.88000000000E+00 0.  1.
        -11    1    4    4    0    0 -0.26733692508E-01  0.10746415554E-01  0.21968207488E-01  0.36235880334E-01  0.51100000000E-03 0.  1.
         11    1    4    4    0    0 -0.75303446802E-01 -0.55357682647E-02  0.64520343131E-01  0.99319633655E-01  0.51100000000E-03 0. -1.
</event>
<event>
 8    1  0.1061721E+005  0.1043930E+01  0.7957747E-01            NaN
         13   -1    0    0    0    0  0.00000000000E+00  0.00000000000E+00  0.74505805969E-08  0.10566000000E+00  0.10566000000E+00 0. -1.
     999900   -1    0    0    0    0 -0.00000000000E+00 -0.00000000000E+00 -0.74505805969E-08  0.93827000000E+00  0.93827000000E+00 0.  1.
     999902    2    1    2    0    0 -0.59221217423E-02  0.13323196713E-01 -0.20460934775E-01  0.10188057299E+01  0.10184958941E+01 0.  0.
     999903    2    3    3    0    0  0.29855880534E-02  0.94541107630E-01 -0.89577230837E-01  0.13232236359E+00  0.23198983900E-01 0.  0.
         14    1    1    2    0    0  0.59221217423E-02 -0.13323196713E-01  0.20460934775E-01  0.25124270108E-01  0.00000000000E+00 0. -1.
     999901    1    3    3    0    0 -0.89077097957E-02 -0.81217910917E-01  0.69116296062E-01  0.88648336630E+00  0.88000000000E+00 0. -1.
        -11    1    4    4    0    0  0.11979967672E-01  0.38021485360E-01 -0.31797005635E-01  0.50994741520E-01  0.51100000000E-03 0. -1.
         11    1    4    4    0    0 -0.89943796181E-02  0.56519622270E-01 -0.57780225202E-01  0.81327622071E-01  0.51100000000E-03 0.  1.
</event>
<event>
 8    1  0.1061721E+005  0.1043930E+01  0.7957747E-01            NaN
         13   -1    0    0    0    0  0.00000000000E+00  0.00000000000E+00  0.74505805969E-08  0.10566000000E+00  0.10566000000E+00 0.  1.
     999900   -1    0    0    0    0 -0.00000000000E+00 -0.00000000000E+00 -0.74505805969E-08  0.93827000000E+00  0.93827000000E+00 0.  1.
     999902    2    1    2    0    0  0.57570163373E-02 -0.32431841977E-01 -0.41031936472E-02  0.10107365698E+01  0.10101913728E+01 0.  0.
     999903    2    3    3    0    0  0.77580744190E-01  0.34000360209E-01 -0.84955713390E-01  0.12163083068E+00  0.20044684344E-01 0.  0.
         14    1    1    2    0    0 -0.57570163373E-02  0.32431841977E-01  0.41031936472E-02  0.33193430212E-01  0.00000000000E+00 0.  1.
     999901    1    3    3    0    0 -0.71823727852E-01 -0.66432202186E-01  0.80852519743E-01  0.88910573911E+00  0.88000000000E+00 0. -1.
        -11    1    4    4    0    0  0.21742058950E-01  0.98650388613E-02 -0.37579496595E-01  0.44525451199E-01  0.51100000000E-03 0.  1.
         11    1    4    4    0    0  0.55838685239E-01  0.24135321348E-01 -0.47376216795E-01  0.77105379479E-01  0.51100000000E-03 0. -1.
</event>
<event>
 8    1  0.1061721E+005  0.1043930E+01  0.7957747E-01            NaN
         13   -1    0    0    0    0  0.00000000000E+00  0.00000000000E+00  0.74505805969E-08  0.10566000000E+00  0.10566000000E+00 0. -1.
     999900   -1    0    0    0    0 -0.00000000000E+00 -0.00000000000E+00 -0.74505805969E-08  0.93827000000E+00  0.93827000000E+00 0.  1.
     999902    2    1    2    0    0 -0.10769658143E-01  0.17778156966E-01 -0.44172384491E-02  0.10226800495E+01  0.10224592526E+01 0.  0.
     999903    2    3    3    0    0 -0.30305548469E-01 -0.14784760272E-01 -0.12756570604E+00  0.13329400301E+00  0.18901493999E-01 0.  0.
         14    1    1    2    0    0  0.10769658143E-01 -0.17778156966E-01  0.44172384491E-02  0.21249950522E-01  0.00000000000E+00 0. -1.
     999901    1    3    3    0    0  0.19535890326E-01  0.32562917238E-01  0.12314846759E+00  0.88938604647E+00  0.88000000000E+00 0.  1.
        -11    1    4    4    0    0 -0.13679900403E-01  0.26632367819E-02 -0.35960251222E-01  0.38569849548E-01  0.51100000000E-03 0. -1.
         11    1    4    4    0    0 -0.16625648066E-01 -0.17447997054E-01 -0.91605454819E-01  0.94724153458E-01  0.51100000000E-03 0.  1.
</event>
<event>
 8    1  0.1061721E+005  0.1043930E+01  0.7957747E-01            NaN
         13   -1    0    0    0    0  0.00000000000E+00  0.00000000000E+00  0.74505805969E-08  0.10566000000E+00  0.10566000000E+00 0. -1.
     999900   -1    0    0    0    0 -0.00000000000E+00 -0.00000000000E+00 -0.74505805969E-08  0.93827000000E+00  0.93827000000E+00 0.  1.
     999902    2    1    2    0    0  0.62987249888E-03  0.23596281043E-01 -0.27952844455E-02  0.10201603800E+01  0.10198834277E+01 0.  0.
     999903    2    3    3    0    0  0.42456613692E-01  0.11756907689E+00 -0.41801071951E-01  0.13331100494E+00  0.19986058534E-01 0.  0.
         14    1    1    2    0    0 -0.62987249888E-03 -0.23596281043E-01  0.27952844455E-02  0.23769619971E-01  0.00000000000E+00 0. -1.
     999901    1    3    3    0    0 -0.41826741193E-01 -0.93972795843E-01  0.39005787506E-01  0.88684937509E+00  0.88000000000E+00 0. -1.
        -11    1    4    4    0    0  0.27788743938E-01  0.54714500796E-01 -0.27243559069E-01  0.67144348375E-01  0.51100000000E-03 0.  1.
         11    1    4    4    0    0  0.14667869754E-01  0.62854576090E-01 -0.14557512882E-01  0.66166656565E-01  0.51100000000E-03 0. -1.
</event>
<event>
 8    1  0.1061721E+005  0.1043930E+01  0.7957747E-01            NaN
         13   -1    0    0    0    0  0.00000000000E+00  0.00000000000E+00  0.74505805969E-08  0.10566000000E+00  0.10566000000E+00 0. -1.
     999900   -1    0    0    0    0 -0.00000000000E+00 -0.00000000000E+00 -0.74505805969E-08  0.93827000000E+00  0.93827000000E+00 0. -1.
     999902    2    1    2    0    0 -0.10957143009E-01 -0.16338054155E-01 -0.12584906890E-01  0.10205768230E+01  0.10203096004E+01 0.  0.
     999903    2    3    3    0    0  0.11139920705E+00 -0.65250613738E-01 -0.19261776489E-02  0.13070204335E+00  0.20295025270E-01 0.  0.
         14    1    1    2    0    0  0.10957143009E-01  0.16338054155E-01  0.12584906890E-01  0.23353177041E-01  0.00000000000E+00 0. -1.
     999901    1    3    3    0    0 -0.12235635005E+00  0.48912559583E-01 -0.10658729241E-01  0.88987477961E+00  0.88000000000E+00 0. -1.
        -11    1    4    4    0    0  0.94997037077E-02 -0.79119247236E-02  0.55009716892E-02  0.13541223500E-01  0.51100000000E-03 0. -1.
         11    1    4    4    0    0  0.10189950334E+00 -0.57338689015E-01 -0.74271493381E-02  0.11716081984E+00  0.51100000000E-03 0.  1.
</event>
<event>
 8    1  0.1061721E+005  0.1043930E+01  0.7957747E-01            NaN
         13   -1    0    0    0    0  0.00000000000E+00  0.00000000000E+00  0.74505805969E-08  0.10566000000E+00  0.10566000000E+00 0. -1.
     999900   -1    0    0    0    0 -0.00000000000E+00 -0.00000000000E+00 -0.74505805969E-08  0.93827000000E+00  0.93827000000E+00 0. -1.
     999902    2    1    2    0    0 -0.20389372201E-01 -0.99270781211E-02  0.64416158242E-02  0.10203552721E+01  0.10200828955E+01 0.  0.
     999903    2    3    3    0    0 -0.10455964718E+00 -0.47464437002E-01 -0.63641372394E-01  0.13277129655E+00  0.19809096650E-01 0.  0.
         14    1    1    2    0    0  0.20389372201E-01  0.99270781211E-02 -0.64416158242E-02  0.23574727850E-01  0.00000000000E+00 0.  1.
     999901    1    3    3    0    0  0.84170274976E-01  0.37537358880E-01  0.70082988218E-01  0.88758397560E+00  0.88000000000E+00 0.  1.
        -11    1    4    4    0    0 -0.82987075028E-01 -0.36758992852E-01 -0.40580498671E-01  0.99423921521E-01  0.51100000000E-03 0.  1.
         11    1    4    4    0    0 -0.21572572149E-01 -0.10705444150E-01 -0.23060873723E-01  0.33347375030E-01  0.51100000000E-03 0. -1.
</event>
<event>
 8    1  0.1061721E+005  0.1043930E+01  0.7957747E-01            NaN
         13   -1    0    0    0    0  0.00000000000E+00  0.00000000000E+00  0.74505805969E-08  0.10566000000E+00  0.10566000000E+00 0. -1.
     999900   -1    0    0    0    0 -0.00000000000E+00 -0.00000000000E+00 -0.74505805969E-08  0.93827000000E+00  0.93827000000E+00 0.  1.
     999902    2    1    2    0    0 -0.12501836219E-01  0.91619555810E-02  0.16836961665E-01  0.10210450570E+01  0.10207885617E+01 0.  0.
     999903    2    3    3    0    0 -0.10098123674E+00  0.54279502009E-01 -0.62297992154E-01  0.13192946369E+00  0.19515866678E-01 0.  0.
         14    1    1    2    0    0  0.12501836219E-01 -0.91619555810E-02 -0.16836961665E-01  0.22884943020E-01  0.00000000000E+00 0.  1.
     999901    1    3    3    0    0  0.88479400520E-01 -0.45117546428E-01  0.79134953819E-01  0.88911559329E+00  0.88000000000E+00 0. -1.
        -11    1    4    4    0    0 -0.50116058419E-01  0.22778501788E-01 -0.40117550417E-01  0.68118708353E-01  0.51100000000E-03 0.  1.
         11    1    4    4    0    0 -0.50865178319E-01  0.31501000221E-01 -0.22180441736E-01  0.63810755339E-01  0.51100000000E-03 0. -1.
</event>
<event>
 8    1  0.1061721E+005  0.1043930E+01  0.7957747E-01            NaN
         13   -1    0    0    0    0  0.00000000000E+00  0.00000000000E+00  0.74505805969E-08  0.10566000000E+00  0.10566000000E+00 0. -1.
     999900   -1    0    0    0    0 -0.00000000000E+00 -0.00000000000E+00 -0.74505805969E-08  0.93827000000E+00  0.93827000000E+00 0. -1.
     999902    2    1    2    0    0 -0.87121487509E-02  0.12631858743E-02  0.20946071600E-01  0.10212091926E+01  0.10209564045E+01 0.  0.
     999903    2    3    3    0    0  0.10055592261E+00  0.38130516109E-01 -0.68643725832E-01  0.12917497616E+00  0.20218396059E-01 0.  0.
         14    1    1    2    0    0  0.87121487509E-02 -0.12631858743E-02 -0.20946071600E-01  0.22720807421E-01  0.00000000000E+00 0.  1.
     999901    1    3    3    0    0 -0.10926807136E+00 -0.36867330235E-01  0.89589797431E-01  0.89203421642E+00  0.88000000000E+00 0.  1.
        -11    1    4    4    0    0  0.75703634285E-01  0.31194036823E-01 -0.41780129367E-01  0.91923601475E-01  0.51100000000E-03 0.  1.
         11    1    4    4    0    0  0.24852288325E-01  0.69364792862E-02 -0.26863596465E-01  0.37251374685E-01  0.51100000000E-03 0. -1.
</event>
<event>
 8    1  0.1061721E+005  0.1043930E+01  0.7957747E-01            NaN
         13   -1    0    0    0    0  0.00000000000E+00  0.00000000000E+00  0.74505805969E-08  0.10566000000E+00  0.10566000000E+00 0. -1.
     999900   -1    0    0    0    0 -0.00000000000E+00 -0.00000000000E+00 -0.74505805969E-08  0.93827000000E+00  0.93827000000E+00 0. -1.
     999902    2    1    2    0    0  0.19764345796E-01 -0.50384693044E-02 -0.78208612534E-02  0.10220855177E+01  0.10218520558E+01 0.  0.
     999903    2    3    3    0    0  0.27079549738E-01  0.71480554724E-01  0.10518836140E+00  0.13153526212E+00  0.19853515786E-01 0.  0.
         14    1    1    2    0    0 -0.19764345796E-01  0.50384693044E-02  0.78208612534E-02  0.21844482334E-01  0.00000000000E+00 0. -1.
     999901    1    3    3    0    0 -0.73152039416E-02 -0.76519024029E-01 -0.11300922266E+00  0.89055025555E+00  0.88000000000E+00 0. -1.
        -11    1    4    4    0    0  0.13087317554E-01  0.49160614866E-01  0.55476048540E-01  0.75272153001E-01  0.51100000000E-03 0.  1.
         11    1    4    4    0    0  0.13992232184E-01  0.22319939858E-01  0.49712312862E-01  0.56263109120E-01  0.51100000000E-03 0. -1.
</event>
<event>
 8    1  0.1061721E+005  0.1043930E+01  0.7957747E-01            NaN
         13   -1    0    0    0    0  0.00000000000E+00  0.00000000000E+00  0.74505805969E-08  0.10566000000E+00  0.10566000000E+00 0.  1.
     999900   -1    0    0    0    0 -0.00000000000E+00 -0.00000000000E+00 -0.74505805969E-08  0.93827000000E+00  0.93827000000E+00 0.  1.
     999902    2    1    2    0    0  0.10534827815E-01 -0.21101037271E-01  0.10773130015E-02  0.10203207439E+01  0.10200475594E+01 0.  0.
     999903    2    3    3    0    0 -0.13537144662E-01 -0.87353021969E-01 -0.96249535128E-01  0.13215336062E+00  0.19665527637E-01 0.  0.
         14    1    1    2    0    0 -0.10534827815E-01  0.21101037271E-01 -0.10773130015E-02  0.23609256115E-01  0.00000000000E+00 0. -1.
     999901    1    3    3    0    0  0.24071972477E-01  0.66251984698E-01  0.97326848129E-01  0.88816738327E+00  0.88000000000E+00 0. -1.
        -11    1    4    4    0    0  0.21844263970E-02 -0.69663517140E-02 -0.15455139306E-01  0.17100415985E-01  0.51100000000E-03 0. -1.
         11    1    4    4    0    0 -0.15721571059E-01 -0.80386670255E-01 -0.80794395821E-01  0.11505294463E+00  0.51100000000E-03 0.  1.
</event>
<event>
 8    1  0.1061721E+005  0.1043930E+01  0.7957747E-01            NaN
         13   -1    0    0    0    0  0.00000000000E+00  0.00000000000E+00  0.74505805969E-08  0.10566000000E+00  0.10566000000E+00 0.  1.
     999900   -1    0    0    0    0 -0.00000000000E+00 -0.00000000000E+00 -0.74505805969E-08  0.93827000000E+00  0.93827000000E+00 0. -1.
     999902    2    1    2    0    0  0.50804184931E-02 -0.22682555091E-02  0.22920452078E-01  0.10203439287E+01  0.10200712868E+01 0.  0.
     999903    2    3    3    0    0  0.89420097753E-01 -0.93640019548E-01  0.12551214160E-01  0.13154164370E+00  0.19525980297E-01 0.  0.
         14    1    1    2    0    0 -0.50804184931E-02  0.22682555091E-02 -0.22920452078E-01  0.23586071284E-01  0.00000000000E+00 0. -1.
     999901    1    3    3    0    0 -0.84339679260E-01  0.91371764039E-01  0.10369237918E-01  0.88880228502E+00  0.88000000000E+00 0. -1.
        -11    1    4    4    0    0  0.30218851418E-01 -0.25433694898E-01 -0.40632575885E-02  0.39709230670E-01  0.51100000000E-03 0.  1.
         11    1    4    4    0    0  0.59201246335E-01 -0.68206324649E-01  0.16614471749E-01  0.91832413027E-01  0.51100000000E-03 0. -1.
</event>
<event>
 8    1  0.1061721E+005  0.1043930E+01  0.7957747E-01            NaN
         13   -1    0    0    0    0  0.00000000000E+00  0.00000000000E+00  0.74505805969E-08  0.10566000000E+00  0.10566000000E+00 0.  1.
     999900   -1    0    0    0    0 -0.00000000000E+00 -0.00000000000E+00 -0.74505805969E-08  0.93827000000E+00  0.93827000000E+00 0. -1.
     999902    2    1    2    0    0  0.85781338924E-02  0.93586251483E-02 -0.20221825625E-01  0.10200534325E+01  0.10197739527E+01 0.  0.
     999903    2    3    3    0    0  0.72863043082E-01 -0.93311762787E-01  0.47592599764E-01  0.12917041298E+00  0.20095569561E-01 0.  0.
         14    1    1    2    0    0 -0.85781338924E-02 -0.93586251483E-02  0.20221825625E-01  0.23876567537E-01  0.00000000000E+00 0.  1.
     999901    1    3    3    0    0 -0.64284909189E-01  0.10267038794E+00 -0.67814425390E-01  0.89088301948E+00  0.88000000000E+00 0. -1.
        -11    1    4    4    0    0  0.38043024413E-01 -0.64247653221E-01  0.31521044803E-01  0.81048565918E-01  0.51100000000E-03 0.  1.
         11    1    4    4    0    0  0.34820018668E-01 -0.29064109566E-01  0.16071554961E-01  0.48121847064E-01  0.51100000000E-03 0. -1.
</event>
<event>
 8    1  0.1061721E+005  0.1043930E+01  0.7957747E-01            NaN
         13   -1    0    0    0    0  0.00000000000E+00  0.00000000000E+00  0.74505805969E-08  0.10566000000E+00  0.10566000000E+00 0.  1.
     999900   -1    0    0    0    0 -0.00000000000E+00 -0.00000000000E+00 -0.74505805969E-08  0.93827000000E+00  0.93827000000E+00 0.  1.
     999902    2    1    2    0    0 -0.40444052770E-02 -0.20626459944E-02 -0.23223915375E-01  0.10202664845E+01  0.10199920281E+01 0.  0.
     999903    2    3    3    0    0  0.10036921118E+00 -0.72460850160E-01 -0.39236003948E-01  0.13115766241E+00  0.18393342433E-01 0.  0.
         14    1    1    2    0    0  0.40444052770E-02  0.20626459944E-02  0.23223915375E-01  0.23663515544E-01  0.00000000000E+00 0.  1.
     999901    1    3    3    0    0 -0.10441361646E+00  0.70398204165E-01  0.16012088573E-01  0.88910882204E+00  0.88000000000E+00 0. -1.
        -11    1    4    4    0    0  0.20410988354E-01 -0.63044878541E-02 -0.70430740305E-02  0.22499356113E-01  0.51100000000E-03 0. -1.
         11    1    4    4    0    0  0.79958222825E-01 -0.66156362306E-01 -0.32192929918E-01  0.10865830630E+00  0.51100000000E-03 0.  1.
</event>
<event>
 8    1  0.1061721E+005  0.1043930E+01  0.7957747E-01            NaN
         13   -1    0    0    0    0  0.00000000000E+00  0.00000000000E+00  0.74505805969E-08  0.10566000000E+00  0.10566000000E+00 0. -1.
     999900   -1    0    0    0    0 -0.00000000000E+00 -0.00000000000E+00 -0.74505805969E-08  0.93827000000E+00  0.93827000000E+00 0.  1.
     999902    2    1    2    0    0  0.12896883713E-02  0.14042812209E-01  0.19109430160E-01  0.10201805960E+01  0.10199041201E+01 0.  0.
     999903    2    3    3    0    0  0.12766376762E+00  0.19636386954E-01  0.10252506057E-01  0.13109109480E+00  0.19903165530E-01 0.  0.
         14    1    1    2    0    0 -0.12896883713E-02 -0.14042812209E-01 -0.19109430160E-01  0.23749404032E-01  0.00000000000E+00 0.  1.
     999901    1    3    3    0    0 -0.12637407925E+00 -0.55935747443E-02  0.88569241034E-02  0.88908950117E+00  0.88000000000E+00 0.  1.
        -11    1    4    4    0    0  0.62295674131E-01  0.15432421727E-01  0.13181934698E-01  0.65520494345E-01  0.51100000000E-03 0. -1.
         11    1    4    4    0    0  0.65368093494E-01  0.42039652269E-02 -0.29294286408E-02  0.65570600453E-01  0.51100000000E-03 0.  1.
</event>
<event>
 8    1  0.1061721E+005  0.1043930E+01  0.7957747E-01            NaN
         13   -1    0    0    0    0  0.00000000000E+00  0.00000000000E+00  0.74505805969E-08  0.10566000000E+00  0.10566000000E+00 0. -1.
     999900   -1    0    0    0    0 -0.00000000000E+00 -0.00000000000E+00 -0.74505805969E-08  0.93827000000E+00  0.93827000000E+00 0.  1.
     999902    2    1    2    0    0  0.17945499272E-01  0.13256379812E-01 -0.58924473208E-02  0.10208541796E+01  0.10205933385E+01 0.  0.
     999903    2    3    3    0    0  0.35489760445E-01 -0.11186022166E+00 -0.53866760223E-01  0.13053766302E+00  0.19136909999E-01 0.  0.
         14    1    1    2    0    0 -0.17945499272E-01 -0.13256379812E-01  0.58924473208E-02  0.23075820360E-01  0.00000000000E+00 0.  1.
     999901    1    3    3    0    0 -0.17544261173E-01  0.12511660147E+00  0.47974312902E-01  0.89031651662E+00  0.88000000000E+00 0.  1.
        -11    1    4    4    0    0  0.99795774239E-02 -0.60453122016E-01 -0.23661023509E-01  0.65683156757E-01  0.51100000000E-03 0. -1.
         11    1    4    4    0    0  0.25510183021E-01 -0.51407099643E-01 -0.30205736714E-01  0.64854506265E-01  0.51100000000E-03 0.  1.
</event>
<event>
 8    1  0.1061721E+005  0.1043930E+01  0.7957747E-01            NaN
         13   -1    0    0    0    0  0.00000000000E+00  0.00000000000E+00  0.74505805969E-08  0.10566000000E+00  0.10566000000E+00 0.  1.
     999900   -1    0    0    0    0 -0.00000000000E+00 -0.00000000000E+00 -0.74505805969E-08  0.93827000000E+00  0.93827000000E+00 0.  1.
     999902    2    1    2    0    0 -0.94491994812E-02 -0.16230235031E-01 -0.11600228112E-01  0.10218557346E+01  0.10216172812E+01 0.  0.
     999903    2    3    3    0    0 -0.88913063092E-01  0.42408193059E-01 -0.86769694695E-01  0.13314688489E+00  0.22251413714E-01 0.  0.
         14    1    1    2    0    0  0.94491994812E-02  0.16230235031E-01  0.11600228112E-01  0.22074265384E-01  0.00000000000E+00 0.  1.
     999901    1    3    3    0    0  0.79463863611E-01 -0.58638428091E-01  0.75169466583E-01  0.88870884972E+00  0.88000000000E+00 0. -1.
        -11    1    4    4    0    0 -0.47376959488E-01  0.34354389949E-01 -0.46712940727E-01  0.74880974563E-01  0.51100000000E-03 0. -1.
         11    1    4    4    0    0 -0.41536103604E-01  0.80538031098E-02 -0.40056753969E-01  0.58265910330E-01  0.51100000000E-03 0.  1.
</event>
<event>
 8    1  0.1061721E+005  0.1043930E+01  0.7957747E-01            NaN
         13   -1    0    0    0    0  0.00000000000E+00  0.00000000000E+00  0.74505805969E-08  0.10566000000E+00  0.10566000000E+00 0. -1.
     999900   -1    0    0    0    0 -0.00000000000E+00 -0.00000000000E+00 -0.74505805969E-08  0.93827000000E+00  0.93827000000E+00 0. -1.
     999902    2    1    2    0    0 -0.16770136367E-01 -0.17168394601E-01  0.59672983826E-02  0.10191994542E+01  0.10188993706E+01 0.  0.
     999903    2    3    3    0    0  0.80158707150E-01  0.85483812778E-03 -0.97330676621E-01  0.12768921348E+00  0.20127730795E-01 0.  0.
         14    1    1    2    0    0  0.16770136367E-01  0.17168394601E-01 -0.59672983826E-02  0.24730545828E-01  0.00000000000E+00 0. -1.
     999901    1    3    3    0    0 -0.96928843517E-01 -0.18023232729E-01  0.10329797500E+00  0.89151024069E+00  0.88000000000E+00 0.  1.
        -11    1    4    4    0    0  0.20774025321E-01 -0.75368437095E-02 -0.19867966323E-01  0.29721395458E-01  0.51100000000E-03 0.  1.
         11    1    4    4    0    0  0.59384681829E-01  0.83916818373E-02 -0.77462710297E-01  0.97967818020E-01  0.51100000000E-03 0. -1.
</event>
<event>
 8    1  0.1061721E+005  0.1043930E+01  0.7957747E-01            NaN
         13   -1    0    0    0    0  0.00000000000E+00  0.00000000000E+00  0.74505805969E-08  0.10566000000E+00  0.10566000000E+00 0. -1.
     999900   -1    0    0    0    0 -0.00000000000E+00 -0.00000000000E+00 -0.74505805969E-08  0.93827000000E+00  0.93827000000E+00 0.  1.
     999902    2    1    2    0    0  0.70661453140E-02 -0.17936504934E-01 -0.14638380281E-01  0.10197239926E+01  0.10194366534E+01 0.  0.
     999903    2    3    3    0    0 -0.80647852102E-01  0.96556032687E-01 -0.13863295919E-01  0.12798250128E+00  0.18978571173E-01 0.  0.
         14    1    1    2    0    0 -0.70661453140E-02  0.17936504934E-01  0.14638380281E-01  0.24206007438E-01  0.00000000000E+00 0. -1.
     999901    1    3    3    0    0  0.87713997416E-01 -0.11449253762E+00 -0.77508436237E-03  0.89174149128E+00  0.88000000000E+00 0. -1.
        -11    1    4    4    0    0 -0.46377587167E-01  0.62066667443E-01 -0.22252031531E-03  0.77482013624E-01  0.51100000000E-03 0. -1.
         11    1    4    4    0    0 -0.34270264935E-01  0.34489365244E-01 -0.13640775603E-01  0.50500487658E-01  0.51100000000E-03 0.  1.
</event>
<event>
 8    1  0.1061721E+005  0.1043930E+01  0.7957747E-01            NaN
         13   -1    0    0    0    0  0.00000000000E+00  0.00000000000E+00  0.74505805969E-08  0.10566000000E+00  0.10566000000E+00 0.  1.
     999900   -1    0    0    0    0 -0.00000000000E+00 -0.00000000000E+00 -0.74505805969E-08  0.93827000000E+00  0.93827000000E+00 0. -1.
     999902    2    1    2    0    0  0.18908425161E-01 -0.13339976519E-01  0.17530145051E-02  0.10207231783E+01  0.10204593329E+01 0.  0.
     999903    2    3    3    0    0 -0.12302419115E-01  0.11910684480E-01  0.12822639628E+00  0.13077529833E+00  0.19156096431E-01 0.  0.
         14    1    1    2    0    0 -0.18908425161E-01  0.13339976519E-01 -0.17530145051E-02  0.23206821743E-01  0.00000000000E+00 0.  1.
     999901    1    3    3    0    0  0.31210844276E-01 -0.25250660999E-01 -0.12647338178E+00  0.88994787992E+00  0.88000000000E+00 0. -1.
        -11    1    4    4    0    0 -0.13081302366E-02  0.13649464386E-01  0.53942240444E-01  0.55660089003E-01  0.51100000000E-03 0. -1.
         11    1    4    4    0    0 -0.10994288879E-01 -0.17387799057E-02  0.74284155836E-01  0.75115209331E-01  0.51100000000E-03 0.  1.
</event>
<event>
 8    1  0.1061721E+005  0.1043930E+01  0.7957747E-01            NaN
         13   -1    0    0    0    0  0.00000000000E+00  0.00000000000E+00  0.74505805969E-08  0.10566000000E+00  0.10566000000E+00 0. -1.
     999900   -1    0    0    0    0 -0.00000000000E+00 -0.00000000000E+00 -0.74505805969E-08  0.93827000000E+00  0.93827000000E+00 0.  1.
     999902    2    1    2    0    0 -0.28386612909E-01  0.24423191210E-02  0.11130422350E-02  0.10154167824E+01  0.10150163735E+01 0.  0.
     999903    2    3    3    0    0 -0.92259027562E-01 -0.65101099040E-01  0.58710236562E-01  0.12864779586E+00  0.18801123348E-01 0.  0.
         14    1    1    2    0    0  0.28386612909E-01 -0.24423191210E-02 -0.11130422350E-02  0.28513217604E-01  0.00000000000E+00 0. -1.
     999901    1    3    3    0    0  0.63872414654E-01  0.67543418161E-01 -0.57597194327E-01  0.88676898654E+00  0.88000000000E+00 0.  1.
        -11    1    4    4    0    0 -0.18736057876E-01 -0.22957952555E-01  0.17422921303E-01  0.34379161683E-01  0.51100000000E-03 0. -1.
         11    1    4    4    0    0 -0.73522969686E-01 -0.42143146485E-01  0.41287315259E-01  0.94268634176E-01  0.51100000000E-03 0.  1.
</event>
<event>
 8    1  0.1061721E+005  0.1043930E+01  0.7957747E-01            NaN
         13   -1    0    0    0    0  0.00000000000E+00  0.00000000000E+00  0.74505805969E-08  0.10566000000E+00  0.10566000000E+00 0.  1.
     999900   -1    0    0    0    0 -0.00000000000E+00 -0.00000000000E+00 -0.74505805969E-08  0.93827000000E+00  0.93827000000E+00 0.  1.
     999902    2    1    2    0    0  0.13519658998E-01 -0.14363111130E-01 -0.12145160258E-01  0.10207656943E+01  0.10205028259E+01 0.  0.
     999903    2    3    3    0    0  0.11443001525E+00 -0.40253104011E-01  0.49673483365E-01  0.13246690649E+00  0.19117677501E-01 0.  0.
         14    1    1    2    0    0 -0.13519658998E-01  0.14363111130E-01  0.12145160258E-01  0.23164305697E-01  0.00000000000E+00 0.  1.
     999901    1    3    3    0    0 -0.10091035625E+00  0.25889992881E-01 -0.61818643623E-01  0.88829878781E+00  0.88000000000E+00 0.  1.
        -11    1    4    4    0    0  0.48162900721E-01 -0.25686063198E-01  0.17103480555E-01  0.57203400393E-01  0.51100000000E-03 0. -1.
         11    1    4    4    0    0  0.66267114528E-01 -0.14567040813E-01  0.32570002810E-01  0.75263506097E-01  0.51100000000E-03 0.  1.
</event>
<event>
 8    1  0.1061721E+005  0.1043930E+01  0.7957747E-01            NaN
         13   -1    0    0    0    0  0.00000000000E+00  0.00000000000E+00  0.74505805969E-08  0.10566000000E+00  0.10566000000E+00 0.  1.
     999900   -1    0    0    0    0 -0.00000000000E+00 -0.00000000000E+00 -0.74505805969E-08  0.93827000000E+00  0.93827000000E+00 0.  1.
     999902    2    1    2    0    0 -0.19281428543E-01  0.10965595147E-01 -0.15078783295E-01  0.10171086005E+01  0.10167548956E+01 0.  0.
     999903    2    3    3    0    0  0.27075212563E-01 -0.30510997304E-01 -0.12064361266E+00  0.12861933268E+00  0.18001760231E-01 0.  0.
         14    1    1    2    0    0  0.19281428543E-01 -0.10965595147E-01  0.15078783295E-01  0.26821399465E-01  0.00000000000E+00 0.  1.
     999901    1    3    3    0    0 -0.46356641106E-01  0.41476592451E-01  0.10556482936E+00  0.88848926786E+00  0.88000000000E+00 0. -1.
        -11    1    4    4    0    0  0.89527691938E-02 -0.60537199424E-02 -0.57629398403E-01  0.58636236941E-01  0.51100000000E-03 0. -1.
         11    1    4    4    0    0  0.18122443369E-01 -0.24457277362E-01 -0.63014214257E-01  0.69983095738E-01  0.51100000000E-03 0.  1.
</event>
<event>
 8    1  0.1061721E+005  0.1043930E+01  0.7957747E-01            NaN
         13   -1    0    0    0    0  0.00000000000E+00  0.00000000000E+00  0.74505805969E-08  0.10566000000E+00  0.10566000000E+00 0. -1.
     999900   -1    0    0    0    0 -0.00000000000E+00 -0.00000000000E+00 -0.74505805969E-08  0.93827000000E+00  0.93827000000E+00 0. -1.
     999902    2    1    2    0    0  0.19902032001E-01  0.12118770427E-01 -0.32640115953E-02  0.10204010976E+01  0.10201297912E+01 0.  0.
     999903    2    3    3    0    0  0.10994483992E+00  0.70570733592E-01  0.19673952506E-01  0.13358065953E+00  0.19713749713E-01 0.  0.
         14    1    1    2    0    0 -0.19902032001E-01 -0.12118770427E-01  0.32640115953E-02  0.23528902357E-01  0.00000000000E+00 0.  1.
     999901    1    3    3    0    0 -0.90042807924E-01 -0.58451963165E-01 -0.22937964101E-01  0.88682043811E+00  0.88000000000E+00 0. -1.
        -11    1    4    4    0    0  0.63749029813E-01  0.46559954269E-01  0.33432198244E-02  0.79013963218E-01  0.51100000000E-03 0. -1.
         11    1    4    4    0    0  0.46195810112E-01  0.24010779323E-01  0.16330732682E-01  0.54566696313E-01  0.51100000000E-03 0.  1.
</event>
<event>
 8    1  0.1061721E+005  0.1043930E+01  0.7957747E-01            NaN
         13   -1    0    0    0    0  0.00000000000E+00  0.00000000000E+00  0.74505805969E-08  0.10566000000E+00  0.10566000000E+00 0.  1.
     999900   -1    0    0    0    0 -0.00000000000E+00 -0.00000000000E+00 -0.74505805969E-08  0.93827000000E+00  0.93827000000E+00 0.  1.
     999902    2    1    2    0    0  0.65188593700E-02  0.19072650439E-01 -0.10800492855E-01  0.10210627271E+01  0.10208066323E+01 0.  0.
     999903    2    3    3    0    0 -0.68624046519E-01 -0.89930980176E-01  0.57402325269E-01  0.12854949351E+00  0.20811159994E-01 0.  0.
         14    1    1    2    0    0 -0.65188593700E-02 -0.19072650439E-01  0.10800492855E-01  0.22867272863E-01  0.00000000000E+00 0.  1.
     999901    1    3    3    0    0  0.75142905889E-01  0.10900363062E+00 -0.68202818125E-01  0.89251323362E+00  0.88000000000E+00 0.  1.
        -11    1    4    4    0    0 -0.46168832830E-01 -0.60455747509E-01  0.27350685217E-01  0.80837983860E-01  0.51100000000E-03 0.  1.
         11    1    4    4    0    0 -0.22455213689E-01 -0.29475232667E-01  0.30051640052E-01  0.47711509654E-01  0.51100000000E-03 0. -1.
</event>
<event>
 8    1  0.1061721E+005  0.1043930E+01  0.7957747E-01            NaN
         13   -1    0    0    0    0  0.00000000000E+00  0.00000000000E+00  0.74505805969E-08  0.10566000000E+00  0.10566000000E+00 0.  1.
     999900   -1    0    0    0    0 -0.00000000000E+00 -0.00000000000E+00 -0.74505805969E-08  0.93827000000E+00  0.93827000000E+00 0.  1.
     999902    2    1    2    0    0  0.86074791179E-02 -0.22773580580E-02  0.21859159916E-01  0.10203270780E+01  0.10200540418E+01 0.  0.
     999903    2    3    3    0    0 -0.57554966550E-01  0.47481663243E-01  0.10740727405E+00  0.13231136343E+00  0.20072166194E-01 0.  0.
         14    1    1    2    0    0 -0.86074791179E-02  0.22773580580E-02 -0.21859159916E-01  0.23602922037E-01  0.00000000000E+00 0. -1.
     999901    1    3    3    0    0  0.66162445668E-01 -0.49759021301E-01 -0.85548114136E-01  0.88801571453E+00  0.88000000000E+00 0.  1.
        -11    1    4    4    0    0 -0.40718949075E-01  0.29260486783E-01  0.85943609459E-01  0.99502633274E-01  0.51100000000E-03 0. -1.
         11    1    4    4    0    0 -0.16836017475E-01  0.18221176460E-01  0.21463664592E-01  0.32808730160E-01  0.51100000000E-03 0.  1.
</event>
<event>
 8    1  0.1061721E+005  0.1043930E+01  0.7957747E-01            NaN
         13   -1    0    0    0    0  0.00000000000E+00  0.00000000000E+00  0.74505805969E-08  0.10566000000E+00  0.10566000000E+00 0.  1.
     999900   -1    0    0    0    0 -0.00000000000E+00 -0.00000000000E+00 -0.74505805969E-08  0.93827000000E+00  0.93827000000E+00 0. -1.
     999902    2    1    2    0    0 -0.12794131514E-01  0.16328794736E-01  0.19268374057E-01  0.10156176427E+01  0.10152229344E+01 0.  0.
     999903    2    3    3    0    0  0.98832359368E-01 -0.37562673432E-01  0.64805806365E-01  0.12576460899E+00  0.20932143760E-01 0.  0.
         14    1    1    2    0    0  0.12794131514E-01 -0.16328794736E-01 -0.19268374057E-01  0.28312357329E-01  0.00000000000E+00 0. -1.
     999901    1    3    3    0    0 -0.11162649088E+00  0.53891468168E-01 -0.45537432308E-01  0.88985303368E+00  0.88000000000E+00 0. -1.
        -11    1    4    4    0    0  0.70688240012E-01 -0.25951310200E-01  0.34590472202E-01  0.82867723906E-01  0.51100000000E-03 0.  1.
         11    1    4    4    0    0  0.28144119356E-01 -0.11611363232E-01  0.30215334164E-01  0.42896885085E-01  0.51100000000E-03 0. -1.
</event>
<event>
 8    1  0.1061721E+005  0.1043930E+01  0.7957747E-01            NaN
         13   -1    0    0    0    0  0.00000000000E+00  0.00000000000E+00  0.74505805969E-08  0.10566000000E+00  0.10566000000E+00 0. -1.
     999900   -1    0    0    0    0 -0.00000000000E+00 -0.00000000000E+00 -0.74505805969E-08  0.93827000000E+00  0.93827000000E+00 0.  1.
     999902    2    1    2    0    0  0.18594686917E-01 -0.11026624403E-01 -0.96149888731E-02  0.10202699738E+01  0.10199955993E+01 0.  0.
     999903    2    3    3    0    0 -0.92400217781E-01  0.44898414875E-01 -0.75486537683E-01  0.12909853139E+00  0.20360391216E-01 0.  0.
         14    1    1    2    0    0 -0.18594686917E-01  0.11026624403E-01  0.96149888731E-02  0.23660026169E-01  0.00000000000E+00 0. -1.
     999901    1    3    3    0    0  0.11099490470E+00 -0.55925039278E-01  0.65871548810E-01  0.89117144245E+00  0.88000000000E+00 0. -1.
        -11    1    4    4    0    0 -0.73344602089E-01  0.25826798439E-01 -0.56525992819E-01  0.96134817618E-01  0.51100000000E-03 0.  1.
         11    1    4    4    0    0 -0.19055615691E-01  0.19071616435E-01 -0.18960544864E-01  0.32963713768E-01  0.51100000000E-03 0. -1.
</event>
<event>
 8    1  0.1061721E+005  0.1043930E+01  0.7957747E-01            NaN
         13   -1    0    0    0    0  0.00000000000E+00  0.00000000000E+00  0.74505805969E-08  0.10566000000E+00  0.10566000000E+00 0.  1.
     999900   -1    0    0    0    0 -0.00000000000E+00 -0.00000000000E+00 -0.74505805969E-08  0.93827000000E+00  0.93827000000E+00 0.  1.
     999902    2    1    2    0    0  0.17251276769E-02  0.14048270160E-01 -0.19472923313E-01  0.10198566807E+01  0.10195725204E+01 0.  0.
     999903    2    3    3    0    0 -0.12828901597E+00 -0.42761521707E-02 -0.57423629343E-02  0.13000950826E+00  0.19827768689E-01 0.  0.
         14    1    1    2    0    0 -0.17251276769E-02 -0.14048270160E-01  0.19472923313E-01  0.24073319305E-01  0.00000000000E+00 0.  1.
     999901    1    3    3    0    0  0.13001414364E+00  0.18324422331E-01 -0.13730560379E-01  0.88984717243E+00  0.88000000000E+00 0.  1.
        -11    1    4    4    0    0 -0.34938010576E-01 -0.17120882189E-02  0.72366312806E-02  0.35724302405E-01  0.51100000000E-03 0. -1.
         11    1    4    4    0    0 -0.93351005390E-01 -0.25640639518E-02 -0.12978994215E-01  0.94285205855E-01  0.51100000000E-03 0.  1.
</event>
<event>
 7    1  0.1061721E+005  0.1043930E+01  0.7957747E-01            NaN
         13   -1    0    0    0    0  0.00000000000E+00  0.00000000000E+00  0.74505805969E-08  0.10566000000E+00  0.10566000000E+00 0. -1.
     999900   -1    0    0    0    0 -0.00000000000E+00 -0.00000000000E+00 -0.74505805969E-08  0.93827000000E+00  0.93827000000E+00 0. -1.
     999902    2    1    2    0    0  0.20845631111E-01 -0.27458543846E-02  0.10981673629E-01  0.10202091820E+01  0.10199333791E+01 0.  0.
         14    1    1    2    0    0 -0.20845631111E-01  0.27458543846E-02 -0.10981673629E-01  0.23720818038E-01  0.00000000000E+00 0. -1.
     999901    1    3    3    0    0  0.11398931804E+00  0.42618668081E-01  0.76166236257E-01  0.89163401182E+00  0.88000000000E+00 0.  1.
        -11    1    3    3    0    0 -0.43046430536E-01 -0.20457141623E-01 -0.53065191672E-01  0.71327873328E-01  0.51100000000E-03 0.  1.
         11    1    3    3    0    0 -0.50097256394E-01 -0.24907380843E-01 -0.12119370956E-01  0.57247296810E-01  0.51100000000E-03 0. -1.
</event>
<event>
 8    1  0.1061721E+005  0.1043930E+01  0.7957747E-01            NaN
         13   -1    0    0    0    0  0.00000000000E+00  0.00000000000E+00  0.74505805969E-08  0.10566000000E+00  0.10566000000E+00 0. -1.
     999900   -1    0    0    0    0 -0.00000000000E+00 -0.00000000000E+00 -0.74505805969E-08  0.93827000000E+00  0.93827000000E+00 0.  1.
     999902    2    1    2    0    0 -0.18659867546E-01 -0.98976385882E-02 -0.13078990953E-01  0.10190862098E+01  0.10187833377E+01 0.  0.
     999903    2    3    3    0    0  0.65709573446E-01 -0.95113616033E-01  0.52361538792E-01  0.12854568389E+00  0.20442947540E-01 0.  0.
         14    1    1    2    0    0  0.18659867546E-01  0.98976385882E-02  0.13078990953E-01  0.24843790186E-01  0.00000000000E+00 0. -1.
     999901    1    3    3    0    0 -0.84369440992E-01  0.85215977445E-01 -0.65440529745E-01  0.89054052593E+00  0.88000000000E+00 0.  1.
        -11    1    4    4    0    0  0.14577211449E-01 -0.96935349691E-02  0.44986561506E-02  0.18082000498E-01  0.51100000000E-03 0. -1.
         11    1    4    4    0    0  0.51132361996E-01 -0.85420081064E-01  0.47862882641E-01  0.11046368339E+00  0.51100000000E-03 0.  1.
</event>
<event>
 8    1  0.1061721E+005  0.1043930E+01  0.7957747E-01            NaN
         13   -1    0    0    0    0  0.00000000000E+00  0.00000000000E+00  0.74505805969E-08  0.10566000000E+00  0.10566000000E+00 0.  1.
     999900   -1    0    0    0    0 -0.00000000000E+00 -0.00000000000E+00 -0.74505805969E-08  0.93827000000E+00  0.93827000000E+00 0. -1.
     999902    2    1    2    0    0 -0.97975756001E-02 -0.92401814938E-04 -0.21599878925E-01  0.10202117413E+01  0.10199359986E+01 0.  0.
     999903    2    3    3    0    0 -0.95525833026E-01 -0.42186392652E-01  0.74620206413E-01  0.12983005742E+00  0.19565073570E-01 0.  0.
         14    1    1    2    0    0  0.97975756001E-02  0.92401814938E-04  0.21599878925E-01  0.23718258691E-01  0.00000000000E+00 0.  1.
     999901    1    3    3    0    0  0.85728257426E-01  0.42093990837E-01 -0.96220085338E-01  0.89038168389E+00  0.88000000000E+00 0. -1.
        -11    1    4    4    0    0 -0.28484569223E-01 -0.11638178931E-01  0.33366259542E-01  0.45391478159E-01  0.51100000000E-03 0.  1.
         11    1    4    4    0    0 -0.67041263803E-01 -0.30548213721E-01  0.41253946871E-01  0.84438579259E-01  0.51100000000E-03 0. -1.
</event>
<event>
 8    1  0.1061721E+005  0.1043930E+01  0.7957747E-01            NaN
         13   -1    0    0    0    0  0.00000000000E+00  0.00000000000E+00  0.74505805969E-08  0.10566000000E+00  0.10566000000E+00 0. -1.
     999900   -1    0    0    0    0 -0.00000000000E+00 -0.00000000000E+00 -0.74505805969E-08  0.93827000000E+00  0.93827000000E+00 0.  1.
     999902    2    1    2    0    0 -0.24642845753E-01  0.77004441414E-03  0.66024442283E-02  0.10184063818E+01  0.10180864911E+01 0.  0.
     999903    2    3    3    0    0 -0.78197718687E-01 -0.84651716652E-01  0.59232573184E-01  0.13108742443E+00  0.19865013882E-01 0.  0.
         14    1    1    2    0    0  0.24642845753E-01 -0.77004441414E-03 -0.66024442283E-02  0.25523618180E-01  0.00000000000E+00 0.  1.
     999901    1    3    3    0    0  0.53554872934E-01  0.85421761066E-01 -0.52630128955E-01  0.88731895739E+00  0.88000000000E+00 0.  1.
        -11    1    4    4    0    0 -0.41792969879E-01 -0.34441064187E-01  0.35092234595E-01  0.64533443140E-01  0.51100000000E-03 0. -1.
         11    1    4    4    0    0 -0.36404748808E-01 -0.50210652465E-01  0.24140338589E-01  0.66553981285E-01  0.51100000000E-03 0.  1.
</event>
<event>
 8    1  0.1061721E+005  0.1043930E+01  0.7957747E-01            NaN
         13   -1    0    0    0    0  0.00000000000E+00  0.00000000000E+00  0.74505805969E-08  0.10566000000E+00  0.10566000000E+00 0. -1.
     999900   -1    0    0    0    0 -0.00000000000E+00 -0.00000000000E+00 -0.74505805969E-08  0.93827000000E+00  0.93827000000E+00 0.  1.
     999902    2    1    2    0    0  0.59324329694E-02  0.86064640987E-02  0.20727068076E-01  0.10207162899E+01  0.10204522861E+01 0.  0.
     999903    2    3    3    0    0 -0.33893670412E-02  0.50848678516E-01 -0.11676582315E+00  0.12899010112E+00  0.20177036852E-01 0.  0.
         14    1    1    2    0    0 -0.59324329694E-02 -0.86064640987E-02 -0.20727068076E-01  0.23213710092E-01  0.00000000000E+00 0.  1.
     999901    1    3    3    0    0  0.93218000106E-02 -0.42242214417E-01  0.13749289122E+00  0.89172618879E+00  0.88000000000E+00 0. -1.
        -11    1    4    4    0    0  0.69845904442E-02  0.34764061645E-01 -0.70425444167E-01  0.78850039904E-01  0.51100000000E-03 0.  1.
         11    1    4    4    0    0 -0.10373957485E-01  0.16084616871E-01 -0.46340378979E-01  0.50140061216E-01  0.51100000000E-03 0. -1.
</event>
<event>
 8    1  0.1061721E+005  0.1043930E+01  0.7957747E-01            NaN
         13   -1    0    0    0    0  0.00000000000E+00  0.00000000000E+00  0.74505805969E-08  0.10566000000E+00  0.10566000000E+00 0. -1.
     999900   -1    0    0    0    0 -0.00000000000E+00 -0.00000000000E+00 -0.74505805969E-08  0.93827000000E+00  0.93827000000E+00 0.  1.
     999902    2    1    2    0    0  0.19894387006E-01  0.39184091973E-02  0.11750189315E-01  0.10204948232E+01  0.10202256988E+01 0.  0.
     999903    2    3    3    0    0 -0.11967677068E+00 -0.39899103939E-01  0.20308430858E-01  0.12837749566E+00  0.12404881808E-01 0.  0.
         14    1    1    2    0    0 -0.19894387006E-01 -0.39184091973E-02 -0.11750189315E-01  0.23435176848E-01  0.00000000000E+00 0.  1.
     999901    1    3    3    0    0  0.13957115768E+00  0.43817513136E-01 -0.85582415427E-02  0.89211732749E+00  0.88000000000E+00 0. -1.
        -11    1    4    4    0    0 -0.39426581787E-01 -0.18667354778E-01  0.43197775878E-02  0.43838876414E-01  0.51100000000E-03 0. -1.
         11    1    4    4    0    0 -0.80250188891E-01 -0.21231749161E-01  0.15988653270E-01  0.84538619245E-01  0.51100000000E-03 0.  1.
</event>
<event>
 8    1  0.1061721E+005  0.1043930E+01  0.7957747E-01            NaN
         13   -1    0    0    0    0  0.00000000000E+00  0.00000000000E+00  0.74505805969E-08  0.10566000000E+00  0.10566000000E+00 0.  1.
     999900   -1    0    0    0    0 -0.00000000000E+00 -0.00000000000E+00 -0.74505805969E-08  0.93827000000E+00  0.93827000000E+00 0. -1.
     999902    2    1    2    0    0 -0.61817506600E-02  0.12180939905E-01  0.21924084493E-01  0.10180987240E+01  0.10177709747E+01 0.  0.
     999903    2    3    3    0    0 -0.48210648645E-01 -0.10805748682E+00 -0.41796264651E-01  0.12664822599E+00  0.17092639012E-01 0.  0.
         14    1    1    2    0    0  0.61817506600E-02 -0.12180939905E-01 -0.21924084493E-01  0.25831275985E-01  0.00000000000E+00 0. -1.
     999901    1    3    3    0    0  0.42028897985E-01  0.12023842672E+00  0.63720349143E-01  0.89145049802E+00  0.88000000000E+00 0. -1.
        -11    1    4    4    0    0 -0.40349354869E-01 -0.72704564306E-01 -0.32288629951E-01  0.89201125858E-01  0.51100000000E-03 0. -1.
         11    1    4    4    0    0 -0.78612937766E-02 -0.35352922512E-01 -0.95076346998E-02  0.37447100136E-01  0.51100000000E-03 0.  1.
</event>
<event>
 8    1  0.1061721E+005  0.1043930E+01  0.7957747E-01            NaN
         13   -1    0    0    0    0  0.00000000000E+00  0.00000000000E+00  0.74505805969E-08  0.10566000000E+00  0.10566000000E+00 0.  1.
     999900   -1    0    0    0    0 -0.00000000000E+00 -0.00000000000E+00 -0.74505805969E-08  0.93827000000E+00  0.93827000000E+00 0. -1.
     999902    2    1    2    0    0  0.31030931641E-03 -0.11445443498E-01  0.20268026004E-01  0.10206515261E+01  0.10203860301E+01 0.  0.
     999903    2    3    3    0    0  0.11689961269E+00 -0.16336949265E-01  0.56592413727E-01  0.13220543678E+00  0.18524601590E-01 0.  0.
         14    1    1    2    0    0 -0.31030931641E-03  0.11445443498E-01 -0.20268026004E-01  0.23278473894E-01  0.00000000000E+00 0. -1.
     999901    1    3    3    0    0 -0.11658930338E+00  0.48915057672E-02 -0.36324387724E-01  0.88844608932E+00  0.88000000000E+00 0.  1.
        -11    1    4    4    0    0  0.97907636790E-01 -0.19474299442E-01  0.43336454175E-01  0.10882767599E+00  0.51100000000E-03 0. -1.
         11    1    4    4    0    0  0.18991975904E-01  0.31373501774E-02  0.13255959553E-01  0.23377760790E-01  0.51100000000E-03 0.  1.
</event>
<event>
 8    1  0.1061721E+005  0.1043930E+01  0.7957747E-01            NaN
         13   -1    0    0    0    0  0.00000000000E+00  0.00000000000E+00  0.74505805969E-08  0.10566000000E+00  0.10566000000E+00 0.  1.
     999900   -1    0    0    0    0 -0.00000000000E+00 -0.00000000000E+00 -0.74505805969E-08  0.93827000000E+00  0.93827000000E+00 0.  1.
     999902    2    1    2    0    0 -0.23764901515E-02  0.24628676088E-01 -0.36496357458E-02  0.10189192177E+01  0.10186122093E+01 0.  0.
     999903    2    3    3    0    0  0.57866202594E-01 -0.11046613125E+00  0.67511090353E-02  0.12651350025E+00  0.20219414395E-01 0.  0.
         14    1    1    2    0    0  0.23764901515E-02 -0.24628676088E-01  0.36496357458E-02  0.25010782322E-01  0.00000000000E+00 0. -1.
     999901    1    3    3    0    0 -0.60242692745E-01  0.13509480733E+00 -0.10400744781E-01  0.89240571742E+00  0.88000000000E+00 0. -1.
        -11    1    4    4    0    0  0.43767203897E-01 -0.96048460393E-01  0.10220551347E-01  0.10604525294E+00  0.51100000000E-03 0.  1.
         11    1    4    4    0    0  0.14098998697E-01 -0.14417670852E-01 -0.34694423118E-02  0.20468247311E-01  0.51100000000E-03 0. -1.
</event>
<event>
 8    1  0.1061721E+005  0.1043930E+01  0.7957747E-01            NaN
         13   -1    0    0    0    0  0.00000000000E+00  0.00000000000E+00  0.74505805969E-08  0.10566000000E+00  0.10566000000E+00 0. -1.
     999900   -1    0    0    0    0 -0.00000000000E+00 -0.00000000000E+00 -0.74505805969E-08  0.93827000000E+00  0.93827000000E+00 0. -1.
     999902    2    1    2    0    0 -0.14368058933E-01 -0.13110418030E-01  0.13523013241E-01  0.10202404229E+01  0.10199653545E+01 0.  0.
     999903    2    3    3    0    0  0.92933616022E-01 -0.75441862965E-01  0.48601247146E-01  0.13084212008E+00  0.20723114833E-01 0.  0.
         14    1    1    2    0    0  0.14368058933E-01  0.13110418030E-01 -0.13523013241E-01  0.23689577150E-01  0.00000000000E+00 0.  1.
     999901    1    3    3    0    0 -0.10730167496E+00  0.62331444935E-01 -0.35078233906E-01  0.88939830277E+00  0.88000000000E+00 0. -1.
        -11    1    4    4    0    0  0.61062462669E-01 -0.47796363053E-01  0.20712126683E-01  0.80264375542E-01  0.51100000000E-03 0. -1.
         11    1    4    4    0    0  0.31871153353E-01 -0.27645499912E-01  0.27889120463E-01  0.50577744539E-01  0.51100000000E-03 0.  1.
</event>
<event>
 8    1  0.1061721E+005  0.1043930E+01  0.7957747E-01            NaN
         13   -1    0    0    0    0  0.00000000000E+00  0.00000000000E+00  0.74505805969E-08  0.10566000000E+00  0.10566000000E+00 0. -1.
     999900   -1    0    0    0    0 -0.00000000000E+00 -0.00000000000E+00 -0.74505805969E-08  0.93827000000E+00  0.93827000000E+00 0.  1.
     999902    2    1    2    0    0  0.20269582569E-01 -0.93480379832E-02  0.56519385855E-02  0.10209042275E+01  0.10206445294E+01 0.  0.
     999903    2    3    3    0    0  0.11304893260E+00  0.60215525834E-01 -0.27635985319E-01  0.13267273562E+00  0.20792700135E-01 0.  0.
         14    1    1    2    0    0 -0.20269582569E-01  0.93480379832E-02 -0.56519385855E-02  0.23025772548E-01  0.00000000000E+00 0. -1.
     999901    1    3    3    0    0 -0.92779350032E-01 -0.69563563817E-01  0.33287923905E-01  0.88823149183E+00  0.88000000000E+00 0. -1.
        -11    1    4    4    0    0  0.49826861238E-01  0.19553485799E-01 -0.19886215885E-01  0.57103218920E-01  0.51100000000E-03 0. -1.
         11    1    4    4    0    0  0.63222071363E-01  0.40662040035E-01 -0.77497694341E-02  0.75569516701E-01  0.51100000000E-03 0.  1.
</event>
<event>
 8    1  0.1061721E+005  0.1043930E+01  0.7957747E-01            NaN
         13   -1    0    0    0    0  0.00000000000E+00  0.00000000000E+00  0.74505805969E-08  0.10566000000E+00  0.10566000000E+00 0.  1.
     999900   -1    0    0    0    0 -0.00000000000E+00 -0.00000000000E+00 -0.74505805969E-08  0.93827000000E+00  0.93827000000E+00 0. -1.
     999902    2    1    2    0    0 -0.19723741182E-01  0.12289482104E-01 -0.36102346536E-02  0.10204121104E+01  0.10201410608E+01 0.  0.
     999903    2    3    3    0    0  0.33982473066E-01  0.32581130284E-01  0.11934999234E+00  0.13001033264E+00  0.21022069228E-01 0.  0.
         14    1    1    2    0    0  0.19723741182E-01 -0.12289482104E-01  0.36102346536E-02  0.23517889592E-01  0.00000000000E+00 0.  1.
     999901    1    3    3    0    0 -0.53706214248E-01 -0.20291648181E-01 -0.12296022699E+00  0.89040177777E+00  0.88000000000E+00 0. -1.
        -11    1    4    4    0    0  0.33763135560E-01  0.20614384441E-01  0.92981703455E-01  0.10104830759E+00  0.51100000000E-03 0.  1.
         11    1    4    4    0    0  0.21933750536E-03  0.11966745843E-01  0.26368288886E-01  0.28962025046E-01  0.51100000000E-03 0. -1.
</event>
<event>
 8    1  0.1061721E+005  0.1043930E+01  0.7957747E-01            NaN
         13   -1    0    0    0    0  0.00000000000E+00  0.00000000000E+00  0.74505805969E-08  0.10566000000E+00  0.10566000000E+00 0. -1.
     999900   -1    0    0    0    0 -0.00000000000E+00 -0.00000000000E+00 -0.74505805969E-08  0.93827000000E+00  0.93827000000E+00 0. -1.
     999902    2    1    2    0    0  0.19417586202E-01  0.21559154197E-02  0.12829880893E-01  0.10205570141E+01  0.10202893328E+01 0.  0.
     999903    2    3    3    0    0 -0.28175422395E-01 -0.33368192365E-01 -0.11946710972E+00  0.12868844173E+00  0.19520093268E-01 0.  0.
         14    1    1    2    0    0 -0.19417586202E-01 -0.21559154197E-02 -0.12829880893E-01  0.23372985880E-01  0.00000000000E+00 0.  1.
     999901    1    3    3    0    0  0.47593008597E-01  0.35524107785E-01  0.13229699061E+00  0.89186857239E+00  0.88000000000E+00 0.  1.
        -11    1    4    4    0    0 -0.12408582233E-01 -0.85533902614E-02 -0.65676489493E-01  0.67385427142E-01  0.51100000000E-03 0.  1.
         11    1    4    4    0    0 -0.15766840162E-01 -0.24814802103E-01 -0.53790620223E-01  0.61303014584E-01  0.51100000000E-03 0. -1.
</event>
<event>
 8    1  0.1061721E+005  0.1043930E+01  0.7957747E-01            NaN
         13   -1    0    0    0    0  0.00000000000E+00  0.00000000000E+00  0.74505805969E-08  0.10566000000E+00  0.10566000000E+00 0.  1.
     999900   -1    0    0    0    0 -0.00000000000E+00 -0.00000000000E+00 -0.74505805969E-08  0.93827000000E+00  0.93827000000E+00 0.  1.
     999902    2    1    2    0    0  0.18954329021E-01  0.12921503223E-01  0.47053637881E-02  0.10205126500E+01  0.10202439397E+01 0.  0.
     999903    2    3    3    0    0  0.10876960633E+00  0.64848642425E-01  0.38171899465E-01  0.13378652492E+00  0.20138685612E-01 0.  0.
         14    1    1    2    0    0 -0.18954329021E-01 -0.12921503223E-01 -0.47053637881E-02  0.23417350033E-01  0.00000000000E+00 0.  1.
     999901    1    3    3    0    0 -0.89815277305E-01 -0.51927139202E-01 -0.33466535677E-01  0.88672612504E+00  0.88000000000E+00 0. -1.
        -11    1    4    4    0    0  0.54097719601E-01  0.22419773156E-01  0.11880622516E-01  0.59754663473E-01  0.51100000000E-03 0.  1.
         11    1    4    4    0    0  0.54671886724E-01  0.42428869269E-01  0.26291276948E-01  0.74031861452E-01  0.51100000000E-03 0. -1.
</event>
<event>
 8    1  0.1061721E+005  0.1043930E+01  0.7957747E-01            NaN
         13   -1    0    0    0    0  0.00000000000E+00  0.00000000000E+00  0.74505805969E-08  0.10566000000E+00  0.10566000000E+00 0.  1.
     999900   -1    0    0    0    0 -0.00000000000E+00 -0.00000000000E+00 -0.74505805969E-08  0.93827000000E+00  0.93827000000E+00 0.  1.
     999902    2    1    2    0    0  0.21316292701E-01  0.11299496964E-01  0.20159822004E-02  0.10197199370E+01  0.10194325003E+01 0.  0.
     999903    2    3    3    0    0 -0.10623357000E-01 -0.52923753471E-01 -0.11545026718E+00  0.12902184738E+00  0.20102077318E-01 0.  0.
         14    1    1    2    0    0 -0.21316292701E-01 -0.11299496964E-01 -0.20159822004E-02  0.24210062998E-01  0.00000000000E+00 0.  1.
     999901    1    3    3    0    0  0.31939649701E-01  0.64223250435E-01  0.11746624938E+00  0.89069808963E+00  0.88000000000E+00 0. -1.
        -11    1    4    4    0    0 -0.45177312036E-02 -0.48185591189E-01 -0.87226593920E-01  0.99754703655E-01  0.51100000000E-03 0.  1.
         11    1    4    4    0    0 -0.61056257964E-02 -0.47381622825E-02 -0.28223673261E-01  0.29267143720E-01  0.51100000000E-03 0. -1.
</event>
<event>
 8    1  0.1061721E+005  0.1043930E+01  0.7957747E-01            NaN
         13   -1    0    0    0    0  0.00000000000E+00  0.00000000000E+00  0.74505805969E-08  0.10566000000E+00  0.10566000000E+00 0. -1.
     999900   -1    0    0    0    0 -0.00000000000E+00 -0.00000000000E+00 -0.74505805969E-08  0.93827000000E+00  0.93827000000E+00 0.  1.
     999902    2    1    2    0    0  0.20947647155E-01  0.36376895833E-02 -0.68214046954E-02  0.10216013577E+01  0.10213573154E+01 0.  0.
     999903    2    3    3    0    0 -0.10039151054E+00 -0.75771488995E-01 -0.25381270171E-01  0.12953999349E+00  0.17794018825E-01 0.  0.
         14    1    1    2    0    0 -0.20947647155E-01 -0.36376895833E-02  0.68214046954E-02  0.22328642342E-01  0.00000000000E+00 0. -1.
     999901    1    3    3    0    0  0.12133915769E+00  0.79409178578E-01  0.18559865476E-01  0.89206136417E+00  0.88000000000E+00 0. -1.
        -11    1    4    4    0    0 -0.40830934100E-01 -0.37663829236E-01 -0.41277063880E-02  0.55704831866E-01  0.51100000000E-03 0.  1.
         11    1    4    4    0    0 -0.59560576437E-01 -0.38107659759E-01 -0.21253563783E-01  0.73835161625E-01  0.51100000000E-03 0. -1.
</event>
<event>
 8    1  0.1061721E+005  0.1043930E+01  0.7957747E-01            NaN
         13   -1    0    0    0    0  0.00000000000E+00  0.00000000000E+00  0.74505805969E-08  0.10566000000E+00  0.10566000000E+00 0. -1.
     999900   -1    0    0    0    0 -0.00000000000E+00 -0.00000000000E+00 -0.74505805969E-08  0.93827000000E+00  0.93827000000E+00 0. -1.
     999902    2    1    2    0    0  0.21816655182E-01 -0.55653318492E-02  0.65351376372E-02  0.10204854402E+01  0.10202160978E+01 0.  0.
     999903    2    3    3    0    0 -0.56703154039E-01  0.11187907388E+00 -0.21799705061E-01  0.12876720429E+00  0.19328499919E-01 0.  0.
         14    1    1    2    0    0 -0.21816655182E-01  0.55653318492E-02 -0.65351376372E-02  0.23444559835E-01  0.00000000000E+00 0. -1.
     999901    1    3    3    0    0  0.78519809221E-01 -0.11744440573E+00  0.28334842698E-01  0.89171823587E+00  0.88000000000E+00 0. -1.
        -11    1    4    4    0    0 -0.33257164167E-01  0.66576048289E-01 -0.22500593030E-01  0.77749257115E-01  0.51100000000E-03 0. -1.
         11    1    4    4    0    0 -0.23445989872E-01  0.45303025596E-01  0.70088796925E-03  0.51017947177E-01  0.51100000000E-03 0.  1.
</event>
<event>
 8    1  0.1061721E+005  0.1043930E+01  0.7957747E-01            NaN
         13   -1    0    0    0    0  0.00000000000E+00  0.00000000000E+00  0.74505805969E-08  0.10566000000E+00  0.10566000000E+00 0. -1.
     999900   -1    0    0    0    0 -0.00000000000E+00 -0.00000000000E+00 -0.74505805969E-08  0.93827000000E+00  0.93827000000E+00 0. -1.
     999902    2    1    2    0    0  0.19712897640E-01 -0.90707766389E-02  0.98901462728E-02  0.10200827294E+01  0.10198039432E+01 0.  0.
     999903    2    3    3    0    0  0.64293215607E-01 -0.22013649868E-01  0.11256453920E+00  0.13289788186E+00  0.19309406109E-01 0.  0.
         14    1    1    2    0    0 -0.19712897640E-01  0.90707766389E-02 -0.98901462728E-02  0.23847270609E-01  0.00000000000E+00 0.  1.
     999901    1    3    3    0    0 -0.44580317966E-01  0.12942873229E-01 -0.10267439293E+00  0.88718484753E+00  0.88000000000E+00 0. -1.
        -11    1    4    4    0    0  0.20159286100E-01  0.89374771311E-03  0.41673740925E-01  0.46305047292E-01  0.51100000000E-03 0. -1.
         11    1    4    4    0    0  0.44133929506E-01 -0.22907397581E-01  0.70890798279E-01  0.86592834572E-01  0.51100000000E-03 0.  1.
</event>
<event>
 8    1  0.1061721E+005  0.1043930E+01  0.7957747E-01            NaN
         13   -1    0    0    0    0  0.00000000000E+00  0.00000000000E+00  0.74505805969E-08  0.10566000000E+00  0.10566000000E+00 0. -1.
     999900   -1    0    0    0    0 -0.00000000000E+00 -0.00000000000E+00 -0.74505805969E-08  0.93827000000E+00  0.93827000000E+00 0.  1.
     999902    2    1    2    0    0 -0.84275178963E-02  0.12110273353E-02  0.22305960951E-01  0.10200543735E+01  0.10197749161E+01 0.  0.
     999903    2    3    3    0    0  0.43312185442E-01  0.75386339060E-01  0.97537551627E-01  0.13222625616E+00  0.20277162415E-01 0.  0.
         14    1    1    2    0    0  0.84275178963E-02 -0.12110273353E-02 -0.22305960951E-01  0.23875626464E-01  0.00000000000E+00 0.  1.
     999901    1    3    3    0    0 -0.51739703338E-01 -0.74175311725E-01 -0.75231590675E-01  0.88782811738E+00  0.88000000000E+00 0.  1.
        -11    1    4    4    0    0  0.36583749104E-01  0.65955667152E-01  0.93080612974E-01  0.11980309829E+00  0.51100000000E-03 0.  1.
         11    1    4    4    0    0  0.67284363380E-02  0.94306719077E-02  0.44569386530E-02  0.12423157865E-01  0.51100000000E-03 0. -1.
</event>
<event>
 8    1  0.1061721E+005  0.1043930E+01  0.7957747E-01            NaN
         13   -1    0    0    0    0  0.00000000000E+00  0.00000000000E+00  0.74505805969E-08  0.10566000000E+00  0.10566000000E+00 0.  1.
     999900   -1    0    0    0    0 -0.00000000000E+00 -0.00000000000E+00 -0.74505805969E-08  0.93827000000E+00  0.93827000000E+00 0. -1.
     999902    2    1    2    0    0 -0.18802680783E-02  0.22330190927E-01  0.10783581235E-01  0.10190611750E+01  0.10187576846E+01 0.  0.
     999903    2    3    3    0    0  0.18888653337E-01 -0.61488778093E-01 -0.10749736624E+00  0.12695840610E+00  0.20618003671E-01 0.  0.
         14    1    1    2    0    0  0.18802680783E-02 -0.22330190927E-01 -0.10783581235E-01  0.24868825045E-01  0.00000000000E+00 0.  1.
     999901    1    3    3    0    0 -0.20768921415E-01  0.83818969019E-01  0.11828094747E+00  0.89210276886E+00  0.88000000000E+00 0.  1.
        -11    1    4    4    0    0  0.19337188362E-01 -0.43370400204E-01 -0.90004554108E-01  0.10176443067E+00  0.51100000000E-03 0. -1.
         11    1    4    4    0    0 -0.44853502492E-03 -0.18118377889E-01 -0.17492812128E-01  0.25193975434E-01  0.51100000000E-03 0.  1.
</event>
<event>
 8    1  0.1061721E+005  0.1043930E+01  0.7957747E-01            NaN
         13   -1    0    0    0    0  0.00000000000E+00  0.00000000000E+00  0.74505805969E-08  0.10566000000E+00  0.10566000000E+00 0. -1.
     999900   -1    0    0    0    0 -0.00000000000E+00 -0.00000000000E+00 -0.74505805969E-08  0.93827000000E+00  0.93827000000E+00 0. -1.
     999902    2    1    2    0    0  0.15902496414E-01  0.14700086871E-01  0.13043831902E-01  0.10186491081E+01  0.10183353484E+01 0.  0.
     999903    2    3    3    0    0 -0.60306259089E-01  0.33426875843E-01 -0.10507188100E+00  0.12729632231E+00  0.20249755122E-01 0.  0.
         14    1    1    2    0    0 -0.15902496414E-01 -0.14700086871E-01 -0.13043831902E-01  0.25280891933E-01  0.00000000000E+00 0.  1.
     999901    1    3    3    0    0  0.76208755502E-01 -0.18726788971E-01  0.11811571291E+00  0.89135278576E+00  0.88000000000E+00 0.  1.
        -11    1    4    4    0    0 -0.28491409421E-01  0.69742435962E-02 -0.32706567449E-01  0.43936103148E-01  0.51100000000E-03 0. -1.
         11    1    4    4    0    0 -0.31814849668E-01  0.26452632247E-01 -0.72365313554E-01  0.83360219164E-01  0.51100000000E-03 0.  1.
</event>
<event>
 8    1  0.1061721E+005  0.1043930E+01  0.7957747E-01            NaN
         13   -1    0    0    0    0  0.00000000000E+00  0.00000000000E+00  0.74505805969E-08  0.10566000000E+00  0.10566000000E+00 0.  1.
     999900   -1    0    0    0    0 -0.00000000000E+00 -0.00000000000E+00 -0.74505805969E-08  0.93827000000E+00  0.93827000000E+00 0.  1.
     999902    2    1    2    0    0  0.36554886780E-02  0.13292776393E-01  0.17980087754E-01  0.10212729027E+01  0.10210215462E+01 0.  0.
     999903    2    3    3    0    0  0.12221493958E+00  0.40025454010E-01 -0.22132316469E-01  0.13201479371E+00  0.19988444187E-01 0.  0.
         14    1    1    2    0    0 -0.36554886780E-02 -0.13292776393E-01 -0.17980087754E-01  0.22657097284E-01  0.00000000000E+00 0. -1.
     999901    1    3    3    0    0 -0.11855945091E+00 -0.26732677617E-01  0.40112404224E-01  0.88925810900E+00  0.88000000000E+00 0. -1.
        -11    1    4    4    0    0  0.30238287625E-01  0.14669307574E-01 -0.13477594040E-01  0.36213937721E-01  0.51100000000E-03 0.  1.
         11    1    4    4    0    0  0.91976651959E-01  0.25356146436E-01 -0.86547224289E-02  0.95800855993E-01  0.51100000000E-03 0. -1.
</event>
<event>
 8    1  0.1061721E+005  0.1043930E+01  0.7957747E-01            NaN
         13   -1    0    0    0    0  0.00000000000E+00  0.00000000000E+00  0.74505805969E-08  0.10566000000E+00  0.10566000000E+00 0. -1.
     999900   -1    0    0    0    0 -0.00000000000E+00 -0.00000000000E+00 -0.74505805969E-08  0.93827000000E+00  0.93827000000E+00 0. -1.
     999902    2    1    2    0    0 -0.44677095824E-02 -0.13758468342E-01  0.18687939013E-01  0.10202975024E+01  0.10200237734E+01 0.  0.
     999903    2    3    3    0    0 -0.87618291718E-01 -0.18203549061E-01 -0.91473054014E-01  0.12952860841E+00  0.20050100840E-01 0.  0.
         14    1    1    2    0    0  0.44677095824E-02  0.13758468342E-01 -0.18687939013E-01  0.23632497637E-01  0.00000000000E+00 0.  1.
     999901    1    3    3    0    0  0.83150582135E-01  0.44450807191E-02  0.11016099303E+00  0.89076889395E+00  0.88000000000E+00 0.  1.
        -11    1    4    4    0    0 -0.59645646288E-01 -0.28412774623E-02 -0.62082458730E-01  0.86140401564E-01  0.51100000000E-03 0. -1.
         11    1    4    4    0    0 -0.27972645430E-01 -0.15362271598E-01 -0.29390595284E-01  0.43388206845E-01  0.51100000000E-03 0.  1.
</event>
<event>
 8    1  0.1061721E+005  0.1043930E+01  0.7957747E-01            NaN
         13   -1    0    0    0    0  0.00000000000E+00  0.00000000000E+00  0.74505805969E-08  0.10566000000E+00  0.10566000000E+00 0.  1.
     999900   -1    0    0    0    0 -0.00000000000E+00 -0.00000000000E+00 -0.74505805969E-08  0.93827000000E+00  0.93827000000E+00 0.  1.
     999902    2    1    2    0    0 -0.13647518899E-01 -0.48756538898E-02 -0.19303010254E-01  0.10197922085E+01  0.10195065059E+01 0.  0.
     999903    2    3    3    0    0 -0.71927767998E-01  0.61810160071E-01  0.85489751735E-01  0.12916034956E+00  0.19488420912E-01 0.  0.
         14    1    1    2    0    0  0.13647518899E-01  0.48756538898E-02  0.19303010254E-01  0.24137791486E-01  0.00000000000E+00 0.  1.
     999901    1    3    3    0    0  0.58280249099E-01 -0.66685813961E-01 -0.10479276199E+00  0.89063185895E+00  0.88000000000E+00 0.  1.
        -11    1    4    4    0    0 -0.44934675471E-01  0.33064540636E-01  0.61341427998E-01  0.82918157342E-01  0.51100000000E-03 0.  1.
         11    1    4    4    0    0 -0.26993092527E-01  0.28745619434E-01  0.24148323738E-01  0.46242192218E-01  0.51100000000E-03 0. -1.
</event>
<event>
 8    1  0.1061721E+005  0.1043930E+01  0.7957747E-01            NaN
         13   -1    0    0    0    0  0.00000000000E+00  0.00000000000E+00  0.74505805969E-08  0.10566000000E+00  0.10566000000E+00 0.  1.
     999900   -1    0    0    0    0 -0.00000000000E+00 -0.00000000000E+00 -0.74505805969E-08  0.93827000000E+00  0.93827000000E+00 0. -1.
     999902    2    1    2    0    0  0.80052034719E-02 -0.49636266671E-03 -0.22135623606E-01  0.10203860944E+01  0.10201144378E+01 0.  0.
     999903    2    3    3    0    0 -0.68439031616E-01  0.21453722564E-01 -0.10968349188E+00  0.13247272218E+00  0.19349172339E-01 0.  0.
         14    1    1    2    0    0 -0.80052034719E-02  0.49636266671E-03  0.22135623606E-01  0.23543905601E-01  0.00000000000E+00 0.  1.
     999901    1    3    3    0    0  0.76444235088E-01 -0.21950085231E-01  0.87547868278E-01  0.88791337222E+00  0.88000000000E+00 0.  1.
        -11    1    4    4    0    0 -0.20162678675E-01  0.38175343450E-02 -0.17709067876E-01  0.27110503239E-01  0.51100000000E-03 0. -1.
         11    1    4    4    0    0 -0.48276352942E-01  0.17636188219E-01 -0.91974424008E-01  0.10536221894E+00  0.51100000000E-03 0.  1.
</event>
<event>
 8    1  0.1061721E+005  0.1043930E+01  0.7957747E-01            NaN
         13   -1    0    0    0    0  0.00000000000E+00  0.00000000000E+00  0.74505805969E-08  0.10566000000E+00  0.10566000000E+00 0.  1.
     999900   -1    0    0    0    0 -0.00000000000E+00 -0.00000000000E+00 -0.74505805969E-08  0.93827000000E+00  0.93827000000E+00 0. -1.
     999902    2    1    2    0    0  0.22426748022E-01 -0.47591216473E-02 -0.42665487213E-02  0.10206102293E+01  0.10203437796E+01 0.  0.
     999903    2    3    3    0    0 -0.49658022316E-01  0.10269569595E+00 -0.58030497321E-01  0.12952475975E+00  0.19919829876E-01 0.  0.
         14    1    1    2    0    0 -0.22426748022E-01  0.47591216473E-02  0.42665487213E-02  0.23319770661E-01  0.00000000000E+00 0. -1.
     999901    1    3    3    0    0  0.72084770339E-01 -0.10745481760E+00  0.53763948600E-01  0.89108546959E+00  0.88000000000E+00 0.  1.
        -11    1    4    4    0    0 -0.28013492969E-01  0.44879305432E-01 -0.35916098582E-01  0.63946345499E-01  0.51100000000E-03 0. -1.
         11    1    4    4    0    0 -0.21644529347E-01  0.57816390518E-01 -0.22114398739E-01  0.65578414252E-01  0.51100000000E-03 0.  1.
</event>
<event>
 8    1  0.1061721E+005  0.1043930E+01  0.7957747E-01            NaN
         13   -1    0    0    0    0  0.00000000000E+00  0.00000000000E+00  0.74505805969E-08  0.10566000000E+00  0.10566000000E+00 0. -1.
     999900   -1    0    0    0    0 -0.00000000000E+00 -0.00000000000E+00 -0.74505805969E-08  0.93827000000E+00  0.93827000000E+00 0. -1.
     999902    2    1    2    0    0  0.18284008441E-02 -0.22273572119E-01 -0.12705741125E-01  0.10182222011E+01  0.10178976176E+01 0.  0.
     999903    2    3    3    0    0 -0.35205605851E-01  0.34554693762E-01  0.11465956464E+00  0.12646949407E+00  0.20353270552E-01 0.  0.
         14    1    1    2    0    0 -0.18284008441E-02  0.22273572119E-01  0.12705741125E-01  0.25707798858E-01  0.00000000000E+00 0. -1.
     999901    1    3    3    0    0  0.37034006695E-01 -0.56828265881E-01 -0.12736530577E+00  0.89175270707E+00  0.88000000000E+00 0. -1.
        -11    1    4    4    0    0 -0.24780083920E-01  0.15765295735E-01  0.46498217378E-01  0.54999476807E-01  0.51100000000E-03 0. -1.
         11    1    4    4    0    0 -0.10425521931E-01  0.18789398026E-01  0.68161347265E-01  0.71470017264E-01  0.51100000000E-03 0.  1.
</event>
<event>
 8    1  0.1061721E+005  0.1043930E+01  0.7957747E-01            NaN
         13   -1    0    0    0    0  0.00000000000E+00  0.00000000000E+00  0.74505805969E-08  0.10566000000E+00  0.10566000000E+00 0. -1.
     999900   -1    0    0    0    0 -0.00000000000E+00 -0.00000000000E+00 -0.74505805969E-08  0.93827000000E+00  0.93827000000E+00 0. -1.
     999902    2    1    2    0    0  0.91208017945E-02  0.16839664290E-01 -0.11035856625E-01  0.10218267548E+01  0.10215876679E+01 0.  0.
     999903    2    3    3    0    0  0.11142050203E+00 -0.64314582477E-01  0.77823798984E-02  0.13199229461E+00  0.28469397771E-01 0.  0.
         14    1    1    2    0    0 -0.91208017945E-02 -0.16839664290E-01  0.11035856625E-01  0.22103245242E-01  0.00000000000E+00 0.  1.
     999901    1    3    3    0    0 -0.10229970023E+00  0.81154246767E-01 -0.18818236524E-01  0.88983446015E+00  0.88000000000E+00 0.  1.
        -11    1    4    4    0    0  0.33956382303E-01 -0.30455287696E-01  0.12564689181E-01  0.47314828363E-01  0.51100000000E-03 0.  1.
         11    1    4    4    0    0  0.77464119723E-01 -0.33859294781E-01 -0.47823092829E-02  0.84677466250E-01  0.51100000000E-03 0. -1.
</event>
<event>
 8    1  0.1061721E+005  0.1043930E+01  0.7957747E-01            NaN
         13   -1    0    0    0    0  0.00000000000E+00  0.00000000000E+00  0.74505805969E-08  0.10566000000E+00  0.10566000000E+00 0. -1.
     999900   -1    0    0    0    0 -0.00000000000E+00 -0.00000000000E+00 -0.74505805969E-08  0.93827000000E+00  0.93827000000E+00 0. -1.
     999902    2    1    2    0    0  0.46373881477E-02 -0.18198786669E-01 -0.39507027063E-02  0.10247386150E+01  0.10245588904E+01 0.  0.
     999903    2    3    3    0    0  0.57451458903E-01 -0.11654745261E+00 -0.38497800382E-01  0.13701383329E+00  0.20167573949E-01 0.  0.
         14    1    1    2    0    0 -0.46373881477E-02  0.18198786669E-01  0.39507027063E-02  0.19191384966E-01  0.00000000000E+00 0. -1.
     999901    1    3    3    0    0 -0.52814070756E-01  0.98348665941E-01  0.34547097675E-01  0.88772478174E+00  0.88000000000E+00 0.  1.
        -11    1    4    4    0    0  0.18546429142E-01 -0.59342552954E-01 -0.21334771280E-01  0.65733874156E-01  0.51100000000E-03 0. -1.
         11    1    4    4    0    0  0.38905029761E-01 -0.57204899656E-01 -0.17163029102E-01  0.71279959135E-01  0.51100000000E-03 0.  1.
</event>
<event>
 8    1  0.1061721E+005  0.1043930E+01  0.7957747E-01            NaN
         13   -1    0    0    0    0  0.00000000000E+00  0.00000000000E+00  0.74505805969E-08  0.10566000000E+00  0.10566000000E+00 0. -1.
     999900   -1    0    0    0    0 -0.00000000000E+00 -0.00000000000E+00 -0.74505805969E-08  0.93827000000E+00  0.93827000000E+00 0.  1.
     999902    2    1    2    0    0 -0.15828006916E-02 -0.23109834864E-01 -0.42328273074E-02  0.10203824619E+01  0.10201107204E+01 0.  0.
     999903    2    3    3    0    0  0.19267655147E-01 -0.11681630269E+00 -0.58381190045E-01  0.13350722328E+00  0.19963071077E-01 0.  0.
         14    1    1    2    0    0  0.15828006916E-02  0.23109834864E-01  0.42328273074E-02  0.23547538141E-01  0.00000000000E+00 0. -1.
     999901    1    3    3    0    0 -0.20850455838E-01  0.93706467828E-01  0.54148362737E-01  0.88687523858E+00  0.88000000000E+00 0. -1.
        -11    1    4    4    0    0  0.24105049912E-02 -0.49466025705E-01 -0.33322524622E-01  0.59693802036E-01  0.51100000000E-03 0.  1.
         11    1    4    4    0    0  0.16857150156E-01 -0.67350276987E-01 -0.25058665422E-01  0.73813421242E-01  0.51100000000E-03 0. -1.
</event>
<event>
 8    1  0.1061721E+005  0.1043930E+01  0.7957747E-01            NaN
         13   -1    0    0    0    0  0.00000000000E+00  0.00000000000E+00  0.74505805969E-08  0.10566000000E+00  0.10566000000E+00 0. -1.
     999900   -1    0    0    0    0 -0.00000000000E+00 -0.00000000000E+00 -0.74505805969E-08  0.93827000000E+00  0.93827000000E+00 0. -1.
     999902    2    1    2    0    0 -0.14033823851E-02  0.12899479176E-01 -0.19209989285E-01  0.10207483320E+01  0.10204850648E+01 0.  0.
     999903    2    3    3    0    0  0.10994976282E+00 -0.66369716648E-01  0.62089184360E-03  0.12997541353E+00  0.19983317611E-01 0.  0.
         14    1    1    2    0    0  0.14033823851E-02 -0.12899479176E-01  0.19209989285E-01  0.23181668048E-01  0.00000000000E+00 0. -1.
     999901    1    3    3    0    0 -0.11135314521E+00  0.79269195824E-01 -0.19830881129E-01  0.89077291843E+00  0.88000000000E+00 0. -1.
        -11    1    4    4    0    0  0.50183568576E-01 -0.19398783554E-01 -0.28427347040E-02  0.53879918522E-01  0.51100000000E-03 0.  1.
         11    1    4    4    0    0  0.59766194244E-01 -0.46970933094E-01  0.34636265476E-02  0.76095495005E-01  0.51100000000E-03 0. -1.
</event>
<event>
 8    1  0.1061721E+005  0.1043930E+01  0.7957747E-01            NaN
         13   -1    0    0    0    0  0.00000000000E+00  0.00000000000E+00  0.74505805969E-08  0.10566000000E+00  0.10566000000E+00 0.  1.
     999900   -1    0    0    0    0 -0.00000000000E+00 -0.00000000000E+00 -0.74505805969E-08  0.93827000000E+00  0.93827000000E+00 0. -1.
     999902    2    1    2    0    0  0.11996712268E-01  0.14134134967E-01  0.14759711833E-01  0.10202330810E+01  0.10199578401E+01 0.  0.
     999903    2    3    3    0    0  0.11729234088E+00  0.46161090704E-01  0.26856311337E-01  0.13329496421E+00  0.34028613001E-01 0.  0.
         14    1    1    2    0    0 -0.11996712268E-01 -0.14134134967E-01 -0.14759711833E-01  0.23696918996E-01  0.00000000000E+00 0. -1.
     999901    1    3    3    0    0 -0.10529562861E+00 -0.32026955737E-01 -0.12096599504E-01  0.88693811679E+00  0.88000000000E+00 0. -1.
        -11    1    4    4    0    0  0.31331844816E-01 -0.21888665573E-02  0.14359629787E-02  0.31445170489E-01  0.51100000000E-03 0. -1.
         11    1    4    4    0    0  0.85960496060E-01  0.48349957262E-01  0.25420348358E-01  0.10184979372E+00  0.51100000000E-03 0.  1.
</event>
<event>
 8    1  0.1061721E+005  0.1043930E+01  0.7957747E-01            NaN
         13   -1    0    0    0    0  0.00000000000E+00  0.00000000000E+00  0.74505805969E-08  0.10566000000E+00  0.10566000000E+00 0.  1.
     999900   -1    0    0    0    0 -0.00000000000E+00 -0.00000000000E+00 -0.74505805969E-08  0.93827000000E+00  0.93827000000E+00 0.  1.
     999902    2    1    2    0    0  0.89761044029E-02  0.20702253193E-01  0.80229650601E-02  0.10199816868E+01  0.10197005049E+01 0.  0.
     999903    2    3    3    0    0  0.16287354103E-02  0.12384761472E+00  0.44144204939E-01  0.13319101622E+00  0.21219130997E-01 0.  0.
         14    1    1    2    0    0 -0.89761044029E-02 -0.20702253193E-01 -0.80229650601E-02  0.23948313216E-01  0.00000000000E+00 0. -1.
     999901    1    3    3    0    0  0.73473689926E-02 -0.10314536153E+00 -0.36121239879E-01  0.88679067057E+00  0.88000000000E+00 0.  1.
        -11    1    4    4    0    0 -0.47293175233E-02  0.23141432580E-01  0.15644718697E-01  0.28335678750E-01  0.51100000000E-03 0.  1.
         11    1    4    4    0    0  0.63580529336E-02  0.10070618214E+00  0.28499486242E-01  0.10485533747E+00  0.51100000000E-03 0. -1.
</event>
<event>
 8    1  0.1061721E+005  0.1043930E+01  0.7957747E-01            NaN
         13   -1    0    0    0    0  0.00000000000E+00  0.00000000000E+00  0.74505805969E-08  0.10566000000E+00  0.10566000000E+00 0. -1.
     999900   -1    0    0    0    0 -0.00000000000E+00 -0.00000000000E+00 -0.74505805969E-08  0.93827000000E+00  0.93827000000E+00 0.  1.
     999902    2    1    2    0    0 -0.11914127573E-01  0.86753023403E-02  0.17916191499E-01  0.10207309219E+01  0.10204672546E+01 0.  0.
     999903    2    3    3    0    0 -0.12514598500E+00 -0.25832250674E-01  0.29768259196E-01  0.13272602538E+00  0.20030622062E-01 0.  0.
         14    1    1    2    0    0  0.11914127573E-01 -0.86753023403E-02 -0.17916191499E-01  0.23199078093E-01  0.00000000000E+00 0.  1.
     999901    1    3    3    0    0  0.11323185743E+00  0.34507553014E-01 -0.11852067697E-01  0.88800489653E+00  0.88000000000E+00 0.  1.
        -11    1    4    4    0    0 -0.42325482102E-01  0.62838990874E-03  0.11729589431E-01  0.43928187970E-01  0.51100000000E-03 0. -1.
         11    1    4    4    0    0 -0.82820502899E-01 -0.26460640583E-01  0.18038669765E-01  0.88797837408E-01  0.51100000000E-03 0.  1.
</event>
<event>
 8    1  0.1061721E+005  0.1043930E+01  0.7957747E-01            NaN
         13   -1    0    0    0    0  0.00000000000E+00  0.00000000000E+00  0.74505805969E-08  0.10566000000E+00  0.10566000000E+00 0.  1.
     999900   -1    0    0    0    0 -0.00000000000E+00 -0.00000000000E+00 -0.74505805969E-08  0.93827000000E+00  0.93827000000E+00 0.  1.
     999902    2    1    2    0    0  0.60402238991E-02 -0.73490699849E-02 -0.21621013668E-01  0.10203087941E+01  0.10200353298E+01 0.  0.
     999903    2    3    3    0    0 -0.97366186700E-01 -0.83433245938E-01  0.15105489906E-01  0.13023546927E+00  0.17082762930E-01 0.  0.
         14    1    1    2    0    0 -0.60402238991E-02  0.73490699849E-02  0.21621013668E-01  0.23621205863E-01  0.00000000000E+00 0.  1.
     999901    1    3    3    0    0  0.10340641060E+00  0.76084175953E-01 -0.36726503573E-01  0.89007332487E+00  0.88000000000E+00 0.  1.
        -11    1    4    4    0    0 -0.80214753814E-01 -0.73635128898E-01  0.17659510638E-01  0.11031164206E+00  0.51100000000E-03 0. -1.
         11    1    4    4    0    0 -0.17151432886E-01 -0.97981170396E-02 -0.25540207323E-02  0.19923827204E-01  0.51100000000E-03 0.  1.
</event>
<event>
 8    1  0.1061721E+005  0.1043930E+01  0.7957747E-01            NaN
         13   -1    0    0    0    0  0.00000000000E+00  0.00000000000E+00  0.74505805969E-08  0.10566000000E+00  0.10566000000E+00 0.  1.
     999900   -1    0    0    0    0 -0.00000000000E+00 -0.00000000000E+00 -0.74505805969E-08  0.93827000000E+00  0.93827000000E+00 0.  1.
     999902    2    1    2    0    0  0.13935780440E-03  0.21545316545E-01 -0.10364433588E-01  0.10200209731E+01  0.10197407239E+01 0.  0.
     999903    2    3    3    0    0 -0.55975908074E-01 -0.20106303893E-01  0.11241076933E+00  0.12875359960E+00  0.20093347342E-01 0.  0.
         14    1    1    2    0    0 -0.13935780440E-03 -0.21545316545E-01  0.10364433588E-01  0.23909026940E-01  0.00000000000E+00 0.  1.
     999901    1    3    3    0    0  0.56115265879E-01  0.41651620438E-01 -0.12277520291E+00  0.89126737346E+00  0.88000000000E+00 0.  1.
        -11    1    4    4    0    0 -0.39505264175E-01 -0.90715281877E-02  0.57348428662E-01  0.70228640256E-01  0.51100000000E-03 0. -1.
         11    1    4    4    0    0 -0.16470643899E-01 -0.11034775705E-01  0.55062340665E-01  0.58524959340E-01  0.51100000000E-03 0.  1.
</event>
<event>
 8    1  0.1061721E+005  0.1043930E+01  0.7957747E-01            NaN
         13   -1    0    0    0    0  0.00000000000E+00  0.00000000000E+00  0.74505805969E-08  0.10566000000E+00  0.10566000000E+00 0. -1.
     999900   -1    0    0    0    0 -0.00000000000E+00 -0.00000000000E+00 -0.74505805969E-08  0.93827000000E+00  0.93827000000E+00 0.  1.
     999902    2    1    2    0    0  0.12731237156E-01 -0.19746075467E-01 -0.18138771103E-02  0.10203655767E+01  0.10200934408E+01 0.  0.
     999903    2    3    3    0    0 -0.53202388427E-01  0.11257503276E+00 -0.20700502314E-01  0.12783388354E+00  0.20232618427E-01 0.  0.
         14    1    1    2    0    0 -0.12731237156E-01  0.19746075467E-01  0.18138771103E-02  0.23564423312E-01  0.00000000000E+00 0. -1.
     999901    1    3    3    0    0  0.65933625583E-01 -0.13232110823E+00  0.18886625204E-01  0.89253169315E+00  0.88000000000E+00 0.  1.
        -11    1    4    4    0    0 -0.18890656493E-01  0.58598595712E-01 -0.16459192812E-01  0.63732397344E-01  0.51100000000E-03 0.  1.
         11    1    4    4    0    0 -0.34311731934E-01  0.53976437050E-01 -0.42413095025E-02  0.64101486193E-01  0.51100000000E-03 0. -1.
</event>
<event>
 8    1  0.1061721E+005  0.1043930E+01  0.7957747E-01            NaN
         13   -1    0    0    0    0  0.00000000000E+00  0.00000000000E+00  0.74505805969E-08  0.10566000000E+00  0.10566000000E+00 0.  1.
     999900   -1    0    0    0    0 -0.00000000000E+00 -0.00000000000E+00 -0.74505805969E-08  0.93827000000E+00  0.93827000000E+00 0. -1.
     999902    2    1    2    0    0  0.18373873854E-01  0.60420259640E-02  0.11834550561E-01  0.10212548615E+01  0.10210031000E+01 0.  0.
     999903    2    3    3    0    0  0.59933773594E-01 -0.11394364272E+00  0.22149661409E-01  0.13208098231E+00  0.19482490984E-01 0.  0.
         14    1    1    2    0    0 -0.18373873854E-01 -0.60420259640E-02 -0.11834550561E-01  0.22675138481E-01  0.00000000000E+00 0. -1.
     999901    1    3    3    0    0 -0.41559899740E-01  0.11998566868E+00 -0.10315110848E-01  0.88917387921E+00  0.88000000000E+00 0. -1.
        -11    1    4    4    0    0  0.41738992823E-01 -0.87083847044E-01  0.24241629950E-01  0.99567352488E-01  0.51100000000E-03 0. -1.
         11    1    4    4    0    0  0.18194780771E-01 -0.26859795672E-01 -0.20919685408E-02  0.32513629822E-01  0.51100000000E-03 0.  1.
</event>
<event>
 8    1  0.1061721E+005  0.1043930E+01  0.7957747E-01            NaN
         13   -1    0    0    0    0  0.00000000000E+00  0.00000000000E+00  0.74505805969E-08  0.10566000000E+00  0.10566000000E+00 0.  1.
     999900   -1    0    0    0    0 -0.00000000000E+00 -0.00000000000E+00 -0.74505805969E-08  0.93827000000E+00  0.93827000000E+00 0.  1.
     999902    2    1    2    0    0  0.49901074341E-02 -0.10026261113E-01 -0.93492972280E-02  0.10293410849E+01  0.10292376949E+01 0.  0.
     999903    2    3    3    0    0 -0.32678756783E-01  0.12274959909E+00  0.46650984714E-01  0.13682531255E+00  0.20235774161E-01 0.  0.
         14    1    1    2    0    0 -0.49901074341E-02  0.10026261113E-01  0.93492972280E-02  0.14588915065E-01  0.00000000000E+00 0.  1.
     999901    1    3    3    0    0  0.37668864217E-01 -0.13277586021E+00 -0.56000281942E-01  0.89251577239E+00  0.88000000000E+00 0.  1.
        -11    1    4    4    0    0 -0.17479684948E-01  0.97984278246E-01  0.37385855617E-01  0.10632225303E+00  0.51100000000E-03 0. -1.
         11    1    4    4    0    0 -0.15199071835E-01  0.24765320849E-01  0.92651290973E-02  0.30503059512E-01  0.51100000000E-03 0.  1.
</event>
<event>
 8    1  0.1061721E+005  0.1043930E+01  0.7957747E-01            NaN
         13   -1    0    0    0    0  0.00000000000E+00  0.00000000000E+00  0.74505805969E-08  0.10566000000E+00  0.10566000000E+00 0.  1.
     999900   -1    0    0    0    0 -0.00000000000E+00 -0.00000000000E+00 -0.74505805969E-08  0.93827000000E+00  0.93827000000E+00 0.  1.
     999902    2    1    2    0    0 -0.19706519418E-01 -0.65694688605E-02  0.20363777968E-01  0.10148406844E+01  0.10144236918E+01 0.  0.
     999903    2    3    3    0    0  0.79653825712E-01  0.20635814803E-01 -0.87993528589E-01  0.12222995652E+00  0.20657502154E-01 0.  0.
         14    1    1    2    0    0  0.19706519418E-01  0.65694688605E-02 -0.20363777968E-01  0.29089315595E-01  0.00000000000E+00 0. -1.
     999901    1    3    3    0    0 -0.99360345130E-01 -0.27205283664E-01  0.10835730656E+00  0.89261072788E+00  0.88000000000E+00 0. -1.
        -11    1    4    4    0    0  0.44892677274E-01  0.21221979524E-01 -0.57577319189E-01  0.76033766800E-01  0.51100000000E-03 0. -1.
         11    1    4    4    0    0  0.34761148438E-01 -0.58616472095E-03 -0.30416209400E-01  0.46196189725E-01  0.51100000000E-03 0.  1.
</event>
<event>
 8    1  0.1061721E+005  0.1043930E+01  0.7957747E-01            NaN
         13   -1    0    0    0    0  0.00000000000E+00  0.00000000000E+00  0.74505805969E-08  0.10566000000E+00  0.10566000000E+00 0.  1.
     999900   -1    0    0    0    0 -0.00000000000E+00 -0.00000000000E+00 -0.74505805969E-08  0.93827000000E+00  0.93827000000E+00 0. -1.
     999902    2    1    2    0    0 -0.15825326769E-03 -0.23198404264E-01 -0.54642307869E-02  0.10200962252E+01  0.10198177581E+01 0.  0.
     999903    2    3    3    0    0 -0.10553801537E+00 -0.63634920349E-01 -0.43118024811E-01  0.13208844688E+00  0.20012944808E-01 0.  0.
         14    1    1    2    0    0  0.15825326769E-03  0.23198404264E-01  0.54642307869E-02  0.23833774829E-01  0.00000000000E+00 0.  1.
     999901    1    3    3    0    0  0.10537976210E+00  0.40436516085E-01  0.37653794025E-01  0.88800777829E+00  0.88000000000E+00 0.  1.
        -11    1    4    4    0    0 -0.77293525245E-01 -0.39490641830E-01 -0.22836107086E-01  0.89752708844E-01  0.51100000000E-03 0. -1.
         11    1    4    4    0    0 -0.28244490127E-01 -0.24144278519E-01 -0.20281917725E-01  0.42335738039E-01  0.51100000000E-03 0.  1.
</event>
<event>
 8    1  0.1061721E+005  0.1043930E+01  0.7957747E-01            NaN
         13   -1    0    0    0    0  0.00000000000E+00  0.00000000000E+00  0.74505805969E-08  0.10566000000E+00  0.10566000000E+00 0. -1.
     999900   -1    0    0    0    0 -0.00000000000E+00 -0.00000000000E+00 -0.74505805969E-08  0.93827000000E+00  0.93827000000E+00 0.  1.
     999902    2    1    2    0    0 -0.10019735499E-01 -0.18863001429E-01  0.22818866145E-01  0.10126744633E+01  0.10121920075E+01 0.  0.
     999903    2    3    3    0    0 -0.53921531716E-01 -0.82511981213E-01 -0.72927651240E-01  0.12411047802E+00  0.19214833149E-01 0.  0.
         14    1    1    2    0    0  0.10019735499E-01  0.18863001429E-01 -0.22818866145E-01  0.31255536702E-01  0.00000000000E+00 0.  1.
     999901    1    3    3    0    0  0.43901796217E-01  0.63648979784E-01  0.95746517386E-01  0.88856398528E+00  0.88000000000E+00 0. -1.
        -11    1    4    4    0    0 -0.43596942955E-01 -0.50552001075E-01 -0.46203007081E-01  0.81186065504E-01  0.51100000000E-03 0. -1.
         11    1    4    4    0    0 -0.10324588761E-01 -0.31959980138E-01 -0.26724644159E-01  0.42924412517E-01  0.51100000000E-03 0.  1.
</event>
<event>
 8    1  0.1061721E+005  0.1043930E+01  0.7957747E-01            NaN
         13   -1    0    0    0    0  0.00000000000E+00  0.00000000000E+00  0.74505805969E-08  0.10566000000E+00  0.10566000000E+00 0.  1.
     999900   -1    0    0    0    0 -0.00000000000E+00 -0.00000000000E+00 -0.74505805969E-08  0.93827000000E+00  0.93827000000E+00 0. -1.
     999902    2    1    2    0    0 -0.15141455175E-01  0.21019092511E-02 -0.17765247502E-01  0.10204931549E+01  0.10202239919E+01 0.  0.
     999903    2    3    3    0    0 -0.89598418192E-01 -0.88231908369E-01 -0.36974596481E-01  0.13253311247E+00  0.19625466076E-01 0.  0.
         14    1    1    2    0    0  0.15141455175E-01 -0.21019092511E-02  0.17765247502E-01  0.23436845054E-01  0.00000000000E+00 0. -1.
     999901    1    3    3    0    0  0.74456963017E-01  0.90333817620E-01  0.19209348980E-01  0.88796004248E+00  0.88000000000E+00 0.  1.
        -11    1    4    4    0    0 -0.24609774366E-01 -0.31307108021E-01 -0.19684524170E-01  0.44424290876E-01  0.51100000000E-03 0. -1.
         11    1    4    4    0    0 -0.64988643825E-01 -0.56924800349E-01 -0.17290072311E-01  0.88108821593E-01  0.51100000000E-03 0.  1.
</event>
<event>
 8    1  0.1061721E+005  0.1043930E+01  0.7957747E-01            NaN
         13   -1    0    0    0    0  0.00000000000E+00  0.00000000000E+00  0.74505805969E-08  0.10566000000E+00  0.10566000000E+00 0. -1.
     999900   -1    0    0    0    0 -0.00000000000E+00 -0.00000000000E+00 -0.74505805969E-08  0.93827000000E+00  0.93827000000E+00 0. -1.
     999902    2    1    2    0    0  0.62725050641E-02  0.23361230677E-01 -0.26218133905E-03  0.10197399161E+01  0.10194529594E+01 0.  0.
     999903    2    3    3    0    0  0.97774819539E-01 -0.77801187415E-01  0.24169253962E-01  0.12889570785E+00  0.20420836590E-01 0.  0.
         14    1    1    2    0    0 -0.62725050641E-02 -0.23361230677E-01  0.26218133905E-03  0.24190083869E-01  0.00000000000E+00 0.  1.
     999901    1    3    3    0    0 -0.91502314475E-01  0.10116241809E+00 -0.24431435301E-01  0.89084420828E+00  0.88000000000E+00 0. -1.
        -11    1    4    4    0    0  0.43282841686E-01 -0.30921379223E-01  0.20199683137E-01  0.56901883952E-01  0.51100000000E-03 0.  1.
         11    1    4    4    0    0  0.54491977853E-01 -0.46879808193E-01  0.39695708247E-02  0.71993823902E-01  0.51100000000E-03 0. -1.
</event>
<event>
 8    1  0.1061721E+005  0.1043930E+01  0.7957747E-01            NaN
         13   -1    0    0    0    0  0.00000000000E+00  0.00000000000E+00  0.74505805969E-08  0.10566000000E+00  0.10566000000E+00 0. -1.
     999900   -1    0    0    0    0 -0.00000000000E+00 -0.00000000000E+00 -0.74505805969E-08  0.93827000000E+00  0.93827000000E+00 0.  1.
     999902    2    1    2    0    0  0.79462892554E-02  0.17723583299E-01  0.13441250423E-01  0.10203093283E+01  0.10200358765E+01 0.  0.
     999903    2    3    3    0    0 -0.10571002175E+00  0.44372488236E-02  0.74457293638E-01  0.13080539845E+00  0.19283822530E-01 0.  0.
         14    1    1    2    0    0 -0.79462892554E-02 -0.17723583299E-01 -0.13441250423E-01  0.23620671684E-01  0.00000000000E+00 0.  1.
     999901    1    3    3    0    0  0.11365631101E+00  0.13286334475E-01 -0.61016043216E-01  0.88950392987E+00  0.88000000000E+00 0.  1.
        -11    1    4    4    0    0 -0.47825967507E-01  0.31999402166E-02  0.22264581147E-01  0.52853906951E-01  0.51100000000E-03 0.  1.
         11    1    4    4    0    0 -0.57884054248E-01  0.12373086070E-02  0.52192712492E-01  0.77951491499E-01  0.51100000000E-03 0. -1.
</event>
<event>
 8    1  0.1061721E+005  0.1043930E+01  0.7957747E-01            NaN
         13   -1    0    0    0    0  0.00000000000E+00  0.00000000000E+00  0.74505805969E-08  0.10566000000E+00  0.10566000000E+00 0. -1.
     999900   -1    0    0    0    0 -0.00000000000E+00 -0.00000000000E+00 -0.74505805969E-08  0.93827000000E+00  0.93827000000E+00 0. -1.
     999902    2    1    2    0    0  0.94369878734E-02  0.21360079158E-01 -0.19708148135E-02  0.10204951150E+01  0.10202259975E+01 0.  0.
     999903    2    3    3    0    0 -0.54049641077E-01  0.11435129908E+00  0.34310827278E-01  0.13257942277E+00  0.20062082955E-01 0.  0.
         14    1    1    2    0    0 -0.94369878734E-02 -0.21360079158E-01  0.19708148135E-02  0.23434884954E-01  0.00000000000E+00 0. -1.
     999901    1    3    3    0    0  0.63486628950E-01 -0.92991219919E-01 -0.36281642091E-01  0.88791569228E+00  0.88000000000E+00 0. -1.
        -11    1    4    4    0    0 -0.28281955985E-01  0.74169283088E-01  0.13571983155E-01  0.80532052227E-01  0.51100000000E-03 0. -1.
         11    1    4    4    0    0 -0.25767685092E-01  0.40182015989E-01  0.20738844123E-01  0.52047370543E-01  0.51100000000E-03 0.  1.
</event>
<event>
 8    1  0.1061721E+005  0.1043930E+01  0.7957747E-01            NaN
         13   -1    0    0    0    0  0.00000000000E+00  0.00000000000E+00  0.74505805969E-08  0.10566000000E+00  0.10566000000E+00 0.  1.
     999900   -1    0    0    0    0 -0.00000000000E+00 -0.00000000000E+00 -0.74505805969E-08  0.93827000000E+00  0.93827000000E+00 0. -1.
     999902    2    1    2    0    0  0.23376881607E-01 -0.11203386495E-01 -0.16263722793E-01  0.10133276612E+01  0.10128654628E+01 0.  0.
     999903    2    3    3    0    0 -0.10136272817E+00  0.62131301965E-01  0.83319905399E-02  0.12117134309E+00  0.21871693430E-01 0.  0.
         14    1    1    2    0    0 -0.23376881607E-01  0.11203386495E-01  0.16263722793E-01  0.30602338827E-01  0.00000000000E+00 0.  1.
     999901    1    3    3    0    0  0.12473960978E+00 -0.73334688460E-01 -0.24595713333E-01  0.89215631808E+00  0.88000000000E+00 0.  1.
        -11    1    4    4    0    0 -0.77679552894E-01  0.53491739329E-01  0.13935641297E-01  0.95341189072E-01  0.51100000000E-03 0. -1.
         11    1    4    4    0    0 -0.23683175279E-01  0.86395626358E-02 -0.56036507568E-02  0.25830154019E-01  0.51100000000E-03 0.  1.
</event>
<event>
 8    1  0.1061721E+005  0.1043930E+01  0.7957747E-01            NaN
         13   -1    0    0    0    0  0.00000000000E+00  0.00000000000E+00  0.74505805969E-08  0.10566000000E+00  0.10566000000E+00 0.  1.
     999900   -1    0    0    0    0 -0.00000000000E+00 -0.00000000000E+00 -0.74505805969E-08  0.93827000000E+00  0.93827000000E+00 0.  1.
     999902    2    1    2    0    0 -0.17849373770E-01  0.13975798185E-01  0.11897993180E-01  0.10183275524E+01  0.10180056575E+01 0.  0.
     999903    2    3    3    0    0 -0.25798761653E-02 -0.82734852417E-01  0.96895772443E-01  0.12882728265E+00  0.18867073742E-01 0.  0.
         14    1    1    2    0    0  0.17849373770E-01 -0.13975798185E-01 -0.11897993180E-01  0.25602447551E-01  0.00000000000E+00 0. -1.
     999901    1    3    3    0    0 -0.15269497604E-01  0.96710650603E-01 -0.84997779262E-01  0.88950026980E+00  0.88000000000E+00 0.  1.
        -11    1    4    4    0    0 -0.56066023877E-03 -0.64016749715E-01  0.61722545709E-01  0.88929142320E-01  0.51100000000E-03 0.  1.
         11    1    4    4    0    0 -0.20192159265E-02 -0.18718102702E-01  0.35173226734E-01  0.39898140328E-01  0.51100000000E-03 0. -1.
</event>
<event>
 8    1  0.1061721E+005  0.1043930E+01  0.7957747E-01            NaN
         13   -1    0    0    0    0  0.00000000000E+00  0.00000000000E+00  0.74505805969E-08  0.10566000000E+00  0.10566000000E+00 0. -1.
     999900   -1    0    0    0    0 -0.00000000000E+00 -0.00000000000E+00 -0.74505805969E-08  0.93827000000E+00  0.93827000000E+00 0.  1.
     999902    2    1    2    0    0  0.14145109223E-01  0.10835365171E-01 -0.14923844142E-01  0.10206875738E+01  0.10204229088E+01 0.  0.
     999903    2    3    3    0    0  0.10447844922E+00  0.44156766557E-01  0.64165015853E-01  0.13191005611E+00  0.20433973191E-01 0.  0.
         14    1    1    2    0    0 -0.14145109223E-01 -0.10835365171E-01  0.14923844142E-01  0.23242426235E-01  0.00000000000E+00 0. -1.
     999901    1    3    3    0    0 -0.90333339998E-01 -0.33321401386E-01 -0.79088859995E-01  0.88877751765E+00  0.88000000000E+00 0.  1.
        -11    1    4    4    0    0  0.56533956711E-01  0.13242559283E-01  0.35575565435E-01  0.68097985394E-01  0.51100000000E-03 0.  1.
         11    1    4    4    0    0  0.47944492510E-01  0.30914207273E-01  0.28589450418E-01  0.63812070720E-01  0.51100000000E-03 0. -1.
</event>
<event>
 8    1  0.1061721E+005  0.1043930E+01  0.7957747E-01            NaN
         13   -1    0    0    0    0  0.00000000000E+00  0.00000000000E+00  0.74505805969E-08  0.10566000000E+00  0.10566000000E+00 0.  1.
     999900   -1    0    0    0    0 -0.00000000000E+00 -0.00000000000E+00 -0.74505805969E-08  0.93827000000E+00  0.93827000000E+00 0. -1.
     999902    2    1    2    0    0 -0.10622789784E-01  0.19713958159E-01  0.12321486123E-01  0.10183702107E+01  0.10180494012E+01 0.  0.
     999903    2    3    3    0    0  0.64555410970E-01 -0.50401650486E-02 -0.10739108980E+00  0.12674493665E+00  0.18401859935E-01 0.  0.
         14    1    1    2    0    0  0.10622789784E-01 -0.19713958159E-01 -0.12321486123E-01  0.25559789307E-01  0.00000000000E+00 0. -1.
     999901    1    3    3    0    0 -0.75178200754E-01  0.24754123208E-01  0.11971257592E+00  0.89162527405E+00  0.88000000000E+00 0. -1.
        -11    1    4    4    0    0  0.36771453901E-01  0.37081130380E-02 -0.47891522374E-01  0.60495859037E-01  0.51100000000E-03 0.  1.
         11    1    4    4    0    0  0.27783957068E-01 -0.87482780866E-02 -0.59499567422E-01  0.66249077611E-01  0.51100000000E-03 0. -1.
</event>
<event>
 8    1  0.1061721E+005  0.1043930E+01  0.7957747E-01            NaN
         13   -1    0    0    0    0  0.00000000000E+00  0.00000000000E+00  0.74505805969E-08  0.10566000000E+00  0.10566000000E+00 0. -1.
     999900   -1    0    0    0    0 -0.00000000000E+00 -0.00000000000E+00 -0.74505805969E-08  0.93827000000E+00  0.93827000000E+00 0. -1.
     999902    2    1    2    0    0 -0.20508138909E-01 -0.78659214245E-02  0.84321850531E-02  0.10204021819E+01  0.10201309007E+01 0.  0.
     999903    2    3    3    0    0 -0.91376414833E-01  0.90732345229E-01 -0.16251545521E-01  0.13172157711E+00  0.22460041968E-01 0.  0.
         14    1    1    2    0    0  0.20508138909E-01  0.78659214245E-02 -0.84321850531E-02  0.23527818134E-01  0.00000000000E+00 0.  1.
     999901    1    3    3    0    0  0.70868275924E-01 -0.98598266654E-01  0.24683730574E-01  0.88868060476E+00  0.88000000000E+00 0. -1.
        -11    1    4    4    0    0 -0.82010489041E-01  0.72896424763E-01 -0.82393814367E-02  0.11003525609E+00  0.51100000000E-03 0.  1.
         11    1    4    4    0    0 -0.93659257926E-02  0.17835920466E-01 -0.80121640842E-02  0.21686321014E-01  0.51100000000E-03 0. -1.
</event>
<event>
 8    1  0.1061721E+005  0.1043930E+01  0.7957747E-01            NaN
         13   -1    0    0    0    0  0.00000000000E+00  0.00000000000E+00  0.74505805969E-08  0.10566000000E+00  0.10566000000E+00 0. -1.
     999900   -1    0    0    0    0 -0.00000000000E+00 -0.00000000000E+00 -0.74505805969E-08  0.93827000000E+00  0.93827000000E+00 0. -1.
     999902    2    1    2    0    0  0.22106206888E-02  0.11104540427E-01  0.22524585317E-01  0.10187197916E+01  0.10184078060E+01 0.  0.
     999903    2    3    3    0    0  0.38419817449E-01 -0.53298272530E-01 -0.10556994702E+00  0.12638183018E+00  0.22595686706E-01 0.  0.
         14    1    1    2    0    0 -0.22106206888E-02 -0.11104540427E-01 -0.22524585317E-01  0.25210208362E-01  0.00000000000E+00 0.  1.
     999901    1    3    3    0    0 -0.36209196760E-01  0.64402812958E-01  0.12809453234E+00  0.89233796146E+00  0.88000000000E+00 0. -1.
        -11    1    4    4    0    0  0.27062439230E-01 -0.22655206855E-01 -0.67768581666E-01  0.76409919492E-01  0.51100000000E-03 0. -1.
         11    1    4    4    0    0  0.11357378219E-01 -0.30643065675E-01 -0.37801365355E-01  0.49971910687E-01  0.51100000000E-03 0.  1.
</event>
<event>
 8    1  0.1061721E+005  0.1043930E+01  0.7957747E-01            NaN
         13   -1    0    0    0    0  0.00000000000E+00  0.00000000000E+00  0.74505805969E-08  0.10566000000E+00  0.10566000000E+00 0.  1.
     999900   -1    0    0    0    0 -0.00000000000E+00 -0.00000000000E+00 -0.74505805969E-08  0.93827000000E+00  0.93827000000E+00 0. -1.
     999902    2    1    2    0    0  0.16536831725E-01  0.15800133325E-01  0.57534651654E-02  0.10203458236E+01  0.10200732259E+01 0.  0.
     999903    2    3    3    0    0  0.66468856315E-01 -0.10993505019E+00 -0.29331428686E-03  0.12998684709E+00  0.19815909306E-01 0.  0.
         14    1    1    2    0    0 -0.16536831725E-01 -0.15800133325E-01 -0.57534651654E-02  0.23584176433E-01  0.00000000000E+00 0. -1.
     999901    1    3    3    0    0 -0.49932024590E-01  0.12573518352E+00  0.60467794523E-02  0.89035897648E+00  0.88000000000E+00 0.  1.
        -11    1    4    4    0    0  0.32351413822E-01 -0.48093997448E-01  0.93082971398E-02  0.58707342671E-01  0.51100000000E-03 0. -1.
         11    1    4    4    0    0  0.34117442493E-01 -0.61841052747E-01 -0.96016114266E-02  0.71279504418E-01  0.51100000000E-03 0.  1.
</event>
<event>
 8    1  0.1061721E+005  0.1043930E+01  0.7957747E-01            NaN
         13   -1    0    0    0    0  0.00000000000E+00  0.00000000000E+00  0.74505805969E-08  0.10566000000E+00  0.10566000000E+00 0.  1.
     999900   -1    0    0    0    0 -0.00000000000E+00 -0.00000000000E+00 -0.74505805969E-08  0.93827000000E+00  0.93827000000E+00 0. -1.
     999902    2    1    2    0    0 -0.15856836156E-01  0.13044505644E-01 -0.10870086857E-01  0.10206973254E+01  0.10204328851E+01 0.  0.
     999903    2    3    3    0    0  0.10869698808E+00  0.34768305540E-01 -0.59803120317E-01  0.13031537345E+00  0.19540037610E-01 0.  0.
         14    1    1    2    0    0  0.15856836156E-01 -0.13044505644E-01  0.10870086857E-01  0.23232674591E-01  0.00000000000E+00 0. -1.
     999901    1    3    3    0    0 -0.12455382424E+00 -0.21723799895E-01  0.48933033460E-01  0.89038195196E+00  0.88000000000E+00 0. -1.
        -11    1    4    4    0    0  0.38371197799E-01  0.77139159809E-02 -0.11446057305E-01  0.40781450062E-01  0.51100000000E-03 0. -1.
         11    1    4    4    0    0  0.70325790280E-01  0.27054389559E-01 -0.48357063012E-01  0.89533923387E-01  0.51100000000E-03 0.  1.
</event>
<event>
 8    1  0.1061721E+005  0.1043930E+01  0.7957747E-01            NaN
         13   -1    0    0    0    0  0.00000000000E+00  0.00000000000E+00  0.74505805969E-08  0.10566000000E+00  0.10566000000E+00 0.  1.
     999900   -1    0    0    0    0 -0.00000000000E+00 -0.00000000000E+00 -0.74505805969E-08  0.93827000000E+00  0.93827000000E+00 0. -1.
     999902    2    1    2    0    0  0.22801777734E-01  0.81195069261E-02 -0.50911260229E-02  0.10191960754E+01  0.10188959089E+01 0.  0.
     999903    2    3    3    0    0 -0.10538706035E+00 -0.57601472474E-01 -0.25479888378E-01  0.12725026599E+00  0.33452105489E-01 0.  0.
         14    1    1    2    0    0 -0.22801777734E-01 -0.81195069261E-02  0.50911260229E-02  0.24733924572E-01  0.00000000000E+00 0. -1.
     999901    1    3    3    0    0  0.12818883809E+00  0.65720979400E-01  0.20388762355E-01  0.89194580944E+00  0.88000000000E+00 0. -1.
        -11    1    4    4    0    0 -0.19025413249E-01  0.46604799274E-03  0.31914395850E-02  0.19303625506E-01  0.51100000000E-03 0. -1.
         11    1    4    4    0    0 -0.86361647104E-01 -0.58067520467E-01 -0.28671327963E-01  0.10794664048E+00  0.51100000000E-03 0.  1.
</event>
<event>
 8    1  0.1061721E+005  0.1043930E+01  0.7957747E-01            NaN
         13   -1    0    0    0    0  0.00000000000E+00  0.00000000000E+00  0.74505805969E-08  0.10566000000E+00  0.10566000000E+00 0.  1.
     999900   -1    0    0    0    0 -0.00000000000E+00 -0.00000000000E+00 -0.74505805969E-08  0.93827000000E+00  0.93827000000E+00 0.  1.
     999902    2    1    2    0    0 -0.82202925233E-03 -0.11614216130E-01  0.20548444228E-01  0.10203121189E+01  0.10200387324E+01 0.  0.
     999903    2    3    3    0    0 -0.12280938491E+00 -0.30548379974E-01 -0.25235900438E-01  0.13051684820E+00  0.19556289357E-01 0.  0.
         14    1    1    2    0    0  0.82202925233E-03  0.11614216130E-01 -0.20548444228E-01  0.23617881120E-01  0.00000000000E+00 0. -1.
     999901    1    3    3    0    0  0.12198735566E+00  0.18934163844E-01  0.45784344666E-01  0.88979527068E+00  0.88000000000E+00 0. -1.
        -11    1    4    4    0    0 -0.41520556420E-01 -0.46076161628E-02 -0.15804875473E-01  0.44668131165E-01  0.51100000000E-03 0.  1.
         11    1    4    4    0    0 -0.81288828489E-01 -0.25940763811E-01 -0.94310249653E-02  0.85848717039E-01  0.51100000000E-03 0. -1.
</event>
<event>
 8    1  0.1061721E+005  0.1043930E+01  0.7957747E-01            NaN
         13   -1    0    0    0    0  0.00000000000E+00  0.00000000000E+00  0.74505805969E-08  0.10566000000E+00  0.10566000000E+00 0. -1.
     999900   -1    0    0    0    0 -0.00000000000E+00 -0.00000000000E+00 -0.74505805969E-08  0.93827000000E+00  0.93827000000E+00 0.  1.
     999902    2    1    2    0    0 -0.20167183837E-01  0.91125033487E-02  0.85312842956E-02  0.10202121621E+01  0.10199364294E+01 0.  0.
     999903    2    3    3    0    0  0.11028191089E+00 -0.52865125082E-02 -0.61071185776E-01  0.12776115406E+00  0.20079234819E-01 0.  0.
         14    1    1    2    0    0  0.20167183837E-01 -0.91125033487E-02 -0.85312842956E-02  0.23717837864E-01  0.00000000000E+00 0.  1.
     999901    1    3    3    0    0 -0.13044909473E+00  0.14399015857E-01  0.69602470072E-01  0.89245100807E+00  0.88000000000E+00 0. -1.
        -11    1    4    4    0    0  0.48888646864E-01 -0.96990741135E-02 -0.19698518599E-01  0.53595378409E-01  0.51100000000E-03 0.  1.
         11    1    4    4    0    0  0.61393264026E-01  0.44125616053E-02 -0.41372667177E-01  0.74165775652E-01  0.51100000000E-03 0. -1.
</event>
<event>
 8    1  0.1061721E+005  0.1043930E+01  0.7957747E-01            NaN
         13   -1    0    0    0    0  0.00000000000E+00  0.00000000000E+00  0.74505805969E-08  0.10566000000E+00  0.10566000000E+00 0.  1.
     999900   -1    0    0    0    0 -0.00000000000E+00 -0.00000000000E+00 -0.74505805969E-08  0.93827000000E+00  0.93827000000E+00 0.  1.
     999902    2    1    2    0    0  0.62971504355E-02 -0.21754870851E-01 -0.11880512053E-02  0.10212509353E+01  0.10209990857E+01 0.  0.
     999903    2    3    3    0    0  0.44879275425E-01  0.27170355866E-02  0.12236519497E+00  0.13144597960E+00  0.16830714973E-01 0.  0.
         14    1    1    2    0    0 -0.62971504355E-02  0.21754870851E-01  0.11880512053E-02  0.22679064686E-01  0.00000000000E+00 0. -1.
     999901    1    3    3    0    0 -0.38582124990E-01 -0.24471906438E-01 -0.12355324618E+00  0.88980495572E+00  0.88000000000E+00 0. -1.
        -11    1    4    4    0    0  0.65404075650E-02  0.21219721500E-02  0.67971857184E-02  0.96820737247E-02  0.51100000000E-03 0.  1.
         11    1    4    4    0    0  0.38338867860E-01  0.59506343661E-03  0.11556800926E+00  0.12176390587E+00  0.51100000000E-03 0. -1.
</event>
<event>
 8    1  0.1061721E+005  0.1043930E+01  0.7957747E-01            NaN
         13   -1    0    0    0    0  0.00000000000E+00  0.00000000000E+00  0.74505805969E-08  0.10566000000E+00  0.10566000000E+00 0.  1.
     999900   -1    0    0    0    0 -0.00000000000E+00 -0.00000000000E+00 -0.74505805969E-08  0.93827000000E+00  0.93827000000E+00 0.  1.
     999902    2    1    2    0    0  0.14391977956E-01  0.40126002238E-02  0.12343359732E-01  0.10245498937E+01  0.10243665829E+01 0.  0.
     999903    2    3    3    0    0 -0.77118170803E-01  0.78590843001E-01  0.74622984714E-01  0.13448541667E+00  0.19849548517E-01 0.  0.
         14    1    1    2    0    0 -0.14391977956E-01 -0.40126002238E-02 -0.12343359732E-01  0.19380106282E-01  0.00000000000E+00 0. -1.
     999901    1    3    3    0    0  0.91510148759E-01 -0.74578242778E-01 -0.62279624983E-01  0.89006447705E+00  0.88000000000E+00 0. -1.
        -11    1    4    4    0    0 -0.67335226255E-01  0.65057050161E-01  0.54524397536E-01  0.10834954323E+00  0.51100000000E-03 0.  1.
         11    1    4    4    0    0 -0.97829445481E-02  0.13533792841E-01  0.20098587179E-01  0.26135873436E-01  0.51100000000E-03 0. -1.
</event>
<event>
 8    1  0.1061721E+005  0.1043930E+01  0.7957747E-01            NaN
         13   -1    0    0    0    0  0.00000000000E+00  0.00000000000E+00  0.74505805969E-08  0.10566000000E+00  0.10566000000E+00 0. -1.
     999900   -1    0    0    0    0 -0.00000000000E+00 -0.00000000000E+00 -0.74505805969E-08  0.93827000000E+00  0.93827000000E+00 0.  1.
     999902    2    1    2    0    0  0.11353248906E-01 -0.21320679861E-01  0.27263438171E-02  0.10196215529E+01  0.10193317470E+01 0.  0.
     999903    2    3    3    0    0 -0.44593546076E-01  0.39297378127E-01  0.11263906595E+00  0.12895584719E+00  0.20228273946E-01 0.  0.
         14    1    1    2    0    0 -0.11353248906E-01  0.21320679861E-01 -0.27263438171E-02  0.24308447113E-01  0.00000000000E+00 0.  1.
     999901    1    3    3    0    0  0.55946794982E-01 -0.60618057987E-01 -0.10991272213E+00  0.89066570570E+00  0.88000000000E+00 0.  1.
        -11    1    4    4    0    0 -0.48483922550E-02  0.33854960573E-02  0.29228017663E-01  0.29824597709E-01  0.51100000000E-03 0. -1.
         11    1    4    4    0    0 -0.39745153821E-01  0.35911882069E-01  0.83411048285E-01  0.99131249478E-01  0.51100000000E-03 0.  1.
</event>
<event>
 8    1  0.1061721E+005  0.1043930E+01  0.7957747E-01            NaN
         13   -1    0    0    0    0  0.00000000000E+00  0.00000000000E+00  0.74505805969E-08  0.10566000000E+00  0.10566000000E+00 0.  1.
     999900   -1    0    0    0    0 -0.00000000000E+00 -0.00000000000E+00 -0.74505805969E-08  0.93827000000E+00  0.93827000000E+00 0.  1.
     999902    2    1    2    0    0  0.61319204706E-02  0.21245925421E-01  0.10159213140E-01  0.10195948524E+01  0.10193044019E+01 0.  0.
     999903    2    3    3    0    0 -0.39816625552E-01 -0.61125118749E-01  0.10513036236E+00  0.12947363766E+00  0.19732864644E-01 0.  0.
         14    1    1    2    0    0 -0.61319204706E-02 -0.21245925421E-01 -0.10159213140E-01  0.24335147571E-01  0.00000000000E+00 0.  1.
     999901    1    3    3    0    0  0.45948546022E-01  0.82371044171E-01 -0.94971149217E-01  0.89012121477E+00  0.88000000000E+00 0.  1.
        -11    1    4    4    0    0 -0.64207738692E-02 -0.48998004018E-02  0.23639108109E-01  0.24986054795E-01  0.51100000000E-03 0.  1.
         11    1    4    4    0    0 -0.33395851683E-01 -0.56225318348E-01  0.81491254248E-01  0.10448758286E+00  0.51100000000E-03 0. -1.
</event>
<event>
 8    1  0.1061721E+005  0.1043930E+01  0.7957747E-01            NaN
         13   -1    0    0    0    0  0.00000000000E+00  0.00000000000E+00  0.74505805969E-08  0.10566000000E+00  0.10566000000E+00 0. -1.
     999900   -1    0    0    0    0 -0.00000000000E+00 -0.00000000000E+00 -0.74505805969E-08  0.93827000000E+00  0.93827000000E+00 0. -1.
     999902    2    1    2    0    0  0.18765498548E-02 -0.13445257404E-01  0.19085308938E-01  0.10205089538E+01  0.10202401577E+01 0.  0.
     999903    2    3    3    0    0 -0.53089617765E-01  0.79604011510E-01  0.87578071760E-01  0.13125606259E+00  0.20073095221E-01 0.  0.
         14    1    1    2    0    0 -0.18765498548E-02  0.13445257404E-01 -0.19085308938E-01  0.23421046160E-01  0.00000000000E+00 0.  1.
     999901    1    3    3    0    0  0.54966167620E-01 -0.93049268913E-01 -0.68492762823E-01  0.88925289124E+00  0.88000000000E+00 0. -1.
        -11    1    4    4    0    0 -0.32764868557E-01  0.32301573966E-01  0.46180074514E-01  0.65190403399E-01  0.51100000000E-03 0. -1.
         11    1    4    4    0    0 -0.20324749208E-01  0.47302437543E-01  0.41397997247E-01  0.66065659195E-01  0.51100000000E-03 0.  1.
</event>
<event>
 8    1  0.1061721E+005  0.1043930E+01  0.7957747E-01            NaN
         13   -1    0    0    0    0  0.00000000000E+00  0.00000000000E+00  0.74505805969E-08  0.10566000000E+00  0.10566000000E+00 0.  1.
     999900   -1    0    0    0    0 -0.00000000000E+00 -0.00000000000E+00 -0.74505805969E-08  0.93827000000E+00  0.93827000000E+00 0.  1.
     999902    2    1    2    0    0  0.16396375636E-01  0.12965283606E-01 -0.94975832868E-02  0.10209703876E+01  0.10207121967E+01 0.  0.
     999903    2    3    3    0    0 -0.10415355203E+00 -0.49823782908E-01 -0.54676159028E-01  0.12938984966E+00  0.20539695372E-01 0.  0.
         14    1    1    2    0    0 -0.16396375636E-01 -0.12965283606E-01  0.94975832868E-02  0.22959612393E-01  0.00000000000E+00 0.  1.
     999901    1    3    3    0    0  0.12054992767E+00  0.62789066513E-01  0.45178575741E-01  0.89158053794E+00  0.88000000000E+00 0. -1.
        -11    1    4    4    0    0 -0.55422817951E-02 -0.88127235466E-02 -0.59152230525E-02  0.11984655546E-01  0.51100000000E-03 0.  1.
         11    1    4    4    0    0 -0.98611270235E-01 -0.41011059361E-01 -0.48760935976E-01  0.11740519412E+00  0.51100000000E-03 0. -1.
</event>
<event>
 8    1  0.1061721E+005  0.1043930E+01  0.7957747E-01            NaN
         13   -1    0    0    0    0  0.00000000000E+00  0.00000000000E+00  0.74505805969E-08  0.10566000000E+00  0.10566000000E+00 0.  1.
     999900   -1    0    0    0    0 -0.00000000000E+00 -0.00000000000E+00 -0.74505805969E-08  0.93827000000E+00  0.93827000000E+00 0.  1.
     999902    2    1    2    0    0  0.18501082601E-01 -0.21728786810E-01  0.18290917312E-01  0.10100332761E+01  0.10094643287E+01 0.  0.
     999903    2    3    3    0    0 -0.39225948330E-01 -0.35230899985E-01  0.10917299502E+00  0.12336858797E+00  0.22829242680E-01 0.  0.
         14    1    1    2    0    0 -0.18501082601E-01  0.21728786810E-01 -0.18290917312E-01  0.33896723880E-01  0.00000000000E+00 0.  1.
     999901    1    3    3    0    0  0.57727030931E-01  0.13502113174E-01 -0.90882077704E-01  0.88666468815E+00  0.88000000000E+00 0.  1.
        -11    1    4    4    0    0 -0.20345958406E-01 -0.38741450150E-02  0.43536453379E-01  0.48214633846E-01  0.51100000000E-03 0. -1.
         11    1    4    4    0    0 -0.18879989924E-01 -0.31356754970E-01  0.65636541638E-01  0.75153954127E-01  0.51100000000E-03 0.  1.
</event>
<event>
 8    1  0.1061721E+005  0.1043930E+01  0.7957747E-01            NaN
         13   -1    0    0    0    0  0.00000000000E+00  0.00000000000E+00  0.74505805969E-08  0.10566000000E+00  0.10566000000E+00 0. -1.
     999900   -1    0    0    0    0 -0.00000000000E+00 -0.00000000000E+00 -0.74505805969E-08  0.93827000000E+00  0.93827000000E+00 0.  1.
     999902    2    1    2    0    0  0.80108965019E-02  0.87014186527E-02 -0.15427219424E-01  0.10244906521E+01  0.10243062081E+01 0.  0.
     999903    2    3    3    0    0  0.55669177161E-02  0.13357045888E+00 -0.13045907542E-01  0.13566900466E+00  0.19074198847E-01 0.  0.
         14    1    1    2    0    0 -0.80108965019E-02 -0.87014186527E-02  0.15427219424E-01  0.19439347944E-01  0.00000000000E+00 0. -1.
     999901    1    3    3    0    0  0.24439787858E-02 -0.12486904023E+00 -0.23813118826E-02  0.88882164740E+00  0.88000000000E+00 0. -1.
        -11    1    4    4    0    0  0.80175201433E-02  0.11236738102E+00 -0.47211182193E-02  0.11275308876E+00  0.51100000000E-03 0.  1.
         11    1    4    4    0    0 -0.24506024272E-02  0.21203077865E-01 -0.83247893224E-02  0.22915915899E-01  0.51100000000E-03 0. -1.
</event>
<event>
 8    1  0.1061721E+005  0.1043930E+01  0.7957747E-01            NaN
         13   -1    0    0    0    0  0.00000000000E+00  0.00000000000E+00  0.74505805969E-08  0.10566000000E+00  0.10566000000E+00 0.  1.
     999900   -1    0    0    0    0 -0.00000000000E+00 -0.00000000000E+00 -0.74505805969E-08  0.93827000000E+00  0.93827000000E+00 0. -1.
     999902    2    1    2    0    0  0.20767588703E-01  0.92464147159E-02  0.56372473404E-03  0.10211900195E+01  0.10209367999E+01 0.  0.
     999903    2    3    3    0    0 -0.61656023750E-01  0.11407234968E+00  0.27198430790E-03  0.13114383330E+00  0.19612873618E-01 0.  0.
         14    1    1    2    0    0 -0.20767588703E-01 -0.92464147159E-02 -0.56372473404E-03  0.22739980458E-01  0.00000000000E+00 0.  1.
     999901    1    3    3    0    0  0.82423612453E-01 -0.10482593496E+00  0.29174042614E-03  0.89004618624E+00  0.88000000000E+00 0. -1.
        -11    1    4    4    0    0 -0.44832982844E-01  0.70608707965E-01  0.75054223465E-02  0.83977249758E-01  0.51100000000E-03 0.  1.
         11    1    4    4    0    0 -0.16823040906E-01  0.43463641713E-01 -0.72334380386E-02  0.47166583543E-01  0.51100000000E-03 0. -1.
</event>
<event>
 8    1  0.1061721E+005  0.1043930E+01  0.7957747E-01            NaN
         13   -1    0    0    0    0  0.00000000000E+00  0.00000000000E+00  0.74505805969E-08  0.10566000000E+00  0.10566000000E+00 0.  1.
     999900   -1    0    0    0    0 -0.00000000000E+00 -0.00000000000E+00 -0.74505805969E-08  0.93827000000E+00  0.93827000000E+00 0.  1.
     999902    2    1    2    0    0  0.16188709286E-01 -0.44996422569E-02  0.16221542840E-01  0.10205749247E+01  0.10203076582E+01 0.  0.
     999903    2    3    3    0    0  0.45749063366E-01  0.20766151852E-01  0.12206824317E+00  0.13337951285E+00  0.19110954890E-01 0.  0.
         14    1    1    2    0    0 -0.16188709286E-01  0.44996422569E-02 -0.16221542840E-01  0.23355075271E-01  0.00000000000E+00 0. -1.
     999901    1    3    3    0    0 -0.29560354079E-01 -0.25265794109E-01 -0.10584670033E+00  0.88719541188E+00  0.88000000000E+00 0.  1.
        -11    1    4    4    0    0  0.19914788816E-01  0.57288107940E-02  0.29139778334E-01  0.35760395538E-01  0.51100000000E-03 0. -1.
         11    1    4    4    0    0  0.25834274550E-01  0.15037341058E-01  0.92928464835E-01  0.97619117314E-01  0.51100000000E-03 0.  1.
</event>
<event>
 8    1  0.1061721E+005  0.1043930E+01  0.7957747E-01            NaN
         13   -1    0    0    0    0  0.00000000000E+00  0.00000000000E+00  0.74505805969E-08  0.10566000000E+00  0.10566000000E+00 0. -1.
     999900   -1    0    0    0    0 -0.00000000000E+00 -0.00000000000E+00 -0.74505805969E-08  0.93827000000E+00  0.93827000000E+00 0. -1.
     999902    2    1    2    0    0 -0.15783766405E-01  0.12659815139E-01  0.12102581460E-01  0.10203530901E+01  0.10200806624E+01 0.  0.
     999903    2    3    3    0    0  0.11744764639E+00 -0.47211602462E-01 -0.78498629008E-03  0.12822009253E+00  0.20417905716E-01 0.  0.
         14    1    1    2    0    0  0.15783766405E-01 -0.12659815139E-01 -0.12102581460E-01  0.23576909875E-01  0.00000000000E+00 0. -1.
     999901    1    3    3    0    0 -0.13323141280E+00  0.59871417601E-01  0.12887567750E-01  0.89213299760E+00  0.88000000000E+00 0.  1.
        -11    1    4    4    0    0  0.39732591572E-01 -0.11930240472E-01 -0.90719834595E-02  0.42468476258E-01  0.51100000000E-03 0. -1.
         11    1    4    4    0    0  0.77715054820E-01 -0.35281361990E-01  0.82869971694E-02  0.85751616269E-01  0.51100000000E-03 0.  1.
</event>
<event>
 8    1  0.1061721E+005  0.1043930E+01  0.7957747E-01            NaN
         13   -1    0    0    0    0  0.00000000000E+00  0.00000000000E+00  0.74505805969E-08  0.10566000000E+00  0.10566000000E+00 0. -1.
     999900   -1    0    0    0    0 -0.00000000000E+00 -0.00000000000E+00 -0.74505805969E-08  0.93827000000E+00  0.93827000000E+00 0.  1.
     999902    2    1    2    0    0 -0.22042315086E-01 -0.53854788633E-02  0.54213268866E-02  0.10206006661E+01  0.10203339952E+01 0.  0.
     999903    2    3    3    0    0 -0.79529313201E-01  0.75237389878E-01 -0.70519923801E-01  0.13179704575E+00  0.20293474859E-01 0.  0.
         14    1    1    2    0    0  0.22042315086E-01  0.53854788633E-02 -0.54213268866E-02  0.23329333942E-01  0.00000000000E+00 0.  1.
     999901    1    3    3    0    0  0.57486998115E-01 -0.80622868741E-01  0.75941250688E-01  0.88880362031E+00  0.88000000000E+00 0. -1.
        -11    1    4    4    0    0 -0.61024185260E-01  0.67631631894E-01 -0.54427116648E-01  0.10611579037E+00  0.51100000000E-03 0. -1.
         11    1    4    4    0    0 -0.18505127941E-01  0.76057579843E-02 -0.16092807153E-01  0.25681255376E-01  0.51100000000E-03 0.  1.
</event>
<event>
 8    1  0.1061721E+005  0.1043930E+01  0.7957747E-01            NaN
         13   -1    0    0    0    0  0.00000000000E+00  0.00000000000E+00  0.74505805969E-08  0.10566000000E+00  0.10566000000E+00 0. -1.
     999900   -1    0    0    0    0 -0.00000000000E+00 -0.00000000000E+00 -0.74505805969E-08  0.93827000000E+00  0.93827000000E+00 0.  1.
     999902    2    1    2    0    0 -0.16873407863E-01  0.16206218619E-01  0.19882722804E-02  0.10204500800E+01  0.10201799151E+01 0.  0.
     999903    2    3    3    0    0  0.10986726197E+00 -0.30275808662E-01 -0.55670420538E-01  0.12829073266E+00  0.19284100196E-01 0.  0.
         14    1    1    2    0    0  0.16873407863E-01 -0.16206218619E-01 -0.19882722804E-02  0.23479919964E-01  0.00000000000E+00 0. -1.
     999901    1    3    3    0    0 -0.12674066984E+00  0.46482027281E-01  0.57658692818E-01  0.89215934737E+00  0.88000000000E+00 0.  1.
        -11    1    4    4    0    0  0.78246837840E-01 -0.24700621576E-01 -0.30688864932E-01  0.87605684120E-01  0.51100000000E-03 0. -1.
         11    1    4    4    0    0  0.31620424132E-01 -0.55751870863E-02 -0.24981555606E-01  0.40685048542E-01  0.51100000000E-03 0.  1.
</event>
<event>
 8    1  0.1061721E+005  0.1043930E+01  0.7957747E-01            NaN
         13   -1    0    0    0    0  0.00000000000E+00  0.00000000000E+00  0.74505805969E-08  0.10566000000E+00  0.10566000000E+00 0.  1.
     999900   -1    0    0    0    0 -0.00000000000E+00 -0.00000000000E+00 -0.74505805969E-08  0.93827000000E+00  0.93827000000E+00 0.  1.
     999902    2    1    2    0    0 -0.15898347456E-01  0.89468557897E-03 -0.16686993904E-01  0.10208645783E+01  0.10206039749E+01 0.  0.
     999903    2    3    3    0    0  0.54760302164E-01 -0.77305909224E-01 -0.89079227086E-01  0.13162410842E+00  0.20369166026E-01 0.  0.
         14    1    1    2    0    0  0.15898347456E-01 -0.89468557897E-03  0.16686993904E-01  0.23065421732E-01  0.00000000000E+00 0.  1.
     999901    1    3    3    0    0 -0.70658649620E-01  0.78200594803E-01  0.72392233182E-01  0.88924046985E+00  0.88000000000E+00 0. -1.
        -11    1    4    4    0    0  0.68974531827E-02 -0.22438731427E-01 -0.15667051069E-01  0.28227453634E-01  0.51100000000E-03 0. -1.
         11    1    4    4    0    0  0.47862848981E-01 -0.54867177797E-01 -0.73412176017E-01  0.10339665478E+00  0.51100000000E-03 0.  1.
</event>
<event>
 8    1  0.1061721E+005  0.1043930E+01  0.7957747E-01            NaN
         13   -1    0    0    0    0  0.00000000000E+00  0.00000000000E+00  0.74505805969E-08  0.10566000000E+00  0.10566000000E+00 0. -1.
     999900   -1    0    0    0    0 -0.00000000000E+00 -0.00000000000E+00 -0.74505805969E-08  0.93827000000E+00  0.93827000000E+00 0.  1.
     999902    2    1    2    0    0  0.19262103009E-01  0.21733158638E-01  0.65386320739E-02  0.10141623581E+01  0.10137253948E+01 0.  0.
     999903    2    3    3    0    0 -0.46692461225E-01 -0.10865729934E+00  0.23864578199E-01  0.12194497173E+00  0.17733115978E-01 0.  0.
         14    1    1    2    0    0 -0.19262103009E-01 -0.21733158638E-01 -0.65386320739E-02  0.29767641930E-01  0.00000000000E+00 0. -1.
     999901    1    3    3    0    0  0.65954564234E-01  0.13039045798E+00 -0.17325946125E-01  0.89221738634E+00  0.88000000000E+00 0. -1.
        -11    1    4    4    0    0 -0.31087815741E-01 -0.58396102072E-01  0.20264955827E-01  0.69191665542E-01  0.51100000000E-03 0. -1.
         11    1    4    4    0    0 -0.15604645485E-01 -0.50261197269E-01  0.35996223718E-02  0.52753306189E-01  0.51100000000E-03 0.  1.
</event>
<event>
 8    1  0.1061721E+005  0.1043930E+01  0.7957747E-01            NaN
         13   -1    0    0    0    0  0.00000000000E+00  0.00000000000E+00  0.74505805969E-08  0.10566000000E+00  0.10566000000E+00 0.  1.
     999900   -1    0    0    0    0 -0.00000000000E+00 -0.00000000000E+00 -0.74505805969E-08  0.93827000000E+00  0.93827000000E+00 0. -1.
     999902    2    1    2    0    0  0.84093951561E-02 -0.21232701144E-01 -0.43734491496E-02  0.10206776328E+01  0.10204127388E+01 0.  0.
     999903    2    3    3    0    0 -0.73852021784E-01  0.14562073930E-01 -0.10470402882E+00  0.13044483632E+00  0.19665872806E-01 0.  0.
         14    1    1    2    0    0 -0.84093951561E-02  0.21232701144E-01  0.43734491496E-02  0.23252367239E-01  0.00000000000E+00 0. -1.
     999901    1    3    3    0    0  0.82261416940E-01 -0.35794775074E-01  0.10033057967E+00  0.89023279644E+00  0.88000000000E+00 0.  1.
        -11    1    4    4    0    0 -0.51055443623E-01  0.59698094016E-03 -0.68832563775E-01  0.85704128644E-01  0.51100000000E-03 0. -1.
         11    1    4    4    0    0 -0.22796578161E-01  0.13965092990E-01 -0.35871465044E-01  0.44740707677E-01  0.51100000000E-03 0.  1.
</event>
<event>
 8    1  0.1061721E+005  0.1043930E+01  0.7957747E-01            NaN
         13   -1    0    0    0    0  0.00000000000E+00  0.00000000000E+00  0.74505805969E-08  0.10566000000E+00  0.10566000000E+00 0. -1.
     999900   -1    0    0    0    0 -0.00000000000E+00 -0.00000000000E+00 -0.74505805969E-08  0.93827000000E+00  0.93827000000E+00 0.  1.
     999902    2    1    2    0    0  0.54289004346E-02 -0.35252186117E-02  0.17350059977E-01  0.10254117736E+01  0.10252445468E+01 0.  0.
     999903    2    3    3    0    0  0.12707031374E+00  0.26478345856E-01  0.37257216950E-01  0.13631496102E+00  0.18593034970E-01 0.  0.
         14    1    1    2    0    0 -0.54289004346E-02  0.35252186117E-02 -0.17350059977E-01  0.18518226357E-01  0.00000000000E+00 0.  1.
     999901    1    3    3    0    0 -0.12164141331E+00 -0.30003564468E-01 -0.19907156972E-01  0.88909681262E+00  0.88000000000E+00 0. -1.
        -11    1    4    4    0    0  0.70734515061E-01  0.23848784803E-01  0.18911676822E-01  0.77006810080E-01  0.51100000000E-03 0. -1.
         11    1    4    4    0    0  0.56335798684E-01  0.26295610528E-02  0.18345540128E-01  0.59308150943E-01  0.51100000000E-03 0.  1.
</event>
<event>
 8    1  0.1061721E+005  0.1043930E+01  0.7957747E-01            NaN
         13   -1    0    0    0    0  0.00000000000E+00  0.00000000000E+00  0.74505805969E-08  0.10566000000E+00  0.10566000000E+00 0.  1.
     999900   -1    0    0    0    0 -0.00000000000E+00 -0.00000000000E+00 -0.74505805969E-08  0.93827000000E+00  0.93827000000E+00 0. -1.
     999902    2    1    2    0    0  0.17967099143E-01 -0.13529787136E-02 -0.14248811580E-01  0.10209588042E+01  0.10207003498E+01 0.  0.
     999903    2    3    3    0    0 -0.91673500229E-01  0.82413496319E-01 -0.35489355773E-01  0.12995429018E+00  0.20799234174E-01 0.  0.
         14    1    1    2    0    0 -0.17967099143E-01  0.13529787136E-02  0.14248811580E-01  0.22971195757E-01  0.00000000000E+00 0.  1.
     999901    1    3    3    0    0  0.10964059937E+00 -0.83766475033E-01  0.21240544192E-01  0.89100451407E+00  0.88000000000E+00 0. -1.
        -11    1    4    4    0    0 -0.35834966891E-01  0.20370382579E-01 -0.16131599515E-01  0.44267222212E-01  0.51100000000E-03 0. -1.
         11    1    4    4    0    0 -0.55838533339E-01  0.62043113740E-01 -0.19357756258E-01  0.85687067964E-01  0.51100000000E-03 0.  1.
</event>
<event>
 8    1  0.1061721E+005  0.1043930E+01  0.7957747E-01            NaN
         13   -1    0    0    0    0  0.00000000000E+00  0.00000000000E+00  0.74505805969E-08  0.10566000000E+00  0.10566000000E+00 0.  1.
     999900   -1    0    0    0    0 -0.00000000000E+00 -0.00000000000E+00 -0.74505805969E-08  0.93827000000E+00  0.93827000000E+00 0.  1.
     999902    2    1    2    0    0 -0.71364375265E-02 -0.47698343898E-02  0.22800792511E-01  0.10195669912E+01  0.10192758671E+01 0.  0.
     999903    2    3    3    0    0 -0.76708423712E-01  0.10146054448E+00 -0.15612421366E-01  0.12962276276E+00  0.19490730389E-01 0.  0.
         14    1    1    2    0    0  0.71364375265E-02  0.47698343898E-02 -0.22800792511E-01  0.24363008842E-01  0.00000000000E+00 0. -1.
     999901    1    3    3    0    0  0.69571986186E-01 -0.10623037887E+00  0.38413213877E-01  0.88994422840E+00  0.88000000000E+00 0. -1.
        -11    1    4    4    0    0 -0.38563374531E-01  0.36674188061E-01 -0.10651486531E-01  0.54275641051E-01  0.51100000000E-03 0. -1.
         11    1    4    4    0    0 -0.38145049181E-01  0.64786356416E-01 -0.49609348349E-02  0.75347121711E-01  0.51100000000E-03 0.  1.
</event>
<event>
 8    1  0.1184553E+005  0.1043930E+01  0.7957747E-01            NaN
         13   -1    0    0    0    0  0.00000000000E+00  0.00000000000E+00  0.74505805969E-08  0.10566000000E+00  0.10566000000E+00 0.  1.
     999900   -1    0    0    0    0 -0.00000000000E+00 -0.00000000000E+00 -0.74505805969E-08  0.93827000000E+00  0.93827000000E+00 0. -1.
     999902    2    1    2    0    0  0.21668072279E-01  0.21212469568E-02 -0.42896282567E-02  0.10217397779E+01  0.10214987850E+01 0.  0.
     999903    2    3    3    0    0 -0.24278336080E-01  0.69428824325E-01  0.10656121959E+00  0.13104943169E+00  0.20220306034E-01 0.  0.
         14    1    1    2    0    0 -0.21668072279E-01 -0.21212469568E-02  0.42896282567E-02  0.22190222071E-01  0.00000000000E+00 0. -1.
     999901    1    3    3    0    0  0.45946408360E-01 -0.67307577369E-01 -0.11085084785E+00  0.89069034624E+00  0.88000000000E+00 0. -1.
        -11    1    4    4    0    0 -0.17362111404E-01  0.23744977378E-01  0.50001149937E-01  0.58014161884E-01  0.51100000000E-03 0.  1.
         11    1    4    4    0    0 -0.69162246758E-02  0.45683846947E-01  0.56560069654E-01  0.73035269808E-01  0.51100000000E-03 0. -1.
</event>
<event>
 8    1  0.1061721E+005  0.1043930E+01  0.7957747E-01            NaN
         13   -1    0    0    0    0  0.00000000000E+00  0.00000000000E+00  0.74505805969E-08  0.10566000000E+00  0.10566000000E+00 0. -1.
     999900   -1    0    0    0    0 -0.00000000000E+00 -0.00000000000E+00 -0.74505805969E-08  0.93827000000E+00  0.93827000000E+00 0.  1.
     999902    2    1    2    0    0  0.14291902305E-01  0.20127363038E-03  0.19336960177E-01  0.10198838566E+01  0.10196003452E+01 0.  0.
     999903    2    3    3    0    0 -0.76782615382E-02 -0.93455788364E-02  0.13057004031E+00  0.13255830835E+00  0.19413246569E-01 0.  0.
         14    1    1    2    0    0 -0.14291902305E-01 -0.20127363038E-03 -0.19336960177E-01  0.24046143381E-01  0.00000000000E+00 0.  1.
     999901    1    3    3    0    0  0.21970163843E-01  0.95468524667E-02 -0.11123308013E+00  0.88732554827E+00  0.88000000000E+00 0.  1.
        -11    1    4    4    0    0  0.57652322103E-02  0.79084498293E-03  0.26724972443E-01  0.27355961166E-01  0.51100000000E-03 0. -1.
         11    1    4    4    0    0 -0.13443493748E-01 -0.10136423819E-01  0.10384506787E+00  0.10520234719E+00  0.51100000000E-03 0.  1.
</event>
<event>
 8    1  0.1061721E+005  0.1043930E+01  0.7957747E-01            NaN
         13   -1    0    0    0    0  0.00000000000E+00  0.00000000000E+00  0.74505805969E-08  0.10566000000E+00  0.10566000000E+00 0. -1.
     999900   -1    0    0    0    0 -0.00000000000E+00 -0.00000000000E+00 -0.74505805969E-08  0.93827000000E+00  0.93827000000E+00 0.  1.
     999902    2    1    2    0    0  0.16473453313E-01 -0.67335998047E-02 -0.26354834165E-03  0.10261315313E+01  0.10259771606E+01 0.  0.
     999903    2    3    3    0    0 -0.71401701190E-01 -0.10375933293E+00 -0.45298388373E-01  0.13530934226E+00  0.19810906338E-01 0.  0.
         14    1    1    2    0    0 -0.16473453313E-01  0.67335998047E-02  0.26354834165E-03  0.17798468701E-01  0.00000000000E+00 0. -1.
     999901    1    3    3    0    0  0.87875154503E-01  0.97025733128E-01  0.45034840031E-01  0.89082218904E+00  0.88000000000E+00 0.  1.
        -11    1    4    4    0    0 -0.38895530697E-01 -0.52798795502E-01 -0.33798063025E-01  0.73777674807E-01  0.51100000000E-03 0. -1.
         11    1    4    4    0    0 -0.32506170493E-01 -0.50960537431E-01 -0.11500325348E-01  0.61531667452E-01  0.51100000000E-03 0.  1.
</event>
<event>
 8    1  0.1061721E+005  0.1043930E+01  0.7957747E-01            NaN
         13   -1    0    0    0    0  0.00000000000E+00  0.00000000000E+00  0.74505805969E-08  0.10566000000E+00  0.10566000000E+00 0. -1.
     999900   -1    0    0    0    0 -0.00000000000E+00 -0.00000000000E+00 -0.74505805969E-08  0.93827000000E+00  0.93827000000E+00 0. -1.
     999902    2    1    2    0    0 -0.19257170555E-01  0.25207938184E-03 -0.11295326782E-01  0.10216031872E+01  0.10213591854E+01 0.  0.
     999903    2    3    3    0    0  0.78198751286E-01 -0.60293916092E-02 -0.10350555454E+00  0.13141228652E+00  0.20109474468E-01 0.  0.
         14    1    1    2    0    0  0.19257170555E-01 -0.25207938184E-03  0.11295326782E-01  0.22326812780E-01  0.00000000000E+00 0. -1.
     999901    1    3    3    0    0 -0.97455921841E-01  0.62814709910E-02  0.92210227755E-01  0.89019090070E+00  0.88000000000E+00 0.  1.
        -11    1    4    4    0    0  0.21081471030E-01 -0.99371590747E-02 -0.24221640439E-01  0.33617324965E-01  0.51100000000E-03 0. -1.
         11    1    4    4    0    0  0.57117280256E-01  0.39077674655E-02 -0.79283914099E-01  0.97794961558E-01  0.51100000000E-03 0.  1.
</event>
<event>
 8    1  0.1092525E+005  0.1043930E+01  0.7957747E-01            NaN
         13   -1    0    0    0    0  0.00000000000E+00  0.00000000000E+00  0.74505805969E-08  0.10566000000E+00  0.10566000000E+00 0.  1.
     999900   -1    0    0    0    0 -0.00000000000E+00 -0.00000000000E+00 -0.74505805969E-08  0.93827000000E+00  0.93827000000E+00 0.  1.
     999902    2    1    2    0    0 -0.13340480795E-01 -0.18611017714E-01 -0.44399695352E-02  0.10206050833E+01  0.10203385146E+01 0.  0.
     999903    2    3    3    0    0 -0.28505944006E-02 -0.69826560186E-01 -0.11116460509E+00  0.13261678535E+00  0.18594836293E-01 0.  0.
         14    1    1    2    0    0  0.13340480795E-01  0.18611017714E-01  0.44399695352E-02  0.23324916670E-01  0.00000000000E+00 0.  1.
     999901    1    3    3    0    0 -0.10489886394E-01  0.51215542473E-01  0.10672463556E+00  0.88798829798E+00  0.88000000000E+00 0. -1.
        -11    1    4    4    0    0  0.77012404087E-02 -0.30842468459E-01 -0.52972609601E-01  0.61781271057E-01  0.51100000000E-03 0.  1.
         11    1    4    4    0    0 -0.10551834809E-01 -0.38984091727E-01 -0.58191995491E-01  0.70835514298E-01  0.51100000000E-03 0. -1.
</event>
<event>
 8    1  0.1061721E+005  0.1043930E+01  0.7957747E-01            NaN
         13   -1    0    0    0    0  0.00000000000E+00  0.00000000000E+00  0.74505805969E-08  0.10566000000E+00  0.10566000000E+00 0. -1.
     999900   -1    0    0    0    0 -0.00000000000E+00 -0.00000000000E+00 -0.74505805969E-08  0.93827000000E+00  0.93827000000E+00 0.  1.
     999902    2    1    2    0    0  0.22137095449E-01 -0.40812926751E-02 -0.81112720146E-02  0.10200030136E+01  0.10197223382E+01 0.  0.
     999903    2    3    3    0    0 -0.10610142013E+00 -0.63026950161E-01  0.27510280821E-01  0.12804527780E+00  0.20220529558E-01 0.  0.
         14    1    1    2    0    0 -0.22137095449E-01  0.40812926751E-02  0.81112720146E-02  0.23926986407E-01  0.00000000000E+00 0. -1.
     999901    1    3    3    0    0  0.12823851558E+00  0.58945657486E-01 -0.35621552836E-01  0.89195773579E+00  0.88000000000E+00 0.  1.
        -11    1    4    4    0    0 -0.74843670685E-01 -0.35356218188E-01  0.12686905520E-01  0.83742796101E-01  0.51100000000E-03 0. -1.
         11    1    4    4    0    0 -0.31257749446E-01 -0.27670731973E-01  0.14823375301E-01  0.44302481699E-01  0.51100000000E-03 0.  1.
</event>
<event>
 8    1  0.1061721E+005  0.1043930E+01  0.7957747E-01            NaN
         13   -1    0    0    0    0  0.00000000000E+00  0.00000000000E+00  0.74505805969E-08  0.10566000000E+00  0.10566000000E+00 0. -1.
     999900   -1    0    0    0    0 -0.00000000000E+00 -0.00000000000E+00 -0.74505805969E-08  0.93827000000E+00  0.93827000000E+00 0.  1.
     999902    2    1    2    0    0  0.21004336370E-01  0.10370034612E-01  0.27284428742E-02  0.10203468669E+01  0.10200742937E+01 0.  0.
     999903    2    3    3    0    0 -0.35979233452E-02  0.12444909999E+00  0.39026823394E-01  0.13190053949E+00  0.19342591181E-01 0.  0.
         14    1    1    2    0    0 -0.21004336370E-01 -0.10370034612E-01 -0.27284428742E-02  0.23583133056E-01  0.00000000000E+00 0. -1.
     999901    1    3    3    0    0  0.24602259716E-01 -0.11407906537E+00 -0.36298380520E-01  0.88844632745E+00  0.88000000000E+00 0. -1.
        -11    1    4    4    0    0 -0.61807407844E-02  0.99203007293E-01  0.23471604671E-01  0.10213038509E+00  0.51100000000E-03 0.  1.
         11    1    4    4    0    0  0.25828174392E-02  0.25246092692E-01  0.15555218723E-01  0.29770154395E-01  0.51100000000E-03 0. -1.
</event>
<event>
 8    1  0.1061721E+005  0.1043930E+01  0.7957747E-01            NaN
         13   -1    0    0    0    0  0.00000000000E+00  0.00000000000E+00  0.74505805969E-08  0.10566000000E+00  0.10566000000E+00 0. -1.
     999900   -1    0    0    0    0 -0.00000000000E+00 -0.00000000000E+00 -0.74505805969E-08  0.93827000000E+00  0.93827000000E+00 0. -1.
     999902    2    1    2    0    0 -0.15365309673E-01  0.12503196804E-01 -0.13719497704E-01  0.10198333760E+01  0.10195486587E+01 0.  0.
     999903    2    3    3    0    0 -0.68141700510E-01  0.10928099796E+00 -0.26059532231E-01  0.13287026138E+00  0.19742828424E-01 0.  0.
         14    1    1    2    0    0  0.15365309673E-01 -0.12503196804E-01  0.13719497704E-01  0.24096624015E-01  0.00000000000E+00 0. -1.
     999901    1    3    3    0    0  0.52776390837E-01 -0.96777801157E-01  0.12340034527E-01  0.88696311461E+00  0.88000000000E+00 0.  1.
        -11    1    4    4    0    0 -0.30166835870E-01  0.46844887720E-01 -0.13845128274E-02  0.55737415519E-01  0.51100000000E-03 0.  1.
         11    1    4    4    0    0 -0.37974864640E-01  0.62436110240E-01 -0.24675019403E-01  0.77132845856E-01  0.51100000000E-03 0. -1.
</event>
<event>
 8    1  0.1061721E+005  0.1043930E+01  0.7957747E-01            NaN
         13   -1    0    0    0    0  0.00000000000E+00  0.00000000000E+00  0.74505805969E-08  0.10566000000E+00  0.10566000000E+00 0.  1.
     999900   -1    0    0    0    0 -0.00000000000E+00 -0.00000000000E+00 -0.74505805969E-08  0.93827000000E+00  0.93827000000E+00 0.  1.
     999902    2    1    2    0    0 -0.68962021052E-02  0.18499684013E-01 -0.12631571648E-01  0.10204917297E+01  0.10202225335E+01 0.  0.
     999903    2    3    3    0    0 -0.10192315677E+00  0.82778415607E-01  0.42465256866E-02  0.13288441359E+00  0.19990958412E-01 0.  0.
         14    1    1    2    0    0  0.68962021052E-02 -0.18499684013E-01  0.12631571648E-01  0.23438270294E-01  0.00000000000E+00 0.  1.
     999901    1    3    3    0    0  0.95026954669E-01 -0.64278731594E-01 -0.16878097334E-01  0.88760731611E+00  0.88000000000E+00 0.  1.
        -11    1    4    4    0    0 -0.63470847525E-01  0.38797017402E-01  0.19408021216E-02  0.74416294443E-01  0.51100000000E-03 0.  1.
         11    1    4    4    0    0 -0.38452309249E-01  0.43981398206E-01  0.23057235650E-02  0.58468119149E-01  0.51100000000E-03 0. -1.
</event>
<event>
 8    1  0.1061721E+005  0.1043930E+01  0.7957747E-01            NaN
         13   -1    0    0    0    0  0.00000000000E+00  0.00000000000E+00  0.74505805969E-08  0.10566000000E+00  0.10566000000E+00 0.  1.
     999900   -1    0    0    0    0 -0.00000000000E+00 -0.00000000000E+00 -0.74505805969E-08  0.93827000000E+00  0.93827000000E+00 0. -1.
     999902    2    1    2    0    0 -0.18833353875E-01  0.13260701195E-01  0.44875404025E-02  0.10204634401E+01  0.10201935861E+01 0.  0.
     999903    2    3    3    0    0  0.12239810156E+00 -0.12781486922E-01 -0.31703023569E-01  0.12808780368E+00  0.16023173042E-01 0.  0.
         14    1    1    2    0    0  0.18833353875E-01 -0.13260701195E-01 -0.44875404025E-02  0.23466559894E-01  0.00000000000E+00 0.  1.
     999901    1    3    3    0    0 -0.14123145544E+00  0.26042188117E-01  0.36190563971E-01  0.89237563643E+00  0.88000000000E+00 0.  1.
        -11    1    4    4    0    0  0.55982015755E-01  0.18703374658E-02 -0.12150808515E-01  0.57318300034E-01  0.51100000000E-03 0.  1.
         11    1    4    4    0    0  0.66416085807E-01 -0.14651824388E-01 -0.19552215054E-01  0.70769503646E-01  0.51100000000E-03 0. -1.
</event>
<event>
 8    1  0.1061721E+005  0.1043930E+01  0.7957747E-01            NaN
         13   -1    0    0    0    0  0.00000000000E+00  0.00000000000E+00  0.74505805969E-08  0.10566000000E+00  0.10566000000E+00 0. -1.
     999900   -1    0    0    0    0 -0.00000000000E+00 -0.00000000000E+00 -0.74505805969E-08  0.93827000000E+00  0.93827000000E+00 0. -1.
     999902    2    1    2    0    0  0.11222478929E-02 -0.12094925945E-01 -0.20227268600E-01  0.10203357408E+01  0.10200629073E+01 0.  0.
     999903    2    3    3    0    0  0.80467687057E-01  0.96829957781E-01  0.20190258339E-01  0.12916016575E+00  0.20581848831E-01 0.  0.
         14    1    1    2    0    0 -0.11222478929E-02  0.12094925945E-01  0.20227268600E-01  0.23594259237E-01  0.00000000000E+00 0. -1.
     999901    1    3    3    0    0 -0.79345439164E-01 -0.10892488373E+00 -0.40417526939E-01  0.89117557501E+00  0.88000000000E+00 0.  1.
        -11    1    4    4    0    0  0.65405529813E-01  0.64368189112E-01  0.13649454743E-01  0.92777776625E-01  0.51100000000E-03 0.  1.
         11    1    4    4    0    0  0.15062157244E-01  0.32461768669E-01  0.65408035958E-02  0.36382389128E-01  0.51100000000E-03 0. -1.
</event>
<event>
 8    1  0.1061721E+005  0.1043930E+01  0.7957747E-01            NaN
         13   -1    0    0    0    0  0.00000000000E+00  0.00000000000E+00  0.74505805969E-08  0.10566000000E+00  0.10566000000E+00 0.  1.
     999900   -1    0    0    0    0 -0.00000000000E+00 -0.00000000000E+00 -0.74505805969E-08  0.93827000000E+00  0.93827000000E+00 0.  1.
     999902    2    1    2    0    0  0.58887725323E-02  0.21810889367E-01  0.49982058978E-02  0.10207918367E+01  0.10205295681E+01 0.  0.
     999903    2    3    3    0    0 -0.96308465460E-01 -0.11568387208E-01 -0.83319231665E-01  0.12986062652E+00  0.22639343057E-01 0.  0.
         14    1    1    2    0    0 -0.58887725323E-02 -0.21810889367E-01 -0.49982058978E-02  0.23138163261E-01  0.00000000000E+00 0.  1.
     999901    1    3    3    0    0  0.10219723799E+00  0.33379276575E-01  0.88317437562E-01  0.89093121022E+00  0.88000000000E+00 0. -1.
        -11    1    4    4    0    0 -0.55861648424E-01  0.20511285201E-02 -0.37924599869E-01  0.67551959920E-01  0.51100000000E-03 0. -1.
         11    1    4    4    0    0 -0.40446817036E-01 -0.13619515728E-01 -0.45394631795E-01  0.62308666603E-01  0.51100000000E-03 0.  1.
</event>
<event>
 8    1  0.1061721E+005  0.1043930E+01  0.7957747E-01            NaN
         13   -1    0    0    0    0  0.00000000000E+00  0.00000000000E+00  0.74505805969E-08  0.10566000000E+00  0.10566000000E+00 0.  1.
     999900   -1    0    0    0    0 -0.00000000000E+00 -0.00000000000E+00 -0.74505805969E-08  0.93827000000E+00  0.93827000000E+00 0. -1.
     999902    2    1    2    0    0  0.15191520875E-01 -0.58993317826E-02 -0.17203766801E-01  0.10202328691E+01  0.10199576232E+01 0.  0.
     999903    2    3    3    0    0 -0.73315610617E-01 -0.76223351750E-01  0.70609334114E-01  0.12866676339E+00  0.19603056535E-01 0.  0.
         14    1    1    2    0    0 -0.15191520875E-01  0.58993317826E-02  0.17203766801E-01  0.23697130926E-01  0.00000000000E+00 0.  1.
     999901    1    3    3    0    0  0.88507131492E-01  0.70324019968E-01 -0.87813100915E-01  0.89156610568E+00  0.88000000000E+00 0. -1.
        -11    1    4    4    0    0 -0.42478516676E-01 -0.30066189561E-01  0.34707822805E-01  0.62556328366E-01  0.51100000000E-03 0. -1.
         11    1    4    4    0    0 -0.30837093941E-01 -0.46157162189E-01  0.35901511309E-01  0.66110435026E-01  0.51100000000E-03 0.  1.
</event>
<event>
 8    1  0.1061721E+005  0.1043930E+01  0.7957747E-01            NaN
         13   -1    0    0    0    0  0.00000000000E+00  0.00000000000E+00  0.74505805969E-08  0.10566000000E+00  0.10566000000E+00 0. -1.
     999900   -1    0    0    0    0 -0.00000000000E+00 -0.00000000000E+00 -0.74505805969E-08  0.93827000000E+00  0.93827000000E+00 0. -1.
     999902    2    1    2    0    0  0.54428816878E-02 -0.18104068442E-01 -0.14562744023E-01  0.10200667276E+01  0.10197875627E+01 0.  0.
     999903    2    3    3    0    0 -0.14325454054E-01 -0.51681445905E-01  0.11622368391E+00  0.12954816122E+00  0.19964741104E-01 0.  0.
         14    1    1    2    0    0 -0.54428816878E-02  0.18104068442E-01  0.14562744023E-01  0.23863272380E-01  0.00000000000E+00 0. -1.
     999901    1    3    3    0    0  0.19768335742E-01  0.33577377463E-01 -0.13078642794E+00  0.89051856640E+00  0.88000000000E+00 0. -1.
        -11    1    4    4    0    0  0.16455008511E-02  0.62476400817E-03  0.12200071002E-02  0.22017132968E-02  0.51100000000E-03 0. -1.
         11    1    4    4    0    0 -0.15970954905E-01 -0.52306209913E-01  0.11500367681E+00  0.12734644792E+00  0.51100000000E-03 0.  1.
</event>
<event>
 8    1  0.1061721E+005  0.1043930E+01  0.7957747E-01            NaN
         13   -1    0    0    0    0  0.00000000000E+00  0.00000000000E+00  0.74505805969E-08  0.10566000000E+00  0.10566000000E+00 0. -1.
     999900   -1    0    0    0    0 -0.00000000000E+00 -0.00000000000E+00 -0.74505805969E-08  0.93827000000E+00  0.93827000000E+00 0. -1.
     999902    2    1    2    0    0 -0.96632119876E-02  0.76777214523E-02  0.23383140779E-01  0.10174895699E+01  0.10171459720E+01 0.  0.
     999903    2    3    3    0    0 -0.12010546555E+00  0.24026409020E-01  0.39613762283E-01  0.13028711044E+00  0.20072114912E-01 0.  0.
         14    1    1    2    0    0  0.96632119876E-02 -0.76777214523E-02 -0.23383140779E-01  0.26440430127E-01  0.00000000000E+00 0.  1.
     999901    1    3    3    0    0  0.11044225357E+00 -0.16348687568E-01 -0.16230621504E-01  0.88720245944E+00  0.88000000000E+00 0.  1.
        -11    1    4    4    0    0 -0.97281828099E-01  0.24485984335E-01  0.38416937383E-01  0.10742178413E+00  0.51100000000E-03 0. -1.
         11    1    4    4    0    0 -0.22823637454E-01 -0.45957531430E-03  0.11968249003E-02  0.22865326303E-01  0.51100000000E-03 0.  1.
</event>
<event>
 8    1  0.1061721E+005  0.1043930E+01  0.7957747E-01            NaN
         13   -1    0    0    0    0  0.00000000000E+00  0.00000000000E+00  0.74505805969E-08  0.10566000000E+00  0.10566000000E+00 0.  1.
     999900   -1    0    0    0    0 -0.00000000000E+00 -0.00000000000E+00 -0.74505805969E-08  0.93827000000E+00  0.93827000000E+00 0. -1.
     999902    2    1    2    0    0  0.13894774037E-01 -0.18430718109E-01  0.39872229336E-02  0.10205066343E+01  0.10202377843E+01 0.  0.
     999903    2    3    3    0    0 -0.69121121674E-01 -0.10026097518E+00 -0.45007015500E-01  0.13146880306E+00  0.20698360557E-01 0.  0.
         14    1    1    2    0    0 -0.13894774037E-01  0.18430718109E-01 -0.39872229336E-02  0.23423365733E-01  0.00000000000E+00 0. -1.
     999901    1    3    3    0    0  0.83015895711E-01  0.81830257068E-01  0.48994238434E-01  0.88903783120E+00  0.88000000000E+00 0.  1.
        -11    1    4    4    0    0 -0.38889714030E-01 -0.49713190465E-01 -0.33486252766E-01  0.71452091704E-01  0.51100000000E-03 0.  1.
         11    1    4    4    0    0 -0.30231407644E-01 -0.50547784712E-01 -0.11520762734E-01  0.60016711359E-01  0.51100000000E-03 0. -1.
</event>
<event>
 8    1  0.1061721E+005  0.1043930E+01  0.7957747E-01            NaN
         13   -1    0    0    0    0  0.00000000000E+00  0.00000000000E+00  0.74505805969E-08  0.10566000000E+00  0.10566000000E+00 0.  1.
     999900   -1    0    0    0    0 -0.00000000000E+00 -0.00000000000E+00 -0.74505805969E-08  0.93827000000E+00  0.93827000000E+00 0. -1.
     999902    2    1    2    0    0  0.19777240832E-01 -0.10863207146E-01 -0.10220992211E-01  0.10191587020E+01  0.10188576164E+01 0.  0.
     999903    2    3    3    0    0 -0.12271235790E+00 -0.18152791420E-01  0.19062770154E-01  0.12718675032E+00  0.20621193818E-01 0.  0.
         14    1    1    2    0    0 -0.19777240832E-01  0.10863207146E-01  0.10220992211E-01  0.24771298032E-01  0.00000000000E+00 0.  1.
     999901    1    3    3    0    0  0.14248959873E+00  0.72895842735E-02 -0.29283762365E-01  0.89197195165E+00  0.88000000000E+00 0. -1.
        -11    1    4    4    0    0 -0.74904042565E-01 -0.11272428701E-01  0.14215680097E-02  0.75762558154E-01  0.51100000000E-03 0. -1.
         11    1    4    4    0    0 -0.47808315332E-01 -0.68803627186E-02  0.17641202144E-01  0.51424192168E-01  0.51100000000E-03 0.  1.
</event>
<event>
 8    1  0.1061721E+005  0.1043930E+01  0.7957747E-01            NaN
         13   -1    0    0    0    0  0.00000000000E+00  0.00000000000E+00  0.74505805969E-08  0.10566000000E+00  0.10566000000E+00 0. -1.
     999900   -1    0    0    0    0 -0.00000000000E+00 -0.00000000000E+00 -0.74505805969E-08  0.93827000000E+00  0.93827000000E+00 0. -1.
     999902    2    1    2    0    0  0.31842211747E-02  0.14354148379E-01 -0.18145686243E-01  0.10205751982E+01  0.10203079380E+01 0.  0.
     999903    2    3    3    0    0  0.59584714700E-01  0.11598545580E+00 -0.13711947870E-01  0.13292121356E+00  0.21841870775E-01 0.  0.
         14    1    1    2    0    0 -0.31842211747E-02 -0.14354148379E-01  0.18145686243E-01  0.23354801849E-01  0.00000000000E+00 0. -1.
     999901    1    3    3    0    0 -0.56400493525E-01 -0.10163130742E+00 -0.44337383734E-02  0.88765398459E+00  0.88000000000E+00 0.  1.
        -11    1    4    4    0    0  0.39034525290E-01  0.91274253501E-01 -0.16590805009E-01  0.10064889194E+00  0.51100000000E-03 0. -1.
         11    1    4    4    0    0  0.20550189410E-01  0.24711202294E-01  0.28788571384E-02  0.32272321624E-01  0.51100000000E-03 0.  1.
</event>
<event>
 8    1  0.1061721E+005  0.1043930E+01  0.7957747E-01            NaN
         13   -1    0    0    0    0  0.00000000000E+00  0.00000000000E+00  0.74505805969E-08  0.10566000000E+00  0.10566000000E+00 0.  1.
     999900   -1    0    0    0    0 -0.00000000000E+00 -0.00000000000E+00 -0.74505805969E-08  0.93827000000E+00  0.93827000000E+00 0. -1.
     999902    2    1    2    0    0  0.53550270664E-02  0.20213735873E-01 -0.95597384691E-02  0.10209373918E+01  0.10206784498E+01 0.  0.
     999903    2    3    3    0    0 -0.10511370904E+00  0.60513719709E-01 -0.48418607214E-01  0.13226566273E+00  0.20953326968E-01 0.  0.
         14    1    1    2    0    0 -0.53550270664E-02 -0.20213735873E-01  0.95597384691E-02  0.22992608213E-01  0.00000000000E+00 0.  1.
     999901    1    3    3    0    0  0.11046873610E+00 -0.40299983836E-01  0.38858868745E-01  0.88867172906E+00  0.88000000000E+00 0.  1.
        -11    1    4    4    0    0 -0.66910927563E-01  0.48802542605E-01 -0.36977592972E-01  0.90699304821E-01  0.51100000000E-03 0. -1.
         11    1    4    4    0    0 -0.38202781474E-01  0.11711177104E-01 -0.11441014242E-01  0.41566357904E-01  0.51100000000E-03 0.  1.
</event>
<event>
 7    1  0.1061721E+005  0.1043930E+01  0.7957747E-01            NaN
         13   -1    0    0    0    0  0.00000000000E+00  0.00000000000E+00  0.74505805969E-08  0.10566000000E+00  0.10566000000E+00 0.  1.
     999900   -1    0    0    0    0 -0.00000000000E+00 -0.00000000000E+00 -0.74505805969E-08  0.93827000000E+00  0.93827000000E+00 0. -1.
     999902    2    1    2    0    0  0.10701273986E-01  0.20915000220E-03 -0.30860734243E-02  0.10327906617E+01  0.10327305873E+01 0.  0.
         14    1    1    2    0    0 -0.10701273986E-01 -0.20915000220E-03  0.30860734243E-02  0.11139338303E-01  0.00000000000E+00 0.  1.
     999901    1    3    3    0    0  0.19529659063E-01  0.31079059444E-01  0.13102370064E+00  0.89045748110E+00  0.88000000000E+00 0.  1.
        -11    1    3    3    0    0 -0.16578050409E-01 -0.59353355660E-02 -0.28192041027E-01  0.33243228813E-01  0.51100000000E-03 0.  1.
         11    1    3    3    0    0  0.77496653318E-02 -0.24934573876E-01 -0.10591773304E+00  0.10908995178E+00  0.51100000000E-03 0. -1.
</event>
<event>
 8    1  0.1061721E+005  0.1043930E+01  0.7957747E-01            NaN
         13   -1    0    0    0    0  0.00000000000E+00  0.00000000000E+00  0.74505805969E-08  0.10566000000E+00  0.10566000000E+00 0.  1.
     999900   -1    0    0    0    0 -0.00000000000E+00 -0.00000000000E+00 -0.74505805969E-08  0.93827000000E+00  0.93827000000E+00 0.  1.
     999902    2    1    2    0    0  0.22821628781E-01 -0.40438425919E-02 -0.64342999527E-02  0.10198763180E+01  0.10195926267E+01 0.  0.
     999903    2    3    3    0    0 -0.46873079792E-01 -0.96223931309E-01 -0.71155705487E-01  0.12996431025E+00  0.19273218448E-01 0.  0.
         14    1    1    2    0    0 -0.22821628781E-01  0.40438425919E-02  0.64342999527E-02  0.24053682026E-01  0.00000000000E+00 0. -1.
     999901    1    3    3    0    0  0.69694708573E-01  0.92180088717E-01  0.64721405534E-01  0.88991200773E+00  0.88000000000E+00 0. -1.
        -11    1    4    4    0    0 -0.14401905385E-01 -0.51457718245E-01 -0.35934988369E-01  0.64396398624E-01  0.51100000000E-03 0.  1.
         11    1    4    4    0    0 -0.32471174408E-01 -0.44766213064E-01 -0.35220717118E-01  0.65567911625E-01  0.51100000000E-03 0. -1.
</event>
<event>
 8    1  0.1061721E+005  0.1043930E+01  0.7957747E-01            NaN
         13   -1    0    0    0    0  0.00000000000E+00  0.00000000000E+00  0.74505805969E-08  0.10566000000E+00  0.10566000000E+00 0. -1.
     999900   -1    0    0    0    0 -0.00000000000E+00 -0.00000000000E+00 -0.74505805969E-08  0.93827000000E+00  0.93827000000E+00 0.  1.
     999902    2    1    2    0    0  0.63348681736E-02  0.20710867549E-01  0.13136957135E-01  0.10185991841E+01  0.10182841684E+01 0.  0.
     999903    2    3    3    0    0  0.29971018950E-01 -0.12056239099E+00 -0.13401767548E-01  0.12662322868E+00  0.20500794416E-01 0.  0.
         14    1    1    2    0    0 -0.63348681736E-02 -0.20710867549E-01 -0.13136957135E-01  0.25330815861E-01  0.00000000000E+00 0. -1.
     999901    1    3    3    0    0 -0.23636150776E-01  0.14127325854E+00  0.26538724683E-01  0.89197595545E+00  0.88000000000E+00 0.  1.
        -11    1    4    4    0    0  0.14010480615E-01 -0.38507311021E-01  0.42031568117E-02  0.41195075159E-01  0.51100000000E-03 0.  1.
         11    1    4    4    0    0  0.15960538335E-01 -0.82055079965E-01 -0.17604924359E-01  0.85428153525E-01  0.51100000000E-03 0. -1.
</event>
<event>
 7    1  0.1061721E+005  0.1043930E+01  0.7957747E-01            NaN
         13   -1    0    0    0    0  0.00000000000E+00  0.00000000000E+00  0.74505805969E-08  0.10566000000E+00  0.10566000000E+00 0.  1.
     999900   -1    0    0    0    0 -0.00000000000E+00 -0.00000000000E+00 -0.74505805969E-08  0.93827000000E+00  0.93827000000E+00 0.  1.
     999902    2    1    2    0    0 -0.21797208709E-01 -0.69330508773E-02 -0.28371443327E-02  0.10208814666E+01  0.10206212491E+01 0.  0.
         14    1    1    2    0    0  0.21797208709E-01  0.69330508773E-02  0.28371443327E-02  0.23048533358E-01  0.00000000000E+00 0. -1.
     999901    1    3    3    0    0  0.51806689589E-01 -0.11542522133E+00 -0.15249128314E-01  0.88917908810E+00  0.88000000000E+00 0.  1.
        -11    1    3    3    0    0 -0.36671480910E-01  0.53324388585E-01  0.67736564914E-02  0.65072509352E-01  0.51100000000E-03 0. -1.
         11    1    3    3    0    0 -0.36932417388E-01  0.55167781866E-01  0.56383274895E-02  0.66629869188E-01  0.51100000000E-03 0.  1.
</event>
<event>
 8    1  0.1061721E+005  0.1043930E+01  0.7957747E-01            NaN
         13   -1    0    0    0    0  0.00000000000E+00  0.00000000000E+00  0.74505805969E-08  0.10566000000E+00  0.10566000000E+00 0. -1.
     999900   -1    0    0    0    0 -0.00000000000E+00 -0.00000000000E+00 -0.74505805969E-08  0.93827000000E+00  0.93827000000E+00 0.  1.
     999902    2    1    2    0    0 -0.38642733516E-02 -0.12881384486E-01 -0.19535742456E-01  0.10202127508E+01  0.10199370319E+01 0.  0.
     999903    2    3    3    0    0  0.72609482127E-01  0.52407278608E-02 -0.10866331277E+00  0.13222605610E+00  0.19401346508E-01 0.  0.
         14    1    1    2    0    0  0.38642733516E-02  0.12881384486E-01  0.19535742456E-01  0.23717249169E-01  0.00000000000E+00 0. -1.
     999901    1    3    3    0    0 -0.76473755479E-01 -0.18122112346E-01  0.89127570312E-01  0.88798669473E+00  0.88000000000E+00 0. -1.
        -11    1    4    4    0    0  0.22127253592E-01  0.10415975641E-01 -0.39021509693E-01  0.46054828627E-01  0.51100000000E-03 0.  1.
         11    1    4    4    0    0  0.50482228535E-01 -0.51752477806E-02 -0.69641803075E-01  0.86171227472E-01  0.51100000000E-03 0. -1.
</event>
<event>
 8    1  0.1061721E+005  0.1043930E+01  0.7957747E-01            NaN
         13   -1    0    0    0    0  0.00000000000E+00  0.00000000000E+00  0.74505805969E-08  0.10566000000E+00  0.10566000000E+00 0.  1.
     999900   -1    0    0    0    0 -0.00000000000E+00 -0.00000000000E+00 -0.74505805969E-08  0.93827000000E+00  0.93827000000E+00 0.  1.
     999902    2    1    2    0    0  0.28199136510E-02 -0.18330921271E-01  0.14731542281E-01  0.10202447108E+01  0.10199697431E+01 0.  0.
     999903    2    3    3    0    0 -0.62845263304E-01 -0.10571454947E+00 -0.42807156063E-01  0.13161738971E+00  0.19120449079E-01 0.  0.
         14    1    1    2    0    0 -0.28199136510E-02  0.18330921271E-01 -0.14731542281E-01  0.23685289224E-01  0.00000000000E+00 0. -1.
     999901    1    3    3    0    0  0.65665176954E-01  0.87383628202E-01  0.57538698344E-01  0.88862732107E+00  0.88000000000E+00 0. -1.
        -11    1    4    4    0    0 -0.26965797490E-01 -0.63888540172E-01 -0.23304259598E-01  0.73159069404E-01  0.51100000000E-03 0.  1.
         11    1    4    4    0    0 -0.35879465814E-01 -0.41826009301E-01 -0.19502896464E-01  0.58458320303E-01  0.51100000000E-03 0. -1.
</event>
<event>
 8    1  0.1061721E+005  0.1043930E+01  0.7957747E-01            NaN
         13   -1    0    0    0    0  0.00000000000E+00  0.00000000000E+00  0.74505805969E-08  0.10566000000E+00  0.10566000000E+00 0.  1.
     999900   -1    0    0    0    0 -0.00000000000E+00 -0.00000000000E+00 -0.74505805969E-08  0.93827000000E+00  0.93827000000E+00 0. -1.
     999902    2    1    2    0    0 -0.58991941538E-02 -0.58115102819E-02  0.23566799024E-01  0.10189506453E+01  0.10186444176E+01 0.  0.
     999903    2    3    3    0    0 -0.10283523409E+00  0.11143097636E-01 -0.73089959095E-01  0.12820568550E+00  0.19882195042E-01 0.  0.
         14    1    1    2    0    0  0.58991941538E-02  0.58115102819E-02 -0.23566799024E-01  0.24979354669E-01  0.00000000000E+00 0. -1.
     999901    1    3    3    0    0  0.96936039937E-01 -0.16954607918E-01  0.96656758119E-01  0.89074495983E+00  0.88000000000E+00 0.  1.
        -11    1    4    4    0    0 -0.77301372131E-01  0.16950285580E-01 -0.54804232985E-01  0.96263073858E-01  0.51100000000E-03 0.  1.
         11    1    4    4    0    0 -0.25533861959E-01 -0.58071879439E-02 -0.18285726110E-01  0.31942611646E-01  0.51100000000E-03 0. -1.
</event>
<event>
 8    1  0.1061721E+005  0.1043930E+01  0.7957747E-01            NaN
         13   -1    0    0    0    0  0.00000000000E+00  0.00000000000E+00  0.74505805969E-08  0.10566000000E+00  0.10566000000E+00 0.  1.
     999900   -1    0    0    0    0 -0.00000000000E+00 -0.00000000000E+00 -0.74505805969E-08  0.93827000000E+00  0.93827000000E+00 0. -1.
     999902    2    1    2    0    0 -0.60699913251E-02 -0.16280145479E-01 -0.15887524230E-01  0.10203863945E+01  0.10201147449E+01 0.  0.
     999903    2    3    3    0    0  0.65494734616E-01 -0.91834322635E-01  0.62966154746E-01  0.13075284843E+00  0.20210582715E-01 0.  0.
         14    1    1    2    0    0  0.60699913251E-02  0.16280145479E-01  0.15887524230E-01  0.23543605452E-01  0.00000000000E+00 0.  1.
     999901    1    3    3    0    0 -0.71564725941E-01  0.75554177156E-01 -0.78853678976E-01  0.88963354611E+00  0.88000000000E+00 0. -1.
        -11    1    4    4    0    0  0.18990440109E-01 -0.18277944619E-01  0.23014151952E-01  0.34994747979E-01  0.51100000000E-03 0.  1.
         11    1    4    4    0    0  0.46504294506E-01 -0.73556378016E-01  0.39952002794E-01  0.95758100454E-01  0.51100000000E-03 0. -1.
</event>
<event>
 8    1  0.1061721E+005  0.1043930E+01  0.7957747E-01            NaN
         13   -1    0    0    0    0  0.00000000000E+00  0.00000000000E+00  0.74505805969E-08  0.10566000000E+00  0.10566000000E+00 0. -1.
     999900   -1    0    0    0    0 -0.00000000000E+00 -0.00000000000E+00 -0.74505805969E-08  0.93827000000E+00  0.93827000000E+00 0.  1.
     999902    2    1    2    0    0 -0.28413852161E-02  0.19812618136E-01  0.13395215714E-01  0.10198458743E+01  0.10195614558E+01 0.  0.
     999903    2    3    3    0    0 -0.55287344010E-01  0.10317091095E+00 -0.57034976373E-01  0.13155560893E+00  0.18787294580E-01 0.  0.
         14    1    1    2    0    0  0.28413852161E-02 -0.19812618136E-01 -0.13395215714E-01  0.24084125713E-01  0.00000000000E+00 0. -1.
     999901    1    3    3    0    0  0.52445958793E-01 -0.83358292809E-01  0.70430192087E-01  0.88829026536E+00  0.88000000000E+00 0. -1.
        -11    1    4    4    0    0 -0.13992906699E-01  0.32107644822E-01 -0.82871633439E-02  0.35995006476E-01  0.51100000000E-03 0. -1.
         11    1    4    4    0    0 -0.41294437311E-01  0.71063266123E-01 -0.48747813029E-01  0.95560602452E-01  0.51100000000E-03 0.  1.
</event>
<event>
 8    1  0.1061721E+005  0.1043930E+01  0.7957747E-01            NaN
         13   -1    0    0    0    0  0.00000000000E+00  0.00000000000E+00  0.74505805969E-08  0.10566000000E+00  0.10566000000E+00 0.  1.
     999900   -1    0    0    0    0 -0.00000000000E+00 -0.00000000000E+00 -0.74505805969E-08  0.93827000000E+00  0.93827000000E+00 0. -1.
     999902    2    1    2    0    0  0.65856087190E-02  0.69377842449E-02 -0.22249359701E-01  0.10197114720E+01  0.10194238319E+01 0.  0.
     999903    2    3    3    0    0  0.35186701120E-01  0.53863110706E-01 -0.11429706368E+00  0.13320552809E+00  0.23249845493E-01 0.  0.
         14    1    1    2    0    0 -0.65856087190E-02 -0.69377842449E-02  0.22249359701E-01  0.24218528021E-01  0.00000000000E+00 0.  1.
     999901    1    3    3    0    0 -0.28601092401E-01 -0.46925326461E-01  0.92047703982E-01  0.88650594389E+00  0.88000000000E+00 0.  1.
        -11    1    4    4    0    0  0.21075765685E-01  0.12173337316E-01 -0.43152305351E-01  0.49545540856E-01  0.51100000000E-03 0. -1.
         11    1    4    4    0    0  0.14110935435E-01  0.41689773390E-01 -0.71144758331E-01  0.83659987229E-01  0.51100000000E-03 0.  1.
</event>
<event>
 8    1  0.1061721E+005  0.1043930E+01  0.7957747E-01            NaN
         13   -1    0    0    0    0  0.00000000000E+00  0.00000000000E+00  0.74505805969E-08  0.10566000000E+00  0.10566000000E+00 0. -1.
     999900   -1    0    0    0    0 -0.00000000000E+00 -0.00000000000E+00 -0.74505805969E-08  0.93827000000E+00  0.93827000000E+00 0. -1.
     999902    2    1    2    0    0 -0.22216036277E-01 -0.29747588103E-02  0.29032325545E-02  0.10213284466E+01  0.10210783347E+01 0.  0.
     999903    2    3    3    0    0 -0.11112379980E+00 -0.68435500940E-02  0.72163951573E-01  0.13413252393E+00  0.19712052386E-01 0.  0.
         14    1    1    2    0    0  0.22216036277E-01  0.29747588103E-02 -0.29032325545E-02  0.22601553422E-01  0.00000000000E+00 0. -1.
     999901    1    3    3    0    0  0.88907763525E-01  0.38687912837E-02 -0.69260719018E-01  0.88719592265E+00  0.88000000000E+00 0. -1.
        -11    1    4    4    0    0 -0.43048664698E-01  0.10404305279E-02  0.38561172179E-01  0.57805667100E-01  0.51100000000E-03 0. -1.
         11    1    4    4    0    0 -0.68075135104E-01 -0.78839806219E-02  0.33602779394E-01  0.76326856832E-01  0.51100000000E-03 0.  1.
</event>
<event>
 8    1  0.1061721E+005  0.1043930E+01  0.7957747E-01            NaN
         13   -1    0    0    0    0  0.00000000000E+00  0.00000000000E+00  0.74505805969E-08  0.10566000000E+00  0.10566000000E+00 0. -1.
     999900   -1    0    0    0    0 -0.00000000000E+00 -0.00000000000E+00 -0.74505805969E-08  0.93827000000E+00  0.93827000000E+00 0. -1.
     999902    2    1    2    0    0  0.16705248531E-01 -0.86906359940E-03  0.17351965481E-01  0.10198278983E+01  0.10195430500E+01 0.  0.
     999903    2    3    3    0    0 -0.10491711909E+00 -0.36412639605E-01  0.63857579900E-01  0.12953686821E+00  0.19197070404E-01 0.  0.
         14    1    1    2    0    0 -0.16705248531E-01  0.86906359940E-03 -0.17351965481E-01  0.24102101694E-01  0.00000000000E+00 0.  1.
     999901    1    3    3    0    0  0.12162236763E+00  0.35543576005E-01 -0.46505614419E-01  0.89029103010E+00  0.88000000000E+00 0.  1.
        -11    1    4    4    0    0 -0.18071914174E-01 -0.53264126810E-02  0.31472785407E-02  0.19108407499E-01  0.51100000000E-03 0.  1.
         11    1    4    4    0    0 -0.86845204921E-01 -0.31086226924E-01  0.60710301359E-01  0.11042846071E+00  0.51100000000E-03 0. -1.
</event>
<event>
 8    1  0.1061721E+005  0.1043930E+01  0.7957747E-01            NaN
         13   -1    0    0    0    0  0.00000000000E+00  0.00000000000E+00  0.74505805969E-08  0.10566000000E+00  0.10566000000E+00 0. -1.
     999900   -1    0    0    0    0 -0.00000000000E+00 -0.00000000000E+00 -0.74505805969E-08  0.93827000000E+00  0.93827000000E+00 0. -1.
     999902    2    1    2    0    0  0.10450335177E-01  0.14672135413E-01 -0.70708363240E-02  0.10245785714E+01  0.10243958079E+01 0.  0.
     999903    2    3    3    0    0 -0.70340435016E-01  0.74186291207E-01 -0.86346400870E-01  0.13533524225E+00  0.20212477592E-01 0.  0.
         14    1    1    2    0    0 -0.10450335177E-01 -0.14672135413E-01  0.70708363240E-02  0.19351428609E-01  0.00000000000E+00 0. -1.
     999901    1    3    3    0    0  0.80790770192E-01 -0.59514155794E-01  0.79275564546E-01  0.88924332914E+00  0.88000000000E+00 0.  1.
        -11    1    4    4    0    0 -0.36158355190E-01  0.23831621009E-01 -0.34063024238E-01  0.55099215523E-01  0.51100000000E-03 0. -1.
         11    1    4    4    0    0 -0.34182079825E-01  0.50354670197E-01 -0.52283376632E-01  0.80236026727E-01  0.51100000000E-03 0.  1.
</event>
<event>
 8    1  0.1061721E+005  0.1043930E+01  0.7957747E-01            NaN
         13   -1    0    0    0    0  0.00000000000E+00  0.00000000000E+00  0.74505805969E-08  0.10566000000E+00  0.10566000000E+00 0. -1.
     999900   -1    0    0    0    0 -0.00000000000E+00 -0.00000000000E+00 -0.74505805969E-08  0.93827000000E+00  0.93827000000E+00 0.  1.
     999902    2    1    2    0    0 -0.15388187114E-01 -0.80438407927E-02 -0.14509370284E-01  0.10213021078E+01  0.10210514061E+01 0.  0.
     999903    2    3    3    0    0 -0.85255884112E-01  0.98022425633E-01 -0.12256126430E-01  0.13218084218E+00  0.21085556676E-01 0.  0.
         14    1    1    2    0    0  0.15388187114E-01  0.80438407927E-02  0.14509370284E-01  0.22627892156E-01  0.00000000000E+00 0. -1.
     999901    1    3    3    0    0  0.69867696997E-01 -0.10606626643E+00 -0.22532438549E-02  0.88912126567E+00  0.88000000000E+00 0.  1.
        -11    1    4    4    0    0 -0.56849617639E-01  0.54547623672E-01  0.13437441214E-03  0.78788333219E-01  0.51100000000E-03 0.  1.
         11    1    4    4    0    0 -0.28406266473E-01  0.43474801961E-01 -0.12390500842E-01  0.53392508956E-01  0.51100000000E-03 0. -1.
</event>
<event>
 8    1  0.1061721E+005  0.1043930E+01  0.7957747E-01            NaN
         13   -1    0    0    0    0  0.00000000000E+00  0.00000000000E+00  0.74505805969E-08  0.10566000000E+00  0.10566000000E+00 0. -1.
     999900   -1    0    0    0    0 -0.00000000000E+00 -0.00000000000E+00 -0.74505805969E-08  0.93827000000E+00  0.93827000000E+00 0.  1.
     999902    2    1    2    0    0 -0.10002910966E-01  0.21537295618E-01 -0.58412700419E-03  0.10201759575E+01  0.10198993724E+01 0.  0.
     999903    2    3    3    0    0  0.11479787236E+00  0.42695089320E-01 -0.39694872554E-01  0.13025880509E+00  0.19754777785E-01 0.  0.
         14    1    1    2    0    0  0.10002910966E-01 -0.21537295618E-01  0.58412700419E-03  0.23754042492E-01  0.00000000000E+00 0.  1.
     999901    1    3    3    0    0 -0.12480078333E+00 -0.21157793702E-01  0.39110745550E-01  0.88991715242E+00  0.88000000000E+00 0. -1.
        -11    1    4    4    0    0  0.75360127598E-01  0.26008955808E-01 -0.15993682212E-01  0.81312198381E-01  0.51100000000E-03 0. -1.
         11    1    4    4    0    0  0.39437744763E-01  0.16686133512E-01 -0.23701190342E-01  0.48946606707E-01  0.51100000000E-03 0.  1.
</event>
<event>
 8    1  0.1061721E+005  0.1043930E+01  0.7957747E-01            NaN
         13   -1    0    0    0    0  0.00000000000E+00  0.00000000000E+00  0.74505805969E-08  0.10566000000E+00  0.10566000000E+00 0.  1.
     999900   -1    0    0    0    0 -0.00000000000E+00 -0.00000000000E+00 -0.74505805969E-08  0.93827000000E+00  0.93827000000E+00 0.  1.
     999902    2    1    2    0    0 -0.20800452403E-01  0.17211759273E-02  0.98403099728E-02  0.10208550576E+01  0.10205942365E+01 0.  0.
     999903    2    3    3    0    0  0.85804255863E-01  0.14763074944E-02 -0.93491322423E-01  0.12841903746E+00  0.19653803820E-01 0.  0.
         14    1    1    2    0    0  0.20800452403E-01 -0.17211759273E-02 -0.98403099728E-02  0.23074942407E-01  0.00000000000E+00 0.  1.
     999901    1    3    3    0    0 -0.10660470827E+00  0.24486843286E-03  0.10333163240E+00  0.89243602014E+00  0.88000000000E+00 0. -1.
        -11    1    4    4    0    0  0.47749379828E-01 -0.73851562827E-02 -0.59318778231E-01  0.76508315751E-01  0.51100000000E-03 0.  1.
         11    1    4    4    0    0  0.38054876034E-01  0.88614637771E-02 -0.34172544192E-01  0.51910721704E-01  0.51100000000E-03 0. -1.
</event>
<event>
 8    1  0.1061721E+005  0.1043930E+01  0.7957747E-01            NaN
         13   -1    0    0    0    0  0.00000000000E+00  0.00000000000E+00  0.74505805969E-08  0.10566000000E+00  0.10566000000E+00 0.  1.
     999900   -1    0    0    0    0 -0.00000000000E+00 -0.00000000000E+00 -0.74505805969E-08  0.93827000000E+00  0.93827000000E+00 0.  1.
     999902    2    1    2    0    0  0.62878041875E-02  0.21566132151E-01  0.87279488530E-02  0.10198299662E+01  0.10195451674E+01 0.  0.
     999903    2    3    3    0    0 -0.10197402822E+00  0.20287341021E-01  0.76296405519E-01  0.13062371567E+00  0.20763789693E-01 0.  0.
         14    1    1    2    0    0 -0.62878041875E-02 -0.21566132151E-01 -0.87279488530E-02  0.24100033789E-01  0.00000000000E+00 0. -1.
     999901    1    3    3    0    0  0.10826183241E+00  0.12787911303E-02 -0.67568456666E-01  0.88920625054E+00  0.88000000000E+00 0.  1.
        -11    1    4    4    0    0 -0.52548409795E-01  0.14313842054E-02  0.44687536613E-01  0.68997255614E-01  0.51100000000E-03 0. -1.
         11    1    4    4    0    0 -0.49425618430E-01  0.18855956816E-01  0.31608868905E-01  0.61626460056E-01  0.51100000000E-03 0.  1.
</event>
<event>
 8    1  0.1061721E+005  0.1043930E+01  0.7957747E-01            NaN
         13   -1    0    0    0    0  0.00000000000E+00  0.00000000000E+00  0.74505805969E-08  0.10566000000E+00  0.10566000000E+00 0.  1.
     999900   -1    0    0    0    0 -0.00000000000E+00 -0.00000000000E+00 -0.74505805969E-08  0.93827000000E+00  0.93827000000E+00 0. -1.
     999902    2    1    2    0    0  0.15679507400E-01 -0.80385104612E-03 -0.15866038845E-01  0.10216090610E+01  0.10213651890E+01 0.  0.
     999903    2    3    3    0    0 -0.54040203586E-01  0.11504714710E+00 -0.25216973419E-01  0.13123288666E+00  0.20736082872E-01 0.  0.
         14    1    1    2    0    0 -0.15679507400E-01  0.80385104612E-03  0.15866038845E-01  0.22320938991E-01  0.00000000000E+00 0. -1.
     999901    1    3    3    0    0  0.69719710986E-01 -0.11585099815E+00  0.93509345733E-02  0.89037617435E+00  0.88000000000E+00 0. -1.
        -11    1    4    4    0    0 -0.14006047774E-02  0.14857839285E-01 -0.73872840918E-02  0.16659837011E-01  0.51100000000E-03 0.  1.
         11    1    4    4    0    0 -0.52639598808E-01  0.10018930782E+00 -0.17829689327E-01  0.11457304965E+00  0.51100000000E-03 0. -1.
</event>
<event>
 8    1  0.1061721E+005  0.1043930E+01  0.7957747E-01            NaN
         13   -1    0    0    0    0  0.00000000000E+00  0.00000000000E+00  0.74505805969E-08  0.10566000000E+00  0.10566000000E+00 0. -1.
     999900   -1    0    0    0    0 -0.00000000000E+00 -0.00000000000E+00 -0.74505805969E-08  0.93827000000E+00  0.93827000000E+00 0.  1.
     999902    2    1    2    0    0 -0.22630171511E-01  0.72720787410E-02  0.56286325056E-02  0.10195027755E+01  0.10192100961E+01 0.  0.
     999903    2    3    3    0    0 -0.26718881666E-01 -0.44438280479E-01 -0.11708393711E+00  0.12947521778E+00  0.19144823846E-01 0.  0.
         14    1    1    2    0    0  0.22630171511E-01 -0.72720787410E-02 -0.56286325056E-02  0.24427224478E-01  0.00000000000E+00 0.  1.
     999901    1    3    3    0    0  0.40887101546E-02  0.51710359220E-01  0.12271256962E+00  0.89002755774E+00  0.88000000000E+00 0. -1.
        -11    1    4    4    0    0 -0.83950374665E-02 -0.20689355787E-01 -0.71482685646E-01  0.74890330251E-01  0.51100000000E-03 0.  1.
         11    1    4    4    0    0 -0.18323844199E-01 -0.23748924692E-01 -0.45601251464E-01  0.54584887527E-01  0.51100000000E-03 0. -1.
</event>
<event>
 8    1  0.1061721E+005  0.1043930E+01  0.7957747E-01            NaN
         13   -1    0    0    0    0  0.00000000000E+00  0.00000000000E+00  0.74505805969E-08  0.10566000000E+00  0.10566000000E+00 0. -1.
     999900   -1    0    0    0    0 -0.00000000000E+00 -0.00000000000E+00 -0.74505805969E-08  0.93827000000E+00  0.93827000000E+00 0. -1.
     999902    2    1    2    0    0 -0.11149588414E-01  0.16639494316E-01  0.12901854617E-01  0.10201047205E+01  0.10198264542E+01 0.  0.
     999903    2    3    3    0    0 -0.36821062087E-01  0.12296103167E+00  0.29272364807E-01  0.13318235211E+00  0.20136078306E-01 0.  0.
         14    1    1    2    0    0  0.11149588414E-01 -0.16639494316E-01 -0.12901854617E-01  0.23825279546E-01  0.00000000000E+00 0.  1.
     999901    1    3    3    0    0  0.25671473672E-01 -0.10632153735E+00 -0.16370510190E-01  0.88692236834E+00  0.88000000000E+00 0.  1.
        -11    1    4    4    0    0 -0.35122933977E-02  0.45071921154E-01  0.10062209600E-01  0.46317636646E-01  0.51100000000E-03 0. -1.
         11    1    4    4    0    0 -0.33308768689E-01  0.77889110516E-01  0.19210155207E-01  0.86864715464E-01  0.51100000000E-03 0.  1.
</event>
<event>
 8    1  0.1071431E+005  0.1043930E+01  0.7957747E-01            NaN
         13   -1    0    0    0    0  0.00000000000E+00  0.00000000000E+00  0.74505805969E-08  0.10566000000E+00  0.10566000000E+00 0. -1.
     999900   -1    0    0    0    0 -0.00000000000E+00 -0.00000000000E+00 -0.74505805969E-08  0.93827000000E+00  0.93827000000E+00 0. -1.
     999902    2    1    2    0    0 -0.12804778608E-01 -0.45982091047E-03  0.20764785911E-01  0.10195302024E+01  0.10192381878E+01 0.  0.
     999903    2    3    3    0    0 -0.51326283890E-01 -0.13937558732E-02  0.12109118512E+00  0.13299189807E+00  0.19683492229E-01 0.  0.
         14    1    1    2    0    0  0.12804778608E-01  0.45982091047E-03 -0.20764785911E-01  0.24399797631E-01  0.00000000000E+00 0.  1.
     999901    1    3    3    0    0  0.38521505282E-01  0.93393496273E-03 -0.10032639921E+00  0.88653830429E+00  0.88000000000E+00 0. -1.
        -11    1    4    4    0    0 -0.20386103395E-01  0.48633113373E-02  0.68661937130E-01  0.71791139706E-01  0.51100000000E-03 0.  1.
         11    1    4    4    0    0 -0.30940180495E-01 -0.62570672105E-02  0.52429247990E-01  0.61200758369E-01  0.51100000000E-03 0. -1.
</event>
<event>
 8    1  0.1061721E+005  0.1043930E+01  0.7957747E-01            NaN
         13   -1    0    0    0    0  0.00000000000E+00  0.00000000000E+00  0.74505805969E-08  0.10566000000E+00  0.10566000000E+00 0. -1.
     999900   -1    0    0    0    0 -0.00000000000E+00 -0.00000000000E+00 -0.74505805969E-08  0.93827000000E+00  0.93827000000E+00 0.  1.
     999902    2    1    2    0    0  0.14745096857E-01  0.45655545727E-02 -0.17669541296E-01  0.10204677993E+01  0.10201980468E+01 0.  0.
     999903    2    3    3    0    0  0.10963487749E+00 -0.36134302893E-01  0.58958059339E-01  0.13112403114E+00  0.19798095195E-01 0.  0.
         14    1    1    2    0    0 -0.14745096857E-01 -0.45655545727E-02  0.17669541296E-01  0.23462200653E-01  0.00000000000E+00 0.  1.
     999901    1    3    3    0    0 -0.94889780636E-01  0.40699857466E-01 -0.76627600635E-01  0.88934376821E+00  0.88000000000E+00 0.  1.
        -11    1    4    4    0    0  0.92484196141E-01 -0.34918961810E-01  0.43529815096E-01  0.10801743541E+00  0.51100000000E-03 0.  1.
         11    1    4    4    0    0  0.17150681352E-01 -0.12153410833E-02  0.15428244243E-01  0.23106595729E-01  0.51100000000E-03 0. -1.
</event>
<event>
 8    1  0.1061721E+005  0.1043930E+01  0.7957747E-01            NaN
         13   -1    0    0    0    0  0.00000000000E+00  0.00000000000E+00  0.74505805969E-08  0.10566000000E+00  0.10566000000E+00 0. -1.
     999900   -1    0    0    0    0 -0.00000000000E+00 -0.00000000000E+00 -0.74505805969E-08  0.93827000000E+00  0.93827000000E+00 0.  1.
     999902    2    1    2    0    0 -0.26079355663E-01  0.19498647506E-01 -0.17378239143E-01  0.10070202013E+01  0.10063435559E+01 0.  0.
     999903    2    3    3    0    0 -0.28299513730E-01 -0.46387025003E-01 -0.10543251189E+00  0.12017218391E+00  0.19305974670E-01 0.  0.
         14    1    1    2    0    0  0.26079355663E-01 -0.19498647506E-01  0.17378239143E-01  0.36909798727E-01  0.00000000000E+00 0.  1.
     999901    1    3    3    0    0  0.22201580666E-02  0.65885672509E-01  0.88054272744E-01  0.88684801736E+00  0.88000000000E+00 0. -1.
        -11    1    4    4    0    0 -0.61096230615E-02 -0.17109720088E-01 -0.53915267947E-01  0.56896285065E-01  0.51100000000E-03 0. -1.
         11    1    4    4    0    0 -0.22189890669E-01 -0.29277304915E-01 -0.51517243940E-01  0.63275898849E-01  0.51100000000E-03 0.  1.
</event>
<event>
 8    1  0.1061721E+005  0.1043930E+01  0.7957747E-01            NaN
         13   -1    0    0    0    0  0.00000000000E+00  0.00000000000E+00  0.74505805969E-08  0.10566000000E+00  0.10566000000E+00 0.  1.
     999900   -1    0    0    0    0 -0.00000000000E+00 -0.00000000000E+00 -0.74505805969E-08  0.93827000000E+00  0.93827000000E+00 0.  1.
     999902    2    1    2    0    0 -0.28945232807E-03  0.16172176045E-01  0.16200879072E-01  0.10210369543E+01  0.10207802753E+01 0.  0.
     999903    2    3    3    0    0  0.83418797136E-01  0.45215386588E-01 -0.87461442459E-01  0.13053346970E+00  0.19655937890E-01 0.  0.
         14    1    1    2    0    0  0.28945232807E-03 -0.16172176045E-01 -0.16200879072E-01  0.22893045743E-01  0.00000000000E+00 0. -1.
     999901    1    3    3    0    0 -0.83708249464E-01 -0.29043210543E-01  0.10366232153E+00  0.89050348456E+00  0.88000000000E+00 0. -1.
        -11    1    4    4    0    0  0.61851288979E-01  0.39620647943E-01 -0.58007130727E-01  0.93597361223E-01  0.51100000000E-03 0. -1.
         11    1    4    4    0    0  0.21567508156E-01  0.55947386453E-02 -0.29454311732E-01  0.36936108474E-01  0.51100000000E-03 0.  1.
</event>
<event>
 8    1  0.1061721E+005  0.1043930E+01  0.7957747E-01            NaN
         13   -1    0    0    0    0  0.00000000000E+00  0.00000000000E+00  0.74505805969E-08  0.10566000000E+00  0.10566000000E+00 0. -1.
     999900   -1    0    0    0    0 -0.00000000000E+00 -0.00000000000E+00 -0.74505805969E-08  0.93827000000E+00  0.93827000000E+00 0.  1.
     999902    2    1    2    0    0  0.12833447765E-01 -0.20119486644E-01 -0.30104793137E-02  0.10198768482E+01  0.10195931696E+01 0.  0.
     999903    2    3    3    0    0 -0.65338617724E-01 -0.94012216741E-01 -0.61466497618E-01  0.13140168625E+00  0.19515146856E-01 0.  0.
         14    1    1    2    0    0 -0.12833447765E-01  0.20119486644E-01  0.30104793137E-02  0.24053151770E-01  0.00000000000E+00 0. -1.
     999901    1    3    3    0    0  0.78172065489E-01  0.73892730096E-01  0.58456018304E-01  0.88847516198E+00  0.88000000000E+00 0. -1.
        -11    1    4    4    0    0 -0.48125603764E-02 -0.19334977529E-01 -0.12433356346E-01  0.23491521119E-01  0.51100000000E-03 0.  1.
         11    1    4    4    0    0 -0.60526057348E-01 -0.74677239211E-01 -0.49033141271E-01  0.10791016513E+00  0.51100000000E-03 0. -1.
</event>
<event>
 8    1  0.1061721E+005  0.1043930E+01  0.7957747E-01            NaN
         13   -1    0    0    0    0  0.00000000000E+00  0.00000000000E+00  0.74505805969E-08  0.10566000000E+00  0.10566000000E+00 0. -1.
     999900   -1    0    0    0    0 -0.00000000000E+00 -0.00000000000E+00 -0.74505805969E-08  0.93827000000E+00  0.93827000000E+00 0. -1.
     999902    2    1    2    0    0 -0.16121201954E-01  0.11157744444E-01 -0.14496678470E-01  0.10195467660E+01  0.10192551525E+01 0.  0.
     999903    2    3    3    0    0  0.34413324513E-01 -0.12126245866E+00 -0.11733513308E-01  0.12820144367E+00  0.20225578860E-01 0.  0.
         14    1    1    2    0    0  0.16121201954E-01 -0.11157744444E-01  0.14496678470E-01  0.24383233998E-01  0.00000000000E+00 0. -1.
     999901    1    3    3    0    0 -0.50534526467E-01  0.13242020311E+00 -0.27631651622E-02  0.89134532233E+00  0.88000000000E+00 0.  1.
        -11    1    4    4    0    0  0.21284173010E-01 -0.84993664395E-01  0.85549818384E-03  0.87623809585E-01  0.51100000000E-03 0.  1.
         11    1    4    4    0    0  0.13129151504E-01 -0.36268794268E-01 -0.12589011492E-01  0.40577634089E-01  0.51100000000E-03 0. -1.
</event>
<event>
 8    1  0.1061721E+005  0.1043930E+01  0.7957747E-01            NaN
         13   -1    0    0    0    0  0.00000000000E+00  0.00000000000E+00  0.74505805969E-08  0.10566000000E+00  0.10566000000E+00 0.  1.
     999900   -1    0    0    0    0 -0.00000000000E+00 -0.00000000000E+00 -0.74505805969E-08  0.93827000000E+00  0.93827000000E+00 0.  1.
     999902    2    1    2    0    0  0.42756000363E-02 -0.16075281057E-01  0.17091869437E-01  0.10200798969E+01  0.10198010437E+01 0.  0.
     999903    2    3    3    0    0  0.62246282432E-01 -0.11055612993E+00  0.34410819914E-01  0.13295691960E+00  0.19904280969E-01 0.  0.
         14    1    1    2    0    0 -0.42756000363E-02  0.16075281057E-01 -0.17091869437E-01  0.23850103093E-01  0.00000000000E+00 0. -1.
     999901    1    3    3    0    0 -0.57970682395E-01  0.94480848872E-01 -0.17318950477E-01  0.88712297731E+00  0.88000000000E+00 0.  1.
        -11    1    4    4    0    0  0.15802823144E-01 -0.29847999406E-01  0.18426870282E-01  0.38476524755E-01  0.51100000000E-03 0. -1.
         11    1    4    4    0    0  0.46443459288E-01 -0.80708130523E-01  0.15983949632E-01  0.94480394844E-01  0.51100000000E-03 0.  1.
</event>
<event>
 8    1  0.1061721E+005  0.1043930E+01  0.7957747E-01            NaN
         13   -1    0    0    0    0  0.00000000000E+00  0.00000000000E+00  0.74505805969E-08  0.10566000000E+00  0.10566000000E+00 0.  1.
     999900   -1    0    0    0    0 -0.00000000000E+00 -0.00000000000E+00 -0.74505805969E-08  0.93827000000E+00  0.93827000000E+00 0. -1.
     999902    2    1    2    0    0 -0.19465755538E-01  0.11930164243E-01 -0.64048227152E-02  0.10202178468E+01  0.10199422477E+01 0.  0.
     999903    2    3    3    0    0 -0.40832321003E-01 -0.73351699513E-01  0.97001847641E-01  0.12981205955E+00  0.19850997459E-01 0.  0.
         14    1    1    2    0    0  0.19465755538E-01 -0.11930164243E-01  0.64048227152E-02  0.23712153245E-01  0.00000000000E+00 0. -1.
     999901    1    3    3    0    0  0.21366565465E-01  0.85281863756E-01 -0.10340667036E+00  0.89040578720E+00  0.88000000000E+00 0. -1.
        -11    1    4    4    0    0 -0.33765295181E-01 -0.43091465528E-01  0.55442098308E-01  0.77916987530E-01  0.51100000000E-03 0.  1.
         11    1    4    4    0    0 -0.70670258222E-02 -0.30260233985E-01  0.41559749333E-01  0.51895072025E-01  0.51100000000E-03 0. -1.
</event>
<event>
 8    1  0.1061721E+005  0.1043930E+01  0.7957747E-01            NaN
         13   -1    0    0    0    0  0.00000000000E+00  0.00000000000E+00  0.74505805969E-08  0.10566000000E+00  0.10566000000E+00 0.  1.
     999900   -1    0    0    0    0 -0.00000000000E+00 -0.00000000000E+00 -0.74505805969E-08  0.93827000000E+00  0.93827000000E+00 0. -1.
     999902    2    1    2    0    0  0.15977026116E-01  0.16627832393E-01  0.82185904762E-02  0.10194494893E+01  0.10191555160E+01 0.  0.
     999903    2    3    3    0    0  0.90331654139E-01 -0.40262234564E-01 -0.81887487627E-01  0.12990792439E+00  0.19739628130E-01 0.  0.
         14    1    1    2    0    0 -0.15977026116E-01 -0.16627832393E-01 -0.82185904762E-02  0.24480510677E-01  0.00000000000E+00 0. -1.
     999901    1    3    3    0    0 -0.74354628023E-01  0.56890066957E-01  0.90106078103E-01  0.88954156493E+00  0.88000000000E+00 0.  1.
        -11    1    4    4    0    0  0.18119508399E-01 -0.17248446456E-01 -0.18864104286E-01  0.31335938494E-01  0.51100000000E-03 0.  1.
         11    1    4    4    0    0  0.72212145739E-01 -0.23013788108E-01 -0.63023383341E-01  0.98571985899E-01  0.51100000000E-03 0. -1.
</event>
<event>
 8    1  0.1061721E+005  0.1043930E+01  0.7957747E-01            NaN
         13   -1    0    0    0    0  0.00000000000E+00  0.00000000000E+00  0.74505805969E-08  0.10566000000E+00  0.10566000000E+00 0.  1.
     999900   -1    0    0    0    0 -0.00000000000E+00 -0.00000000000E+00 -0.74505805969E-08  0.93827000000E+00  0.93827000000E+00 0. -1.
     999902    2    1    2    0    0 -0.12197525406E-01  0.10332181265E-01 -0.16791429418E-01  0.10207462622E+01  0.10204829475E+01 0.  0.
     999903    2    3    3    0    0 -0.41108722867E-04 -0.11847662528E+00  0.46744856259E-01  0.12901965237E+00  0.20597977658E-01 0.  0.
         14    1    1    2    0    0  0.12197525406E-01 -0.10332181265E-01  0.16791429418E-01  0.23183737784E-01  0.00000000000E+00 0.  1.
     999901    1    3    3    0    0 -0.12156416683E-01  0.12880880654E+00 -0.63536285677E-01  0.89172660985E+00  0.88000000000E+00 0. -1.
        -11    1    4    4    0    0  0.80916286128E-02 -0.83490874166E-01  0.37761145123E-01  0.91991117639E-01  0.51100000000E-03 0. -1.
         11    1    4    4    0    0 -0.81327373357E-02 -0.34985751113E-01  0.89837111367E-02  0.37028534731E-01  0.51100000000E-03 0.  1.
</event>
<event>
 8    1  0.1061721E+005  0.1043930E+01  0.7957747E-01            NaN
         13   -1    0    0    0    0  0.00000000000E+00  0.00000000000E+00  0.74505805969E-08  0.10566000000E+00  0.10566000000E+00 0. -1.
     999900   -1    0    0    0    0 -0.00000000000E+00 -0.00000000000E+00 -0.74505805969E-08  0.93827000000E+00  0.93827000000E+00 0. -1.
     999902    2    1    2    0    0  0.44726068495E-02  0.14263693744E-01 -0.17699614558E-01  0.10207624898E+01  0.10204995478E+01 0.  0.
     999903    2    3    3    0    0  0.50276593713E-01  0.75885398787E-01  0.91624239654E-01  0.13067994039E+00  0.19897635635E-01 0.  0.
         14    1    1    2    0    0 -0.44726068495E-02 -0.14263693744E-01  0.17699614558E-01  0.23167510154E-01  0.00000000000E+00 0. -1.
     999901    1    3    3    0    0 -0.45803986864E-01 -0.61621705043E-01 -0.10932385421E+00  0.89008254946E+00  0.88000000000E+00 0. -1.
        -11    1    4    4    0    0  0.19295762983E-01  0.39850049812E-01  0.33063697127E-01  0.55261398171E-01  0.51100000000E-03 0. -1.
         11    1    4    4    0    0  0.30980830730E-01  0.36035348975E-01  0.58560542527E-01  0.75418542219E-01  0.51100000000E-03 0.  1.
</event>
<event>
 8    1  0.1061721E+005  0.1043930E+01  0.7957747E-01            NaN
         13   -1    0    0    0    0  0.00000000000E+00  0.00000000000E+00  0.74505805969E-08  0.10566000000E+00  0.10566000000E+00 0. -1.
     999900   -1    0    0    0    0 -0.00000000000E+00 -0.00000000000E+00 -0.74505805969E-08  0.93827000000E+00  0.93827000000E+00 0. -1.
     999902    2    1    2    0    0  0.21178666933E-02  0.34075734893E-02 -0.23669966033E-01  0.10199224135E+01  0.10196398214E+01 0.  0.
     999903    2    3    3    0    0  0.15497944771E-01 -0.85111625220E-01 -0.97588629605E-01  0.13229713005E+00  0.22244436448E-01 0.  0.
         14    1    1    2    0    0 -0.21178666933E-02 -0.34075734893E-02  0.23669966033E-01  0.24007586476E-01  0.00000000000E+00 0. -1.
     999901    1    3    3    0    0 -0.13380078077E-01  0.88519198709E-01  0.73918663571E-01  0.88762528347E+00  0.88000000000E+00 0.  1.
        -11    1    4    4    0    0  0.20357394404E-01 -0.64586414744E-01 -0.68122034456E-01  0.96055719121E-01  0.51100000000E-03 0. -1.
         11    1    4    4    0    0 -0.48594496330E-02 -0.20525210475E-01 -0.29466595149E-01  0.36241410934E-01  0.51100000000E-03 0.  1.
</event>
<event>
 8    1  0.1061721E+005  0.1043930E+01  0.7957747E-01            NaN
         13   -1    0    0    0    0  0.00000000000E+00  0.00000000000E+00  0.74505805969E-08  0.10566000000E+00  0.10566000000E+00 0.  1.
     999900   -1    0    0    0    0 -0.00000000000E+00 -0.00000000000E+00 -0.74505805969E-08  0.93827000000E+00  0.93827000000E+00 0.  1.
     999902    2    1    2    0    0 -0.53359028723E-03  0.78575535616E-02 -0.22088588210E-01  0.10204793796E+01  0.10202098964E+01 0.  0.
     999903    2    3    3    0    0 -0.80722933850E-01 -0.11422004145E-01  0.97289085045E-01  0.12859762680E+00  0.20628362055E-01 0.  0.
         14    1    1    2    0    0  0.53359028723E-03 -0.78575535616E-02  0.22088588210E-01  0.23450620369E-01  0.00000000000E+00 0.  1.
     999901    1    3    3    0    0  0.80189343562E-01  0.19279557706E-01 -0.11937767325E+00  0.89188175283E+00  0.88000000000E+00 0. -1.
        -11    1    4    4    0    0 -0.39311712267E-01 -0.20749233736E-02  0.32077470863E-01  0.50783277625E-01  0.51100000000E-03 0.  1.
         11    1    4    4    0    0 -0.41411221583E-01 -0.93470807712E-02  0.65211614182E-01  0.77814349173E-01  0.51100000000E-03 0. -1.
</event>
<event>
 8    1  0.1061721E+005  0.1043930E+01  0.7957747E-01            NaN
         13   -1    0    0    0    0  0.00000000000E+00  0.00000000000E+00  0.74505805969E-08  0.10566000000E+00  0.10566000000E+00 0. -1.
     999900   -1    0    0    0    0 -0.00000000000E+00 -0.00000000000E+00 -0.74505805969E-08  0.93827000000E+00  0.93827000000E+00 0.  1.
     999902    2    1    2    0    0 -0.16934406942E-01 -0.14518223077E-01  0.78312543559E-02  0.10202893256E+01  0.10200154050E+01 0.  0.
     999903    2    3    3    0    0  0.68481767561E-02  0.11197319661E+00 -0.58825863630E-01  0.12843235172E+00  0.21201237015E-01 0.  0.
         14    1    1    2    0    0  0.16934406942E-01  0.14518223077E-01 -0.78312543559E-02  0.23640674368E-01  0.00000000000E+00 0.  1.
     999901    1    3    3    0    0 -0.23782583698E-01 -0.12649141969E+00  0.66657117986E-01  0.89185697392E+00  0.88000000000E+00 0. -1.
        -11    1    4    4    0    0 -0.51583987709E-03  0.89784994758E-01 -0.39484796612E-01  0.98086296999E-01  0.51100000000E-03 0. -1.
         11    1    4    4    0    0  0.73640166332E-02  0.22188201856E-01 -0.19341067017E-01  0.30346054718E-01  0.51100000000E-03 0.  1.
</event>
<event>
 8    1  0.1061721E+005  0.1043930E+01  0.7957747E-01            NaN
         13   -1    0    0    0    0  0.00000000000E+00  0.00000000000E+00  0.74505805969E-08  0.10566000000E+00  0.10566000000E+00 0.  1.
     999900   -1    0    0    0    0 -0.00000000000E+00 -0.00000000000E+00 -0.74505805969E-08  0.93827000000E+00  0.93827000000E+00 0.  1.
     999902    2    1    2    0    0 -0.12344737339E-01 -0.39563565681E-03  0.26238122300E-01  0.10149302047E+01  0.10145158117E+01 0.  0.
     999903    2    3    3    0    0  0.30857263107E-01  0.18819102699E-01  0.12175114494E+00  0.12850008531E+00  0.19560197239E-01 0.  0.
         14    1    1    2    0    0  0.12344737339E-01  0.39563565681E-03 -0.26238122300E-01  0.28999795333E-01  0.00000000000E+00 0.  1.
     999901    1    3    3    0    0 -0.43202000446E-01 -0.19214738356E-01 -0.95513022644E-01  0.88643011936E+00  0.88000000000E+00 0.  1.
        -11    1    4    4    0    0  0.28176833953E-01  0.11730470830E-01  0.72462360645E-01  0.78629464889E-01  0.51100000000E-03 0.  1.
         11    1    4    4    0    0  0.26804291534E-02  0.70886318689E-02  0.49288784299E-01  0.49870620419E-01  0.51100000000E-03 0. -1.
</event>
<event>
 8    1  0.1061721E+005  0.1043930E+01  0.7957747E-01            NaN
         13   -1    0    0    0    0  0.00000000000E+00  0.00000000000E+00  0.74505805969E-08  0.10566000000E+00  0.10566000000E+00 0.  1.
     999900   -1    0    0    0    0 -0.00000000000E+00 -0.00000000000E+00 -0.74505805969E-08  0.93827000000E+00  0.93827000000E+00 0. -1.
     999902    2    1    2    0    0  0.31581702092E-02 -0.21744104032E-01  0.90992355018E-02  0.10201481543E+01  0.10198709136E+01 0.  0.
     999903    2    3    3    0    0  0.12213093914E+00  0.37844734206E-02 -0.40693264825E-01  0.13038103806E+00  0.20322026224E-01 0.  0.
         14    1    1    2    0    0 -0.31581702092E-02  0.21744104032E-01 -0.90992355018E-02  0.23781845722E-01  0.00000000000E+00 0. -1.
     999901    1    3    3    0    0 -0.11897276893E+00 -0.25528577453E-01  0.49792500327E-01  0.88976711622E+00  0.88000000000E+00 0. -1.
        -11    1    4    4    0    0  0.57119936213E-01  0.11272202141E-01 -0.22872299725E-01  0.62555198583E-01  0.51100000000E-03 0.  1.
         11    1    4    4    0    0  0.65011002924E-01 -0.74877287204E-02 -0.17820965100E-01  0.67825839477E-01  0.51100000000E-03 0. -1.
</event>
<event>
 8    1  0.1061721E+005  0.1043930E+01  0.7957747E-01            NaN
         13   -1    0    0    0    0  0.00000000000E+00  0.00000000000E+00  0.74505805969E-08  0.10566000000E+00  0.10566000000E+00 0. -1.
     999900   -1    0    0    0    0 -0.00000000000E+00 -0.00000000000E+00 -0.74505805969E-08  0.93827000000E+00  0.93827000000E+00 0. -1.
     999902    2    1    2    0    0 -0.52081558875E-02  0.77121172836E-02  0.21901360813E-01  0.10201335455E+01  0.10198559601E+01 0.  0.
     999903    2    3    3    0    0 -0.32886573636E-01 -0.12195541270E+00 -0.19235857305E-01  0.12925081818E+00  0.19521946167E-01 0.  0.
         14    1    1    2    0    0  0.52081558875E-02 -0.77121172836E-02 -0.21901360813E-01  0.23796454488E-01  0.00000000000E+00 0.  1.
     999901    1    3    3    0    0  0.27678417748E-01  0.12966752998E+00  0.41137218117E-01  0.89088272733E+00  0.88000000000E+00 0. -1.
        -11    1    4    4    0    0 -0.33488359593E-01 -0.93411197081E-01 -0.13929981423E-01  0.10020692327E+00  0.51100000000E-03 0.  1.
         11    1    4    4    0    0  0.60178595690E-03 -0.28544215618E-01 -0.53058758811E-02  0.29043894909E-01  0.51100000000E-03 0. -1.
</event>
<event>
 8    1  0.1061721E+005  0.1043930E+01  0.7957747E-01            NaN
         13   -1    0    0    0    0  0.00000000000E+00  0.00000000000E+00  0.74505805969E-08  0.10566000000E+00  0.10566000000E+00 0.  1.
     999900   -1    0    0    0    0 -0.00000000000E+00 -0.00000000000E+00 -0.74505805969E-08  0.93827000000E+00  0.93827000000E+00 0. -1.
     999902    2    1    2    0    0  0.69484951684E-02  0.10052963245E-01  0.20763853465E-01  0.10198368212E+01  0.10195521863E+01 0.  0.
     999903    2    3    3    0    0  0.88522455062E-01 -0.83821946738E-01  0.43099584572E-01  0.13081168400E+00  0.19793399764E-01 0.  0.
         14    1    1    2    0    0 -0.69484951684E-02 -0.10052963245E-01 -0.20763853465E-01  0.24093178823E-01  0.00000000000E+00 0. -1.
     999901    1    3    3    0    0 -0.81573959894E-01  0.93874909982E-01 -0.22335731107E-01  0.88902513718E+00  0.88000000000E+00 0. -1.
        -11    1    4    4    0    0  0.37803255741E-01 -0.45003725947E-01  0.28364010044E-01  0.65262544238E-01  0.51100000000E-03 0.  1.
         11    1    4    4    0    0  0.50719199321E-01 -0.38818220791E-01  0.14735574528E-01  0.65549139757E-01  0.51100000000E-03 0. -1.
</event>
<event>
 8    1  0.1061721E+005  0.1043930E+01  0.7957747E-01            NaN
         13   -1    0    0    0    0  0.00000000000E+00  0.00000000000E+00  0.74505805969E-08  0.10566000000E+00  0.10566000000E+00 0. -1.
     999900   -1    0    0    0    0 -0.00000000000E+00 -0.00000000000E+00 -0.74505805969E-08  0.93827000000E+00  0.93827000000E+00 0.  1.
     999902    2    1    2    0    0 -0.10441601430E-01 -0.17726404813E-01 -0.74777627983E-02  0.10220400616E+01  0.10218056166E+01 0.  0.
     999903    2    3    3    0    0 -0.99696571267E-01 -0.66169377191E-01  0.56815517666E-01  0.13386958406E+00  0.19371878781E-01 0.  0.
         14    1    1    2    0    0  0.10441601430E-01  0.17726404813E-01  0.74777627983E-02  0.21889938430E-01  0.00000000000E+00 0.  1.
     999901    1    3    3    0    0  0.89254969837E-01  0.48442972379E-01 -0.64293280464E-01  0.88817047751E+00  0.88000000000E+00 0.  1.
        -11    1    4    4    0    0 -0.29388864595E-01 -0.14212744914E-01  0.23868664449E-01  0.40443562451E-01  0.51100000000E-03 0.  1.
         11    1    4    4    0    0 -0.70307706673E-01 -0.51956632277E-01  0.32946853217E-01  0.93426021605E-01  0.51100000000E-03 0. -1.
</event>
<event>
 8    1  0.1061721E+005  0.1043930E+01  0.7957747E-01            NaN
         13   -1    0    0    0    0  0.00000000000E+00  0.00000000000E+00  0.74505805969E-08  0.10566000000E+00  0.10566000000E+00 0. -1.
     999900   -1    0    0    0    0 -0.00000000000E+00 -0.00000000000E+00 -0.74505805969E-08  0.93827000000E+00  0.93827000000E+00 0. -1.
     999902    2    1    2    0    0  0.11972208028E-01  0.57749235723E-02  0.64751085939E-02  0.10291445159E+01  0.10290383006E+01 0.  0.
     999903    2    3    3    0    0 -0.31842462642E-01  0.12271009356E+00 -0.48241508170E-01  0.13864607828E+00  0.28701610089E-01 0.  0.
         14    1    1    2    0    0 -0.11972208028E-01 -0.57749235723E-02 -0.64751085939E-02  0.14785484052E-01  0.00000000000E+00 0.  1.
     999901    1    3    3    0    0  0.43814670670E-01 -0.11693516999E+00  0.54716616764E-01  0.89049843767E+00  0.88000000000E+00 0.  1.
        -11    1    4    4    0    0 -0.18427244237E-01  0.81638348036E-01 -0.17202742930E-01  0.85443423887E-01  0.51100000000E-03 0.  1.
         11    1    4    4    0    0 -0.13415218405E-01  0.41071745527E-01 -0.31038765241E-01  0.53202654390E-01  0.51100000000E-03 0. -1.
</event>
<event>
 8    1  0.1061721E+005  0.1043930E+01  0.7957747E-01            NaN
         13   -1    0    0    0    0  0.00000000000E+00  0.00000000000E+00  0.74505805969E-08  0.10566000000E+00  0.10566000000E+00 0. -1.
     999900   -1    0    0    0    0 -0.00000000000E+00 -0.00000000000E+00 -0.74505805969E-08  0.93827000000E+00  0.93827000000E+00 0.  1.
     999902    2    1    2    0    0 -0.98637203453E-02 -0.13410689754E-01 -0.17171229743E-01  0.10200136727E+01  0.10197332503E+01 0.  0.
     999903    2    3    3    0    0 -0.10301378418E+00 -0.58708177108E-01  0.52553325371E-01  0.13119968189E+00  0.19824599090E-01 0.  0.
         14    1    1    2    0    0  0.98637203453E-02  0.13410689754E-01  0.17171229743E-01  0.23916327260E-01  0.00000000000E+00 0. -1.
     999901    1    3    3    0    0  0.93150063833E-01  0.45297487354E-01 -0.69724555115E-01  0.88881399085E+00  0.88000000000E+00 0.  1.
        -11    1    4    4    0    0 -0.85406955844E-01 -0.44679727534E-01  0.49859282117E-01  0.10852112833E+00  0.51100000000E-03 0.  1.
         11    1    4    4    0    0 -0.17606828335E-01 -0.14028449574E-01  0.26940432539E-02  0.22678553559E-01  0.51100000000E-03 0. -1.
</event>
<event>
 8    1  0.1061721E+005  0.1043930E+01  0.7957747E-01            NaN
         13   -1    0    0    0    0  0.00000000000E+00  0.00000000000E+00  0.74505805969E-08  0.10566000000E+00  0.10566000000E+00 0. -1.
     999900   -1    0    0    0    0 -0.00000000000E+00 -0.00000000000E+00 -0.74505805969E-08  0.93827000000E+00  0.93827000000E+00 0. -1.
     999902    2    1    2    0    0  0.19877229970E-01  0.10353845791E-01 -0.22787849011E-02  0.10214022559E+01  0.10211537931E+01 0.  0.
     999903    2    3    3    0    0  0.20343505019E-01 -0.89328396674E-02  0.12810571828E+00  0.13158636914E+00  0.20254472742E-01 0.  0.
         14    1    1    2    0    0 -0.19877229970E-01 -0.10353845791E-01  0.22787849011E-02  0.22527744107E-01  0.00000000000E+00 0. -1.
     999901    1    3    3    0    0 -0.46627504961E-03  0.19286685458E-01 -0.13038450318E+00  0.88981588675E+00  0.88000000000E+00 0. -1.
        -11    1    4    4    0    0  0.16881986782E-01 -0.11364006305E-01  0.60232223771E-01  0.63579273498E-01  0.51100000000E-03 0. -1.
         11    1    4    4    0    0  0.34615182370E-02  0.24311666378E-02  0.67873494510E-01  0.68007095642E-01  0.51100000000E-03 0.  1.
</event>
<event>
 8    1  0.1061721E+005  0.1043930E+01  0.7957747E-01            NaN
         13   -1    0    0    0    0  0.00000000000E+00  0.00000000000E+00  0.74505805969E-08  0.10566000000E+00  0.10566000000E+00 0.  1.
     999900   -1    0    0    0    0 -0.00000000000E+00 -0.00000000000E+00 -0.74505805969E-08  0.93827000000E+00  0.93827000000E+00 0.  1.
     999902    2    1    2    0    0 -0.15849631495E-01  0.22408749165E-01  0.28256206802E-02  0.10163374831E+01  0.10159628598E+01 0.  0.
     999903    2    3    3    0    0 -0.11495547570E+00  0.56536728247E-01  0.10062243690E-01  0.13008748674E+00  0.20256910517E-01 0.  0.
         14    1    1    2    0    0  0.15849631495E-01 -0.22408749165E-01 -0.28256206802E-02  0.27592516918E-01  0.00000000000E+00 0.  1.
     999901    1    3    3    0    0  0.99105844202E-01 -0.34127979082E-01 -0.72366230098E-02  0.88624999635E+00  0.88000000000E+00 0.  1.
        -11    1    4    4    0    0 -0.25307872038E-01  0.86770839353E-02 -0.53863121484E-02  0.27295670943E-01  0.51100000000E-03 0. -1.
         11    1    4    4    0    0 -0.89647603659E-01  0.47859644311E-01  0.15448555838E-01  0.10279181579E+00  0.51100000000E-03 0.  1.
</event>
<event>
 8    1  0.1061721E+005  0.1043930E+01  0.7957747E-01            NaN
         13   -1    0    0    0    0  0.00000000000E+00  0.00000000000E+00  0.74505805969E-08  0.10566000000E+00  0.10566000000E+00 0.  1.
     999900   -1    0    0    0    0 -0.00000000000E+00 -0.00000000000E+00 -0.74505805969E-08  0.93827000000E+00  0.93827000000E+00 0. -1.
     999902    2    1    2    0    0  0.21675706040E-01  0.50554151808E-02  0.10498587566E-02  0.10216478175E+01  0.10214048009E+01 0.  0.
     999903    2    3    3    0    0 -0.10741473687E+00  0.61220994467E-01  0.34743275332E-01  0.12982151091E+00  0.18989303642E-01 0.  0.
         14    1    1    2    0    0 -0.21675706040E-01 -0.50554151808E-02 -0.10498587566E-02  0.22282182532E-01  0.00000000000E+00 0. -1.
     999901    1    3    3    0    0  0.12909044291E+00 -0.56165579286E-01 -0.33693416575E-01  0.89182630656E+00  0.88000000000E+00 0.  1.
        -11    1    4    4    0    0 -0.35945284528E-01  0.18018268386E-01  0.20379457504E-01  0.45081092318E-01  0.51100000000E-03 0. -1.
         11    1    4    4    0    0 -0.71469452346E-01  0.43202726081E-01  0.14363817828E-01  0.84740418592E-01  0.51100000000E-03 0.  1.
</event>
<event>
 8    1  0.1061721E+005  0.1043930E+01  0.7957747E-01            NaN
         13   -1    0    0    0    0  0.00000000000E+00  0.00000000000E+00  0.74505805969E-08  0.10566000000E+00  0.10566000000E+00 0. -1.
     999900   -1    0    0    0    0 -0.00000000000E+00 -0.00000000000E+00 -0.74505805969E-08  0.93827000000E+00  0.93827000000E+00 0. -1.
     999902    2    1    2    0    0 -0.56473605456E-02  0.44744708684E-02 -0.21379793096E-01  0.10213687695E+01  0.10211195592E+01 0.  0.
     999903    2    3    3    0    0 -0.11872439600E+00 -0.13572508791E-01  0.51273519247E-01  0.13098086904E+00  0.15726381546E-01 0.  0.
         14    1    1    2    0    0  0.56473605456E-02 -0.44744708684E-02  0.21379793096E-01  0.22561230541E-01  0.00000000000E+00 0. -1.
     999901    1    3    3    0    0  0.11307703546E+00  0.18046979659E-01 -0.72653312343E-01  0.89038790042E+00  0.88000000000E+00 0. -1.
        -11    1    4    4    0    0 -0.59494272804E-01 -0.14676057590E-01  0.25436703537E-01  0.66349394652E-01  0.51100000000E-03 0.  1.
         11    1    4    4    0    0 -0.59230123200E-01  0.11035487992E-02  0.25836815710E-01  0.64631474385E-01  0.51100000000E-03 0. -1.
</event>
<event>
 8    1  0.1061721E+005  0.1043930E+01  0.7957747E-01            NaN
         13   -1    0    0    0    0  0.00000000000E+00  0.00000000000E+00  0.74505805969E-08  0.10566000000E+00  0.10566000000E+00 0.  1.
     999900   -1    0    0    0    0 -0.00000000000E+00 -0.00000000000E+00 -0.74505805969E-08  0.93827000000E+00  0.93827000000E+00 0.  1.
     999902    2    1    2    0    0 -0.22377734048E-02  0.14585214149E-01 -0.17223480045E-01  0.10212499566E+01  0.10209980850E+01 0.  0.
     999903    2    3    3    0    0 -0.10868680660E-01  0.77851313157E-02  0.12729828071E+00  0.12939387352E+00  0.18952196269E-01 0.  0.
         14    1    1    2    0    0  0.22377734048E-02 -0.14585214149E-01  0.17223480045E-01  0.22680043352E-01  0.00000000000E+00 0.  1.
     999901    1    3    3    0    0  0.86309072556E-02  0.68000828335E-02 -0.14452176075E+00  0.89185608313E+00  0.88000000000E+00 0.  1.
        -11    1    4    4    0    0  0.11674290768E-02  0.10493263025E-01  0.48922154677E-01  0.50051071905E-01  0.51100000000E-03 0. -1.
         11    1    4    4    0    0 -0.12036109737E-01 -0.27081317092E-02  0.78376126031E-01  0.79342801612E-01  0.51100000000E-03 0.  1.
</event>
<event>
 8    1  0.1061721E+005  0.1043930E+01  0.7957747E-01            NaN
         13   -1    0    0    0    0  0.00000000000E+00  0.00000000000E+00  0.74505805969E-08  0.10566000000E+00  0.10566000000E+00 0.  1.
     999900   -1    0    0    0    0 -0.00000000000E+00 -0.00000000000E+00 -0.74505805969E-08  0.93827000000E+00  0.93827000000E+00 0.  1.
     999902    2    1    2    0    0  0.84168221835E-02  0.78321300539E-02 -0.20698529191E-01  0.10202527057E+01  0.10199779258E+01 0.  0.
     999903    2    3    3    0    0  0.12942517940E-01  0.11086518658E+00 -0.69052208159E-01  0.13291152498E+00  0.20944394328E-01 0.  0.
         14    1    1    2    0    0 -0.84168221835E-02 -0.78321300539E-02  0.20698529191E-01  0.23677294345E-01  0.00000000000E+00 0.  1.
     999901    1    3    3    0    0 -0.45256957563E-02 -0.10303305653E+00  0.48353678968E-01  0.88734118068E+00  0.88000000000E+00 0.  1.
        -11    1    4    4    0    0  0.35475195926E-02  0.15834432980E-01 -0.19341874588E-01  0.25252393879E-01  0.51100000000E-03 0.  1.
         11    1    4    4    0    0  0.93949983472E-02  0.95030753600E-01 -0.49710333571E-01  0.10765913110E+00  0.51100000000E-03 0. -1.
</event>
<event>
 8    1  0.1061721E+005  0.1043930E+01  0.7957747E-01            NaN
         13   -1    0    0    0    0  0.00000000000E+00  0.00000000000E+00  0.74505805969E-08  0.10566000000E+00  0.10566000000E+00 0.  1.
     999900   -1    0    0    0    0 -0.00000000000E+00 -0.00000000000E+00 -0.74505805969E-08  0.93827000000E+00  0.93827000000E+00 0.  1.
     999902    2    1    2    0    0  0.14900557417E-01 -0.12397169387E-01 -0.13475060661E-01  0.10203229316E+01  0.10200497983E+01 0.  0.
     999903    2    3    3    0    0  0.13246095384E-01 -0.44892578025E-01  0.11924312928E+00  0.12977657861E+00  0.20790234964E-01 0.  0.
         14    1    1    2    0    0 -0.14900557417E-01  0.12397169387E-01  0.13475060661E-01  0.23607068432E-01  0.00000000000E+00 0.  1.
     999901    1    3    3    0    0  0.16544620329E-02  0.32495408639E-01 -0.13271818994E+00  0.89054635296E+00  0.88000000000E+00 0.  1.
        -11    1    4    4    0    0  0.38183983816E-02 -0.39110211298E-01  0.10173283992E+00  0.10905971132E+00  0.51100000000E-03 0.  1.
         11    1    4    4    0    0  0.94276970024E-02 -0.57823667272E-02  0.17510289360E-01  0.20716867287E-01  0.51100000000E-03 0. -1.
</event>
<event>
 8    1  0.1061721E+005  0.1043930E+01  0.7957747E-01            NaN
         13   -1    0    0    0    0  0.00000000000E+00  0.00000000000E+00  0.74505805969E-08  0.10566000000E+00  0.10566000000E+00 0.  1.
     999900   -1    0    0    0    0 -0.00000000000E+00 -0.00000000000E+00 -0.74505805969E-08  0.93827000000E+00  0.93827000000E+00 0. -1.
     999902    2    1    2    0    0 -0.18755557374E-02 -0.24091909659E-01 -0.37907901201E-02  0.10194696666E+01  0.10191761836E+01 0.  0.
     999903    2    3    3    0    0  0.11356100268E+00 -0.89065276594E-02  0.58826451570E-01  0.12959489237E+00  0.18943525550E-01 0.  0.
         14    1    1    2    0    0  0.18755557374E-02  0.24091909659E-01  0.37907901201E-02  0.24460333401E-01  0.00000000000E+00 0. -1.
     999901    1    3    3    0    0 -0.11543655842E+00 -0.15185382000E-01 -0.62617241690E-01  0.88987477423E+00  0.88000000000E+00 0. -1.
        -11    1    4    4    0    0  0.21755136273E-01  0.41596925478E-02  0.16690169198E-01  0.27738274374E-01  0.51100000000E-03 0.  1.
         11    1    4    4    0    0  0.91805866407E-01 -0.13066220207E-01  0.42136282371E-01  0.10185661800E+00  0.51100000000E-03 0. -1.
</event>
<event>
 8    1  0.1061721E+005  0.1043930E+01  0.7957747E-01            NaN
         13   -1    0    0    0    0  0.00000000000E+00  0.00000000000E+00  0.74505805969E-08  0.10566000000E+00  0.10566000000E+00 0.  1.
     999900   -1    0    0    0    0 -0.00000000000E+00 -0.00000000000E+00 -0.74505805969E-08  0.93827000000E+00  0.93827000000E+00 0.  1.
     999902    2    1    2    0    0 -0.24397159127E-02 -0.12469476973E-01  0.19305766009E-01  0.10208182569E+01  0.10205565937E+01 0.  0.
     999903    2    3    3    0    0 -0.73444658964E-01  0.85669237261E-01 -0.59299669367E-01  0.12904938342E+00  0.20098667389E-01 0.  0.
         14    1    1    2    0    0  0.24397159127E-02  0.12469476973E-01 -0.19305766009E-01  0.23111743138E-01  0.00000000000E+00 0. -1.
     999901    1    3    3    0    0  0.71004943051E-01 -0.98138714234E-01  0.78605435375E-01  0.89176887344E+00  0.88000000000E+00 0. -1.
        -11    1    4    4    0    0 -0.20565772330E-01  0.11662134785E-01 -0.12980018434E-01  0.26975885135E-01  0.51100000000E-03 0. -1.
         11    1    4    4    0    0 -0.52878886634E-01  0.74007102476E-01 -0.46319650933E-01  0.10207349828E+00  0.51100000000E-03 0.  1.
</event>
<event>
 8    1  0.1061721E+005  0.1043930E+01  0.7957747E-01            NaN
         13   -1    0    0    0    0  0.00000000000E+00  0.00000000000E+00  0.74505805969E-08  0.10566000000E+00  0.10566000000E+00 0.  1.
     999900   -1    0    0    0    0 -0.00000000000E+00 -0.00000000000E+00 -0.74505805969E-08  0.93827000000E+00  0.93827000000E+00 0. -1.
     999902    2    1    2    0    0  0.10009551646E-01 -0.21779580050E-01  0.25758507199E-02  0.10198224029E+01  0.10195374232E+01 0.  0.
     999903    2    3    3    0    0  0.71453155204E-01 -0.61952194118E-01  0.90583527452E-01  0.13239099343E+00  0.19451785294E-01 0.  0.
         14    1    1    2    0    0 -0.10009551646E-01  0.21779580050E-01 -0.25758507199E-02  0.24107597106E-01  0.00000000000E+00 0. -1.
     999901    1    3    3    0    0 -0.61443603558E-01  0.40172614068E-01 -0.88007676732E-01  0.88743140946E+00  0.88000000000E+00 0. -1.
        -11    1    4    4    0    0  0.17189961649E-01 -0.14360986252E-01  0.11027415291E-01  0.24971938584E-01  0.51100000000E-03 0.  1.
         11    1    4    4    0    0  0.54263193555E-01 -0.47591207866E-01  0.79556112161E-01  0.10741905485E+00  0.51100000000E-03 0. -1.
</event>
<event>
 8    1  0.1061721E+005  0.1043930E+01  0.7957747E-01            NaN
         13   -1    0    0    0    0  0.00000000000E+00  0.00000000000E+00  0.74505805969E-08  0.10566000000E+00  0.10566000000E+00 0.  1.
     999900   -1    0    0    0    0 -0.00000000000E+00 -0.00000000000E+00 -0.74505805969E-08  0.93827000000E+00  0.93827000000E+00 0. -1.
     999902    2    1    2    0    0  0.37003593105E-02  0.18622984545E-01 -0.45343429176E-02  0.10244090247E+01  0.10242230135E+01 0.  0.
     999903    2    3    3    0    0 -0.47351090877E-01  0.81587717120E-01  0.94765934162E-01  0.13512203322E+00  0.19460220787E-01 0.  0.
         14    1    1    2    0    0 -0.37003593105E-02 -0.18622984545E-01  0.45343429176E-02  0.19520975336E-01  0.00000000000E+00 0. -1.
     999901    1    3    3    0    0  0.51051450187E-01 -0.62964732575E-01 -0.99300277080E-01  0.88928699144E+00  0.88000000000E+00 0. -1.
        -11    1    4    4    0    0 -0.57816426877E-02  0.27471476076E-01  0.27524693924E-01  0.39318943101E-01  0.51100000000E-03 0.  1.
         11    1    4    4    0    0 -0.41569448189E-01  0.54116241043E-01  0.67241240238E-01  0.95803090123E-01  0.51100000000E-03 0. -1.
</event>
<event>
 8    1  0.1061721E+005  0.1043930E+01  0.7957747E-01            NaN
         13   -1    0    0    0    0  0.00000000000E+00  0.00000000000E+00  0.74505805969E-08  0.10566000000E+00  0.10566000000E+00 0.  1.
     999900   -1    0    0    0    0 -0.00000000000E+00 -0.00000000000E+00 -0.74505805969E-08  0.93827000000E+00  0.93827000000E+00 0.  1.
     999902    2    1    2    0    0 -0.58166746233E-02 -0.16833246738E-01 -0.14259862904E-01  0.10211147509E+01  0.10208598332E+01 0.  0.
     999903    2    3    3    0    0  0.10282986491E+00  0.67731691210E-03 -0.79988318266E-01  0.13182800291E+00  0.20150717509E-01 0.  0.
         14    1    1    2    0    0  0.58166746233E-02  0.16833246738E-01  0.14259862904E-01  0.22815249055E-01  0.00000000000E+00 0.  1.
     999901    1    3    3    0    0 -0.10864653953E+00 -0.17510563650E-01  0.65728455362E-01  0.88928674804E+00  0.88000000000E+00 0. -1.
        -11    1    4    4    0    0  0.64755206105E-01 -0.81844813387E-02 -0.55652105929E-01  0.85776689536E-01  0.51100000000E-03 0.  1.
         11    1    4    4    0    0  0.38074658804E-01  0.88617982508E-02 -0.24336212337E-01  0.46051313371E-01  0.51100000000E-03 0. -1.
</event>
<event>
 8    1  0.1061721E+005  0.1043930E+01  0.7957747E-01            NaN
         13   -1    0    0    0    0  0.00000000000E+00  0.00000000000E+00  0.74505805969E-08  0.10566000000E+00  0.10566000000E+00 0.  1.
     999900   -1    0    0    0    0 -0.00000000000E+00 -0.00000000000E+00 -0.74505805969E-08  0.93827000000E+00  0.93827000000E+00 0.  1.
     999902    2    1    2    0    0  0.13371598075E-02 -0.26071705541E-02 -0.22120709026E-01  0.10216160783E+01  0.10213723612E+01 0.  0.
     999903    2    3    3    0    0  0.14267959200E-01 -0.42681342760E-02 -0.13214232545E+00  0.13466922505E+00  0.21270034579E-01 0.  0.
         14    1    1    2    0    0 -0.13371598075E-02  0.26071705541E-02  0.22120709026E-01  0.22313921718E-01  0.00000000000E+00 0.  1.
     999901    1    3    3    0    0 -0.12930799392E-01  0.16609637219E-02  0.11002161642E+00  0.88694685323E+00  0.88000000000E+00 0. -1.
        -11    1    4    4    0    0 -0.28306293710E-02 -0.78484740047E-02 -0.49277747561E-01  0.49981681969E-01  0.51100000000E-03 0.  1.
         11    1    4    4    0    0  0.17098588571E-01  0.35803397287E-02 -0.82864577889E-01  0.84687543083E-01  0.51100000000E-03 0. -1.
</event>
<event>
 8    1  0.1061721E+005  0.1043930E+01  0.7957747E-01            NaN
         13   -1    0    0    0    0  0.00000000000E+00  0.00000000000E+00  0.74505805969E-08  0.10566000000E+00  0.10566000000E+00 0.  1.
     999900   -1    0    0    0    0 -0.00000000000E+00 -0.00000000000E+00 -0.74505805969E-08  0.93827000000E+00  0.93827000000E+00 0. -1.
     999902    2    1    2    0    0  0.11131410994E-01  0.18260382415E-01  0.96447498930E-02  0.10204700111E+01  0.10202003100E+01 0.  0.
     999903    2    3    3    0    0 -0.42301941494E-01 -0.27297896544E-01 -0.11673963657E+00  0.12867199977E+00  0.19842161420E-01 0.  0.
         14    1    1    2    0    0 -0.11131410994E-01 -0.18260382415E-01 -0.96447498930E-02  0.23459988857E-01  0.00000000000E+00 0. -1.
     999901    1    3    3    0    0  0.53433352488E-01  0.45558278959E-01  0.12638438646E+00  0.89179801137E+00  0.88000000000E+00 0.  1.
        -11    1    4    4    0    0 -0.43050701396E-01 -0.21402007056E-01 -0.10169679069E+00  0.11248958687E+00  0.51100000000E-03 0. -1.
         11    1    4    4    0    0  0.74875990189E-03 -0.58958894880E-02 -0.15042845879E-01  0.16182412904E-01  0.51100000000E-03 0.  1.
</event>
<event>
 8    1  0.1061721E+005  0.1043930E+01  0.7957747E-01            NaN
         13   -1    0    0    0    0  0.00000000000E+00  0.00000000000E+00  0.74505805969E-08  0.10566000000E+00  0.10566000000E+00 0.  1.
     999900   -1    0    0    0    0 -0.00000000000E+00 -0.00000000000E+00 -0.74505805969E-08  0.93827000000E+00  0.93827000000E+00 0.  1.
     999902    2    1    2    0    0 -0.11847965697E-01 -0.19790663126E-01 -0.63652772705E-02  0.10200017449E+01  0.10197210394E+01 0.  0.
     999903    2    3    3    0    0  0.11046986931E+00 -0.62419438658E-01  0.20132221649E-01  0.13012479681E+00  0.20673123818E-01 0.  0.
         14    1    1    2    0    0  0.11847965697E-01  0.19790663126E-01  0.63652772705E-02  0.23928255115E-01  0.00000000000E+00 0.  1.
     999901    1    3    3    0    0 -0.12231783501E+00  0.42628775533E-01 -0.26497498920E-01  0.88987694807E+00  0.88000000000E+00 0.  1.
        -11    1    4    4    0    0  0.46589949873E-01 -0.20215228416E-01  0.16771702345E-01  0.53486727416E-01  0.51100000000E-03 0.  1.
         11    1    4    4    0    0  0.63879919439E-01 -0.42204210242E-01  0.33605193047E-02  0.76638069396E-01  0.51100000000E-03 0. -1.
</event>
<event>
 8    1  0.1061721E+005  0.1043930E+01  0.7957747E-01            NaN
         13   -1    0    0    0    0  0.00000000000E+00  0.00000000000E+00  0.74505805969E-08  0.10566000000E+00  0.10566000000E+00 0.  1.
     999900   -1    0    0    0    0 -0.00000000000E+00 -0.00000000000E+00 -0.74505805969E-08  0.93827000000E+00  0.93827000000E+00 0.  1.
     999902    2    1    2    0    0  0.64007247325E-02 -0.15641745100E-01 -0.15101678168E-01  0.10212651781E+01  0.10210136482E+01 0.  0.
     999903    2    3    3    0    0 -0.95307338310E-01  0.24340256095E-01 -0.85337532713E-01  0.13172812675E+00  0.19846110104E-01 0.  0.
         14    1    1    2    0    0 -0.64007247325E-02  0.15641745100E-01  0.15101678168E-01  0.22664821869E-01  0.00000000000E+00 0.  1.
     999901    1    3    3    0    0  0.10170806304E+00 -0.39982001195E-01  0.70235854546E-01  0.88953705138E+00  0.88000000000E+00 0. -1.
        -11    1    4    4    0    0 -0.24912631070E-01  0.10119334906E-01 -0.13288009374E-01  0.29997873922E-01  0.51100000000E-03 0. -1.
         11    1    4    4    0    0 -0.70394707240E-01  0.14220921189E-01 -0.72049523339E-01  0.10173025283E+00  0.51100000000E-03 0.  1.
</event>
<event>
 8    1  0.1061721E+005  0.1043930E+01  0.7957747E-01            NaN
         13   -1    0    0    0    0  0.00000000000E+00  0.00000000000E+00  0.74505805969E-08  0.10566000000E+00  0.10566000000E+00 0.  1.
     999900   -1    0    0    0    0 -0.00000000000E+00 -0.00000000000E+00 -0.74505805969E-08  0.93827000000E+00  0.93827000000E+00 0. -1.
     999902    2    1    2    0    0  0.17749296067E-01  0.15208977714E-01 -0.16461176751E-02  0.10204979660E+01  0.10202289147E+01 0.  0.
     999903    2    3    3    0    0  0.76376356891E-01 -0.10264490193E+00 -0.16409620210E-01  0.13058525668E+00  0.20344774284E-01 0.  0.
         14    1    1    2    0    0 -0.17749296067E-01 -0.15208977714E-01  0.16461176751E-02  0.23432034000E-01  0.00000000000E+00 0.  1.
     999901    1    3    3    0    0 -0.58627060824E-01  0.11785387965E+00  0.14763502535E-01  0.88991270932E+00  0.88000000000E+00 0.  1.
        -11    1    4    4    0    0  0.49542793921E-01 -0.69291920342E-01 -0.13189653437E-02  0.85193071577E-01  0.51100000000E-03 0. -1.
         11    1    4    4    0    0  0.26833562970E-01 -0.33352981592E-01 -0.15090654866E-01  0.45392185099E-01  0.51100000000E-03 0.  1.
</event>
<event>
 8    1  0.1061721E+005  0.1043930E+01  0.7957747E-01            NaN
         13   -1    0    0    0    0  0.00000000000E+00  0.00000000000E+00  0.74505805969E-08  0.10566000000E+00  0.10566000000E+00 0. -1.
     999900   -1    0    0    0    0 -0.00000000000E+00 -0.00000000000E+00 -0.74505805969E-08  0.93827000000E+00  0.93827000000E+00 0. -1.
     999902    2    1    2    0    0 -0.12442469770E-01 -0.17833125008E-01  0.84726570896E-02  0.10205928768E+01  0.10203260258E+01 0.  0.
     999903    2    3    3    0    0 -0.63047416515E-01 -0.76898920809E-01 -0.85011225306E-01  0.13222985126E+00  0.19219895535E-01 0.  0.
         14    1    1    2    0    0  0.12442469770E-01  0.17833125008E-01 -0.84726570896E-02  0.23337123209E-01  0.00000000000E+00 0. -1.
     999901    1    3    3    0    0  0.50604946745E-01  0.59065795801E-01  0.93483882396E-01  0.88836302553E+00  0.88000000000E+00 0.  1.
        -11    1    4    4    0    0 -0.43241864778E-01 -0.49954188674E-01 -0.44329194578E-01  0.79565183645E-01  0.51100000000E-03 0. -1.
         11    1    4    4    0    0 -0.19805551737E-01 -0.26944732136E-01 -0.40682030728E-01  0.52664667612E-01  0.51100000000E-03 0.  1.
</event>
<event>
 7    1  0.1061721E+005  0.1043930E+01  0.7957747E-01            NaN
         13   -1    0    0    0    0  0.00000000000E+00  0.00000000000E+00  0.74505805969E-08  0.10566000000E+00  0.10566000000E+00 0. -1.
     999900   -1    0    0    0    0 -0.00000000000E+00 -0.00000000000E+00 -0.74505805969E-08  0.93827000000E+00  0.93827000000E+00 0. -1.
     999903    2    1    2    0    0  0.10716885373E-01  0.79577007542E-01  0.74812079911E-01  0.11151413639E+00  0.19778866335E-01 0.  0.
         14    1    1    2    0    0 -0.21897090811E-02  0.10364189122E-01  0.39078882943E-01  0.40489138470E-01  0.00000000000E+00 0. -1.
     999901    1    1    2    0    0 -0.85271762921E-02 -0.89941196664E-01 -0.11389096285E+00  0.89192672514E+00  0.88000000000E+00 0. -1.
        -11    1    3    3    0    0  0.25806034436E-02  0.14884904208E-01  0.25959490073E-01  0.30039576116E-01  0.51100000000E-03 0. -1.
         11    1    3    3    0    0  0.81362819296E-02  0.64692103334E-01  0.48852589838E-01  0.81474560277E-01  0.51100000000E-03 0.  1.
</event>
<event>
 8    1  0.1061721E+005  0.1043930E+01  0.7957747E-01            NaN
         13   -1    0    0    0    0  0.00000000000E+00  0.00000000000E+00  0.74505805969E-08  0.10566000000E+00  0.10566000000E+00 0. -1.
     999900   -1    0    0    0    0 -0.00000000000E+00 -0.00000000000E+00 -0.74505805969E-08  0.93827000000E+00  0.93827000000E+00 0.  1.
     999902    2    1    2    0    0  0.23394712879E-01 -0.12857918914E-02  0.34629854501E-02  0.10202454455E+01  0.10199704952E+01 0.  0.
     999903    2    3    3    0    0 -0.41835446313E-01 -0.19245723649E-01  0.11951893833E+00  0.13005079435E+00  0.22535084742E-01 0.  0.
         14    1    1    2    0    0 -0.23394712879E-01  0.12857918914E-02 -0.34629854501E-02  0.23684554454E-01  0.00000000000E+00 0.  1.
     999901    1    3    3    0    0  0.65230159192E-01  0.17959931757E-01 -0.11605595288E+00  0.89019465119E+00  0.88000000000E+00 0. -1.
        -11    1    4    4    0    0  0.25878162487E-02 -0.29246162690E-02  0.93304355736E-02  0.10127601999E-01  0.51100000000E-03 0.  1.
         11    1    4    4    0    0 -0.44423262562E-01 -0.16321107380E-01  0.11018850276E+00  0.11992319235E+00  0.51100000000E-03 0. -1.
</event>
<event>
 8    1  0.1061721E+005  0.1043930E+01  0.7957747E-01            NaN
         13   -1    0    0    0    0  0.00000000000E+00  0.00000000000E+00  0.74505805969E-08  0.10566000000E+00  0.10566000000E+00 0.  1.
     999900   -1    0    0    0    0 -0.00000000000E+00 -0.00000000000E+00 -0.74505805969E-08  0.93827000000E+00  0.93827000000E+00 0. -1.
     999902    2    1    2    0    0 -0.16647893034E-01 -0.60874031345E-02  0.13640962708E-01  0.10215629554E+01  0.10213180637E+01 0.  0.
     999903    2    3    3    0    0 -0.55950042271E-02  0.33550612766E-01  0.12723232836E+00  0.13330829768E+00  0.20641927238E-01 0.  0.
         14    1    1    2    0    0  0.16647893034E-01  0.60874031345E-02 -0.13640962708E-01  0.22367044575E-01  0.00000000000E+00 0. -1.
     999901    1    3    3    0    0 -0.11052888807E-01 -0.39638015901E-01 -0.11359136566E+00  0.88825465775E+00  0.88000000000E+00 0. -1.
        -11    1    4    4    0    0 -0.93880294489E-03  0.44167903745E-02  0.56299553214E-01  0.56482653986E-01  0.51100000000E-03 0.  1.
         11    1    4    4    0    0 -0.46562012822E-02  0.29133822392E-01  0.70932775149E-01  0.76825643693E-01  0.51100000000E-03 0. -1.
</event>
<event>
 8    1  0.1061721E+005  0.1043930E+01  0.7957747E-01            NaN
         13   -1    0    0    0    0  0.00000000000E+00  0.00000000000E+00  0.74505805969E-08  0.10566000000E+00  0.10566000000E+00 0. -1.
     999900   -1    0    0    0    0 -0.00000000000E+00 -0.00000000000E+00 -0.74505805969E-08  0.93827000000E+00  0.93827000000E+00 0. -1.
     999902    2    1    2    0    0  0.16252027268E-01 -0.15876951082E-01  0.29020064659E-02  0.10210252492E+01  0.10207683047E+01 0.  0.
     999903    2    3    3    0    0  0.65477892996E-01 -0.68641615031E-01 -0.91219957098E-01  0.13306903430E+00  0.19678961655E-01 0.  0.
         14    1    1    2    0    0 -0.16252027268E-01  0.15876951082E-01 -0.29020064659E-02  0.22904750762E-01  0.00000000000E+00 0. -1.
     999901    1    3    3    0    0 -0.49225865729E-01  0.52764663949E-01  0.94121963564E-01  0.88795621494E+00  0.88000000000E+00 0.  1.
        -11    1    4    4    0    0  0.35360995671E-01 -0.29153775456E-01 -0.55036284870E-01  0.71621200852E-01  0.51100000000E-03 0. -1.
         11    1    4    4    0    0  0.30116897325E-01 -0.39487839575E-01 -0.36183672228E-01  0.61447833450E-01  0.51100000000E-03 0.  1.
</event>
<event>
 8    1  0.1061721E+005  0.1043930E+01  0.7957747E-01            NaN
         13   -1    0    0    0    0  0.00000000000E+00  0.00000000000E+00  0.74505805969E-08  0.10566000000E+00  0.10566000000E+00 0.  1.
     999900   -1    0    0    0    0 -0.00000000000E+00 -0.00000000000E+00 -0.74505805969E-08  0.93827000000E+00  0.93827000000E+00 0.  1.
     999902    2    1    2    0    0 -0.64496754723E-02  0.10363655076E-01  0.21392542657E-01  0.10192998449E+01  0.10190022224E+01 0.  0.
     999903    2    3    3    0    0  0.67480446139E-01 -0.11621592209E-01 -0.10590566657E+00  0.12680119050E+00  0.13185586289E-01 0.  0.
         14    1    1    2    0    0  0.64496754723E-02 -0.10363655076E-01 -0.21392542657E-01  0.24630155127E-01  0.00000000000E+00 0. -1.
     999901    1    3    3    0    0 -0.73930121612E-01  0.21985247285E-01  0.12729820922E+00  0.89249865437E+00  0.88000000000E+00 0. -1.
        -11    1    4    4    0    0  0.43428063877E-01 -0.13212355656E-01 -0.64216351300E-01  0.78641998762E-01  0.51100000000E-03 0.  1.
         11    1    4    4    0    0  0.24052382263E-01  0.15907634466E-02 -0.41689315266E-01  0.48159191742E-01  0.51100000000E-03 0. -1.
</event>
<event>
 8    1  0.1061721E+005  0.1043930E+01  0.7957747E-01            NaN
         13   -1    0    0    0    0  0.00000000000E+00  0.00000000000E+00  0.74505805969E-08  0.10566000000E+00  0.10566000000E+00 0. -1.
     999900   -1    0    0    0    0 -0.00000000000E+00 -0.00000000000E+00 -0.74505805969E-08  0.93827000000E+00  0.93827000000E+00 0.  1.
     999902    2    1    2    0    0 -0.35602786779E-02  0.17053312147E-03  0.24543944965E-01  0.10191285908E+01  0.10188267638E+01 0.  0.
     999903    2    3    3    0    0  0.11280270662E+00  0.15883506841E-01  0.60378876983E-01  0.13060656839E+00  0.20874158906E-01 0.  0.
         14    1    1    2    0    0  0.35602786779E-02 -0.17053312147E-03 -0.24543944965E-01  0.24801409239E-01  0.00000000000E+00 0.  1.
     999901    1    3    3    0    0 -0.11636298530E+00 -0.15712973719E-01 -0.35834932018E-01  0.88852202237E+00  0.88000000000E+00 0. -1.
        -11    1    4    4    0    0  0.12928818488E-01  0.20247696523E-02  0.15347773667E-01  0.20175958891E-01  0.51100000000E-03 0.  1.
         11    1    4    4    0    0  0.99873888130E-01  0.13858737188E-01  0.45031103316E-01  0.11043060950E+00  0.51100000000E-03 0. -1.
</event>
<event>
 8    1  0.1061721E+005  0.1043930E+01  0.7957747E-01            NaN
         13   -1    0    0    0    0  0.00000000000E+00  0.00000000000E+00  0.74505805969E-08  0.10566000000E+00  0.10566000000E+00 0. -1.
     999900   -1    0    0    0    0 -0.00000000000E+00 -0.00000000000E+00 -0.74505805969E-08  0.93827000000E+00  0.93827000000E+00 0. -1.
     999902    2    1    2    0    0 -0.18225823362E-01  0.15249141000E-01 -0.88456733124E-04  0.10201660617E+01  0.10198892434E+01 0.  0.
     999903    2    3    3    0    0 -0.46221052541E-01 -0.93774233558E-01 -0.74470071450E-01  0.12988382912E+00  0.19850061656E-01 0.  0.
         14    1    1    2    0    0  0.18225823362E-01 -0.15249141000E-01  0.88456733124E-04  0.23763938290E-01  0.00000000000E+00 0. -1.
     999901    1    3    3    0    0  0.27995229179E-01  0.10902337456E+00  0.74381614717E-01  0.89028223259E+00  0.88000000000E+00 0.  1.
        -11    1    4    4    0    0 -0.61996013655E-02 -0.31488475972E-01 -0.18270043175E-01  0.36932570649E-01  0.51100000000E-03 0.  1.
         11    1    4    4    0    0 -0.40021451175E-01 -0.62285757587E-01 -0.56200028275E-01  0.92951258472E-01  0.51100000000E-03 0. -1.
</event>
<event>
 8    1  0.1061721E+005  0.1043930E+01  0.7957747E-01            NaN
         13   -1    0    0    0    0  0.00000000000E+00  0.00000000000E+00  0.74505805969E-08  0.10566000000E+00  0.10566000000E+00 0.  1.
     999900   -1    0    0    0    0 -0.00000000000E+00 -0.00000000000E+00 -0.74505805969E-08  0.93827000000E+00  0.93827000000E+00 0. -1.
     999902    2    1    2    0    0 -0.69857442172E-02  0.14113955728E-01  0.17690192744E-01  0.10202456742E+01  0.10199707292E+01 0.  0.
     999903    2    3    3    0    0  0.97884766694E-01  0.69157613170E-03 -0.79645095262E-01  0.12858870956E+00  0.24694315092E-01 0.  0.
         14    1    1    2    0    0  0.69857442172E-02 -0.14113955728E-01 -0.17690192744E-01  0.23684325785E-01  0.00000000000E+00 0. -1.
     999901    1    3    3    0    0 -0.10487051091E+00  0.13422379597E-01  0.97335288006E-01  0.89165696466E+00  0.88000000000E+00 0. -1.
        -11    1    4    4    0    0  0.13908278336E-01  0.31449936663E-03 -0.17231682073E-02  0.14027456854E-01  0.51100000000E-03 0.  1.
         11    1    4    4    0    0  0.83976488358E-01  0.37707676507E-03 -0.77921927054E-01  0.11456125270E+00  0.51100000000E-03 0. -1.
</event>
<event>
 8    1  0.1061721E+005  0.1043930E+01  0.7957747E-01            NaN
         13   -1    0    0    0    0  0.00000000000E+00  0.00000000000E+00  0.74505805969E-08  0.10566000000E+00  0.10566000000E+00 0.  1.
     999900   -1    0    0    0    0 -0.00000000000E+00 -0.00000000000E+00 -0.74505805969E-08  0.93827000000E+00  0.93827000000E+00 0.  1.
     999902    2    1    2    0    0  0.12247512220E-01 -0.18745687277E-02  0.20369114153E-01  0.10200885157E+01  0.10198098663E+01 0.  0.
     999903    2    3    3    0    0  0.12340409251E+00  0.24430769872E-01  0.36662870765E-01  0.13255640770E+00  0.20040024040E-01 0.  0.
         14    1    1    2    0    0 -0.12247512220E-01  0.18745687277E-02 -0.20369114153E-01  0.23841484326E-01  0.00000000000E+00 0. -1.
     999901    1    3    3    0    0 -0.11115658030E+00 -0.26305338599E-01 -0.16293756612E-01  0.88753210797E+00  0.88000000000E+00 0. -1.
        -11    1    4    4    0    0  0.10003790999E-01  0.53007437707E-02  0.84674620096E-02  0.14146828364E-01  0.51100000000E-03 0.  1.
         11    1    4    4    0    0  0.11340030152E+00  0.19130026101E-01  0.28195408755E-01  0.11840957934E+00  0.51100000000E-03 0. -1.
</event>
<event>
 8    1  0.1061721E+005  0.1043930E+01  0.7957747E-01            NaN
         13   -1    0    0    0    0  0.00000000000E+00  0.00000000000E+00  0.74505805969E-08  0.10566000000E+00  0.10566000000E+00 0. -1.
     999900   -1    0    0    0    0 -0.00000000000E+00 -0.00000000000E+00 -0.74505805969E-08  0.93827000000E+00  0.93827000000E+00 0. -1.
     999902    2    1    2    0    0  0.21450193299E-02  0.71359586065E-02  0.20258135829E-01  0.10223449339E+01  0.10221170426E+01 0.  0.
     999903    2    3    3    0    0 -0.97911748786E-01 -0.60736193199E-01 -0.58100815393E-01  0.13062854897E+00  0.20310522946E-01 0.  0.
         14    1    1    2    0    0 -0.21450193299E-02 -0.71359586065E-02 -0.20258135829E-01  0.21585066143E-01  0.00000000000E+00 0.  1.
     999901    1    3    3    0    0  0.10005676812E+00  0.67872151805E-01  0.78358951222E-01  0.89171638489E+00  0.88000000000E+00 0.  1.
        -11    1    4    4    0    0 -0.30510190382E-01 -0.28173575051E-01 -0.14446209124E-01  0.43972447366E-01  0.51100000000E-03 0. -1.
         11    1    4    4    0    0 -0.67401558404E-01 -0.32562618148E-01 -0.43654606269E-01  0.86656101605E-01  0.51100000000E-03 0.  1.
</event>
<event>
 8    1  0.1061721E+005  0.1043930E+01  0.7957747E-01            NaN
         13   -1    0    0    0    0  0.00000000000E+00  0.00000000000E+00  0.74505805969E-08  0.10566000000E+00  0.10566000000E+00 0.  1.
     999900   -1    0    0    0    0 -0.00000000000E+00 -0.00000000000E+00 -0.74505805969E-08  0.93827000000E+00  0.93827000000E+00 0. -1.
     999902    2    1    2    0    0  0.10334265700E-01 -0.22376291265E-01  0.10321627940E-02  0.10192609745E+01  0.10189624004E+01 0.  0.
     999903    2    3    3    0    0 -0.10921460218E+00  0.60995384331E-01 -0.91842669461E-02  0.12721437061E+00  0.21233913722E-01 0.  0.
         14    1    1    2    0    0 -0.10334265700E-01  0.22376291265E-01 -0.10321627940E-02  0.24669025485E-01  0.00000000000E+00 0. -1.
     999901    1    3    3    0    0  0.11954886788E+00 -0.83371675596E-01  0.10216429740E-01  0.89204660391E+00  0.88000000000E+00 0. -1.
        -11    1    4    4    0    0 -0.68003105198E-01  0.26007834725E-01 -0.61026678961E-02  0.73063899842E-01  0.51100000000E-03 0.  1.
         11    1    4    4    0    0 -0.41211496979E-01  0.34987549606E-01 -0.30815990500E-02  0.54150470768E-01  0.51100000000E-03 0. -1.
</event>
<event>
 8    1  0.1061721E+005  0.1043930E+01  0.7957747E-01            NaN
         13   -1    0    0    0    0  0.00000000000E+00  0.00000000000E+00  0.74505805969E-08  0.10566000000E+00  0.10566000000E+00 0.  1.
     999900   -1    0    0    0    0 -0.00000000000E+00 -0.00000000000E+00 -0.74505805969E-08  0.93827000000E+00  0.93827000000E+00 0. -1.
     999902    2    1    2    0    0 -0.10896482279E-01  0.20510097741E-01 -0.70490121244E-02  0.10196589059E+01  0.10193700008E+01 0.  0.
     999903    2    3    3    0    0  0.85258148805E-02  0.13036984250E-01 -0.12872317379E+00  0.13104331150E+00  0.18974760606E-01 0.  0.
         14    1    1    2    0    0  0.10896482279E-01 -0.20510097741E-01  0.70490121244E-02  0.24271094070E-01  0.00000000000E+00 0.  1.
     999901    1    3    3    0    0 -0.19422297160E-01  0.74731134913E-02  0.12167416167E+00  0.88861559443E+00  0.88000000000E+00 0.  1.
        -11    1    4    4    0    0  0.45100628238E-02  0.15583247145E-01 -0.60081621667E-01  0.62235364877E-01  0.51100000000E-03 0.  1.
         11    1    4    4    0    0  0.40157520567E-02 -0.25462628951E-02 -0.68641552123E-01  0.68807946621E-01  0.51100000000E-03 0. -1.
</event>
<event>
 8    1  0.1061721E+005  0.1043930E+01  0.7957747E-01            NaN
         13   -1    0    0    0    0  0.00000000000E+00  0.00000000000E+00  0.74505805969E-08  0.10566000000E+00  0.10566000000E+00 0.  1.
     999900   -1    0    0    0    0 -0.00000000000E+00 -0.00000000000E+00 -0.74505805969E-08  0.93827000000E+00  0.93827000000E+00 0.  1.
     999902    2    1    2    0    0 -0.18902490340E-01  0.65599652737E-02  0.17824441291E-02  0.10238423323E+01  0.10236452545E+01 0.  0.
     999903    2    3    3    0    0 -0.64907073598E-01  0.10923817998E+00  0.43229924600E-01  0.13571107452E+00  0.20068911206E-01 0.  0.
         14    1    1    2    0    0  0.18902490340E-01 -0.65599652737E-02 -0.17824441291E-02  0.20087667673E-01  0.00000000000E+00 0. -1.
     999901    1    3    3    0    0  0.46004583257E-01 -0.10267821471E+00 -0.41447480471E-01  0.88813125781E+00  0.88000000000E+00 0. -1.
        -11    1    4    4    0    0 -0.20145562080E-01  0.18111527548E-01  0.81634211097E-02  0.28297944570E-01  0.51100000000E-03 0.  1.
         11    1    4    4    0    0 -0.44761511517E-01  0.91126652436E-01  0.35066503490E-01  0.10741312995E+00  0.51100000000E-03 0. -1.
</event>
<event>
 8    1  0.1061721E+005  0.1043930E+01  0.7957747E-01            NaN
         13   -1    0    0    0    0  0.00000000000E+00  0.00000000000E+00  0.74505805969E-08  0.10566000000E+00  0.10566000000E+00 0.  1.
     999900   -1    0    0    0    0 -0.00000000000E+00 -0.00000000000E+00 -0.74505805969E-08  0.93827000000E+00  0.93827000000E+00 0. -1.
     999902    2    1    2    0    0  0.16442599753E-01  0.10530231393E-02  0.17102614231E-01  0.10201820031E+01  0.10199055604E+01 0.  0.
     999903    2    3    3    0    0  0.18191282554E-01 -0.31553516562E-01  0.12569762037E+00  0.13290576668E+00  0.23184129946E-01 0.  0.
         14    1    1    2    0    0 -0.16442599753E-01 -0.10530231393E-02 -0.17102614231E-01  0.23747996924E-01  0.00000000000E+00 0. -1.
     999901    1    3    3    0    0 -0.17486828003E-02  0.32606539701E-01 -0.10859500614E+00  0.88727623640E+00  0.88000000000E+00 0. -1.
        -11    1    4    4    0    0  0.14173257972E-01 -0.33022936602E-01  0.89404484489E-01  0.96357763315E-01  0.51100000000E-03 0.  1.
         11    1    4    4    0    0  0.40180245818E-02  0.14694200398E-02  0.36293135877E-01  0.36548003360E-01  0.51100000000E-03 0. -1.
</event>
<event>
 8    1  0.1061721E+005  0.1043930E+01  0.7957747E-01            NaN
         13   -1    0    0    0    0  0.00000000000E+00  0.00000000000E+00  0.74505805969E-08  0.10566000000E+00  0.10566000000E+00 0. -1.
     999900   -1    0    0    0    0 -0.00000000000E+00 -0.00000000000E+00 -0.74505805969E-08  0.93827000000E+00  0.93827000000E+00 0.  1.
     999902    2    1    2    0    0 -0.16894155750E-01  0.35309030941E-02  0.15770690212E-01  0.10205506406E+01  0.10202828116E+01 0.  0.
     999903    2    3    3    0    0  0.55990588263E-01  0.11595673199E+00  0.25175774345E-02  0.13031056182E+00  0.19839220170E-01 0.  0.
         14    1    1    2    0    0  0.16894155750E-01 -0.35309030941E-02 -0.15770690212E-01  0.23379359378E-01  0.00000000000E+00 0.  1.
     999901    1    3    3    0    0 -0.72884744013E-01 -0.11242582890E+00  0.13253112778E-01  0.89024007881E+00  0.88000000000E+00 0. -1.
        -11    1    4    4    0    0  0.18205123602E-01  0.52471619463E-01 -0.63300213005E-02  0.55901946881E-01  0.51100000000E-03 0.  1.
         11    1    4    4    0    0  0.37785464661E-01  0.63485112527E-01  0.88475987350E-02  0.74408614935E-01  0.51100000000E-03 0. -1.
</event>
<event>
 8    1  0.1061721E+005  0.1043930E+01  0.7957747E-01            NaN
         13   -1    0    0    0    0  0.00000000000E+00  0.00000000000E+00  0.74505805969E-08  0.10566000000E+00  0.10566000000E+00 0.  1.
     999900   -1    0    0    0    0 -0.00000000000E+00 -0.00000000000E+00 -0.74505805969E-08  0.93827000000E+00  0.93827000000E+00 0.  1.
     999902    2    1    2    0    0 -0.20323615853E-01 -0.10153709453E-01 -0.78750098975E-02  0.10198849806E+01  0.10196014960E+01 0.  0.
     999903    2    3    3    0    0 -0.96136433457E-01  0.33197118142E-01  0.80416118669E-01  0.13116556428E+00  0.19834077240E-01 0.  0.
         14    1    1    2    0    0  0.20323615853E-01  0.10153709453E-01  0.78750098975E-02  0.24045019399E-01  0.00000000000E+00 0.  1.
     999901    1    3    3    0    0  0.75812817604E-01 -0.43350827594E-01 -0.88291128566E-01  0.88871941632E+00  0.88000000000E+00 0. -1.
        -11    1    4    4    0    0 -0.30020248725E-01  0.10463151667E-02  0.21335601146E-01  0.36848054307E-01  0.51100000000E-03 0. -1.
         11    1    4    4    0    0 -0.66116184732E-01  0.32150802975E-01  0.59080517523E-01  0.94317509971E-01  0.51100000000E-03 0.  1.
</event>
<event>
 8    1  0.1061721E+005  0.1043930E+01  0.7957747E-01            NaN
         13   -1    0    0    0    0  0.00000000000E+00  0.00000000000E+00  0.74505805969E-08  0.10566000000E+00  0.10566000000E+00 0. -1.
     999900   -1    0    0    0    0 -0.00000000000E+00 -0.00000000000E+00 -0.74505805969E-08  0.93827000000E+00  0.93827000000E+00 0. -1.
     999902    2    1    2    0    0 -0.23430301013E-01 -0.13382537416E-02 -0.12958616656E-01  0.10171215000E+01  0.10167681398E+01 0.  0.
     999903    2    3    3    0    0  0.92651291726E-01  0.75301762294E-01  0.31249438750E-01  0.12509965023E+00  0.20464061262E-01 0.  0.
         14    1    1    2    0    0  0.23430301013E-01  0.13382537416E-02  0.12958616656E-01  0.26808500038E-01  0.00000000000E+00 0. -1.
     999901    1    3    3    0    0 -0.11608159274E+00 -0.76640016035E-01 -0.44208055406E-01  0.89202184973E+00  0.88000000000E+00 0.  1.
        -11    1    4    4    0    0  0.55744326939E-01  0.50798435709E-01  0.10393921493E-01  0.76132816718E-01  0.51100000000E-03 0. -1.
         11    1    4    4    0    0  0.36906964786E-01  0.24503326585E-01  0.20855517257E-01  0.48966833515E-01  0.51100000000E-03 0.  1.
</event>
<event>
 8    1  0.1061721E+005  0.1043930E+01  0.7957747E-01            NaN
         13   -1    0    0    0    0  0.00000000000E+00  0.00000000000E+00  0.74505805969E-08  0.10566000000E+00  0.10566000000E+00 0. -1.
     999900   -1    0    0    0    0 -0.00000000000E+00 -0.00000000000E+00 -0.74505805969E-08  0.93827000000E+00  0.93827000000E+00 0. -1.
     999902    2    1    2    0    0  0.13837766474E-01 -0.18006230471E-01  0.48789034439E-02  0.10207026064E+01  0.10204382876E+01 0.  0.
     999903    2    3    3    0    0 -0.81091411254E-01 -0.87597203517E-01  0.52027963663E-01  0.13161459823E+00  0.19141745495E-01 0.  0.
         14    1    1    2    0    0 -0.13837766474E-01  0.18006230471E-01 -0.48789034439E-02  0.23227393646E-01  0.00000000000E+00 0.  1.
     999901    1    3    3    0    0  0.94929177728E-01  0.69590973046E-01 -0.47149060219E-01  0.88908800813E+00  0.88000000000E+00 0.  1.
        -11    1    4    4    0    0 -0.57850874710E-02 -0.14260118347E-01  0.32746504256E-02  0.15741749227E-01  0.51100000000E-03 0.  1.
         11    1    4    4    0    0 -0.75306323783E-01 -0.73337085170E-01  0.48753313238E-01  0.11587284900E+00  0.51100000000E-03 0. -1.
</event>
<event>
 8    1  0.1061721E+005  0.1043930E+01  0.7957747E-01            NaN
         13   -1    0    0    0    0  0.00000000000E+00  0.00000000000E+00  0.74505805969E-08  0.10566000000E+00  0.10566000000E+00 0. -1.
     999900   -1    0    0    0    0 -0.00000000000E+00 -0.00000000000E+00 -0.74505805969E-08  0.93827000000E+00  0.93827000000E+00 0. -1.
     999902    2    1    2    0    0  0.19668537870E-01  0.13116493219E-01 -0.12473379182E-02  0.10202561826E+01  0.10199814844E+01 0.  0.
     999903    2    3    3    0    0 -0.38213004889E-01 -0.54661970630E-01 -0.10888307219E+00  0.12922888539E+00  0.19910214360E-01 0.  0.
         14    1    1    2    0    0 -0.19668537870E-01 -0.13116493219E-01  0.12473379182E-02  0.23673817356E-01  0.00000000000E+00 0. -1.
     999901    1    3    3    0    0  0.57881542759E-01  0.67778463849E-01  0.10763573427E+00  0.89102729725E+00  0.88000000000E+00 0.  1.
        -11    1    4    4    0    0 -0.23015190656E-01 -0.47495412332E-01 -0.83600720587E-01  0.98867865342E-01  0.51100000000E-03 0.  1.
         11    1    4    4    0    0 -0.15197814233E-01 -0.71665582985E-02 -0.25282351598E-01  0.30361020052E-01  0.51100000000E-03 0. -1.
</event>
<event>
 8    1  0.1061721E+005  0.1043930E+01  0.7957747E-01            NaN
         13   -1    0    0    0    0  0.00000000000E+00  0.00000000000E+00  0.74505805969E-08  0.10566000000E+00  0.10566000000E+00 0. -1.
     999900   -1    0    0    0    0 -0.00000000000E+00 -0.00000000000E+00 -0.74505805969E-08  0.93827000000E+00  0.93827000000E+00 0. -1.
     999902    2    1    2    0    0 -0.25774127370E-02  0.48511844870E-02  0.23950707309E-01  0.10193573846E+01  0.10190611680E+01 0.  0.
     999903    2    3    3    0    0  0.68574465230E-01  0.91144086095E-01 -0.56305633082E-01  0.12865533858E+00  0.19291711060E-01 0.  0.
         14    1    1    2    0    0  0.25774127370E-02 -0.48511844870E-02 -0.23950707309E-01  0.24572615407E-01  0.00000000000E+00 0.  1.
     999901    1    3    3    0    0 -0.71151877967E-01 -0.86292901608E-01  0.80256340391E-01  0.89070204602E+00  0.88000000000E+00 0.  1.
        -11    1    4    4    0    0  0.47861263437E-01  0.48475336318E-01 -0.36102470357E-01  0.77098691660E-01  0.51100000000E-03 0.  1.
         11    1    4    4    0    0  0.20713201794E-01  0.42668749777E-01 -0.20203162726E-01  0.51556646916E-01  0.51100000000E-03 0. -1.
</event>
<event>
 8    1  0.1061721E+005  0.1043930E+01  0.7957747E-01            NaN
         13   -1    0    0    0    0  0.00000000000E+00  0.00000000000E+00  0.74505805969E-08  0.10566000000E+00  0.10566000000E+00 0.  1.
     999900   -1    0    0    0    0 -0.00000000000E+00 -0.00000000000E+00 -0.74505805969E-08  0.93827000000E+00  0.93827000000E+00 0. -1.
     999902    2    1    2    0    0  0.23689585369E-02  0.16874060565E-01  0.53306097268E-02  0.10260761129E+01  0.10259207709E+01 0.  0.
     999903    2    3    3    0    0 -0.73834258538E-01  0.49421374504E-01 -0.10117873660E+00  0.13578936202E+00  0.17539786402E-01 0.  0.
         14    1    1    2    0    0 -0.23689585369E-02 -0.16874060565E-01 -0.53306097268E-02  0.17853887099E-01  0.00000000000E+00 0. -1.
     999901    1    3    3    0    0  0.76203217075E-01 -0.32547313939E-01  0.10650934632E+00  0.89028675088E+00  0.88000000000E+00 0.  1.
        -11    1    4    4    0    0 -0.66095193022E-01  0.37870071572E-01 -0.80162603381E-01  0.11058490387E+00  0.51100000000E-03 0. -1.
         11    1    4    4    0    0 -0.77390655161E-02  0.11551302932E-01 -0.21016133216E-01  0.25204458154E-01  0.51100000000E-03 0.  1.
</event>
<event>
 8    1  0.1061721E+005  0.1043930E+01  0.7957747E-01            NaN
         13   -1    0    0    0    0  0.00000000000E+00  0.00000000000E+00  0.74505805969E-08  0.10566000000E+00  0.10566000000E+00 0. -1.
     999900   -1    0    0    0    0 -0.00000000000E+00 -0.00000000000E+00 -0.74505805969E-08  0.93827000000E+00  0.93827000000E+00 0.  1.
     999902    2    1    2    0    0 -0.16026144792E-01  0.14135513466E-01  0.14902327279E-01  0.10178775641E+01  0.10175441052E+01 0.  0.
     999903    2    3    3    0    0  0.63718137294E-01  0.10837720593E+00  0.12763590370E-01  0.12925772338E+00  0.27185106765E-01 0.  0.
         14    1    1    2    0    0  0.16026144792E-01 -0.14135513466E-01 -0.14902327279E-01  0.26052435897E-01  0.00000000000E+00 0. -1.
     999901    1    3    3    0    0 -0.79744282086E-01 -0.94241692464E-01  0.21387369087E-02  0.88861984072E+00  0.88000000000E+00 0.  1.
        -11    1    4    4    0    0  0.10397136727E-01  0.38762731262E-01 -0.26486184779E-02  0.40223451963E-01  0.51100000000E-03 0. -1.
         11    1    4    4    0    0  0.53321000567E-01  0.69614474668E-01  0.15412208848E-01  0.89034271421E-01  0.51100000000E-03 0.  1.
</event>
<event>
 8    1  0.1061721E+005  0.1043930E+01  0.7957747E-01            NaN
         13   -1    0    0    0    0  0.00000000000E+00  0.00000000000E+00  0.74505805969E-08  0.10566000000E+00  0.10566000000E+00 0. -1.
     999900   -1    0    0    0    0 -0.00000000000E+00 -0.00000000000E+00 -0.74505805969E-08  0.93827000000E+00  0.93827000000E+00 0.  1.
     999902    2    1    2    0    0 -0.61640879020E-03  0.22665608615E-01  0.97003416919E-02  0.10192681590E+01  0.10189697608E+01 0.  0.
     999903    2    3    3    0    0  0.14415249534E-01  0.10931520222E+00 -0.68649979229E-01  0.13142083223E+00  0.20025050334E-01 0.  0.
         14    1    1    2    0    0  0.61640879020E-03 -0.22665608615E-01 -0.97003416919E-02  0.24661841023E-01  0.00000000000E+00 0. -1.
     999901    1    3    3    0    0 -0.15031658324E-01 -0.86649593603E-01  0.78350320920E-01  0.88784732675E+00  0.88000000000E+00 0. -1.
        -11    1    4    4    0    0  0.16822017642E-01  0.51768407226E-01 -0.34888277261E-01  0.64656022732E-01  0.51100000000E-03 0. -1.
         11    1    4    4    0    0 -0.24067681080E-02  0.57546794992E-01 -0.33761701967E-01  0.66764809498E-01  0.51100000000E-03 0.  1.
</event>
<event>
 7    1  0.1061721E+005  0.1043930E+01  0.7957747E-01            NaN
         13   -1    0    0    0    0  0.00000000000E+00  0.00000000000E+00  0.74505805969E-08  0.10566000000E+00  0.10566000000E+00 0. -1.
     999900   -1    0    0    0    0 -0.00000000000E+00 -0.00000000000E+00 -0.74505805969E-08  0.93827000000E+00  0.93827000000E+00 0.  1.
     999902    2    1    2    0    0  0.16428747827E-01  0.16941539217E-01  0.16156789799E-02  0.10202756151E+01  0.10200013730E+01 0.  0.
         14    1    1    2    0    0 -0.16428747827E-01 -0.16941539217E-01 -0.16156789799E-02  0.23654384896E-01  0.00000000000E+00 0. -1.
     999901    1    3    3    0    0 -0.95428093267E-02  0.12913323699E+00  0.46268861616E-01  0.89067798090E+00  0.88000000000E+00 0. -1.
        -11    1    3    3    0    0  0.35915286571E-01 -0.97562589302E-01 -0.38377380098E-01  0.11082170846E+00  0.51100000000E-03 0.  1.
         11    1    3    3    0    0 -0.99437294168E-02 -0.14629108466E-01 -0.62758025386E-02  0.18775925749E-01  0.51100000000E-03 0. -1.
</event>
<event>
 7    1  0.1061721E+005  0.1043930E+01  0.7957747E-01            NaN
         13   -1    0    0    0    0  0.00000000000E+00  0.00000000000E+00  0.74505805969E-08  0.10566000000E+00  0.10566000000E+00 0.  1.
     999900   -1    0    0    0    0 -0.00000000000E+00 -0.00000000000E+00 -0.74505805969E-08  0.93827000000E+00  0.93827000000E+00 0. -1.
     999902    2    1    2    0    0  0.12289622945E-01 -0.23383766895E-01 -0.12164195151E-01  0.10148473070E+01  0.10144305070E+01 0.  0.
         14    1    1    2    0    0 -0.12289622945E-01  0.23383766895E-01  0.12164195151E-01  0.29082692963E-01  0.00000000000E+00 0.  1.
     999901    1    3    3    0    0 -0.26829493824E-01 -0.22108837061E-01 -0.10099358044E+00  0.88645830455E+00  0.88000000000E+00 0. -1.
        -11    1    3    3    0    0  0.25613260418E-01  0.25527138581E-01  0.16681271485E-02  0.36203835191E-01  0.51100000000E-03 0. -1.
         11    1    3    3    0    0  0.13505856351E-01 -0.26802068416E-01  0.87161258143E-01  0.92185167295E-01  0.51100000000E-03 0.  1.
</event>
<event>
 8    1  0.1061721E+005  0.1043930E+01  0.7957747E-01            NaN
         13   -1    0    0    0    0  0.00000000000E+00  0.00000000000E+00  0.74505805969E-08  0.10566000000E+00  0.10566000000E+00 0. -1.
     999900   -1    0    0    0    0 -0.00000000000E+00 -0.00000000000E+00 -0.74505805969E-08  0.93827000000E+00  0.93827000000E+00 0.  1.
     999902    2    1    2    0    0  0.17503039901E-01 -0.26671701179E-02 -0.14660512887E-01  0.10209430289E+01  0.10206842153E+01 0.  0.
     999903    2    3    3    0    0 -0.40387559592E-01 -0.32038191978E-01  0.11647547984E+00  0.12886084265E+00  0.19518674392E-01 0.  0.
         14    1    1    2    0    0 -0.17503039901E-01  0.26671701179E-02  0.14660512887E-01  0.22986971099E-01  0.00000000000E+00 0. -1.
     999901    1    3    3    0    0  0.57890599493E-01  0.29371021861E-01 -0.13113599273E+00  0.89208218625E+00  0.88000000000E+00 0.  1.
        -11    1    4    4    0    0 -0.37877001215E-01 -0.29444702459E-01  0.88676220750E-01  0.10082356357E+00  0.51100000000E-03 0. -1.
         11    1    4    4    0    0 -0.25105583769E-02 -0.25934895196E-02  0.27799259089E-01  0.28037279079E-01  0.51100000000E-03 0.  1.
</event>
<event>
 8    1  0.1061721E+005  0.1043930E+01  0.7957747E-01            NaN
         13   -1    0    0    0    0  0.00000000000E+00  0.00000000000E+00  0.74505805969E-08  0.10566000000E+00  0.10566000000E+00 0. -1.
     999900   -1    0    0    0    0 -0.00000000000E+00 -0.00000000000E+00 -0.74505805969E-08  0.93827000000E+00  0.93827000000E+00 0.  1.
     999902    2    1    2    0    0  0.22482978594E-01 -0.17539016467E-02 -0.83084497272E-02  0.10198968805E+01  0.10196136798E+01 0.  0.
     999903    2    3    3    0    0  0.48226095225E-02  0.54633675620E-01 -0.11750172729E+00  0.13118172961E+00  0.19846767786E-01 0.  0.
         14    1    1    2    0    0 -0.22482978594E-01  0.17539016467E-02  0.83084497272E-02  0.24033119529E-01  0.00000000000E+00 0.  1.
     999901    1    3    3    0    0  0.17660369071E-01 -0.56387577267E-01  0.10919327757E+00  0.88871515086E+00  0.88000000000E+00 0. -1.
        -11    1    4    4    0    0  0.18163793677E-03  0.15113690507E-01 -0.15332798337E-01  0.21536305601E-01  0.51100000000E-03 0. -1.
         11    1    4    4    0    0  0.46409715857E-02  0.39519985113E-01 -0.10216892896E+00  0.10964542401E+00  0.51100000000E-03 0.  1.
</event>
<event>
 8    1  0.1061721E+005  0.1043930E+01  0.7957747E-01            NaN
         13   -1    0    0    0    0  0.00000000000E+00  0.00000000000E+00  0.74505805969E-08  0.10566000000E+00  0.10566000000E+00 0. -1.
     999900   -1    0    0    0    0 -0.00000000000E+00 -0.00000000000E+00 -0.74505805969E-08  0.93827000000E+00  0.93827000000E+00 0.  1.
     999902    2    1    2    0    0 -0.47450496986E-03  0.23266283949E-01 -0.14492711984E-04  0.10206588734E+01  0.10203935469E+01 0.  0.
     999903    2    3    3    0    0 -0.12839965834E+00  0.17114596728E-01  0.13316537368E-01  0.13128808205E+00  0.16728677129E-01 0.  0.
         14    1    1    2    0    0  0.47450496986E-03 -0.23266283949E-01  0.14492711984E-04  0.23271126612E-01  0.00000000000E+00 0.  1.
     999901    1    3    3    0    0  0.12792515337E+00  0.61516872214E-02 -0.13331030080E-01  0.88937079134E+00  0.88000000000E+00 0. -1.
        -11    1    4    4    0    0 -0.77787418288E-01  0.18244349101E-01  0.10438480405E-01  0.80578916052E-01  0.51100000000E-03 0.  1.
         11    1    4    4    0    0 -0.50612240051E-01 -0.11297523734E-02  0.28780569633E-02  0.50709165999E-01  0.51100000000E-03 0. -1.
</event>
<event>
 8    1  0.1061721E+005  0.1043930E+01  0.7957747E-01            NaN
         13   -1    0    0    0    0  0.00000000000E+00  0.00000000000E+00  0.74505805969E-08  0.10566000000E+00  0.10566000000E+00 0.  1.
     999900   -1    0    0    0    0 -0.00000000000E+00 -0.00000000000E+00 -0.74505805969E-08  0.93827000000E+00  0.93827000000E+00 0. -1.
     999902    2    1    2    0    0  0.11702595474E-01  0.90985726919E-02  0.18588665348E-01  0.10201545243E+01  0.10198774339E+01 0.  0.
     999903    2    3    3    0    0 -0.43892297278E-01 -0.12884227663E-01 -0.11770135432E+00  0.12765858308E+00  0.18723459707E-01 0.  0.
         14    1    1    2    0    0 -0.11702595474E-01 -0.90985726919E-02 -0.18588665348E-01  0.23775475711E-01  0.00000000000E+00 0. -1.
     999901    1    3    3    0    0  0.55594892752E-01  0.21982800355E-01  0.13629001967E+00  0.89249594121E+00  0.88000000000E+00 0.  1.
        -11    1    4    4    0    0 -0.71911236073E-02 -0.10346661350E-01 -0.31838431624E-01  0.34244890263E-01  0.51100000000E-03 0. -1.
         11    1    4    4    0    0 -0.36701173671E-01 -0.25375663130E-02 -0.85862922693E-01  0.93413692819E-01  0.51100000000E-03 0.  1.
</event>
<event>
 8    1  0.1061721E+005  0.1043930E+01  0.7957747E-01            NaN
         13   -1    0    0    0    0  0.00000000000E+00  0.00000000000E+00  0.74505805969E-08  0.10566000000E+00  0.10566000000E+00 0. -1.
     999900   -1    0    0    0    0 -0.00000000000E+00 -0.00000000000E+00 -0.74505805969E-08  0.93827000000E+00  0.93827000000E+00 0. -1.
     999902    2    1    2    0    0  0.25045297183E-01 -0.86191253512E-03 -0.51186360317E-03  0.10188646492E+01  0.10185562830E+01 0.  0.
     999903    2    3    3    0    0  0.90700475829E-01  0.20596986845E-01  0.90847906919E-01  0.13144271210E+00  0.19314041292E-01 0.  0.
         14    1    1    2    0    0 -0.25045297183E-01  0.86191253512E-03  0.51186360317E-03  0.25065350756E-01  0.00000000000E+00 0. -1.
     999901    1    3    3    0    0 -0.65655178647E-01 -0.21458899381E-01 -0.91359770523E-01  0.88742193714E+00  0.88000000000E+00 0. -1.
        -11    1    4    4    0    0  0.40904951335E-01  0.93888081331E-02  0.54458001125E-01  0.68755361750E-01  0.51100000000E-03 0. -1.
         11    1    4    4    0    0  0.49795524495E-01  0.11208178712E-01  0.36389905794E-01  0.62687350354E-01  0.51100000000E-03 0.  1.
</event>
<event>
 8    1  0.1061721E+005  0.1043930E+01  0.7957747E-01            NaN
         13   -1    0    0    0    0  0.00000000000E+00  0.00000000000E+00  0.74505805969E-08  0.10566000000E+00  0.10566000000E+00 0.  1.
     999900   -1    0    0    0    0 -0.00000000000E+00 -0.00000000000E+00 -0.74505805969E-08  0.93827000000E+00  0.93827000000E+00 0. -1.
     999902    2    1    2    0    0  0.18428612458E-01 -0.72020053989E-02  0.12114545038E-01  0.10207298957E+01  0.10204662048E+01 0.  0.
     999903    2    3    3    0    0  0.59638502464E-01  0.40133241411E-01 -0.10698163843E+00  0.13049240965E+00  0.20390438252E-01 0.  0.
         14    1    1    2    0    0 -0.18428612458E-01  0.72020053989E-02 -0.12114545038E-01  0.23200104318E-01  0.00000000000E+00 0. -1.
     999901    1    3    3    0    0 -0.41209890006E-01 -0.47335246810E-01  0.11909618347E+00  0.89023748603E+00  0.88000000000E+00 0.  1.
        -11    1    4    4    0    0  0.38364917311E-01  0.34264021594E-01 -0.63439699384E-01  0.81674638873E-01  0.51100000000E-03 0.  1.
         11    1    4    4    0    0  0.21273585153E-01  0.58692198171E-02 -0.43541939045E-01  0.48817770774E-01  0.51100000000E-03 0. -1.
</event>
<event>
 8    1  0.1061721E+005  0.1043930E+01  0.7957747E-01            NaN
         13   -1    0    0    0    0  0.00000000000E+00  0.00000000000E+00  0.74505805969E-08  0.10566000000E+00  0.10566000000E+00 0.  1.
     999900   -1    0    0    0    0 -0.00000000000E+00 -0.00000000000E+00 -0.74505805969E-08  0.93827000000E+00  0.93827000000E+00 0. -1.
     999902    2    1    2    0    0  0.92583195437E-02 -0.12502185849E-01 -0.18332612009E-01  0.10198861693E+01  0.10196027131E+01 0.  0.
     999903    2    3    3    0    0  0.34335614191E-01  0.12216300105E+00  0.85489501827E-02  0.12888325030E+00  0.20858437904E-01 0.  0.
         14    1    1    2    0    0 -0.92583195437E-02  0.12502185849E-01  0.18332612009E-01  0.24043830703E-01  0.00000000000E+00 0.  1.
     999901    1    3    3    0    0 -0.25077294647E-01 -0.13466518690E+00 -0.26881562192E-01  0.89100291899E+00  0.88000000000E+00 0.  1.
        -11    1    4    4    0    0  0.10874286708E-01  0.73720290996E-01  0.89425437376E-02  0.75054391114E-01  0.51100000000E-03 0.  1.
         11    1    4    4    0    0  0.23461327483E-01  0.48442710055E-01 -0.39359355485E-03  0.53828859189E-01  0.51100000000E-03 0. -1.
</event>
<event>
 8    1  0.1061721E+005  0.1043930E+01  0.7957747E-01            NaN
         13   -1    0    0    0    0  0.00000000000E+00  0.00000000000E+00  0.74505805969E-08  0.10566000000E+00  0.10566000000E+00 0. -1.
     999900   -1    0    0    0    0 -0.00000000000E+00 -0.00000000000E+00 -0.74505805969E-08  0.93827000000E+00  0.93827000000E+00 0. -1.
     999902    2    1    2    0    0  0.10816273084E-01  0.71080746526E-03 -0.20754375542E-01  0.10205154508E+01  0.10202468055E+01 0.  0.
     999903    2    3    3    0    0  0.53951103259E-01 -0.11200237242E+00 -0.40228688089E-01  0.13206504511E+00  0.19172267100E-01 0.  0.
         14    1    1    2    0    0 -0.10816273084E-01 -0.71080746526E-03  0.20754375542E-01  0.23414549213E-01  0.00000000000E+00 0. -1.
     999901    1    3    3    0    0 -0.43134830175E-01  0.11271317988E+00  0.19474312547E-01  0.88845040567E+00  0.88000000000E+00 0.  1.
        -11    1    4    4    0    0  0.11007088144E-01 -0.96238956803E-02 -0.66986274173E-02  0.16090621112E-01  0.51100000000E-03 0. -1.
         11    1    4    4    0    0  0.42944015115E-01 -0.10237847674E+00 -0.33530060672E-01  0.11597442400E+00  0.51100000000E-03 0.  1.
</event>
<event>
 8    1  0.1061721E+005  0.1043930E+01  0.7957747E-01            NaN
         13   -1    0    0    0    0  0.00000000000E+00  0.00000000000E+00  0.74505805969E-08  0.10566000000E+00  0.10566000000E+00 0. -1.
     999900   -1    0    0    0    0 -0.00000000000E+00 -0.00000000000E+00 -0.74505805969E-08  0.93827000000E+00  0.93827000000E+00 0.  1.
     999902    2    1    2    0    0 -0.15105333874E-02 -0.18615370747E-01  0.81042225847E-02  0.10235709194E+01  0.10233684258E+01 0.  0.
     999903    2    3    3    0    0  0.50976205126E-01 -0.10420265776E+00 -0.65719782466E-01  0.13479084247E+00  0.19817013754E-01 0.  0.
         14    1    1    2    0    0  0.15105333874E-02  0.18615370747E-01 -0.81042225847E-02  0.20359080599E-01  0.00000000000E+00 0.  1.
     999901    1    3    3    0    0 -0.52486738514E-01  0.85587287015E-01  0.73824005050E-01  0.88878007693E+00  0.88000000000E+00 0.  1.
        -11    1    4    4    0    0  0.30729742494E-01 -0.80926249077E-01 -0.52355043360E-01  0.10116662765E+00  0.51100000000E-03 0.  1.
         11    1    4    4    0    0  0.20246462632E-01 -0.23276408685E-01 -0.13364739105E-01  0.33624214827E-01  0.51100000000E-03 0. -1.
</event>
<event>
 8    1  0.1061721E+005  0.1043930E+01  0.7957747E-01            NaN
         13   -1    0    0    0    0  0.00000000000E+00  0.00000000000E+00  0.74505805969E-08  0.10566000000E+00  0.10566000000E+00 0. -1.
     999900   -1    0    0    0    0 -0.00000000000E+00 -0.00000000000E+00 -0.74505805969E-08  0.93827000000E+00  0.93827000000E+00 0.  1.
     999902    2    1    2    0    0 -0.47963698484E-02 -0.53767442018E-02  0.22935319608E-01  0.10198895460E+01  0.10196061704E+01 0.  0.
     999903    2    3    3    0    0 -0.38334248448E-01  0.10025855411E+00  0.73336992617E-01  0.13150678269E+00  0.19860189598E-01 0.  0.
         14    1    1    2    0    0  0.47963698484E-02  0.53767442018E-02 -0.22935319608E-01  0.24040453977E-01  0.00000000000E+00 0.  1.
     999901    1    3    3    0    0  0.33537878599E-01 -0.10563529831E+00 -0.50401673009E-01  0.88838276334E+00  0.88000000000E+00 0.  1.
        -11    1    4    4    0    0 -0.40011713011E-01  0.93666952199E-01  0.71488259155E-01  0.12443981449E+00  0.51100000000E-03 0.  1.
         11    1    4    4    0    0  0.16774645637E-02  0.65916019085E-02  0.18487334618E-02  0.70669681968E-02  0.51100000000E-03 0. -1.
</event>
<event>
 8    1  0.1061721E+005  0.1043930E+01  0.7957747E-01            NaN
         13   -1    0    0    0    0  0.00000000000E+00  0.00000000000E+00  0.74505805969E-08  0.10566000000E+00  0.10566000000E+00 0.  1.
     999900   -1    0    0    0    0 -0.00000000000E+00 -0.00000000000E+00 -0.74505805969E-08  0.93827000000E+00  0.93827000000E+00 0. -1.
     999902    2    1    2    0    0 -0.18025259651E-01  0.15669910558E-03  0.12556157572E-01  0.10219620317E+01  0.10217258940E+01 0.  0.
     999903    2    3    3    0    0 -0.94819161932E-01  0.35848751256E-01 -0.83184192378E-01  0.13272784393E+00  0.20524723065E-01 0.  0.
         14    1    1    2    0    0  0.18025259651E-01 -0.15669910558E-03 -0.12556157572E-01  0.21967968342E-01  0.00000000000E+00 0. -1.
     999901    1    3    3    0    0  0.76793902280E-01 -0.35692052151E-01  0.95740349950E-01  0.88923418773E+00  0.88000000000E+00 0. -1.
        -11    1    4    4    0    0 -0.84711435508E-01  0.24565116804E-01 -0.72631266784E-01  0.11425862902E+00  0.51100000000E-03 0.  1.
         11    1    4    4    0    0 -0.10107726424E-01  0.11283634452E-01 -0.10552925594E-01  0.18469214913E-01  0.51100000000E-03 0. -1.
</event>
<event>
 8    1  0.1061721E+005  0.1043930E+01  0.7957747E-01            NaN
         13   -1    0    0    0    0  0.00000000000E+00  0.00000000000E+00  0.74505805969E-08  0.10566000000E+00  0.10566000000E+00 0. -1.
     999900   -1    0    0    0    0 -0.00000000000E+00 -0.00000000000E+00 -0.74505805969E-08  0.93827000000E+00  0.93827000000E+00 0.  1.
     999902    2    1    2    0    0 -0.22466601910E-03 -0.18128209026E-01 -0.15819272565E-01  0.10198689979E+01  0.10195851318E+01 0.  0.
     999903    2    3    3    0    0 -0.99372819615E-01 -0.77601338538E-01 -0.34339997242E-01  0.13211316056E+00  0.19435193902E-01 0.  0.
         14    1    1    2    0    0  0.22466601910E-03  0.18128209026E-01  0.15819272565E-01  0.24061002094E-01  0.00000000000E+00 0. -1.
     999901    1    3    3    0    0  0.99148153596E-01  0.59473129512E-01  0.18520724677E-01  0.88775583734E+00  0.88000000000E+00 0. -1.
        -11    1    4    4    0    0 -0.52355896304E-01 -0.45909913076E-01 -0.28011359029E-01  0.75058359641E-01  0.51100000000E-03 0. -1.
         11    1    4    4    0    0 -0.47016923311E-01 -0.31691425462E-01 -0.63286382131E-02  0.57054800921E-01  0.51100000000E-03 0.  1.
</event>
<event>
 8    1  0.1061721E+005  0.1043930E+01  0.7957747E-01            NaN
         13   -1    0    0    0    0  0.00000000000E+00  0.00000000000E+00  0.74505805969E-08  0.10566000000E+00  0.10566000000E+00 0.  1.
     999900   -1    0    0    0    0 -0.00000000000E+00 -0.00000000000E+00 -0.74505805969E-08  0.93827000000E+00  0.93827000000E+00 0. -1.
     999902    2    1    2    0    0  0.69536696133E-02  0.14123468046E-01  0.18527918836E-01  0.10196172534E+01  0.10193273438E+01 0.  0.
     999903    2    3    3    0    0 -0.96272250148E-01 -0.51829775565E-01 -0.62235852326E-01  0.12746916727E+00  0.20504036353E-01 0.  0.
         14    1    1    2    0    0 -0.69536696133E-02 -0.14123468046E-01 -0.18527918836E-01  0.24312746597E-01  0.00000000000E+00 0. -1.
     999901    1    3    3    0    0  0.10322591976E+00  0.65953243611E-01  0.80763771161E-01  0.89214808613E+00  0.88000000000E+00 0.  1.
        -11    1    4    4    0    0 -0.59204899540E-01 -0.33899945205E-01 -0.49752703454E-01  0.84439440053E-01  0.51100000000E-03 0.  1.
         11    1    4    4    0    0 -0.37067350608E-01 -0.17929830361E-01 -0.12483148871E-01  0.43029727220E-01  0.51100000000E-03 0. -1.
</event>
<event>
 8    1  0.1061721E+005  0.1043930E+01  0.7957747E-01            NaN
         13   -1    0    0    0    0  0.00000000000E+00  0.00000000000E+00  0.74505805969E-08  0.10566000000E+00  0.10566000000E+00 0. -1.
     999900   -1    0    0    0    0 -0.00000000000E+00 -0.00000000000E+00 -0.74505805969E-08  0.93827000000E+00  0.93827000000E+00 0.  1.
     999902    2    1    2    0    0  0.54711334717E-02 -0.22993310485E-01  0.22460460605E-02  0.10201882572E+01  0.10199119618E+01 0.  0.
     999903    2    3    3    0    0  0.11150990621E+00  0.60823408230E-01  0.17536741927E-01  0.12973709680E+00  0.19754260235E-01 0.  0.
         14    1    1    2    0    0 -0.54711334717E-02  0.22993310485E-01 -0.22460460605E-02  0.23741742806E-01  0.00000000000E+00 0.  1.
     999901    1    3    3    0    0 -0.10603877274E+00 -0.83816718715E-01 -0.15290695866E-01  0.89045116039E+00  0.88000000000E+00 0. -1.
        -11    1    4    4    0    0  0.58351216558E-01  0.42843975126E-01  0.11363990944E-01  0.73279411089E-01  0.51100000000E-03 0. -1.
         11    1    4    4    0    0  0.53158689655E-01  0.17979433103E-01  0.61727509823E-02  0.56457685715E-01  0.51100000000E-03 0.  1.
</event>
<event>
 8    1  0.1061721E+005  0.1043930E+01  0.7957747E-01            NaN
         13   -1    0    0    0    0  0.00000000000E+00  0.00000000000E+00  0.74505805969E-08  0.10566000000E+00  0.10566000000E+00 0. -1.
     999900   -1    0    0    0    0 -0.00000000000E+00 -0.00000000000E+00 -0.74505805969E-08  0.93827000000E+00  0.93827000000E+00 0. -1.
     999902    2    1    2    0    0  0.22328773064E-02 -0.54299534125E-02  0.22933005300E-01  0.10202573815E+01  0.10199827114E+01 0.  0.
     999903    2    3    3    0    0 -0.47835474028E-01  0.91157766093E-01  0.79747874561E-01  0.13173953882E+00  0.19940203049E-01 0.  0.
         14    1    1    2    0    0 -0.22328773064E-02  0.54299534125E-02 -0.22933005300E-01  0.23672618512E-01  0.00000000000E+00 0.  1.
     999901    1    3    3    0    0  0.50068351335E-01 -0.96587719506E-01 -0.56814869261E-01  0.88851784266E+00  0.88000000000E+00 0. -1.
        -11    1    4    4    0    0 -0.18640675491E-01  0.36600998952E-01  0.19863599953E-01  0.45628188997E-01  0.51100000000E-03 0.  1.
         11    1    4    4    0    0 -0.29194798537E-01  0.54556767142E-01  0.59884274608E-01  0.86111349826E-01  0.51100000000E-03 0. -1.
</event>
<event>
 8    1  0.1061721E+005  0.1043930E+01  0.7957747E-01            NaN
         13   -1    0    0    0    0  0.00000000000E+00  0.00000000000E+00  0.74505805969E-08  0.10566000000E+00  0.10566000000E+00 0. -1.
     999900   -1    0    0    0    0 -0.00000000000E+00 -0.00000000000E+00 -0.74505805969E-08  0.93827000000E+00  0.93827000000E+00 0. -1.
     999902    2    1    2    0    0  0.22094909642E-01 -0.23116272265E-02 -0.10951451816E-01  0.10191618158E+01  0.10188608069E+01 0.  0.
     999903    2    3    3    0    0 -0.34422914732E-01  0.10583380444E+00  0.60326467631E-01  0.12788731224E+00  0.18170049934E-01 0.  0.
         14    1    1    2    0    0 -0.22094909642E-01  0.23116272265E-02  0.10951451816E-01  0.24768184217E-01  0.00000000000E+00 0. -1.
     999901    1    3    3    0    0  0.56517824375E-01 -0.10814543167E+00 -0.71277919447E-01  0.89127450354E+00  0.88000000000E+00 0. -1.
        -11    1    4    4    0    0 -0.28918874331E-01  0.60136198723E-01  0.36213569986E-01  0.75923299859E-01  0.51100000000E-03 0. -1.
         11    1    4    4    0    0 -0.55040404015E-02  0.45697605717E-01  0.24112897645E-01  0.51964012382E-01  0.51100000000E-03 0.  1.
</event>
<event>
 8    1  0.1061721E+005  0.1043930E+01  0.7957747E-01            NaN
         13   -1    0    0    0    0  0.00000000000E+00  0.00000000000E+00  0.74505805969E-08  0.10566000000E+00  0.10566000000E+00 0. -1.
     999900   -1    0    0    0    0 -0.00000000000E+00 -0.00000000000E+00 -0.74505805969E-08  0.93827000000E+00  0.93827000000E+00 0. -1.
     999902    2    1    2    0    0  0.26276565329E-02  0.13706240846E-01  0.22891447715E-02  0.10297876593E+01  0.10296905445E+01 0.  0.
     999903    2    3    3    0    0  0.87818364178E-01  0.66037486822E-01 -0.84211507015E-01  0.13991217433E+00  0.20268790270E-01 0.  0.
         14    1    1    2    0    0 -0.26276565329E-02 -0.13706240846E-01 -0.22891447715E-02  0.14142340710E-01  0.00000000000E+00 0.  1.
     999901    1    3    3    0    0 -0.85190707645E-01 -0.52331245975E-01  0.86500651787E-01  0.88987548496E+00  0.88000000000E+00 0.  1.
        -11    1    4    4    0    0  0.42881799736E-01  0.19743608359E-01 -0.35850434080E-01  0.59280465284E-01  0.51100000000E-03 0.  1.
         11    1    4    4    0    0  0.44936564443E-01  0.46293878462E-01 -0.48361072936E-01  0.80631709045E-01  0.51100000000E-03 0. -1.
</event>
<event>
 8    1  0.1061721E+005  0.1043930E+01  0.7957747E-01            NaN
         13   -1    0    0    0    0  0.00000000000E+00  0.00000000000E+00  0.74505805969E-08  0.10566000000E+00  0.10566000000E+00 0.  1.
     999900   -1    0    0    0    0 -0.00000000000E+00 -0.00000000000E+00 -0.74505805969E-08  0.93827000000E+00  0.93827000000E+00 0. -1.
     999902    2    1    2    0    0 -0.10137508429E-01  0.91851584433E-03  0.20905704049E-01  0.10206778773E+01  0.10204129889E+01 0.  0.
     999903    2    3    3    0    0 -0.10122056161E+00 -0.80777353552E-01 -0.11860458479E-01  0.13160872416E+00  0.20238647648E-01 0.  0.
         14    1    1    2    0    0  0.10137508429E-01 -0.91851584433E-03 -0.20905704049E-01  0.23252122705E-01  0.00000000000E+00 0. -1.
     999901    1    3    3    0    0  0.91083053186E-01  0.81695869396E-01  0.32766162528E-01  0.88906915314E+00  0.88000000000E+00 0. -1.
        -11    1    4    4    0    0 -0.69650722275E-01 -0.54136652972E-01  0.13779034571E-02  0.88227887016E-01  0.51100000000E-03 0.  1.
         11    1    4    4    0    0 -0.31569839339E-01 -0.26640700580E-01 -0.13238361936E-01  0.43380837141E-01  0.51100000000E-03 0. -1.
</event>
<event>
 8    1  0.1061721E+005  0.1043930E+01  0.7957747E-01            NaN
         13   -1    0    0    0    0  0.00000000000E+00  0.00000000000E+00  0.74505805969E-08  0.10566000000E+00  0.10566000000E+00 0.  1.
     999900   -1    0    0    0    0 -0.00000000000E+00 -0.00000000000E+00 -0.74505805969E-08  0.93827000000E+00  0.93827000000E+00 0. -1.
     999902    2    1    2    0    0  0.24113069072E-01 -0.83980081466E-03  0.67013318519E-02  0.10188889694E+01  0.10185812087E+01 0.  0.
     999903    2    3    3    0    0 -0.83761311475E-01 -0.33318705208E-01 -0.86858535395E-01  0.12678740008E+00  0.20113334645E-01 0.  0.
         14    1    1    2    0    0 -0.24113069072E-01  0.83980081466E-03 -0.67013318519E-02  0.25041030611E-01  0.00000000000E+00 0. -1.
     999901    1    3    3    0    0  0.10787438055E+00  0.32478904394E-01  0.93559867247E-01  0.89210156931E+00  0.88000000000E+00 0.  1.
        -11    1    4    4    0    0 -0.21443058641E-01 -0.10919132354E-01 -0.35924657913E-01  0.43242044151E-01  0.51100000000E-03 0.  1.
         11    1    4    4    0    0 -0.62318252834E-01 -0.22399572854E-01 -0.50933877482E-01  0.83545355926E-01  0.51100000000E-03 0. -1.
</event>
<event>
 8    1  0.1061721E+005  0.1043930E+01  0.7957747E-01            NaN
         13   -1    0    0    0    0  0.00000000000E+00  0.00000000000E+00  0.74505805969E-08  0.10566000000E+00  0.10566000000E+00 0. -1.
     999900   -1    0    0    0    0 -0.00000000000E+00 -0.00000000000E+00 -0.74505805969E-08  0.93827000000E+00  0.93827000000E+00 0.  1.
     999902    2    1    2    0    0  0.23067747599E-01  0.16636267229E-01 -0.45999873087E-02  0.10151194768E+01  0.10147105527E+01 0.  0.
     999903    2    3    3    0    0  0.59665692665E-01  0.18048441263E-01 -0.10973009420E+00  0.12810552918E+00  0.22013448576E-01 0.  0.
         14    1    1    2    0    0 -0.23067747599E-01 -0.16636267229E-01  0.45999873087E-02  0.28810523248E-01  0.00000000000E+00 0.  1.
     999901    1    3    3    0    0 -0.36597945066E-01 -0.14121740343E-02  0.10513010690E+00  0.88701394758E+00  0.88000000000E+00 0. -1.
        -11    1    4    4    0    0  0.22294446406E-01  0.24995693277E-02 -0.21708792552E-01  0.31222155314E-01  0.51100000000E-03 0. -1.
         11    1    4    4    0    0  0.37371246259E-01  0.15548871935E-01 -0.88021301652E-01  0.96883373862E-01  0.51100000000E-03 0.  1.
</event>
<event>
 8    1  0.1061721E+005  0.1043930E+01  0.7957747E-01            NaN
         13   -1    0    0    0    0  0.00000000000E+00  0.00000000000E+00  0.74505805969E-08  0.10566000000E+00  0.10566000000E+00 0.  1.
     999900   -1    0    0    0    0 -0.00000000000E+00 -0.00000000000E+00 -0.74505805969E-08  0.93827000000E+00  0.93827000000E+00 0.  1.
     999902    2    1    2    0    0 -0.16311766456E-01 -0.13608098764E-01  0.65096187494E-03  0.10226772866E+01  0.10224564317E+01 0.  0.
     999903    2    3    3    0    0 -0.75497141260E-01  0.62697388902E-02 -0.10838935937E+00  0.13375218923E+00  0.20056593282E-01 0.  0.
         14    1    1    2    0    0  0.16311766456E-01  0.13608098764E-01 -0.65096187494E-03  0.21252713432E-01  0.00000000000E+00 0.  1.
     999901    1    3    3    0    0  0.59185374804E-01 -0.19877837654E-01  0.10904032125E+00  0.88892509734E+00  0.88000000000E+00 0. -1.
        -11    1    4    4    0    0 -0.22086658030E-01  0.99779632694E-02 -0.41642964176E-01  0.48184829566E-01  0.51100000000E-03 0.  1.
         11    1    4    4    0    0 -0.53410483230E-01 -0.37082243792E-02 -0.66746395197E-01  0.85567359663E-01  0.51100000000E-03 0. -1.
</event>
<event>
 8    1  0.1061721E+005  0.1043930E+01  0.7957747E-01            NaN
         13   -1    0    0    0    0  0.00000000000E+00  0.00000000000E+00  0.74505805969E-08  0.10566000000E+00  0.10566000000E+00 0.  1.
     999900   -1    0    0    0    0 -0.00000000000E+00 -0.00000000000E+00 -0.74505805969E-08  0.93827000000E+00  0.93827000000E+00 0.  1.
     999902    2    1    2    0    0  0.20645838175E-01 -0.88703417434E-02  0.58237387358E-02  0.10207168673E+01  0.10204528768E+01 0.  0.
     999903    2    3    3    0    0 -0.66778733586E-01  0.17148042490E-01  0.10991831598E+00  0.12989943759E+00  0.61946007244E-02 0.  0.
         14    1    1    2    0    0 -0.20645838175E-01  0.88703417434E-02 -0.58237387358E-02  0.23213132694E-01  0.00000000000E+00 0.  1.
     999901    1    3    3    0    0  0.87424571761E-01 -0.26018384233E-01 -0.10409457725E+00  0.89081742971E+00  0.88000000000E+00 0. -1.
        -11    1    4    4    0    0 -0.16773326862E-01  0.41813238971E-02  0.32726297127E-01  0.37014856588E-01  0.51100000000E-03 0.  1.
         11    1    4    4    0    0 -0.50005406724E-01  0.12966718593E-01  0.77192018856E-01  0.92884581007E-01  0.51100000000E-03 0. -1.
</event>
<event>
 8    1  0.1061721E+005  0.1043930E+01  0.7957747E-01            NaN
         13   -1    0    0    0    0  0.00000000000E+00  0.00000000000E+00  0.74505805969E-08  0.10566000000E+00  0.10566000000E+00 0.  1.
     999900   -1    0    0    0    0 -0.00000000000E+00 -0.00000000000E+00 -0.74505805969E-08  0.93827000000E+00  0.93827000000E+00 0.  1.
     999902    2    1    2    0    0 -0.11921062523E-01 -0.25468333267E-02  0.20015573251E-01  0.10204945298E+01  0.10202253987E+01 0.  0.
     999903    2    3    3    0    0 -0.12160674728E+00  0.86381232628E-02 -0.44757862703E-01  0.13125235203E+00  0.19002512546E-01 0.  0.
         14    1    1    2    0    0  0.11921062523E-01  0.25468333267E-02 -0.20015573251E-01  0.23435470216E-01  0.00000000000E+00 0. -1.
     999901    1    3    3    0    0  0.10968568475E+00 -0.11184956590E-01  0.64773435954E-01  0.88924217776E+00  0.88000000000E+00 0. -1.
        -11    1    4    4    0    0 -0.11105777208E+00  0.84131872192E-02 -0.34677492560E-01  0.11665076112E+00  0.51100000000E-03 0.  1.
         11    1    4    4    0    0 -0.10548975198E-01  0.22493604361E-03 -0.10080370142E-01  0.14601590912E-01  0.51100000000E-03 0. -1.
</event>
<event>
 8    1  0.1061721E+005  0.1043930E+01  0.7957747E-01            NaN
         13   -1    0    0    0    0  0.00000000000E+00  0.00000000000E+00  0.74505805969E-08  0.10566000000E+00  0.10566000000E+00 0.  1.
     999900   -1    0    0    0    0 -0.00000000000E+00 -0.00000000000E+00 -0.74505805969E-08  0.93827000000E+00  0.93827000000E+00 0.  1.
     999902    2    1    2    0    0 -0.12316300220E-01  0.20355957414E-01  0.32287025798E-02  0.10199199860E+01  0.10196373360E+01 0.  0.
     999903    2    3    3    0    0 -0.76705695706E-01 -0.86744347582E-01  0.54628339749E-01  0.12960633771E+00  0.20129621933E-01 0.  0.
         14    1    1    2    0    0  0.12316300220E-01 -0.20355957414E-01 -0.32287025798E-02  0.24010014030E-01  0.00000000000E+00 0. -1.
     999901    1    3    3    0    0  0.64389395485E-01  0.10710030500E+00 -0.51399637169E-01  0.89031364826E+00  0.88000000000E+00 0.  1.
        -11    1    4    4    0    0 -0.10720154417E-01 -0.24673548023E-01  0.13771562050E-01  0.30226192698E-01  0.51100000000E-03 0. -1.
         11    1    4    4    0    0 -0.65985541289E-01 -0.62070799559E-01  0.40856777699E-01  0.99380145009E-01  0.51100000000E-03 0.  1.
</event>
<event>
 8    1  0.1061721E+005  0.1043930E+01  0.7957747E-01            NaN
         13   -1    0    0    0    0  0.00000000000E+00  0.00000000000E+00  0.74505805969E-08  0.10566000000E+00  0.10566000000E+00 0. -1.
     999900   -1    0    0    0    0 -0.00000000000E+00 -0.00000000000E+00 -0.74505805969E-08  0.93827000000E+00  0.93827000000E+00 0. -1.
     999902    2    1    2    0    0 -0.19513111350E-01  0.68750256739E-03  0.10890664526E-01  0.10215728815E+01  0.10213282095E+01 0.  0.
     999903    2    3    3    0    0  0.93169708433E-01 -0.87519230547E-01  0.10440110816E-01  0.13001354603E+00  0.21314688663E-01 0.  0.
         14    1    1    2    0    0  0.19513111350E-01 -0.68750256739E-03 -0.10890664526E-01  0.22357118511E-01  0.00000000000E+00 0.  1.
     999901    1    3    3    0    0 -0.11268281978E+00  0.88206733115E-01  0.45055370979E-03  0.89155933546E+00  0.88000000000E+00 0. -1.
        -11    1    4    4    0    0  0.48488415859E-01 -0.54903977871E-01 -0.21276854040E-02  0.73282749845E-01  0.51100000000E-03 0.  1.
         11    1    4    4    0    0  0.44681292574E-01 -0.32615252676E-01  0.12567796220E-01  0.56730796188E-01  0.51100000000E-03 0. -1.
</event>
<event>
 8    1  0.1061721E+005  0.1043930E+01  0.7957747E-01            NaN
         13   -1    0    0    0    0  0.00000000000E+00  0.00000000000E+00  0.74505805969E-08  0.10566000000E+00  0.10566000000E+00 0. -1.
     999900   -1    0    0    0    0 -0.00000000000E+00 -0.00000000000E+00 -0.74505805969E-08  0.93827000000E+00  0.93827000000E+00 0. -1.
     999902    2    1    2    0    0  0.10619586394E-01  0.19791762679E-01 -0.94795349080E-02  0.10195506836E+01  0.10192591650E+01 0.  0.
     999903    2    3    3    0    0  0.77130236427E-01 -0.99087596008E-01 -0.20250891533E-01  0.12900478889E+00  0.21557177353E-01 0.  0.
         14    1    1    2    0    0 -0.10619586394E-01 -0.19791762679E-01  0.94795349080E-02  0.24379316381E-01  0.00000000000E+00 0. -1.
     999901    1    3    3    0    0 -0.66510650033E-01  0.11887935869E+00  0.10771356625E-01  0.89054589473E+00  0.88000000000E+00 0.  1.
        -11    1    4    4    0    0  0.18868784440E-02 -0.11858836992E-01 -0.39927661883E-02  0.12664739551E-01  0.51100000000E-03 0.  1.
         11    1    4    4    0    0  0.75243357983E-01 -0.87228759016E-01 -0.16258125345E-01  0.11634004934E+00  0.51100000000E-03 0. -1.
</event>
<event>
 8    1  0.1061721E+005  0.1043930E+01  0.7957747E-01            NaN
         13   -1    0    0    0    0  0.00000000000E+00  0.00000000000E+00  0.74505805969E-08  0.10566000000E+00  0.10566000000E+00 0.  1.
     999900   -1    0    0    0    0 -0.00000000000E+00 -0.00000000000E+00 -0.74505805969E-08  0.93827000000E+00  0.93827000000E+00 0.  1.
     999902    2    1    2    0    0  0.18527662408E-01 -0.76234523310E-02  0.13596991527E-01  0.10197169977E+01  0.10194294905E+01 0.  0.
     999903    2    3    3    0    0  0.33924991352E-01 -0.12140159131E+00 -0.30370578660E-01  0.13117004351E+00  0.19848346398E-01 0.  0.
         14    1    1    2    0    0 -0.18527662408E-01  0.76234523310E-02 -0.13596991527E-01  0.24213002257E-01  0.00000000000E+00 0.  1.
     999901    1    3    3    0    0 -0.15397328944E-01  0.11377813898E+00  0.43967570187E-01  0.88854695423E+00  0.88000000000E+00 0. -1.
        -11    1    4    4    0    0  0.24503370171E-01 -0.76258390930E-01 -0.28480218005E-01  0.85012594805E-01  0.51100000000E-03 0. -1.
         11    1    4    4    0    0  0.94216211811E-02 -0.45143200383E-01 -0.18903606546E-02  0.46157448704E-01  0.51100000000E-03 0.  1.
</event>
<event>
 8    1  0.1061721E+005  0.1043930E+01  0.7957747E-01            NaN
         13   -1    0    0    0    0  0.00000000000E+00  0.00000000000E+00  0.74505805969E-08  0.10566000000E+00  0.10566000000E+00 0.  1.
     999900   -1    0    0    0    0 -0.00000000000E+00 -0.00000000000E+00 -0.74505805969E-08  0.93827000000E+00  0.93827000000E+00 0.  1.
     999902    2    1    2    0    0  0.89479547175E-02 -0.45233864266E-02 -0.20150701275E-01  0.10214227194E+01  0.10211747128E+01 0.  0.
     999903    2    3    3    0    0 -0.51140420761E-01 -0.11942215451E+00 -0.10810978799E-01  0.13187251272E+00  0.19912024673E-01 0.  0.
         14    1    1    2    0    0 -0.89479547175E-02  0.45233864266E-02  0.20150701275E-01  0.22507280606E-01  0.00000000000E+00 0.  1.
     999901    1    3    3    0    0  0.60088375478E-01  0.11489876808E+00 -0.93397224763E-02  0.88955020667E+00  0.88000000000E+00 0. -1.
        -11    1    4    4    0    0 -0.12342062133E-01 -0.32664460817E-01  0.57761470226E-02  0.35396588728E-01  0.51100000000E-03 0. -1.
         11    1    4    4    0    0 -0.38798358628E-01 -0.86757693690E-01 -0.16587125822E-01  0.96475923995E-01  0.51100000000E-03 0.  1.
</event>
<event>
 8    1  0.1061721E+005  0.1043930E+01  0.7957747E-01            NaN
         13   -1    0    0    0    0  0.00000000000E+00  0.00000000000E+00  0.74505805969E-08  0.10566000000E+00  0.10566000000E+00 0.  1.
     999900   -1    0    0    0    0 -0.00000000000E+00 -0.00000000000E+00 -0.74505805969E-08  0.93827000000E+00  0.93827000000E+00 0. -1.
     999902    2    1    2    0    0  0.19008063375E-01 -0.17837538786E-01 -0.32481823456E-02  0.10176614836E+01  0.10173223974E+01 0.  0.
     999903    2    3    3    0    0 -0.42816472679E-01 -0.54309095709E-01 -0.10668394167E+00  0.12870062734E+00  0.19991494642E-01 0.  0.
         14    1    1    2    0    0 -0.19008063375E-01  0.17837538786E-01  0.32481823456E-02  0.26268516360E-01  0.00000000000E+00 0. -1.
     999901    1    3    3    0    0  0.61824536054E-01  0.36471556923E-01  0.10343575933E+00  0.88896085630E+00  0.88000000000E+00 0.  1.
        -11    1    4    4    0    0 -0.33491422424E-01 -0.27188743315E-01 -0.59773870846E-01  0.73716211894E-01  0.51100000000E-03 0.  1.
         11    1    4    4    0    0 -0.93250502547E-02 -0.27120352394E-01 -0.46910070826E-01  0.54984415448E-01  0.51100000000E-03 0. -1.
</event>
<event>
 8    1  0.1061721E+005  0.1043930E+01  0.7957747E-01            NaN
         13   -1    0    0    0    0  0.00000000000E+00  0.00000000000E+00  0.74505805969E-08  0.10566000000E+00  0.10566000000E+00 0. -1.
     999900   -1    0    0    0    0 -0.00000000000E+00 -0.00000000000E+00 -0.74505805969E-08  0.93827000000E+00  0.93827000000E+00 0.  1.
     999902    2    1    2    0    0 -0.17106716649E-01 -0.63573713315E-02 -0.14116337669E-01  0.10208577891E+01  0.10205970305E+01 0.  0.
     999903    2    3    3    0    0 -0.10029592991E+00  0.57961027754E-02  0.82202251659E-01  0.13161911320E+00  0.21760340466E-01 0.  0.
         14    1    1    2    0    0  0.17106716649E-01  0.63573713315E-02  0.14116337669E-01  0.23072210859E-01  0.00000000000E+00 0. -1.
     999901    1    3    3    0    0  0.83189213266E-01 -0.12153474107E-01 -0.96318589328E-01  0.88923867594E+00  0.88000000000E+00 0.  1.
        -11    1    4    4    0    0 -0.71451292124E-01  0.12253176910E-01  0.51013096751E-01  0.88645499896E-01  0.51100000000E-03 0.  1.
         11    1    4    4    0    0 -0.28844637790E-01 -0.64570741349E-02  0.31189154908E-01  0.42973613305E-01  0.51100000000E-03 0. -1.
</event>
<event>
 8    1  0.1061721E+005  0.1043930E+01  0.7957747E-01            NaN
         13   -1    0    0    0    0  0.00000000000E+00  0.00000000000E+00  0.74505805969E-08  0.10566000000E+00  0.10566000000E+00 0. -1.
     999900   -1    0    0    0    0 -0.00000000000E+00 -0.00000000000E+00 -0.74505805969E-08  0.93827000000E+00  0.93827000000E+00 0. -1.
     999902    2    1    2    0    0 -0.19371268632E-01 -0.77373645461E-02  0.23884401631E-02  0.10229343456E+01  0.10227188557E+01 0.  0.
     999903    2    3    3    0    0 -0.15183153719E-01 -0.26747661013E-02 -0.13048338923E+00  0.13293541677E+00  0.20204643934E-01 0.  0.
         14    1    1    2    0    0  0.19371268632E-01  0.77373645461E-02 -0.23884401631E-02  0.20995654430E-01  0.00000000000E+00 0.  1.
     999901    1    3    3    0    0 -0.41881149137E-02 -0.50625984449E-02  0.13287182940E+00  0.88999892880E+00  0.88000000000E+00 0.  1.
        -11    1    4    4    0    0 -0.17422091570E-01 -0.53142148997E-02 -0.69412130303E-01  0.71764023778E-01  0.51100000000E-03 0. -1.
         11    1    4    4    0    0  0.22389378518E-02  0.26394487984E-02 -0.61071258931E-01  0.61171392996E-01  0.51100000000E-03 0.  1.
</event>
<event>
 8    1  0.1061721E+005  0.1043930E+01  0.7957747E-01            NaN
         13   -1    0    0    0    0  0.00000000000E+00  0.00000000000E+00  0.74505805969E-08  0.10566000000E+00  0.10566000000E+00 0.  1.
     999900   -1    0    0    0    0 -0.00000000000E+00 -0.00000000000E+00 -0.74505805969E-08  0.93827000000E+00  0.93827000000E+00 0.  1.
     999902    2    1    2    0    0  0.50687545311E-02  0.15567827830E-01 -0.17247091477E-01  0.10201495101E+01  0.10198723014E+01 0.  0.
     999903    2    3    3    0    0 -0.13074359975E-01 -0.11647675995E+00 -0.50925521797E-01  0.12947606688E+00  0.20805495157E-01 0.  0.
         14    1    1    2    0    0 -0.50687545311E-02 -0.15567827830E-01  0.17247091477E-01  0.23780489908E-01  0.00000000000E+00 0.  1.
     999901    1    3    3    0    0  0.18143114507E-01  0.13204458778E+00  0.33678430319E-01  0.89067344321E+00  0.88000000000E+00 0.  1.
        -11    1    4    4    0    0 -0.15419108915E-01 -0.10687215570E+00 -0.51348244974E-01  0.11956717763E+00  0.51100000000E-03 0.  1.
         11    1    4    4    0    0  0.23447489396E-02 -0.96046042450E-02  0.42272317734E-03  0.99088892504E-02  0.51100000000E-03 0. -1.
</event>
<event>
 8    1  0.1061721E+005  0.1043930E+01  0.7957747E-01            NaN
         13   -1    0    0    0    0  0.00000000000E+00  0.00000000000E+00  0.74505805969E-08  0.10566000000E+00  0.10566000000E+00 0.  1.
     999900   -1    0    0    0    0 -0.00000000000E+00 -0.00000000000E+00 -0.74505805969E-08  0.93827000000E+00  0.93827000000E+00 0.  1.
     999902    2    1    2    0    0  0.21859319696E-01  0.41747316747E-02  0.12474020522E-02  0.10216406695E+01  0.10213974953E+01 0.  0.
     999903    2    3    3    0    0 -0.93899764967E-01 -0.53294902420E-01 -0.68754323715E-01  0.12945057421E+00  0.19307554211E-01 0.  0.
         14    1    1    2    0    0 -0.21859319696E-01 -0.41747316747E-02 -0.12474020522E-02  0.22289330497E-01  0.00000000000E+00 0.  1.
     999901    1    3    3    0    0  0.11575908466E+00  0.57469634095E-01  0.70001725767E-01  0.89219009529E+00  0.88000000000E+00 0. -1.
        -11    1    4    4    0    0 -0.32226364146E-01 -0.16038021530E-01 -0.12753633253E-01  0.38192577327E-01  0.51100000000E-03 0.  1.
         11    1    4    4    0    0 -0.61673400821E-01 -0.37256880890E-01 -0.56000690461E-01  0.91257996886E-01  0.51100000000E-03 0. -1.
</event>
<event>
 8    1  0.1061721E+005  0.1043930E+01  0.7957747E-01            NaN
         13   -1    0    0    0    0  0.00000000000E+00  0.00000000000E+00  0.74505805969E-08  0.10566000000E+00  0.10566000000E+00 0. -1.
     999900   -1    0    0    0    0 -0.00000000000E+00 -0.00000000000E+00 -0.74505805969E-08  0.93827000000E+00  0.93827000000E+00 0. -1.
     999902    2    1    2    0    0  0.13205374518E-01  0.16797114519E-01 -0.75134765859E-02  0.10212809978E+01  0.10210298228E+01 0.  0.
     999903    2    3    3    0    0  0.91303903599E-02  0.12823447245E+00  0.30138006776E-01  0.13344513205E+00  0.19283668234E-01 0.  0.
         14    1    1    2    0    0 -0.13205374518E-01 -0.16797114519E-01  0.75134765859E-02  0.22649002246E-01  0.00000000000E+00 0.  1.
     999901    1    3    3    0    0  0.40749841581E-02 -0.11143735793E+00 -0.37651483362E-01  0.88783586571E+00  0.88000000000E+00 0.  1.
        -11    1    4    4    0    0 -0.43519117914E-02  0.72869109864E-01  0.16063887524E-01  0.74747280298E-01  0.51100000000E-03 0. -1.
         11    1    4    4    0    0  0.13482302151E-01  0.55365362590E-01  0.14074119252E-01  0.58697851747E-01  0.51100000000E-03 0.  1.
</event>
<event>
 7    1  0.1061721E+005  0.1043930E+01  0.7957747E-01            NaN
         13   -1    0    0    0    0  0.00000000000E+00  0.00000000000E+00  0.74505805969E-08  0.10566000000E+00  0.10566000000E+00 0. -1.
     999900   -1    0    0    0    0 -0.00000000000E+00 -0.00000000000E+00 -0.74505805969E-08  0.93827000000E+00  0.93827000000E+00 0. -1.
     999902    2    1    2    0    0 -0.16015069410E-03  0.11166528369E-02  0.22977442134E-01  0.10209248830E+01  0.10206656560E+01 0.  0.
         14    1    1    2    0    0  0.16015069410E-03 -0.11166528369E-02 -0.22977442134E-01  0.23005117014E-01  0.00000000000E+00 0.  1.
     999901    1    3    3    0    0  0.67352412888E-01  0.73559104421E-01  0.10565848735E+00  0.89191423652E+00  0.88000000000E+00 0.  1.
        -11    1    3    3    0    0 -0.12572417620E-01 -0.13433493588E-01 -0.15352841001E-01  0.23968631221E-01  0.51100000000E-03 0. -1.
         11    1    3    3    0    0 -0.54940145962E-01 -0.59008957997E-01 -0.67328204215E-01  0.10504201524E+00  0.51100000000E-03 0.  1.
</event>
<event>
 8    1  0.1061721E+005  0.1043930E+01  0.7957747E-01            NaN
         13   -1    0    0    0    0  0.00000000000E+00  0.00000000000E+00  0.74505805969E-08  0.10566000000E+00  0.10566000000E+00 0.  1.
     999900   -1    0    0    0    0 -0.00000000000E+00 -0.00000000000E+00 -0.74505805969E-08  0.93827000000E+00  0.93827000000E+00 0.  1.
     999902    2    1    2    0    0  0.62354598715E-02  0.16594633211E-01  0.15561722318E-01  0.10203412312E+01  0.10200685262E+01 0.  0.
     999903    2    3    3    0    0  0.10322211037E+00  0.68460847678E-01  0.44565803144E-01  0.13302068526E+00  0.19149416765E-01 0.  0.
         14    1    1    2    0    0 -0.62354598715E-02 -0.16594633211E-01 -0.15561722318E-01  0.23588768783E-01  0.00000000000E+00 0. -1.
     999901    1    3    3    0    0 -0.96986650498E-01 -0.51866214467E-01 -0.29004080826E-01  0.88732054596E+00  0.88000000000E+00 0. -1.
        -11    1    4    4    0    0  0.86677909206E-01  0.60625762052E-01  0.44371709900E-01  0.11470681204E+00  0.51100000000E-03 0. -1.
         11    1    4    4    0    0  0.16544201163E-01  0.78350856259E-02  0.19409324454E-03  0.18313873213E-01  0.51100000000E-03 0.  1.
</event>
<event>
 8    1  0.1061721E+005  0.1043930E+01  0.7957747E-01            NaN
         13   -1    0    0    0    0  0.00000000000E+00  0.00000000000E+00  0.74505805969E-08  0.10566000000E+00  0.10566000000E+00 0. -1.
     999900   -1    0    0    0    0 -0.00000000000E+00 -0.00000000000E+00 -0.74505805969E-08  0.93827000000E+00  0.93827000000E+00 0.  1.
     999902    2    1    2    0    0  0.15247940793E-01  0.16894800032E-01  0.82769051023E-02  0.10197134535E+01  0.10194258610E+01 0.  0.
     999903    2    3    3    0    0 -0.39414336590E-01  0.12113722296E+00 -0.24469039674E-01  0.13127282846E+00  0.20152043946E-01 0.  0.
         14    1    1    2    0    0 -0.15247940793E-01 -0.16894800032E-01 -0.82769051023E-02  0.24216546505E-01  0.00000000000E+00 0.  1.
     999901    1    3    3    0    0  0.54662277384E-01 -0.10424242293E+00  0.32745944777E-01  0.88844062503E+00  0.88000000000E+00 0. -1.
        -11    1    4    4    0    0 -0.30975466539E-01  0.77176039816E-01 -0.78919503055E-02  0.83535409555E-01  0.51100000000E-03 0. -1.
         11    1    4    4    0    0 -0.84388700515E-02  0.43961183144E-01 -0.16577089369E-01  0.47737418909E-01  0.51100000000E-03 0.  1.
</event>
<event>
 8    1  0.1061721E+005  0.1043930E+01  0.7957747E-01            NaN
         13   -1    0    0    0    0  0.00000000000E+00  0.00000000000E+00  0.74505805969E-08  0.10566000000E+00  0.10566000000E+00 0.  1.
     999900   -1    0    0    0    0 -0.00000000000E+00 -0.00000000000E+00 -0.74505805969E-08  0.93827000000E+00  0.93827000000E+00 0.  1.
     999902    2    1    2    0    0  0.69666287055E-02 -0.12815811218E-01  0.20049923421E-01  0.10191352755E+01  0.10188336132E+01 0.  0.
     999903    2    3    3    0    0  0.90470724441E-01  0.59917746735E-01 -0.64740871308E-01  0.12815122217E+00  0.21360406630E-01 0.  0.
         14    1    1    2    0    0 -0.69666287055E-02  0.12815811218E-01 -0.20049923421E-01  0.24794724477E-01  0.00000000000E+00 0. -1.
     999901    1    3    3    0    0 -0.83504095736E-01 -0.72733557954E-01  0.84790794729E-01  0.89098405335E+00  0.88000000000E+00 0. -1.
        -11    1    4    4    0    0  0.26679397754E-01  0.29813856073E-01 -0.25182941945E-01  0.47276822698E-01  0.51100000000E-03 0. -1.
         11    1    4    4    0    0  0.63791326688E-01  0.30103890663E-01 -0.39557929362E-01  0.80874399473E-01  0.51100000000E-03 0.  1.
</event>
<event>
 8    1  0.1270045E+005  0.1043930E+01  0.7957747E-01            NaN
         13   -1    0    0    0    0  0.00000000000E+00  0.00000000000E+00  0.74505805969E-08  0.10566000000E+00  0.10566000000E+00 0.  1.
     999900   -1    0    0    0    0 -0.00000000000E+00 -0.00000000000E+00 -0.74505805969E-08  0.93827000000E+00  0.93827000000E+00 0.  1.
     999902    2    1    2    0    0 -0.14171599432E-01 -0.22499887064E-02 -0.20588698378E-01  0.10188343593E+01  0.10185252381E+01 0.  0.
     999903    2    3    3    0    0  0.59588608084E-01  0.69345086932E-01 -0.90353778247E-01  0.13010853579E+00  0.20121693420E-01 0.  0.
         14    1    1    2    0    0  0.14171599432E-01  0.22499887064E-02  0.20588698378E-01  0.25095640668E-01  0.00000000000E+00 0.  1.
     999901    1    3    3    0    0 -0.73760207516E-01 -0.71595075638E-01  0.69765079869E-01  0.88872582355E+00  0.88000000000E+00 0. -1.
        -11    1    4    4    0    0  0.30208263398E-01  0.44205336230E-01 -0.41165821903E-01  0.67539151184E-01  0.51100000000E-03 0. -1.
         11    1    4    4    0    0  0.29380344686E-01  0.25139750701E-01 -0.49187956344E-01  0.62569384602E-01  0.51100000000E-03 0.  1.
</event>
<event>
 8    1  0.1061721E+005  0.1043930E+01  0.7957747E-01            NaN
         13   -1    0    0    0    0  0.00000000000E+00  0.00000000000E+00  0.74505805969E-08  0.10566000000E+00  0.10566000000E+00 0.  1.
     999900   -1    0    0    0    0 -0.00000000000E+00 -0.00000000000E+00 -0.74505805969E-08  0.93827000000E+00  0.93827000000E+00 0.  1.
     999902    2    1    2    0    0  0.10955058329E-01  0.15770876389E-01  0.13760075973E-01  0.10203064199E+01  0.10200329000E+01 0.  0.
     999903    2    3    3    0    0  0.31831840745E-01  0.14664988985E-01  0.12672695081E+00  0.13283891187E+00  0.18924282273E-01 0.  0.
         14    1    1    2    0    0 -0.10955058329E-01 -0.15770876389E-01 -0.13760075973E-01  0.23623580081E-01  0.00000000000E+00 0. -1.
     999901    1    3    3    0    0 -0.20876782416E-01  0.11058874043E-02 -0.11296687483E+00  0.88746750805E+00  0.88000000000E+00 0.  1.
        -11    1    4    4    0    0  0.22130570839E-01  0.76351527817E-02  0.50379568223E-01  0.55555555429E-01  0.51100000000E-03 0. -1.
         11    1    4    4    0    0  0.97012699057E-02  0.70298362034E-02  0.76347382583E-01  0.77283356443E-01  0.51100000000E-03 0.  1.
</event>
<event>
 8    1  0.1061721E+005  0.1043930E+01  0.7957747E-01            NaN
         13   -1    0    0    0    0  0.00000000000E+00  0.00000000000E+00  0.74505805969E-08  0.10566000000E+00  0.10566000000E+00 0.  1.
     999900   -1    0    0    0    0 -0.00000000000E+00 -0.00000000000E+00 -0.74505805969E-08  0.93827000000E+00  0.93827000000E+00 0.  1.
     999902    2    1    2    0    0  0.21540004608E-01  0.47184169303E-02  0.10613159118E-01  0.10194580895E+01  0.10191643252E+01 0.  0.
     999903    2    3    3    0    0  0.81026461558E-02 -0.61081066982E-02  0.12947092484E+00  0.13129991401E+00  0.19338696902E-01 0.  0.
         14    1    1    2    0    0 -0.21540004608E-01 -0.47184169303E-02 -0.10613159118E-01  0.24471910496E-01  0.00000000000E+00 0. -1.
     999901    1    3    3    0    0  0.13437358453E-01  0.10826523628E-01 -0.11885776573E+00  0.88815817549E+00  0.88000000000E+00 0.  1.
        -11    1    4    4    0    0 -0.19769212659E-02  0.42865613631E-02  0.11484811852E-01  0.12427584250E-01  0.51100000000E-03 0.  1.
         11    1    4    4    0    0  0.10079567422E-01 -0.10394668061E-01  0.11798611299E+00  0.11887232976E+00  0.51100000000E-03 0. -1.
</event>
<event>
 8    1  0.1061721E+005  0.1043930E+01  0.7957747E-01            NaN
         13   -1    0    0    0    0  0.00000000000E+00  0.00000000000E+00  0.74505805969E-08  0.10566000000E+00  0.10566000000E+00 0. -1.
     999900   -1    0    0    0    0 -0.00000000000E+00 -0.00000000000E+00 -0.74505805969E-08  0.93827000000E+00  0.93827000000E+00 0. -1.
     999902    2    1    2    0    0 -0.13698391892E-01 -0.20766371601E-01  0.12575931050E-01  0.10160545238E+01  0.10156720697E+01 0.  0.
     999903    2    3    3    0    0  0.70679686190E-02 -0.14518595479E-01 -0.12278353918E+00  0.12544099226E+00  0.19972462310E-01 0.  0.
         14    1    1    2    0    0  0.13698391892E-01  0.20766371601E-01 -0.12575931050E-01  0.27875476170E-01  0.00000000000E+00 0.  1.
     999901    1    3    3    0    0 -0.20766360512E-01 -0.62477761222E-02  0.13535947023E+00  0.89061353157E+00  0.88000000000E+00 0.  1.
        -11    1    4    4    0    0 -0.47338438184E-02 -0.12022509813E-01 -0.77703736588E-01  0.78772341721E-01  0.51100000000E-03 0. -1.
         11    1    4    4    0    0  0.11801812437E-01 -0.24960856663E-02 -0.45079802591E-01  0.46668650539E-01  0.51100000000E-03 0.  1.
</event>
<event>
 8    1  0.1061721E+005  0.1043930E+01  0.7957747E-01            NaN
         13   -1    0    0    0    0  0.00000000000E+00  0.00000000000E+00  0.74505805969E-08  0.10566000000E+00  0.10566000000E+00 0.  1.
     999900   -1    0    0    0    0 -0.00000000000E+00 -0.00000000000E+00 -0.74505805969E-08  0.93827000000E+00  0.93827000000E+00 0. -1.
     999902    2    1    2    0    0  0.21105120758E-01 -0.12331788046E-01 -0.92073322788E-02  0.10178096232E+01  0.10174744001E+01 0.  0.
     999903    2    3    3    0    0 -0.10746540099E-01 -0.91423471527E-01  0.87188271276E-01  0.12844910285E+00  0.20582470829E-01 0.  0.
         14    1    1    2    0    0 -0.21105120758E-01  0.12331788046E-01  0.92073322788E-02  0.26120376841E-01  0.00000000000E+00 0.  1.
     999901    1    3    3    0    0  0.31851660858E-01  0.79091683481E-01 -0.96395603554E-01  0.88936052031E+00  0.88000000000E+00 0. -1.
        -11    1    4    4    0    0 -0.11858520115E-01 -0.30299624928E-01  0.23306571255E-01  0.40026855420E-01  0.51100000000E-03 0. -1.
         11    1    4    4    0    0  0.11119800158E-02 -0.61123846599E-01  0.63881700020E-01  0.88422247433E-01  0.51100000000E-03 0.  1.
</event>
<event>
 8    1  0.1061721E+005  0.1043930E+01  0.7957747E-01            NaN
         13   -1    0    0    0    0  0.00000000000E+00  0.00000000000E+00  0.74505805969E-08  0.10566000000E+00  0.10566000000E+00 0. -1.
     999900   -1    0    0    0    0 -0.00000000000E+00 -0.00000000000E+00 -0.74505805969E-08  0.93827000000E+00  0.93827000000E+00 0.  1.
     999902    2    1    2    0    0 -0.10863238226E-01  0.70478685468E-02  0.20435595280E-01  0.10197371095E+01  0.10194500854E+01 0.  0.
     999903    2    3    3    0    0 -0.12020425930E+00  0.15712125645E-01 -0.44478877087E-01  0.13055522881E+00  0.19244802360E-01 0.  0.
         14    1    1    2    0    0  0.10863238226E-01 -0.70478685468E-02 -0.20435595280E-01  0.24192890490E-01  0.00000000000E+00 0.  1.
     999901    1    3    3    0    0  0.10934102107E+00 -0.86642570984E-02  0.64914472366E-01  0.88918188070E+00  0.88000000000E+00 0. -1.
        -11    1    4    4    0    0 -0.49759116739E-01  0.86568267197E-03 -0.10143770183E-01  0.50792482708E-01  0.51100000000E-03 0.  1.
         11    1    4    4    0    0 -0.70445142558E-01  0.14846442973E-01 -0.34335106904E-01  0.79762746104E-01  0.51100000000E-03 0. -1.
</event>
<event>
 8    1  0.1061721E+005  0.1043930E+01  0.7957747E-01            NaN
         13   -1    0    0    0    0  0.00000000000E+00  0.00000000000E+00  0.74505805969E-08  0.10566000000E+00  0.10566000000E+00 0. -1.
     999900   -1    0    0    0    0 -0.00000000000E+00 -0.00000000000E+00 -0.74505805969E-08  0.93827000000E+00  0.93827000000E+00 0.  1.
     999902    2    1    2    0    0  0.17898891170E-01  0.83806912892E-02 -0.13612367518E-01  0.10199320242E+01  0.10196496610E+01 0.  0.
     999903    2    3    3    0    0  0.12533918588E+00 -0.18081238496E-01 -0.37219190132E-01  0.13268857808E+00  0.13570111866E-01 0.  0.
         14    1    1    2    0    0 -0.17898891170E-01 -0.83806912892E-02  0.13612367518E-01  0.23997975770E-01  0.00000000000E+00 0. -1.
     999901    1    3    3    0    0 -0.10744029471E+00  0.26461929785E-01  0.23606822614E-01  0.88724344615E+00  0.88000000000E+00 0. -1.
        -11    1    4    4    0    0  0.30627622000E-01 -0.74578275993E-02 -0.14553063029E-01  0.34723524971E-01  0.51100000000E-03 0. -1.
         11    1    4    4    0    0  0.94711563885E-01 -0.10623410896E-01 -0.22666127103E-01  0.97965053113E-01  0.51100000000E-03 0.  1.
</event>
<event>
 8    1  0.1061721E+005  0.1043930E+01  0.7957747E-01            NaN
         13   -1    0    0    0    0  0.00000000000E+00  0.00000000000E+00  0.74505805969E-08  0.10566000000E+00  0.10566000000E+00 0. -1.
     999900   -1    0    0    0    0 -0.00000000000E+00 -0.00000000000E+00 -0.74505805969E-08  0.93827000000E+00  0.93827000000E+00 0.  1.
     999902    2    1    2    0    0  0.37272414021E-02  0.21043791689E-01  0.11578748166E-01  0.10196236036E+01  0.10193338472E+01 0.  0.
     999903    2    3    3    0    0 -0.12663085607E+00 -0.12801797726E-01 -0.79010491518E-02  0.12916404808E+00  0.20534483336E-01 0.  0.
         14    1    1    2    0    0 -0.37272414021E-02 -0.21043791689E-01 -0.11578748166E-01  0.24306396405E-01  0.00000000000E+00 0.  1.
     999901    1    3    3    0    0  0.13035809747E+00  0.33845589416E-01  0.19479797317E-01  0.89045955551E+00  0.88000000000E+00 0.  1.
        -11    1    4    4    0    0 -0.29716186007E-01  0.72817008908E-03  0.59905787409E-02  0.30327052233E-01  0.51100000000E-03 0. -1.
         11    1    4    4    0    0 -0.96914670061E-01 -0.13529967815E-01 -0.13891627893E-01  0.98836995849E-01  0.51100000000E-03 0.  1.
</event>
<event>
 8    1  0.1061721E+005  0.1043930E+01  0.7957747E-01            NaN
         13   -1    0    0    0    0  0.00000000000E+00  0.00000000000E+00  0.74505805969E-08  0.10566000000E+00  0.10566000000E+00 0.  1.
     999900   -1    0    0    0    0 -0.00000000000E+00 -0.00000000000E+00 -0.74505805969E-08  0.93827000000E+00  0.93827000000E+00 0. -1.
     999902    2    1    2    0    0  0.13061677146E-01  0.55155103370E-02 -0.19230775760E-01  0.10200375116E+01  0.10197576546E+01 0.  0.
     999903    2    3    3    0    0  0.10332312548E+00  0.63649682334E-01  0.45090430977E-01  0.13118210795E+00  0.21181316320E-01 0.  0.
         14    1    1    2    0    0 -0.13061677146E-01 -0.55155103370E-02  0.19230775760E-01  0.23892488369E-01  0.00000000000E+00 0.  1.
     999901    1    3    3    0    0 -0.90261448336E-01 -0.58134171997E-01 -0.64321206737E-01  0.88885540368E+00  0.88000000000E+00 0. -1.
        -11    1    4    4    0    0  0.79451604112E-01  0.37761326524E-01  0.32443933955E-01  0.93762173334E-01  0.51100000000E-03 0.  1.
         11    1    4    4    0    0  0.23871521370E-01  0.25888355810E-01  0.12646497022E-01  0.37419934620E-01  0.51100000000E-03 0. -1.
</event>
<event>
 8    1  0.1061721E+005  0.1043930E+01  0.7957747E-01            NaN
         13   -1    0    0    0    0  0.00000000000E+00  0.00000000000E+00  0.74505805969E-08  0.10566000000E+00  0.10566000000E+00 0.  1.
     999900   -1    0    0    0    0 -0.00000000000E+00 -0.00000000000E+00 -0.74505805969E-08  0.93827000000E+00  0.93827000000E+00 0. -1.
     999902    2    1    2    0    0  0.15810102962E-01  0.15507731897E-01 -0.83975089766E-02  0.10202452526E+01  0.10199702977E+01 0.  0.
     999903    2    3    3    0    0  0.74001019755E-01 -0.96220868158E-01 -0.43812821360E-01  0.13056907146E+00  0.19852272227E-01 0.  0.
         14    1    1    2    0    0 -0.15810102962E-01 -0.15507731897E-01  0.83975089766E-02  0.23684747439E-01  0.00000000000E+00 0.  1.
     999901    1    3    3    0    0 -0.58190916793E-01  0.11172860005E+00  0.35415312383E-01  0.88967618110E+00  0.88000000000E+00 0.  1.
        -11    1    4    4    0    0  0.33245768308E-01 -0.37590842479E-01 -0.84693826541E-02  0.50895423294E-01  0.51100000000E-03 0.  1.
         11    1    4    4    0    0  0.40755251446E-01 -0.58630025679E-01 -0.35343438706E-01  0.79673648166E-01  0.51100000000E-03 0. -1.
</event>
<event>
 8    1  0.1061721E+005  0.1043930E+01  0.7957747E-01            NaN
         13   -1    0    0    0    0  0.00000000000E+00  0.00000000000E+00  0.74505805969E-08  0.10566000000E+00  0.10566000000E+00 0.  1.
     999900   -1    0    0    0    0 -0.00000000000E+00 -0.00000000000E+00 -0.74505805969E-08  0.93827000000E+00  0.93827000000E+00 0. -1.
     999902    2    1    2    0    0 -0.15074598637E-01  0.15656956788E-01 -0.88021991035E-02  0.10204808523E+01  0.10202114033E+01 0.  0.
     999903    2    3    3    0    0 -0.12034958749E+00  0.29115385126E-01 -0.45450860714E-01  0.13334665895E+00  0.19591371876E-01 0.  0.
         14    1    1    2    0    0  0.15074598637E-01 -0.15656956788E-01  0.88021991035E-02  0.23449147724E-01  0.00000000000E+00 0.  1.
     999901    1    3    3    0    0  0.10527498886E+00 -0.13458428338E-01  0.36648661610E-01  0.88713419333E+00  0.88000000000E+00 0.  1.
        -11    1    4    4    0    0 -0.66099556913E-01  0.25726611371E-01 -0.23487682767E-01  0.74719089391E-01  0.51100000000E-03 0.  1.
         11    1    4    4    0    0 -0.54250030582E-01  0.33887737554E-02 -0.21963177947E-01  0.58627569558E-01  0.51100000000E-03 0. -1.
</event>
<event>
 8    1  0.1061721E+005  0.1043930E+01  0.7957747E-01            NaN
         13   -1    0    0    0    0  0.00000000000E+00  0.00000000000E+00  0.74505805969E-08  0.10566000000E+00  0.10566000000E+00 0.  1.
     999900   -1    0    0    0    0 -0.00000000000E+00 -0.00000000000E+00 -0.74505805969E-08  0.93827000000E+00  0.93827000000E+00 0.  1.
     999902    2    1    2    0    0  0.14797772693E-01 -0.14842339781E-01 -0.83524667487E-02  0.10213682441E+01  0.10211190221E+01 0.  0.
     999903    2    3    3    0    0 -0.11487669600E+00  0.52921135036E-02  0.56008580899E-01  0.12931263573E+00  0.18977219869E-01 0.  0.
         14    1    1    2    0    0 -0.14797772693E-01  0.14842339781E-01  0.83524667487E-02  0.22561755863E-01  0.00000000000E+00 0.  1.
     999901    1    3    3    0    0  0.12967446870E+00 -0.20134453284E-01 -0.64361047647E-01  0.89205560841E+00  0.88000000000E+00 0.  1.
        -11    1    4    4    0    0 -0.55880220255E-01 -0.63637707182E-02  0.23570065885E-01  0.60982831358E-01  0.51100000000E-03 0.  1.
         11    1    4    4    0    0 -0.58996475749E-01  0.11655884222E-01  0.32438515014E-01  0.68329804369E-01  0.51100000000E-03 0. -1.
</event>
<event>
 8    1  0.1061721E+005  0.1043930E+01  0.7957747E-01            NaN
         13   -1    0    0    0    0  0.00000000000E+00  0.00000000000E+00  0.74505805969E-08  0.10566000000E+00  0.10566000000E+00 0.  1.
     999900   -1    0    0    0    0 -0.00000000000E+00 -0.00000000000E+00 -0.74505805969E-08  0.93827000000E+00  0.93827000000E+00 0.  1.
     999902    2    1    2    0    0  0.22584981303E-02 -0.15572160176E-01 -0.16876549126E-01  0.10208559692E+01  0.10205951690E+01 0.  0.
     999903    2    3    3    0    0  0.63968916736E-01 -0.35409254410E-01  0.10577490521E+00  0.12998837786E+00  0.19047577306E-01 0.  0.
         14    1    1    2    0    0 -0.22584981303E-02  0.15572160176E-01  0.16876549126E-01  0.23074030787E-01  0.00000000000E+00 0.  1.
     999901    1    3    3    0    0 -0.61710418606E-01  0.19837094234E-01 -0.12265145433E+00  0.89086759135E+00  0.88000000000E+00 0.  1.
        -11    1    4    4    0    0  0.29994397011E-01 -0.12465919767E-01  0.62107418450E-01  0.70090338530E-01  0.51100000000E-03 0.  1.
         11    1    4    4    0    0  0.33974519725E-01 -0.22943334643E-01  0.43667486756E-01  0.59898039331E-01  0.51100000000E-03 0. -1.
</event>
<event>
 8    1  0.1061721E+005  0.1043930E+01  0.7957747E-01            NaN
         13   -1    0    0    0    0  0.00000000000E+00  0.00000000000E+00  0.74505805969E-08  0.10566000000E+00  0.10566000000E+00 0. -1.
     999900   -1    0    0    0    0 -0.00000000000E+00 -0.00000000000E+00 -0.74505805969E-08  0.93827000000E+00  0.93827000000E+00 0.  1.
     999902    2    1    2    0    0 -0.19532878471E-01 -0.26597454050E-02 -0.16095708856E-01  0.10184804532E+01  0.10181624400E+01 0.  0.
     999903    2    3    3    0    0 -0.10438925426E+00 -0.52445547139E-02 -0.79113668518E-01  0.13215176195E+00  0.16747951540E-01 0.  0.
         14    1    1    2    0    0  0.19532878471E-01  0.26597454050E-02  0.16095708856E-01  0.25449546765E-01  0.00000000000E+00 0. -1.
     999901    1    3    3    0    0  0.84856375792E-01  0.25848093089E-02  0.63017959662E-01  0.88632869128E+00  0.88000000000E+00 0. -1.
        -11    1    4    4    0    0 -0.28744323931E-01  0.60204434020E-02 -0.22197687978E-01  0.36816848990E-01  0.51100000000E-03 0.  1.
         11    1    4    4    0    0 -0.75644930332E-01 -0.11264998116E-01 -0.56915980540E-01  0.95334912962E-01  0.51100000000E-03 0. -1.
</event>
<event>
 8    1  0.1061721E+005  0.1043930E+01  0.7957747E-01            NaN
         13   -1    0    0    0    0  0.00000000000E+00  0.00000000000E+00  0.74505805969E-08  0.10566000000E+00  0.10566000000E+00 0.  1.
     999900   -1    0    0    0    0 -0.00000000000E+00 -0.00000000000E+00 -0.74505805969E-08  0.93827000000E+00  0.93827000000E+00 0.  1.
     999902    2    1    2    0    0 -0.22272680174E-01  0.14800565340E-03 -0.82121640506E-02  0.10201911326E+01  0.10199149049E+01 0.  0.
     999903    2    3    3    0    0  0.93427311898E-01 -0.23900503848E-01  0.81039240187E-01  0.12781753810E+00  0.21681049394E-01 0.  0.
         14    1    1    2    0    0  0.22272680174E-01 -0.14800565340E-03  0.82121640506E-02  0.23738867416E-01  0.00000000000E+00 0.  1.
     999901    1    3    3    0    0 -0.11569999207E+00  0.24048509502E-01 -0.89251404238E-01  0.89237359448E+00  0.88000000000E+00 0.  1.
        -11    1    4    4    0    0  0.69538230080E-01 -0.25311312346E-01  0.68290568969E-01  0.10069801838E+00  0.51100000000E-03 0. -1.
         11    1    4    4    0    0  0.23889081819E-01  0.14108084982E-02  0.12748671219E-01  0.27119519716E-01  0.51100000000E-03 0.  1.
</event>
<event>
 8    1  0.1061721E+005  0.1043930E+01  0.7957747E-01            NaN
         13   -1    0    0    0    0  0.00000000000E+00  0.00000000000E+00  0.74505805969E-08  0.10566000000E+00  0.10566000000E+00 0.  1.
     999900   -1    0    0    0    0 -0.00000000000E+00 -0.00000000000E+00 -0.74505805969E-08  0.93827000000E+00  0.93827000000E+00 0. -1.
     999902    2    1    2    0    0  0.47589948715E-02 -0.11056984857E-01  0.21074873684E-01  0.10196595396E+01  0.10193706497E+01 0.  0.
     999903    2    3    3    0    0 -0.10767678912E-02 -0.12431065880E+00  0.40718010121E-01  0.13216514324E+00  0.18851244504E-01 0.  0.
         14    1    1    2    0    0 -0.47589948715E-02  0.11056984857E-01 -0.21074873684E-01  0.24270460381E-01  0.00000000000E+00 0. -1.
     999901    1    3    3    0    0  0.58357627627E-02  0.11325367395E+00 -0.19643136437E-01  0.88749439638E+00  0.88000000000E+00 0. -1.
        -11    1    4    4    0    0  0.37352587783E-02 -0.87439360486E-01  0.36171524897E-01  0.94700761637E-01  0.51100000000E-03 0.  1.
         11    1    4    4    0    0 -0.48120266695E-02 -0.36871298317E-01  0.45464852232E-02  0.37464381606E-01  0.51100000000E-03 0. -1.
</event>
<event>
 8    1  0.1061721E+005  0.1043930E+01  0.7957747E-01            NaN
         13   -1    0    0    0    0  0.00000000000E+00  0.00000000000E+00  0.74505805969E-08  0.10566000000E+00  0.10566000000E+00 0.  1.
     999900   -1    0    0    0    0 -0.00000000000E+00 -0.00000000000E+00 -0.74505805969E-08  0.93827000000E+00  0.93827000000E+00 0. -1.
     999902    2    1    2    0    0 -0.17515710956E-01  0.12857649685E-01 -0.29468909551E-01  0.10073166702E+01  0.10066510509E+01 0.  0.
     999903    2    3    3    0    0  0.17198803546E-03  0.11144253216E+00  0.37204238229E-01  0.11912910988E+00  0.19700810239E-01 0.  0.
         14    1    1    2    0    0  0.17515710956E-01 -0.12857649685E-01  0.29468909551E-01  0.36613329756E-01  0.00000000000E+00 0.  1.
     999901    1    3    3    0    0 -0.17687698992E-01 -0.98584882477E-01 -0.66673147780E-01  0.88818756036E+00  0.88000000000E+00 0. -1.
        -11    1    4    4    0    0 -0.46042557457E-02  0.94822180073E-02  0.20006016621E-03  0.10555224980E-01  0.51100000000E-03 0.  1.
         11    1    4    4    0    0  0.47762437812E-02  0.10196031416E+00  0.37004178062E-01  0.10857388490E+00  0.51100000000E-03 0. -1.
</event>
<event>
 8    1  0.1061721E+005  0.1043930E+01  0.7957747E-01            NaN
         13   -1    0    0    0    0  0.00000000000E+00  0.00000000000E+00  0.74505805969E-08  0.10566000000E+00  0.10566000000E+00 0.  1.
     999900   -1    0    0    0    0 -0.00000000000E+00 -0.00000000000E+00 -0.74505805969E-08  0.93827000000E+00  0.93827000000E+00 0. -1.
     999902    2    1    2    0    0  0.23063144069E-02  0.19220101975E-01  0.10381075286E-01  0.10219641599E+01  0.10217280685E+01 0.  0.
     999903    2    3    3    0    0 -0.10751109653E+00 -0.69788455377E-01  0.15360970076E-01  0.13066893029E+00  0.20232290038E-01 0.  0.
         14    1    1    2    0    0 -0.23063144069E-02 -0.19220101975E-01 -0.10381075286E-01  0.21965840074E-01  0.00000000000E+00 0. -1.
     999901    1    3    3    0    0  0.10981741093E+00  0.89008557352E-01 -0.49798947902E-02  0.89129522964E+00  0.88000000000E+00 0.  1.
        -11    1    4    4    0    0 -0.16718125199E-01 -0.91927737190E-02 -0.47640055716E-02  0.19671290473E-01  0.51100000000E-03 0. -1.
         11    1    4    4    0    0 -0.90792971328E-01 -0.60595681658E-01  0.20124975648E-01  0.11099763981E+00  0.51100000000E-03 0.  1.
</event>
<event>
 8    1  0.1061721E+005  0.1043930E+01  0.7957747E-01            NaN
         13   -1    0    0    0    0  0.00000000000E+00  0.00000000000E+00  0.74505805969E-08  0.10566000000E+00  0.10566000000E+00 0. -1.
     999900   -1    0    0    0    0 -0.00000000000E+00 -0.00000000000E+00 -0.74505805969E-08  0.93827000000E+00  0.93827000000E+00 0. -1.
     999902    2    1    2    0    0  0.10962919735E-01  0.56263882922E-02 -0.20182666549E-01  0.10202829731E+01  0.10200089035E+01 0.  0.
     999903    2    3    3    0    0 -0.11286939272E+00 -0.57510788246E-01  0.11986634839E-01  0.12879230646E+00  0.19919543464E-01 0.  0.
         14    1    1    2    0    0 -0.10962919735E-01 -0.56263882922E-02  0.20182666549E-01  0.23647026946E-01  0.00000000000E+00 0. -1.
     999901    1    3    3    0    0  0.12383231245E+00  0.63137176538E-01 -0.32169301388E-01  0.89149066659E+00  0.88000000000E+00 0. -1.
        -11    1    4    4    0    0 -0.39100738949E-01 -0.21269880999E-01 -0.52179570561E-02  0.44819234943E-01  0.51100000000E-03 0.  1.
         11    1    4    4    0    0 -0.73768653770E-01 -0.36240907247E-01  0.17204591895E-01  0.83973071519E-01  0.51100000000E-03 0. -1.
</event>
<event>
 8    1  0.1061721E+005  0.1043930E+01  0.7957747E-01            NaN
         13   -1    0    0    0    0  0.00000000000E+00  0.00000000000E+00  0.74505805969E-08  0.10566000000E+00  0.10566000000E+00 0. -1.
     999900   -1    0    0    0    0 -0.00000000000E+00 -0.00000000000E+00 -0.74505805969E-08  0.93827000000E+00  0.93827000000E+00 0. -1.
     999902    2    1    2    0    0  0.22683897146E-02 -0.44956110886E-02  0.24122138800E-01  0.10192878878E+01  0.10189899728E+01 0.  0.
     999903    2    3    3    0    0 -0.68479935403E-01  0.28367194189E-01  0.10731791640E+00  0.13192841904E+00  0.19843722204E-01 0.  0.
         14    1    1    2    0    0 -0.22683897146E-02  0.44956110886E-02 -0.24122138800E-01  0.24642112150E-01  0.00000000000E+00 0.  1.
     999901    1    3    3    0    0  0.70748325118E-01 -0.32862805278E-01 -0.83195777600E-01  0.88735946881E+00  0.88000000000E+00 0. -1.
        -11    1    4    4    0    0 -0.38027938945E-01  0.21516036774E-01  0.48086831530E-01  0.64974367765E-01  0.51100000000E-03 0.  1.
         11    1    4    4    0    0 -0.30451996457E-01  0.68511574149E-02  0.59231084869E-01  0.66954051274E-01  0.51100000000E-03 0. -1.
</event>
<event>
 8    1  0.1061721E+005  0.1043930E+01  0.7957747E-01            NaN
         13   -1    0    0    0    0  0.00000000000E+00  0.00000000000E+00  0.74505805969E-08  0.10566000000E+00  0.10566000000E+00 0. -1.
     999900   -1    0    0    0    0 -0.00000000000E+00 -0.00000000000E+00 -0.74505805969E-08  0.93827000000E+00  0.93827000000E+00 0. -1.
     999902    2    1    2    0    0  0.28617967161E-02  0.19520135071E-01  0.10346125017E-01  0.10216529298E+01  0.10214100260E+01 0.  0.
     999903    2    3    3    0    0  0.72478640047E-01  0.90904220123E-01  0.64048003891E-01  0.13439530979E+00  0.21052838114E-01 0.  0.
         14    1    1    2    0    0 -0.28617967161E-02 -0.19520135071E-01 -0.10346125017E-01  0.22277070195E-01  0.00000000000E+00 0.  1.
     999901    1    3    3    0    0 -0.69616843331E-01 -0.71384085052E-01 -0.53701878874E-01  0.88725762001E+00  0.88000000000E+00 0. -1.
        -11    1    4    4    0    0  0.67162871393E-02  0.10720968625E-02  0.36863439440E-02  0.77529450722E-02  0.51100000000E-03 0. -1.
         11    1    4    4    0    0  0.65762352908E-01  0.89832123260E-01  0.60361659947E-01  0.12664236472E+00  0.51100000000E-03 0.  1.
</event>
<event>
 8    1  0.1061721E+005  0.1043930E+01  0.7957747E-01            NaN
         13   -1    0    0    0    0  0.00000000000E+00  0.00000000000E+00  0.74505805969E-08  0.10566000000E+00  0.10566000000E+00 0. -1.
     999900   -1    0    0    0    0 -0.00000000000E+00 -0.00000000000E+00 -0.74505805969E-08  0.93827000000E+00  0.93827000000E+00 0.  1.
     999902    2    1    2    0    0  0.89369095330E-02  0.53086933016E-02  0.21574535628E-01  0.10199819069E+01  0.10197007302E+01 0.  0.
     999903    2    3    3    0    0 -0.11337315671E+00  0.13011237971E-01  0.60697807764E-01  0.13062837092E+00  0.18888685657E-01 0.  0.
         14    1    1    2    0    0 -0.89369095330E-02 -0.53086933016E-02 -0.21574535628E-01  0.23948093121E-01  0.00000000000E+00 0.  1.
     999901    1    3    3    0    0  0.12231006624E+00 -0.77025446695E-02 -0.39123272135E-01  0.88935353596E+00  0.88000000000E+00 0. -1.
        -11    1    4    4    0    0 -0.28015269530E-01 -0.46320755158E-02  0.17353313133E-01  0.33282278289E-01  0.51100000000E-03 0.  1.
         11    1    4    4    0    0 -0.85357887181E-01  0.17643313487E-01  0.43344494630E-01  0.97346092631E-01  0.51100000000E-03 0. -1.
</event>
<event>
 8    1  0.1061721E+005  0.1043930E+01  0.7957747E-01            NaN
         13   -1    0    0    0    0  0.00000000000E+00  0.00000000000E+00  0.74505805969E-08  0.10566000000E+00  0.10566000000E+00 0. -1.
     999900   -1    0    0    0    0 -0.00000000000E+00 -0.00000000000E+00 -0.74505805969E-08  0.93827000000E+00  0.93827000000E+00 0. -1.
     999902    2    1    2    0    0  0.15817950601E-01 -0.51393917671E-02  0.16794264880E-01  0.10202938361E+01  0.10200200213E+01 0.  0.
     999903    2    3    3    0    0  0.77897548926E-01 -0.85635840164E-01 -0.58565461472E-01  0.13124229484E+00  0.19826785653E-01 0.  0.
         14    1    1    2    0    0 -0.15817950601E-01  0.51393917671E-02 -0.16794264880E-01  0.23636163856E-01  0.00000000000E+00 0.  1.
     999901    1    3    3    0    0 -0.62079598325E-01  0.80496448397E-01  0.75359726352E-01  0.88905154130E+00  0.88000000000E+00 0.  1.
        -11    1    4    4    0    0  0.31228424592E-01 -0.21679039464E-01 -0.14988399102E-01  0.40866960778E-01  0.51100000000E-03 0. -1.
         11    1    4    4    0    0  0.46669124334E-01 -0.63956800699E-01 -0.43577062370E-01  0.90375334066E-01  0.51100000000E-03 0.  1.
</event>
<event>
 8    1  0.1061721E+005  0.1043930E+01  0.7957747E-01            NaN
         13   -1    0    0    0    0  0.00000000000E+00  0.00000000000E+00  0.74505805969E-08  0.10566000000E+00  0.10566000000E+00 0.  1.
     999900   -1    0    0    0    0 -0.00000000000E+00 -0.00000000000E+00 -0.74505805969E-08  0.93827000000E+00  0.93827000000E+00 0. -1.
     999902    2    1    2    0    0  0.19322324730E-02 -0.18326439313E-01 -0.14600578021E-01  0.10204189647E+01  0.10201480750E+01 0.  0.
     999903    2    3    3    0    0 -0.70441801461E-01 -0.60691890012E-02 -0.11005628373E+00  0.13221851849E+00  0.19247560742E-01 0.  0.
         14    1    1    2    0    0 -0.19322324730E-02  0.18326439313E-01  0.14600578021E-01  0.23511035255E-01  0.00000000000E+00 0.  1.
     999901    1    3    3    0    0  0.72374033934E-01 -0.12257250312E-01  0.95455705712E-01  0.88820044625E+00  0.88000000000E+00 0.  1.
        -11    1    4    4    0    0 -0.31581053228E-01 -0.98888250190E-02 -0.39111174572E-01  0.51235699279E-01  0.51100000000E-03 0.  1.
         11    1    4    4    0    0 -0.38860748234E-01  0.38196360178E-02 -0.70945109161E-01  0.80982819212E-01  0.51100000000E-03 0. -1.
</event>
<event>
 8    1  0.1061721E+005  0.1043930E+01  0.7957747E-01            NaN
         13   -1    0    0    0    0  0.00000000000E+00  0.00000000000E+00  0.74505805969E-08  0.10566000000E+00  0.10566000000E+00 0.  1.
     999900   -1    0    0    0    0 -0.00000000000E+00 -0.00000000000E+00 -0.74505805969E-08  0.93827000000E+00  0.93827000000E+00 0.  1.
     999902    2    1    2    0    0 -0.29190283445E-02  0.22459371205E-01  0.11284983059E-01  0.10186259504E+01  0.10183116085E+01 0.  0.
     999903    2    3    3    0    0  0.27269687606E-01 -0.33432084589E-01  0.12058390606E+00  0.12959194211E+00  0.19805375965E-01 0.  0.
         14    1    1    2    0    0  0.29190283445E-02 -0.22459371205E-01 -0.11284983059E-01  0.25304049558E-01  0.00000000000E+00 0. -1.
     999901    1    3    3    0    0 -0.30188715950E-01  0.55891455794E-01 -0.10929892300E+00  0.88903400833E+00  0.88000000000E+00 0.  1.
        -11    1    4    4    0    0  0.23598300712E-01 -0.15801343611E-01  0.86425249802E-01  0.90973332250E-01  0.51100000000E-03 0. -1.
         11    1    4    4    0    0  0.36713868941E-02 -0.17630740977E-01  0.34158656258E-01  0.38618609859E-01  0.51100000000E-03 0.  1.
</event>
<event>
 8    1  0.1061721E+005  0.1043930E+01  0.7957747E-01            NaN
         13   -1    0    0    0    0  0.00000000000E+00  0.00000000000E+00  0.74505805969E-08  0.10566000000E+00  0.10566000000E+00 0.  1.
     999900   -1    0    0    0    0 -0.00000000000E+00 -0.00000000000E+00 -0.74505805969E-08  0.93827000000E+00  0.93827000000E+00 0.  1.
     999902    2    1    2    0    0 -0.18647309879E-02  0.17910731182E-01 -0.12344262632E-01  0.10220976311E+01  0.10218644309E+01 0.  0.
     999903    2    3    3    0    0 -0.19049557205E-01 -0.10221930626E+00  0.73878082548E-01  0.12959506135E+00  0.22918041871E-01 0.  0.
         14    1    1    2    0    0  0.18647309879E-02 -0.17910731182E-01  0.12344262632E-01  0.21832368929E-01  0.00000000000E+00 0. -1.
     999901    1    3    3    0    0  0.17184826217E-01  0.12013003744E+00 -0.86222345180E-01  0.89250256972E+00  0.88000000000E+00 0.  1.
        -11    1    4    4    0    0 -0.10172010383E-01 -0.76562732789E-01  0.42716572200E-01  0.88262611047E-01  0.51100000000E-03 0. -1.
         11    1    4    4    0    0 -0.88775468216E-02 -0.25656573473E-01  0.31161510348E-01  0.41332450304E-01  0.51100000000E-03 0.  1.
</event>
<event>
 8    1  0.1061721E+005  0.1043930E+01  0.7957747E-01            NaN
         13   -1    0    0    0    0  0.00000000000E+00  0.00000000000E+00  0.74505805969E-08  0.10566000000E+00  0.10566000000E+00 0. -1.
     999900   -1    0    0    0    0 -0.00000000000E+00 -0.00000000000E+00 -0.74505805969E-08  0.93827000000E+00  0.93827000000E+00 0.  1.
     999902    2    1    2    0    0 -0.14161398453E-01  0.18329981855E-01  0.28963143309E-02  0.10205864339E+01  0.10203194338E+01 0.  0.
     999903    2    3    3    0    0 -0.11852078203E+00  0.43493223320E-01 -0.37148888675E-01  0.13315886620E+00  0.20307817934E-01 0.  0.
         14    1    1    2    0    0  0.14161398453E-01 -0.18329981855E-01 -0.28963143309E-02  0.23343566087E-01  0.00000000000E+00 0.  1.
     999901    1    3    3    0    0  0.10435938358E+00 -0.25163241465E-01  0.40045203006E-01  0.88742756772E+00  0.88000000000E+00 0. -1.
        -11    1    4    4    0    0 -0.85378030304E-01  0.25399355481E-01 -0.18240099377E-01  0.90925781073E-01  0.51100000000E-03 0.  1.
         11    1    4    4    0    0 -0.33142751725E-01  0.18093867839E-01 -0.18908789298E-01  0.42233085123E-01  0.51100000000E-03 0. -1.
</event>
<event>
 8    1  0.1061721E+005  0.1043930E+01  0.7957747E-01            NaN
         13   -1    0    0    0    0  0.00000000000E+00  0.00000000000E+00  0.74505805969E-08  0.10566000000E+00  0.10566000000E+00 0.  1.
     999900   -1    0    0    0    0 -0.00000000000E+00 -0.00000000000E+00 -0.74505805969E-08  0.93827000000E+00  0.93827000000E+00 0. -1.
     999902    2    1    2    0    0 -0.13309508850E-01  0.18986049869E-01  0.14323068197E-03  0.10207430720E+01  0.10204796840E+01 0.  0.
     999903    2    3    3    0    0 -0.10872527293E+00  0.65275002782E-01  0.36993458502E-01  0.13361017637E+00  0.20028786712E-01 0.  0.
         14    1    1    2    0    0  0.13309508850E-01 -0.18986049869E-01 -0.14323068197E-03  0.23186928009E-01  0.00000000000E+00 0.  1.
     999901    1    3    3    0    0  0.95415764079E-01 -0.46288952912E-01 -0.36850227820E-01  0.88713289562E+00  0.88000000000E+00 0.  1.
        -11    1    4    4    0    0 -0.47298791613E-01  0.37377823806E-01  0.24083617645E-01  0.64919636169E-01  0.51100000000E-03 0.  1.
         11    1    4    4    0    0 -0.61426481315E-01  0.27897178976E-01  0.12909840857E-01  0.68690540204E-01  0.51100000000E-03 0. -1.
</event>
<event>
 8    1  0.1061721E+005  0.1043930E+01  0.7957747E-01            NaN
         13   -1    0    0    0    0  0.00000000000E+00  0.00000000000E+00  0.74505805969E-08  0.10566000000E+00  0.10566000000E+00 0.  1.
     999900   -1    0    0    0    0 -0.00000000000E+00 -0.00000000000E+00 -0.74505805969E-08  0.93827000000E+00  0.93827000000E+00 0.  1.
     999902    2    1    2    0    0 -0.18716565420E-01 -0.68399401012E-02 -0.12388364187E-01  0.10204658535E+01  0.10201960557E+01 0.  0.
     999903    2    3    3    0    0  0.72848225036E-01 -0.77402445114E-01 -0.73616790799E-01  0.13079619677E+00  0.19753754086E-01 0.  0.
         14    1    1    2    0    0  0.18716565420E-01  0.68399401012E-02  0.12388364187E-01  0.23464146456E-01  0.00000000000E+00 0.  1.
     999901    1    3    3    0    0 -0.91564790455E-01  0.70562505013E-01  0.61228426612E-01  0.88966965678E+00  0.88000000000E+00 0.  1.
        -11    1    4    4    0    0  0.38493167793E-01 -0.32842295840E-01 -0.44769194131E-01  0.67563912164E-01  0.51100000000E-03 0.  1.
         11    1    4    4    0    0  0.34355057243E-01 -0.44560149275E-01 -0.28847596668E-01  0.63232284603E-01  0.51100000000E-03 0. -1.
</event>
<event>
 8    1  0.1061721E+005  0.1043930E+01  0.7957747E-01            NaN
         13   -1    0    0    0    0  0.00000000000E+00  0.00000000000E+00  0.74505805969E-08  0.10566000000E+00  0.10566000000E+00 0. -1.
     999900   -1    0    0    0    0 -0.00000000000E+00 -0.00000000000E+00 -0.74505805969E-08  0.93827000000E+00  0.93827000000E+00 0.  1.
     999902    2    1    2    0    0  0.11268051637E-01 -0.70149757557E-02  0.17420265232E-01  0.10220292120E+01  0.10217945321E+01 0.  0.
     999903    2    3    3    0    0 -0.58965417192E-01 -0.21742422088E-01 -0.11178909870E+00  0.12970376830E+00  0.19406482901E-01 0.  0.
         14    1    1    2    0    0 -0.11268051637E-01  0.70149757557E-02 -0.17420265232E-01  0.21900787960E-01  0.00000000000E+00 0.  1.
     999901    1    3    3    0    0  0.70233468829E-01  0.14727446332E-01  0.12920936394E+00  0.89232544374E+00  0.88000000000E+00 0. -1.
        -11    1    4    4    0    0 -0.15970960528E-01  0.28615068297E-02 -0.28002027543E-01  0.32367181975E-01  0.51100000000E-03 0. -1.
         11    1    4    4    0    0 -0.42994456664E-01 -0.24603928918E-01 -0.83787071162E-01  0.97336586323E-01  0.51100000000E-03 0.  1.
</event>
<event>
 8    1  0.1061721E+005  0.1043930E+01  0.7957747E-01            NaN
         13   -1    0    0    0    0  0.00000000000E+00  0.00000000000E+00  0.74505805969E-08  0.10566000000E+00  0.10566000000E+00 0.  1.
     999900   -1    0    0    0    0 -0.00000000000E+00 -0.00000000000E+00 -0.74505805969E-08  0.93827000000E+00  0.93827000000E+00 0.  1.
     999902    2    1    2    0    0  0.64778935591E-02 -0.14164357034E-01  0.18145458310E-01  0.10200166194E+01  0.10197362669E+01 0.  0.
     999903    2    3    3    0    0 -0.60829613042E-01 -0.84805619947E-01  0.79600692780E-01  0.13249352993E+00  0.18056305961E-01 0.  0.
         14    1    1    2    0    0 -0.64778935591E-02  0.14164357034E-01 -0.18145458310E-01  0.23913380615E-01  0.00000000000E+00 0. -1.
     999901    1    3    3    0    0  0.67307506601E-01  0.70641262913E-01 -0.61455234469E-01  0.88752308945E+00  0.88000000000E+00 0.  1.
        -11    1    4    4    0    0 -0.45321353762E-01 -0.50025187207E-01  0.45820572621E-01  0.81586337449E-01  0.51100000000E-03 0. -1.
         11    1    4    4    0    0 -0.15508259280E-01 -0.34780432740E-01  0.33780120158E-01  0.50907192482E-01  0.51100000000E-03 0.  1.
</event>
<event>
 8    1  0.1061721E+005  0.1043930E+01  0.7957747E-01            NaN
         13   -1    0    0    0    0  0.00000000000E+00  0.00000000000E+00  0.74505805969E-08  0.10566000000E+00  0.10566000000E+00 0.  1.
     999900   -1    0    0    0    0 -0.00000000000E+00 -0.00000000000E+00 -0.74505805969E-08  0.93827000000E+00  0.93827000000E+00 0.  1.
     999902    2    1    2    0    0 -0.21000202588E-01  0.29310305328E-02 -0.12855770000E-01  0.10191334222E+01  0.10188317142E+01 0.  0.
     999903    2    3    3    0    0 -0.57566838045E-01 -0.40567673647E-01 -0.10992509987E+00  0.13197407298E+00  0.19337822226E-01 0.  0.
         14    1    1    2    0    0  0.21000202588E-01 -0.29310305328E-02  0.12855770000E-01  0.24796577809E-01  0.00000000000E+00 0. -1.
     999901    1    3    3    0    0  0.36566635457E-01  0.43498704180E-01  0.97069329875E-01  0.88715934921E+00  0.88000000000E+00 0. -1.
        -11    1    4    4    0    0 -0.21827979115E-01 -0.25143461407E-01 -0.60501250843E-01  0.69060240358E-01  0.51100000000E-03 0.  1.
         11    1    4    4    0    0 -0.35738858930E-01 -0.15424212239E-01 -0.49423849031E-01  0.62913832620E-01  0.51100000000E-03 0. -1.
</event>
<event>
 8    1  0.1061721E+005  0.1043930E+01  0.7957747E-01            NaN
         13   -1    0    0    0    0  0.00000000000E+00  0.00000000000E+00  0.74505805969E-08  0.10566000000E+00  0.10566000000E+00 0.  1.
     999900   -1    0    0    0    0 -0.00000000000E+00 -0.00000000000E+00 -0.74505805969E-08  0.93827000000E+00  0.93827000000E+00 0. -1.
     999902    2    1    2    0    0  0.98060782413E-02  0.47902673651E-02  0.21223929321E-01  0.10200645227E+01  0.10197853056E+01 0.  0.
     999903    2    3    3    0    0 -0.11874370407E+00 -0.38168787568E-01 -0.23842944013E-01  0.12854808985E+00  0.19980035653E-01 0.  0.
         14    1    1    2    0    0 -0.98060782413E-02 -0.47902673651E-02 -0.21223929321E-01  0.23865477320E-01  0.00000000000E+00 0. -1.
     999901    1    3    3    0    0  0.12854978231E+00  0.42959054933E-01  0.45066873334E-01  0.89151643283E+00  0.88000000000E+00 0.  1.
        -11    1    4    4    0    0 -0.41429998965E-01 -0.13382083992E-01 -0.18102833039E-01  0.47153988922E-01  0.51100000000E-03 0.  1.
         11    1    4    4    0    0 -0.77313705103E-01 -0.24786703576E-01 -0.57401109739E-02  0.81394100928E-01  0.51100000000E-03 0. -1.
</event>
<event>
 8    1  0.1061721E+005  0.1043930E+01  0.7957747E-01            NaN
         13   -1    0    0    0    0  0.00000000000E+00  0.00000000000E+00  0.74505805969E-08  0.10566000000E+00  0.10566000000E+00 0. -1.
     999900   -1    0    0    0    0 -0.00000000000E+00 -0.00000000000E+00 -0.74505805969E-08  0.93827000000E+00  0.93827000000E+00 0.  1.
     999902    2    1    2    0    0 -0.59522936976E-02  0.90744002258E-02 -0.20682792081E-01  0.10205729362E+01  0.10203056237E+01 0.  0.
     999903    2    3    3    0    0  0.10339102107E+00 -0.75403221543E-01 -0.23659407389E-02  0.12960271444E+00  0.20394039807E-01 0.  0.
         14    1    1    2    0    0  0.59522936976E-02 -0.90744002258E-02  0.20682792081E-01  0.23357063771E-01  0.00000000000E+00 0. -1.
     999901    1    3    3    0    0 -0.10934331476E+00  0.84477621769E-01 -0.18316851342E-01  0.89097022178E+00  0.88000000000E+00 0. -1.
        -11    1    4    4    0    0  0.74073740415E-01 -0.47622150487E-01 -0.95403716160E-02  0.88578033664E-01  0.51100000000E-03 0. -1.
         11    1    4    4    0    0  0.29317280651E-01 -0.27781071056E-01  0.71744308771E-02  0.41024680781E-01  0.51100000000E-03 0.  1.
</event>
<event>
 8    1  0.1061721E+005  0.1043930E+01  0.7957747E-01            NaN
         13   -1    0    0    0    0  0.00000000000E+00  0.00000000000E+00  0.74505805969E-08  0.10566000000E+00  0.10566000000E+00 0.  1.
     999900   -1    0    0    0    0 -0.00000000000E+00 -0.00000000000E+00 -0.74505805969E-08  0.93827000000E+00  0.93827000000E+00 0. -1.
     999902    2    1    2    0    0  0.90633006551E-02  0.64478008818E-02  0.21775821241E-01  0.10194779255E+01  0.10191846431E+01 0.  0.
     999903    2    3    3    0    0  0.21551150835E-01 -0.35488815296E-01 -0.11863792308E+00  0.12727243027E+00  0.19985159566E-01 0.  0.
         14    1    1    2    0    0 -0.90633006551E-02 -0.64478008818E-02 -0.21775821241E-01  0.24452074466E-01  0.00000000000E+00 0. -1.
     999901    1    3    3    0    0 -0.12487850180E-01  0.41936616177E-01  0.14041374432E+00  0.89220549526E+00  0.88000000000E+00 0.  1.
        -11    1    4    4    0    0 -0.33429402782E-02 -0.19534378146E-02 -0.62045362540E-02  0.73313409501E-02  0.51100000000E-03 0.  1.
         11    1    4    4    0    0  0.24894091113E-01 -0.33535377481E-01 -0.11243338682E+00  0.11994108932E+00  0.51100000000E-03 0. -1.
</event>
<event>
 8    1  0.1061721E+005  0.1043930E+01  0.7957747E-01            NaN
         13   -1    0    0    0    0  0.00000000000E+00  0.00000000000E+00  0.74505805969E-08  0.10566000000E+00  0.10566000000E+00 0.  1.
     999900   -1    0    0    0    0 -0.00000000000E+00 -0.00000000000E+00 -0.74505805969E-08  0.93827000000E+00  0.93827000000E+00 0. -1.
     999902    2    1    2    0    0 -0.18565159456E-01  0.13616112159E-01  0.61850911220E-02  0.10200905577E+01  0.10198119567E+01 0.  0.
     999903    2    3    3    0    0 -0.10074567766E-01 -0.11492456715E+00 -0.53481486162E-01  0.12871246913E+00  0.19936832653E-01 0.  0.
         14    1    1    2    0    0  0.18565159456E-01 -0.13616112159E-01 -0.61850911220E-02  0.23839442278E-01  0.00000000000E+00 0. -1.
     999901    1    3    3    0    0 -0.84905916894E-02  0.12854067931E+00  0.59666577284E-01  0.89137808860E+00  0.88000000000E+00 0.  1.
        -11    1    4    4    0    0 -0.14126556821E-01 -0.48317120793E-01 -0.22851711757E-01  0.55286215466E-01  0.51100000000E-03 0.  1.
         11    1    4    4    0    0  0.40519890543E-02 -0.66607446356E-01 -0.30629774405E-01  0.73426253660E-01  0.51100000000E-03 0. -1.
</event>
<event>
 7    1  0.1061721E+005  0.1043930E+01  0.7957747E-01            NaN
         13   -1    0    0    0    0  0.00000000000E+00  0.00000000000E+00  0.74505805969E-08  0.10566000000E+00  0.10566000000E+00 0. -1.
     999900   -1    0    0    0    0 -0.00000000000E+00 -0.00000000000E+00 -0.74505805969E-08  0.93827000000E+00  0.93827000000E+00 0. -1.
     999902    2    1    2    0    0 -0.25810284829E-01 -0.70468382186E-02  0.70324478402E-02  0.10162662321E+01  0.10158896448E+01 0.  0.
         14    1    1    2    0    0  0.25810284829E-01  0.70468382186E-02 -0.70324478402E-02  0.27663767901E-01  0.00000000000E+00 0.  1.
     999901    1    3    3    0    0  0.85265748231E-01  0.25074665905E-01  0.51950433985E-01  0.88600103515E+00  0.88000000000E+00 0.  1.
        -11    1    3    3    0    0 -0.53350432062E-01 -0.34821413870E-01 -0.16230296378E-01  0.65745593820E-01  0.51100000000E-03 0. -1.
         11    1    3    3    0    0 -0.57725600998E-01  0.26999097467E-02 -0.28687689767E-01  0.64519603132E-01  0.51100000000E-03 0.  1.
</event>
<event>
 8    1  0.1061721E+005  0.1043930E+01  0.7957747E-01            NaN
         13   -1    0    0    0    0  0.00000000000E+00  0.00000000000E+00  0.74505805969E-08  0.10566000000E+00  0.10566000000E+00 0.  1.
     999900   -1    0    0    0    0 -0.00000000000E+00 -0.00000000000E+00 -0.74505805969E-08  0.93827000000E+00  0.93827000000E+00 0.  1.
     999902    2    1    2    0    0  0.22678721689E-01  0.38160438727E-03  0.41410765112E-02  0.10208731452E+01  0.10206127375E+01 0.  0.
     999903    2    3    3    0    0  0.96612112496E-02 -0.11968425844E+00 -0.48826760972E-01  0.13104683696E+00  0.19275896097E-01 0.  0.
         14    1    1    2    0    0 -0.22678721689E-01 -0.38160438727E-03 -0.41410765112E-02  0.23056854817E-01  0.00000000000E+00 0.  1.
     999901    1    3    3    0    0  0.13017510440E-01  0.12006586282E+00  0.52967837483E-01  0.88982630822E+00  0.88000000000E+00 0. -1.
        -11    1    4    4    0    0  0.14052129880E-01 -0.93863804995E-01 -0.43065618171E-01  0.10422468437E+00  0.51100000000E-03 0. -1.
         11    1    4    4    0    0 -0.43909186309E-02 -0.25820453442E-01 -0.57611428015E-02  0.26822152593E-01  0.51100000000E-03 0.  1.
</event>
<event>
 8    1  0.1061721E+005  0.1043930E+01  0.7957747E-01            NaN
         13   -1    0    0    0    0  0.00000000000E+00  0.00000000000E+00  0.74505805969E-08  0.10566000000E+00  0.10566000000E+00 0.  1.
     999900   -1    0    0    0    0 -0.00000000000E+00 -0.00000000000E+00 -0.74505805969E-08  0.93827000000E+00  0.93827000000E+00 0.  1.
     999902    2    1    2    0    0  0.63965806140E-02 -0.26040577247E-03  0.22361380466E-01  0.10206702624E+01  0.10204051986E+01 0.  0.
     999903    2    3    3    0    0  0.17660049895E-01  0.12539776373E+00 -0.24134024423E-01  0.13045755529E+00  0.20006151237E-01 0.  0.
         14    1    1    2    0    0 -0.63965806140E-02  0.26040577247E-03 -0.22361380466E-01  0.23259737553E-01  0.00000000000E+00 0. -1.
     999901    1    3    3    0    0 -0.11263469281E-01 -0.12565816950E+00  0.46495404889E-01  0.89021270715E+00  0.88000000000E+00 0.  1.
        -11    1    4    4    0    0  0.15855195807E-01  0.50839070637E-01 -0.52025611653E-02  0.53510056074E-01  0.51100000000E-03 0.  1.
         11    1    4    4    0    0  0.18048540880E-02  0.74558693092E-01 -0.18931463258E-01  0.76947499219E-01  0.51100000000E-03 0. -1.
</event>
<event>
 8    1  0.1061721E+005  0.1043930E+01  0.7957747E-01            NaN
         13   -1    0    0    0    0  0.00000000000E+00  0.00000000000E+00  0.74505805969E-08  0.10566000000E+00  0.10566000000E+00 0. -1.
     999900   -1    0    0    0    0 -0.00000000000E+00 -0.00000000000E+00 -0.74505805969E-08  0.93827000000E+00  0.93827000000E+00 0. -1.
     999902    2    1    2    0    0  0.18396756828E-01  0.12091358249E-01  0.26095097743E-02  0.10217613025E+01  0.10215207821E+01 0.  0.
     999903    2    3    3    0    0  0.88578934168E-01  0.88770775304E-01  0.43527592745E-01  0.13469898199E+00  0.22862333480E-01 0.  0.
         14    1    1    2    0    0 -0.18396756828E-01 -0.12091358249E-01 -0.26095097743E-02  0.22168697467E-01  0.00000000000E+00 0. -1.
     999901    1    3    3    0    0 -0.70182177340E-01 -0.76679417055E-01 -0.40918082970E-01  0.88706232054E+00  0.88000000000E+00 0.  1.
        -11    1    4    4    0    0  0.32391990169E-01  0.17849438013E-01  0.12298251691E-01  0.38978860683E-01  0.51100000000E-03 0. -1.
         11    1    4    4    0    0  0.56186944000E-01  0.70921337291E-01  0.31229341053E-01  0.95720121306E-01  0.51100000000E-03 0.  1.
</event>
<event>
 8    1  0.1061721E+005  0.1043930E+01  0.7957747E-01            NaN
         13   -1    0    0    0    0  0.00000000000E+00  0.00000000000E+00  0.74505805969E-08  0.10566000000E+00  0.10566000000E+00 0. -1.
     999900   -1    0    0    0    0 -0.00000000000E+00 -0.00000000000E+00 -0.74505805969E-08  0.93827000000E+00  0.93827000000E+00 0. -1.
     999902    2    1    2    0    0  0.60118954939E-02 -0.10576018133E-01 -0.18501043720E-01  0.10217876500E+01  0.10215477071E+01 0.  0.
     999903    2    3    3    0    0  0.10084032773E-01  0.11316605001E+00  0.59294466669E-01  0.12972216852E+00  0.20093895440E-01 0.  0.
         14    1    1    2    0    0 -0.60118954939E-02  0.10576018133E-01  0.18501043720E-01  0.22142350050E-01  0.00000000000E+00 0. -1.
     999901    1    3    3    0    0 -0.40721372790E-02 -0.12374206815E+00 -0.77795510389E-01  0.89206548144E+00  0.88000000000E+00 0.  1.
        -11    1    4    4    0    0  0.27687412893E-02  0.91546080878E-02  0.11653627531E-01  0.15084459990E-01  0.51100000000E-03 0. -1.
         11    1    4    4    0    0  0.73152914836E-02  0.10401144193E+00  0.47640839138E-01  0.11463770853E+00  0.51100000000E-03 0.  1.
</event>
<event>
 8    1  0.1061721E+005  0.1043930E+01  0.7957747E-01            NaN
         13   -1    0    0    0    0  0.00000000000E+00  0.00000000000E+00  0.74505805969E-08  0.10566000000E+00  0.10566000000E+00 0.  1.
     999900   -1    0    0    0    0 -0.00000000000E+00 -0.00000000000E+00 -0.74505805969E-08  0.93827000000E+00  0.93827000000E+00 0. -1.
     999902    2    1    2    0    0 -0.21163432148E-02  0.20546901746E-01  0.11214583736E-01  0.10204263627E+01  0.10201556453E+01 0.  0.
     999903    2    3    3    0    0  0.67880453759E-01  0.72156045899E-01 -0.83507127376E-01  0.13108095287E+00  0.19862651420E-01 0.  0.
         14    1    1    2    0    0  0.21163432148E-02 -0.20546901746E-01 -0.11214583736E-01  0.23503637343E-01  0.00000000000E+00 0. -1.
     999901    1    3    3    0    0 -0.69996796974E-01 -0.51609144153E-01  0.94721711112E-01  0.88934540978E+00  0.88000000000E+00 0.  1.
        -11    1    4    4    0    0  0.24851904339E-01  0.20053958507E-01 -0.37866789509E-01  0.49537190774E-01  0.51100000000E-03 0.  1.
         11    1    4    4    0    0  0.43028549420E-01  0.52102087392E-01 -0.45640337867E-01  0.81543762100E-01  0.51100000000E-03 0. -1.
</event>
<event>
 8    1  0.1061721E+005  0.1043930E+01  0.7957747E-01            NaN
         13   -1    0    0    0    0  0.00000000000E+00  0.00000000000E+00  0.74505805969E-08  0.10566000000E+00  0.10566000000E+00 0. -1.
     999900   -1    0    0    0    0 -0.00000000000E+00 -0.00000000000E+00 -0.74505805969E-08  0.93827000000E+00  0.93827000000E+00 0. -1.
     999902    2    1    2    0    0  0.83679605642E-02  0.11470885603E-01 -0.18708171636E-01  0.10204438410E+01  0.10201735308E+01 0.  0.
     999903    2    3    3    0    0  0.87953517987E-01 -0.93056280765E-01 -0.17497498045E-01  0.13069036095E+00  0.19455469442E-01 0.  0.
         14    1    1    2    0    0 -0.83679605642E-02 -0.11470885603E-01  0.18708171636E-01  0.23486159040E-01  0.00000000000E+00 0. -1.
     999901    1    3    3    0    0 -0.79585557423E-01  0.10452716637E+00 -0.12106735912E-02  0.88975348001E+00  0.88000000000E+00 0. -1.
        -11    1    4    4    0    0  0.38758389906E-01 -0.55016474024E-01 -0.10375517239E-01  0.68095063559E-01  0.51100000000E-03 0. -1.
         11    1    4    4    0    0  0.49195128082E-01 -0.38039806741E-01 -0.71219808061E-02  0.62595297391E-01  0.51100000000E-03 0.  1.
</event>
<event>
 8    1  0.1061721E+005  0.1043930E+01  0.7957747E-01            NaN
         13   -1    0    0    0    0  0.00000000000E+00  0.00000000000E+00  0.74505805969E-08  0.10566000000E+00  0.10566000000E+00 0.  1.
     999900   -1    0    0    0    0 -0.00000000000E+00 -0.00000000000E+00 -0.74505805969E-08  0.93827000000E+00  0.93827000000E+00 0. -1.
     999902    2    1    2    0    0  0.20308623157E-01 -0.79748168390E-02  0.90538882779E-02  0.10203077484E+01  0.10200342595E+01 0.  0.
     999903    2    3    3    0    0  0.57207725349E-01 -0.82269016206E-01 -0.82917584197E-01  0.13163462314E+00  0.20283820440E-01 0.  0.
         14    1    1    2    0    0 -0.20308623157E-01  0.79748168390E-02 -0.90538882779E-02  0.23622251609E-01  0.00000000000E+00 0.  1.
     999901    1    3    3    0    0 -0.36899102193E-01  0.74294199367E-01  0.91971472475E-01  0.88867312526E+00  0.88000000000E+00 0.  1.
        -11    1    4    4    0    0  0.29970236153E-01 -0.45958279006E-01 -0.32412945709E-01  0.63727848189E-01  0.51100000000E-03 0.  1.
         11    1    4    4    0    0  0.27237489196E-01 -0.36310737200E-01 -0.50504638489E-01  0.67906774946E-01  0.51100000000E-03 0. -1.
</event>
<event>
 8    1  0.1061721E+005  0.1043930E+01  0.7957747E-01            NaN
         13   -1    0    0    0    0  0.00000000000E+00  0.00000000000E+00  0.74505805969E-08  0.10566000000E+00  0.10566000000E+00 0. -1.
     999900   -1    0    0    0    0 -0.00000000000E+00 -0.00000000000E+00 -0.74505805969E-08  0.93827000000E+00  0.93827000000E+00 0.  1.
     999902    2    1    2    0    0  0.13463901256E-01 -0.29327760813E-01 -0.71022831574E-02  0.10108870489E+01  0.10103468657E+01 0.  0.
     999903    2    3    3    0    0  0.53289273106E-01  0.98512517060E-01 -0.38729982768E-01  0.12019658175E+00  0.20068484082E-01 0.  0.
         14    1    1    2    0    0 -0.13463901256E-01  0.29327760813E-01  0.71022831574E-02  0.33042951100E-01  0.00000000000E+00 0.  1.
     999901    1    3    3    0    0 -0.39825371849E-01 -0.12784027787E+00  0.31627699611E-01  0.89069046715E+00  0.88000000000E+00 0.  1.
        -11    1    4    4    0    0  0.22520006269E-01  0.33579982028E-01 -0.23419222431E-01  0.46727796605E-01  0.51100000000E-03 0. -1.
         11    1    4    4    0    0  0.30769266837E-01  0.64932535032E-01 -0.15310760338E-01  0.73468785144E-01  0.51100000000E-03 0.  1.
</event>
<event>
 8    1  0.1061721E+005  0.1043930E+01  0.7957747E-01            NaN
         13   -1    0    0    0    0  0.00000000000E+00  0.00000000000E+00  0.74505805969E-08  0.10566000000E+00  0.10566000000E+00 0. -1.
     999900   -1    0    0    0    0 -0.00000000000E+00 -0.00000000000E+00 -0.74505805969E-08  0.93827000000E+00  0.93827000000E+00 0.  1.
     999902    2    1    2    0    0  0.14840836616E-02 -0.92724454300E-02 -0.20116852675E-01  0.10217293579E+01  0.10214881361E+01 0.  0.
     999903    2    3    3    0    0  0.75888607230E-01  0.87224630301E-01 -0.61464155320E-01  0.13237154565E+00  0.19420784497E-01 0.  0.
         14    1    1    2    0    0 -0.14840836616E-02  0.92724454300E-02  0.20116852675E-01  0.22200642111E-01  0.00000000000E+00 0. -1.
     999901    1    3    3    0    0 -0.74404523569E-01 -0.96497075731E-01  0.41347302644E-01  0.88935781224E+00  0.88000000000E+00 0. -1.
        -11    1    4    4    0    0  0.26387709432E-01  0.17287298006E-01 -0.16231465729E-01  0.35480748049E-01  0.51100000000E-03 0.  1.
         11    1    4    4    0    0  0.49500897798E-01  0.69937332295E-01 -0.45232689591E-01  0.96890797602E-01  0.51100000000E-03 0. -1.
</event>
<event>
 8    1  0.1061721E+005  0.1043930E+01  0.7957747E-01            NaN
         13   -1    0    0    0    0  0.00000000000E+00  0.00000000000E+00  0.74505805969E-08  0.10566000000E+00  0.10566000000E+00 0. -1.
     999900   -1    0    0    0    0 -0.00000000000E+00 -0.00000000000E+00 -0.74505805969E-08  0.93827000000E+00  0.93827000000E+00 0.  1.
     999902    2    1    2    0    0 -0.20340855543E-01 -0.71546937471E-02  0.89376914262E-02  0.10205885696E+01  0.10203216189E+01 0.  0.
     999903    2    3    3    0    0  0.12596611158E+00 -0.17064701723E-01 -0.24145137729E-02  0.12838186176E+00  0.17815926629E-01 0.  0.
         14    1    1    2    0    0  0.20340855543E-01  0.71546937471E-02 -0.89376914262E-02  0.23341430437E-01  0.00000000000E+00 0.  1.
     999901    1    3    3    0    0 -0.14630696712E+00  0.99100079756E-02  0.11352205199E-01  0.89220670780E+00  0.88000000000E+00 0.  1.
        -11    1    4    4    0    0  0.84975450992E-01 -0.33885256737E-02  0.79069913031E-03  0.85048196357E-01  0.51100000000E-03 0.  1.
         11    1    4    4    0    0  0.40990660584E-01 -0.13676176049E-01 -0.32052129032E-02  0.43333665403E-01  0.51100000000E-03 0. -1.
</event>
<event>
 8    1  0.1061721E+005  0.1043930E+01  0.7957747E-01            NaN
         13   -1    0    0    0    0  0.00000000000E+00  0.00000000000E+00  0.74505805969E-08  0.10566000000E+00  0.10566000000E+00 0. -1.
     999900   -1    0    0    0    0 -0.00000000000E+00 -0.00000000000E+00 -0.74505805969E-08  0.93827000000E+00  0.93827000000E+00 0. -1.
     999902    2    1    2    0    0 -0.15513004630E-01  0.13302960469E-01  0.11335750295E-01  0.10205607616E+01  0.10202931671E+01 0.  0.
     999903    2    3    3    0    0  0.24161194061E-01  0.12634652973E+00  0.23147482079E-01  0.13236460779E+00  0.20913502687E-01 0.  0.
         14    1    1    2    0    0  0.15513004630E-01 -0.13302960469E-01 -0.11335750295E-01  0.23369238427E-01  0.00000000000E+00 0.  1.
     999901    1    3    3    0    0 -0.39674198691E-01 -0.11304356926E+00 -0.11811731784E-01  0.88819615379E+00  0.88000000000E+00 0. -1.
        -11    1    4    4    0    0  0.20302657332E-01  0.56359791366E-01  0.15311699785E-01  0.61833108032E-01  0.51100000000E-03 0.  1.
         11    1    4    4    0    0  0.38585367289E-02  0.69986738364E-01  0.78357822944E-02  0.70531499755E-01  0.51100000000E-03 0. -1.
</event>
<event>
 8    1  0.1061721E+005  0.1043930E+01  0.7957747E-01            NaN
         13   -1    0    0    0    0  0.00000000000E+00  0.00000000000E+00  0.74505805969E-08  0.10566000000E+00  0.10566000000E+00 0.  1.
     999900   -1    0    0    0    0 -0.00000000000E+00 -0.00000000000E+00 -0.74505805969E-08  0.93827000000E+00  0.93827000000E+00 0.  1.
     999902    2    1    2    0    0  0.74320907461E-02  0.11105073923E-01 -0.17852516270E-01  0.10216304265E+01  0.10213870263E+01 0.  0.
     999903    2    3    3    0    0 -0.77559824549E-01  0.83616363610E-01  0.60899323593E-01  0.13107814560E+00  0.21576144036E-01 0.  0.
         14    1    1    2    0    0 -0.74320907461E-02 -0.11105073923E-01  0.17852516270E-01  0.22299573468E-01  0.00000000000E+00 0.  1.
     999901    1    3    3    0    0  0.84991915295E-01 -0.72511289687E-01 -0.78751839863E-01  0.89055228094E+00  0.88000000000E+00 0.  1.
        -11    1    4    4    0    0 -0.50925558798E-01  0.53302465762E-01  0.27463030819E-01  0.78670480982E-01  0.51100000000E-03 0. -1.
         11    1    4    4    0    0 -0.26634265751E-01  0.30313897848E-01  0.33436292774E-01  0.52407664614E-01  0.51100000000E-03 0.  1.
</event>
<event>
 8    1  0.1061721E+005  0.1043930E+01  0.7957747E-01            NaN
         13   -1    0    0    0    0  0.00000000000E+00  0.00000000000E+00  0.74505805969E-08  0.10566000000E+00  0.10566000000E+00 0. -1.
     999900   -1    0    0    0    0 -0.00000000000E+00 -0.00000000000E+00 -0.74505805969E-08  0.93827000000E+00  0.93827000000E+00 0.  1.
     999902    2    1    2    0    0 -0.27702931578E-02  0.11325175981E-01  0.15434346631E-01  0.10245869601E+01  0.10244043565E+01 0.  0.
     999903    2    3    3    0    0 -0.11867319556E+00  0.44951678602E-01 -0.39944645216E-01  0.13462569289E+00  0.20603925639E-01 0.  0.
         14    1    1    2    0    0  0.27702931578E-02 -0.11325175981E-01 -0.15434346631E-01  0.19343039862E-01  0.00000000000E+00 0.  1.
     999901    1    3    3    0    0  0.11590290240E+00 -0.33626502620E-01  0.55378991847E-01  0.88996126725E+00  0.88000000000E+00 0. -1.
        -11    1    4    4    0    0 -0.61053232473E-01  0.25056753098E-01 -0.31343903113E-01  0.73061887839E-01  0.51100000000E-03 0.  1.
         11    1    4    4    0    0 -0.57619963085E-01  0.19894925504E-01 -0.86007421029E-02  0.61563805051E-01  0.51100000000E-03 0. -1.
</event>
<event>
 8    1  0.1061721E+005  0.1043930E+01  0.7957747E-01            NaN
         13   -1    0    0    0    0  0.00000000000E+00  0.00000000000E+00  0.74505805969E-08  0.10566000000E+00  0.10566000000E+00 0. -1.
     999900   -1    0    0    0    0 -0.00000000000E+00 -0.00000000000E+00 -0.74505805969E-08  0.93827000000E+00  0.93827000000E+00 0. -1.
     999902    2    1    2    0    0 -0.11821748177E-01  0.11185151385E-01 -0.16563071193E-01  0.10207093913E+01  0.10204452287E+01 0.  0.
     999903    2    3    3    0    0  0.19776976663E-02 -0.12713322982E+00 -0.13407750111E-01  0.12979280971E+00  0.22352545219E-01 0.  0.
         14    1    1    2    0    0  0.11821748177E-01 -0.11185151385E-01  0.16563071193E-01  0.23220608709E-01  0.00000000000E+00 0. -1.
     999901    1    3    3    0    0 -0.13799445844E-01  0.13831838120E+00 -0.31553210819E-02  0.89091658158E+00  0.88000000000E+00 0.  1.
        -11    1    4    4    0    0  0.51299680127E-02 -0.58145143537E-01 -0.16503941094E-01  0.60661482684E-01  0.51100000000E-03 0.  1.
         11    1    4    4    0    0 -0.31522703464E-02 -0.68988086280E-01  0.30961909824E-02  0.69131327027E-01  0.51100000000E-03 0. -1.
</event>
<event>
 8    1  0.1061721E+005  0.1043930E+01  0.7957747E-01            NaN
         13   -1    0    0    0    0  0.00000000000E+00  0.00000000000E+00  0.74505805969E-08  0.10566000000E+00  0.10566000000E+00 0. -1.
     999900   -1    0    0    0    0 -0.00000000000E+00 -0.00000000000E+00 -0.74505805969E-08  0.93827000000E+00  0.93827000000E+00 0.  1.
     999902    2    1    2    0    0  0.92784286727E-02 -0.22524174850E-01  0.68688566030E-02  0.10186197475E+01  0.10183052495E+01 0.  0.
     999903    2    3    3    0    0 -0.51708927994E-01 -0.81503606836E-01  0.86070823576E-01  0.13099877959E+00  0.20876839371E-01 0.  0.
         14    1    1    2    0    0 -0.92784286727E-02  0.22524174850E-01 -0.68688566030E-02  0.25310252514E-01  0.00000000000E+00 0.  1.
     999901    1    3    3    0    0  0.60987356667E-01  0.58979431986E-01 -0.79201966973E-01  0.88762096789E+00  0.88000000000E+00 0.  1.
        -11    1    4    4    0    0 -0.27746557335E-01 -0.55370227655E-01  0.64847825791E-01  0.89672934519E-01  0.51100000000E-03 0. -1.
         11    1    4    4    0    0 -0.23962370660E-01 -0.26133379181E-01  0.21222997786E-01  0.41325845074E-01  0.51100000000E-03 0.  1.
</event>
<event>
 8    1  0.1061721E+005  0.1043930E+01  0.7957747E-01            NaN
         13   -1    0    0    0    0  0.00000000000E+00  0.00000000000E+00  0.74505805969E-08  0.10566000000E+00  0.10566000000E+00 0. -1.
     999900   -1    0    0    0    0 -0.00000000000E+00 -0.00000000000E+00 -0.74505805969E-08  0.93827000000E+00  0.93827000000E+00 0.  1.
     999902    2    1    2    0    0  0.10185576137E-01 -0.42873549147E-02  0.21851446521E-01  0.10194430016E+01  0.10191488706E+01 0.  0.
     999903    2    3    3    0    0 -0.76968574936E-01  0.74148362890E-01 -0.66412798790E-01  0.12728909963E+00  0.19227943078E-01 0.  0.
         14    1    1    2    0    0 -0.10185576137E-01  0.42873549147E-02 -0.21851446521E-01  0.24486998356E-01  0.00000000000E+00 0.  1.
     999901    1    3    3    0    0  0.87154151073E-01 -0.78435717804E-01  0.88264245311E-01  0.89215390201E+00  0.88000000000E+00 0. -1.
        -11    1    4    4    0    0 -0.39775206110E-01  0.26690911726E-01 -0.34778303411E-01  0.59196818318E-01  0.51100000000E-03 0.  1.
         11    1    4    4    0    0 -0.37193368826E-01  0.47457451163E-01 -0.31634495379E-01  0.68092281313E-01  0.51100000000E-03 0. -1.
</event>
<event>
 8    1  0.1061721E+005  0.1043930E+01  0.7957747E-01            NaN
         13   -1    0    0    0    0  0.00000000000E+00  0.00000000000E+00  0.74505805969E-08  0.10566000000E+00  0.10566000000E+00 0.  1.
     999900   -1    0    0    0    0 -0.00000000000E+00 -0.00000000000E+00 -0.74505805969E-08  0.93827000000E+00  0.93827000000E+00 0.  1.
     999902    2    1    2    0    0 -0.13336279825E-01 -0.34511590411E-02 -0.18954557653E-01  0.10204983523E+01  0.10202293100E+01 0.  0.
     999903    2    3    3    0    0 -0.54948254321E-01  0.10111171688E+00 -0.62782111508E-01  0.13224962254E+00  0.17477963061E-01 0.  0.
         14    1    1    2    0    0  0.13336279825E-01  0.34511590411E-02  0.18954557653E-01  0.23431647704E-01  0.00000000000E+00 0.  1.
     999901    1    3    3    0    0  0.41611974496E-01 -0.10456287592E+00  0.43827553855E-01  0.88824872976E+00  0.88000000000E+00 0.  1.
        -11    1    4    4    0    0 -0.15466061252E-01  0.37895530050E-01 -0.30387367740E-01  0.50979637970E-01  0.51100000000E-03 0. -1.
         11    1    4    4    0    0 -0.39482193070E-01  0.63216186828E-01 -0.32394743768E-01  0.81269984567E-01  0.51100000000E-03 0.  1.
</event>
<event>
 8    1  0.1061721E+005  0.1043930E+01  0.7957747E-01            NaN
         13   -1    0    0    0    0  0.00000000000E+00  0.00000000000E+00  0.74505805969E-08  0.10566000000E+00  0.10566000000E+00 0.  1.
     999900   -1    0    0    0    0 -0.00000000000E+00 -0.00000000000E+00 -0.74505805969E-08  0.93827000000E+00  0.93827000000E+00 0.  1.
     999902    2    1    2    0    0 -0.13985933423E-01  0.11134525077E-01  0.15873885580E-01  0.10200225906E+01  0.10197423797E+01 0.  0.
     999903    2    3    3    0    0  0.62328948270E-01  0.76431160553E-01 -0.80526825508E-01  0.12907887244E+00  0.21217106017E-01 0.  0.
         14    1    1    2    0    0  0.13985933423E-01 -0.11134525077E-01 -0.15873885580E-01  0.23907409434E-01  0.00000000000E+00 0. -1.
     999901    1    3    3    0    0 -0.76314881694E-01 -0.65296635476E-01  0.96400711088E-01  0.89094371813E+00  0.88000000000E+00 0. -1.
        -11    1    4    4    0    0  0.24041510949E-01  0.22335260760E-01 -0.38546839451E-01  0.50625863693E-01  0.51100000000E-03 0.  1.
         11    1    4    4    0    0  0.38287437321E-01  0.54095899793E-01 -0.41979986057E-01  0.78453008746E-01  0.51100000000E-03 0. -1.
</event>
<event>
 8    1  0.1061721E+005  0.1043930E+01  0.7957747E-01            NaN
         13   -1    0    0    0    0  0.00000000000E+00  0.00000000000E+00  0.74505805969E-08  0.10566000000E+00  0.10566000000E+00 0. -1.
     999900   -1    0    0    0    0 -0.00000000000E+00 -0.00000000000E+00 -0.74505805969E-08  0.93827000000E+00  0.93827000000E+00 0.  1.
     999902    2    1    2    0    0 -0.14316977153E-01  0.99435810814E-02 -0.16647546684E-01  0.10198262358E+01  0.10195413477E+01 0.  0.
     999903    2    3    3    0    0  0.64161330233E-01  0.10654258906E+00 -0.35058190183E-01  0.13087788808E+00  0.20783293962E-01 0.  0.
         14    1    1    2    0    0  0.14316977153E-01 -0.99435810814E-02  0.16647546684E-01  0.24103764231E-01  0.00000000000E+00 0. -1.
     999901    1    3    3    0    0 -0.78478307386E-01 -0.96599007976E-01  0.18410643499E-01  0.88894834769E+00  0.88000000000E+00 0. -1.
        -11    1    4    4    0    0  0.57574695419E-01  0.98965837835E-01 -0.37594986152E-01  0.12051027639E+00  0.51100000000E-03 0. -1.
         11    1    4    4    0    0  0.65866348139E-02  0.75767512224E-02  0.25367959694E-02  0.10367611685E-01  0.51100000000E-03 0.  1.
</event>
<event>
 8    1  0.1128024E+005  0.1043930E+01  0.7957747E-01            NaN
         13   -1    0    0    0    0  0.00000000000E+00  0.00000000000E+00  0.74505805969E-08  0.10566000000E+00  0.10566000000E+00 0. -1.
     999900   -1    0    0    0    0 -0.00000000000E+00 -0.00000000000E+00 -0.74505805969E-08  0.93827000000E+00  0.93827000000E+00 0.  1.
     999902    2    1    2    0    0  0.20223686683E-02 -0.16918942773E-01 -0.15333634157E-01  0.10210070653E+01  0.10207497080E+01 0.  0.
     999903    2    3    3    0    0  0.12598238699E+00 -0.28625828811E-01 -0.19679469421E-01  0.13223148978E+00  0.20171402181E-01 0.  0.
         14    1    1    2    0    0 -0.20223686683E-02  0.16918942773E-01  0.15333634157E-01  0.22922934717E-01  0.00000000000E+00 0. -1.
     999901    1    3    3    0    0 -0.12396001832E+00  0.11706886039E-01  0.43458352640E-02  0.88877557550E+00  0.88000000000E+00 0. -1.
        -11    1    4    4    0    0  0.94952301737E-01 -0.13516103078E-01 -0.10297374864E-01  0.96462022048E-01  0.51100000000E-03 0. -1.
         11    1    4    4    0    0  0.31030085255E-01 -0.15109725734E-01 -0.93820945573E-02  0.35769467734E-01  0.51100000000E-03 0.  1.
</event>
<event>
 8    1  0.1061721E+005  0.1043930E+01  0.7957747E-01            NaN
         13   -1    0    0    0    0  0.00000000000E+00  0.00000000000E+00  0.74505805969E-08  0.10566000000E+00  0.10566000000E+00 0.  1.
     999900   -1    0    0    0    0 -0.00000000000E+00 -0.00000000000E+00 -0.74505805969E-08  0.93827000000E+00  0.93827000000E+00 0. -1.
     999902    2    1    2    0    0  0.36303273715E-02 -0.13297359895E-01 -0.19493992000E-01  0.10200550177E+01  0.10197755755E+01 0.  0.
     999903    2    3    3    0    0 -0.11500928165E+00 -0.35820599122E-01  0.43296195043E-01  0.12959150875E+00  0.20227418223E-01 0.  0.
         14    1    1    2    0    0 -0.36303273715E-02  0.13297359895E-01  0.19493992000E-01  0.23874982326E-01  0.00000000000E+00 0.  1.
     999901    1    3    3    0    0  0.11863960902E+00  0.22523239227E-01 -0.62790187043E-01  0.89046350892E+00  0.88000000000E+00 0. -1.
        -11    1    4    4    0    0 -0.18764790265E-01  0.13560641265E-02  0.44099266771E-02  0.19330412254E-01  0.51100000000E-03 0. -1.
         11    1    4    4    0    0 -0.96244491385E-01 -0.37176663248E-01  0.38886268366E-01  0.11026109650E+00  0.51100000000E-03 0.  1.
</event>
<event>
 8    1  0.1061721E+005  0.1043930E+01  0.7957747E-01            NaN
         13   -1    0    0    0    0  0.00000000000E+00  0.00000000000E+00  0.74505805969E-08  0.10566000000E+00  0.10566000000E+00 0.  1.
     999900   -1    0    0    0    0 -0.00000000000E+00 -0.00000000000E+00 -0.74505805969E-08  0.93827000000E+00  0.93827000000E+00 0.  1.
     999902    2    1    2    0    0 -0.69155547880E-02 -0.56779504999E-02 -0.21192073269E-01  0.10209263483E+01  0.10206671547E+01 0.  0.
     999903    2    3    3    0    0 -0.11158130113E+00 -0.66653933652E-01 -0.17070349958E-01  0.13261898173E+00  0.20081430118E-01 0.  0.
         14    1    1    2    0    0  0.69155547880E-02  0.56779504999E-02  0.21192073269E-01  0.23003651652E-01  0.00000000000E+00 0.  1.
     999901    1    3    3    0    0  0.10466574634E+00  0.60975983152E-01 -0.41217233113E-02  0.88830736661E+00  0.88000000000E+00 0.  1.
        -11    1    4    4    0    0 -0.28603274025E-01 -0.27757255452E-01 -0.43722061300E-02  0.40099748411E-01  0.51100000000E-03 0.  1.
         11    1    4    4    0    0 -0.82978027103E-01 -0.38896678200E-01 -0.12698143828E-01  0.92519233323E-01  0.51100000000E-03 0. -1.
</event>
<event>
 8    1  0.1061721E+005  0.1043930E+01  0.7957747E-01            NaN
         13   -1    0    0    0    0  0.00000000000E+00  0.00000000000E+00  0.74505805969E-08  0.10566000000E+00  0.10566000000E+00 0. -1.
     999900   -1    0    0    0    0 -0.00000000000E+00 -0.00000000000E+00 -0.74505805969E-08  0.93827000000E+00  0.93827000000E+00 0. -1.
     999902    2    1    2    0    0 -0.17814138110E-01  0.10677382068E-01 -0.11639265759E-01  0.10201219654E+01  0.10198441066E+01 0.  0.
     999903    2    3    3    0    0  0.12501166776E+00  0.59847780535E-02  0.17076991764E-01  0.12813213653E+00  0.21505490440E-01 0.  0.
         14    1    1    2    0    0  0.17814138110E-01 -0.10677382068E-01  0.11639265759E-01  0.23808034607E-01  0.00000000000E+00 0. -1.
     999901    1    3    3    0    0 -0.14282580587E+00  0.46926040142E-02 -0.28716257523E-01  0.89198982887E+00  0.88000000000E+00 0.  1.
        -11    1    4    4    0    0  0.72949098904E-02 -0.13202117371E-02 -0.38129293475E-02  0.83521386811E-02  0.51100000000E-03 0.  1.
         11    1    4    4    0    0  0.11771675787E+00  0.73049897906E-02  0.20889921112E-01  0.11977999785E+00  0.51100000000E-03 0. -1.
</event>
<event>
 8    1  0.1061721E+005  0.1043930E+01  0.7957747E-01            NaN
         13   -1    0    0    0    0  0.00000000000E+00  0.00000000000E+00  0.74505805969E-08  0.10566000000E+00  0.10566000000E+00 0.  1.
     999900   -1    0    0    0    0 -0.00000000000E+00 -0.00000000000E+00 -0.74505805969E-08  0.93827000000E+00  0.93827000000E+00 0.  1.
     999902    2    1    2    0    0  0.11650189292E-01 -0.36034658875E-02 -0.20597566527E-01  0.10199931743E+01  0.10197122653E+01 0.  0.
     999903    2    3    3    0    0  0.10881931392E+00 -0.18459454948E-01  0.65379459992E-01  0.13035583906E+00  0.23146844894E-01 0.  0.
         14    1    1    2    0    0 -0.11650189292E-01  0.36034658875E-02  0.20597566527E-01  0.23936825683E-01  0.00000000000E+00 0.  1.
     999901    1    3    3    0    0 -0.97169124632E-01  0.14855989060E-01 -0.85977026519E-01  0.88963733526E+00  0.88000000000E+00 0.  1.
        -11    1    4    4    0    0  0.47838045563E-01 -0.19444556791E-01  0.33242990178E-01  0.61416015086E-01  0.51100000000E-03 0. -1.
         11    1    4    4    0    0  0.60981268361E-01  0.98510184310E-03  0.32136469814E-01  0.68939823975E-01  0.51100000000E-03 0.  1.
</event>
<event>
 8    1  0.1061721E+005  0.1043930E+01  0.7957747E-01            NaN
         13   -1    0    0    0    0  0.00000000000E+00  0.00000000000E+00  0.74505805969E-08  0.10566000000E+00  0.10566000000E+00 0.  1.
     999900   -1    0    0    0    0 -0.00000000000E+00 -0.00000000000E+00 -0.74505805969E-08  0.93827000000E+00  0.93827000000E+00 0. -1.
     999902    2    1    2    0    0 -0.45560768980E-02  0.22980242520E-01  0.37653081005E-02  0.10202018115E+01  0.10199258352E+01 0.  0.
     999903    2    3    3    0    0  0.70897507436E-01 -0.89137856464E-01 -0.54697303371E-01  0.12796776799E+00  0.20296320679E-01 0.  0.
         14    1    1    2    0    0  0.45560768980E-02 -0.22980242520E-01 -0.37653081005E-02  0.23728188470E-01  0.00000000000E+00 0. -1.
     999901    1    3    3    0    0 -0.75453584334E-01  0.11211809898E+00  0.58462611471E-01  0.89223404354E+00  0.88000000000E+00 0. -1.
        -11    1    4    4    0    0  0.36547194011E-01 -0.58067747625E-01 -0.25421648633E-01  0.73171593153E-01  0.51100000000E-03 0. -1.
         11    1    4    4    0    0  0.34350313424E-01 -0.31070108839E-01 -0.29275654737E-01  0.54796174839E-01  0.51100000000E-03 0.  1.
</event>
<event>
 8    1  0.1061721E+005  0.1043930E+01  0.7957747E-01            NaN
         13   -1    0    0    0    0  0.00000000000E+00  0.00000000000E+00  0.74505805969E-08  0.10566000000E+00  0.10566000000E+00 0.  1.
     999900   -1    0    0    0    0 -0.00000000000E+00 -0.00000000000E+00 -0.74505805969E-08  0.93827000000E+00  0.93827000000E+00 0.  1.
     999902    2    1    2    0    0  0.22839125032E-01 -0.96358653365E-02  0.18765973466E-01  0.10128392089E+01  0.10123619045E+01 0.  0.
     999903    2    3    3    0    0 -0.38039175564E-03 -0.58921525624E-01 -0.10581600416E+00  0.12239612174E+00  0.17660492624E-01 0.  0.
         14    1    1    2    0    0 -0.22839125032E-01  0.96358653365E-02 -0.18765973466E-01  0.31090791130E-01  0.00000000000E+00 0.  1.
     999901    1    3    3    0    0  0.23219516788E-01  0.49285660287E-01  0.12458197763E+00  0.89044308713E+00  0.88000000000E+00 0. -1.
        -11    1    4    4    0    0 -0.87801125465E-02 -0.35341346776E-01 -0.60114154642E-01  0.70285659117E-01  0.51100000000E-03 0. -1.
         11    1    4    4    0    0  0.83997207909E-02 -0.23580178848E-01 -0.45701849522E-01  0.52110462621E-01  0.51100000000E-03 0.  1.
</event>
<event>
 8    1  0.1061721E+005  0.1043930E+01  0.7957747E-01            NaN
         13   -1    0    0    0    0  0.00000000000E+00  0.00000000000E+00  0.74505805969E-08  0.10566000000E+00  0.10566000000E+00 0. -1.
     999900   -1    0    0    0    0 -0.00000000000E+00 -0.00000000000E+00 -0.74505805969E-08  0.93827000000E+00  0.93827000000E+00 0.  1.
     999902    2    1    2    0    0  0.10638432583E-02  0.23594309747E-01  0.12707214402E-02  0.10202775594E+01  0.10200033628E+01 0.  0.
     999903    2    3    3    0    0  0.26900078004E-01  0.10258276070E+00 -0.77487045349E-01  0.13286025492E+00  0.20019194507E-01 0.  0.
         14    1    1    2    0    0 -0.10638432583E-02 -0.23594309747E-01 -0.12707214402E-02  0.23652440633E-01  0.00000000000E+00 0. -1.
     999901    1    3    3    0    0 -0.25836234746E-01 -0.78988450958E-01  0.78757766790E-01  0.88741730445E+00  0.88000000000E+00 0. -1.
        -11    1    4    4    0    0  0.30082997517E-01  0.90072948023E-01 -0.67005513286E-01  0.11622444939E+00  0.51100000000E-03 0. -1.
         11    1    4    4    0    0 -0.31829195125E-02  0.12509812682E-01 -0.10481532064E-01  0.16635805522E-01  0.51100000000E-03 0.  1.
</event>
<event>
 8    1  0.1061721E+005  0.1043930E+01  0.7957747E-01            NaN
         13   -1    0    0    0    0  0.00000000000E+00  0.00000000000E+00  0.74505805969E-08  0.10566000000E+00  0.10566000000E+00 0.  1.
     999900   -1    0    0    0    0 -0.00000000000E+00 -0.00000000000E+00 -0.74505805969E-08  0.93827000000E+00  0.93827000000E+00 0. -1.
     999902    2    1    2    0    0 -0.53033825687E-02  0.20631522602E-01  0.15091993551E-01  0.10178234135E+01  0.10174885489E+01 0.  0.
     999903    2    3    3    0    0  0.39164555268E-01  0.52482738482E-01  0.11194749161E+00  0.13082122352E+00  0.17136260292E-01 0.  0.
         14    1    1    2    0    0  0.53033825687E-02 -0.20631522602E-01 -0.15091993551E-01  0.26106586543E-01  0.00000000000E+00 0. -1.
     999901    1    3    3    0    0 -0.44467937837E-01 -0.31851215880E-01 -0.96855498063E-01  0.88700218994E+00  0.88000000000E+00 0. -1.
        -11    1    4    4    0    0  0.34857798841E-01  0.46127140300E-01  0.10714784837E+00  0.12175262520E+00  0.51100000000E-03 0. -1.
         11    1    4    4    0    0  0.43067564268E-02  0.63555981826E-02  0.47996432422E-02  0.90685983167E-02  0.51100000000E-03 0.  1.
</event>
<event>
 8    1  0.1061721E+005  0.1043930E+01  0.7957747E-01            NaN
         13   -1    0    0    0    0  0.00000000000E+00  0.00000000000E+00  0.74505805969E-08  0.10566000000E+00  0.10566000000E+00 0. -1.
     999900   -1    0    0    0    0 -0.00000000000E+00 -0.00000000000E+00 -0.74505805969E-08  0.93827000000E+00  0.93827000000E+00 0. -1.
     999902    2    1    2    0    0  0.21896091118E-01 -0.60987313029E-02  0.41869768337E-02  0.10208180095E+01  0.10205563406E+01 0.  0.
     999903    2    3    3    0    0  0.65761165567E-01 -0.11404542567E+00  0.14706669177E-02  0.13313337411E+00  0.19784904006E-01 0.  0.
         14    1    1    2    0    0 -0.21896091118E-01  0.60987313029E-02 -0.41869768337E-02  0.23111990498E-01  0.00000000000E+00 0.  1.
     999901    1    3    3    0    0 -0.43865074449E-01  0.10794669437E+00  0.27163099160E-02  0.88768463540E+00  0.88000000000E+00 0.  1.
        -11    1    4    4    0    0  0.25746235825E-01 -0.61350859552E-01 -0.45545993848E-02  0.66691844505E-01  0.51100000000E-03 0.  1.
         11    1    4    4    0    0  0.40014929742E-01 -0.52694566118E-01  0.60252663024E-02  0.66441529600E-01  0.51100000000E-03 0. -1.
</event>
<event>
 8    1  0.1061721E+005  0.1043930E+01  0.7957747E-01            NaN
         13   -1    0    0    0    0  0.00000000000E+00  0.00000000000E+00  0.74505805969E-08  0.10566000000E+00  0.10566000000E+00 0.  1.
     999900   -1    0    0    0    0 -0.00000000000E+00 -0.00000000000E+00 -0.74505805969E-08  0.93827000000E+00  0.93827000000E+00 0. -1.
     999902    2    1    2    0    0 -0.62105887576E-02 -0.24668110814E-01 -0.19274563883E-01  0.10120145505E+01  0.10115111737E+01 0.  0.
     999903    2    3    3    0    0 -0.99505872507E-01  0.52006696088E-01  0.42695818273E-01  0.12160825883E+00  0.18961028880E-01 0.  0.
         14    1    1    2    0    0  0.62105887576E-02  0.24668110814E-01  0.19274563883E-01  0.31915449499E-01  0.00000000000E+00 0.  1.
     999901    1    3    3    0    0  0.93295283749E-01 -0.76674806903E-01 -0.61970382156E-01  0.89040629167E+00  0.88000000000E+00 0.  1.
        -11    1    4    4    0    0 -0.26239027454E-01  0.17696329407E-01  0.39297505999E-02  0.31895935430E-01  0.51100000000E-03 0. -1.
         11    1    4    4    0    0 -0.73266845053E-01  0.34310366682E-01  0.38766067674E-01  0.89712323400E-01  0.51100000000E-03 0.  1.
</event>
<event>
 8    1  0.1061721E+005  0.1043930E+01  0.7957747E-01            NaN
         13   -1    0    0    0    0  0.00000000000E+00  0.00000000000E+00  0.74505805969E-08  0.10566000000E+00  0.10566000000E+00 0. -1.
     999900   -1    0    0    0    0 -0.00000000000E+00 -0.00000000000E+00 -0.74505805969E-08  0.93827000000E+00  0.93827000000E+00 0.  1.
     999902    2    1    2    0    0  0.18515503110E-01 -0.13382149095E-01 -0.43544325263E-02  0.10206734557E+01  0.10204084654E+01 0.  0.
     999903    2    3    3    0    0 -0.75425275238E-01  0.28519551547E-01 -0.99453798395E-01  0.12959292526E+00  0.20023268886E-01 0.  0.
         14    1    1    2    0    0 -0.18515503110E-01  0.13382149095E-01  0.43544325263E-02  0.23256544293E-01  0.00000000000E+00 0. -1.
     999901    1    3    3    0    0  0.93940778349E-01 -0.41901700642E-01  0.95099365869E-01  0.89108053045E+00  0.88000000000E+00 0. -1.
        -11    1    4    4    0    0 -0.14090935012E-01  0.27039532281E-03 -0.90676521778E-02  0.16766365144E-01  0.51100000000E-03 0. -1.
         11    1    4    4    0    0 -0.61334340227E-01  0.28249156225E-01 -0.90386146218E-01  0.11282656012E+00  0.51100000000E-03 0.  1.
</event>
<event>
 8    1  0.1061721E+005  0.1043930E+01  0.7957747E-01            NaN
         13   -1    0    0    0    0  0.00000000000E+00  0.00000000000E+00  0.74505805969E-08  0.10566000000E+00  0.10566000000E+00 0. -1.
     999900   -1    0    0    0    0 -0.00000000000E+00 -0.00000000000E+00 -0.74505805969E-08  0.93827000000E+00  0.93827000000E+00 0.  1.
     999902    2    1    2    0    0 -0.15251339228E-01 -0.47949926468E-02  0.37942782302E-02  0.10274985713E+01  0.10273671798E+01 0.  0.
     999903    2    3    3    0    0 -0.55393732588E-02 -0.28905183522E-01  0.13296792877E+00  0.13768878509E+00  0.20286378931E-01 0.  0.
         14    1    1    2    0    0  0.15251339228E-01  0.47949926468E-02 -0.37942782302E-02  0.16431428727E-01  0.00000000000E+00 0. -1.
     999901    1    3    3    0    0 -0.97119659688E-02  0.24110190875E-01 -0.12917365053E+00  0.88980978618E+00  0.88000000000E+00 0.  1.
        -11    1    4    4    0    0  0.41108461437E-02 -0.22953219118E-01  0.72323032796E-01  0.75990996293E-01  0.51100000000E-03 0. -1.
         11    1    4    4    0    0 -0.96502194025E-02 -0.59519644040E-02  0.60644895969E-01  0.61697788801E-01  0.51100000000E-03 0.  1.
</event>
<event>
 8    1  0.1061721E+005  0.1043930E+01  0.7957747E-01            NaN
         13   -1    0    0    0    0  0.00000000000E+00  0.00000000000E+00  0.74505805969E-08  0.10566000000E+00  0.10566000000E+00 0.  1.
     999900   -1    0    0    0    0 -0.00000000000E+00 -0.00000000000E+00 -0.74505805969E-08  0.93827000000E+00  0.93827000000E+00 0. -1.
     999902    2    1    2    0    0  0.91634831453E-02 -0.93789389081E-02 -0.20126513256E-01  0.10199089581E+01  0.10196260453E+01 0.  0.
     999903    2    3    3    0    0  0.55636800149E-01 -0.11647722387E+00  0.15234558744E-01  0.13149451807E+00  0.19907769628E-01 0.  0.
         14    1    1    2    0    0 -0.91634831453E-02  0.93789389081E-02  0.20126513256E-01  0.24021041906E-01  0.00000000000E+00 0.  1.
     999901    1    3    3    0    0 -0.46473317004E-01  0.10709828496E+00 -0.35361072000E-01  0.88841444003E+00  0.88000000000E+00 0.  1.
        -11    1    4    4    0    0  0.19539276260E-01 -0.21912283582E-01  0.23689210551E-02  0.29458519931E-01  0.51100000000E-03 0. -1.
         11    1    4    4    0    0  0.36097523889E-01 -0.94564940283E-01  0.12865637688E-01  0.10203599814E+00  0.51100000000E-03 0.  1.
</event>
<event>
 8    1  0.1061721E+005  0.1043930E+01  0.7957747E-01            NaN
         13   -1    0    0    0    0  0.00000000000E+00  0.00000000000E+00  0.74505805969E-08  0.10566000000E+00  0.10566000000E+00 0.  1.
     999900   -1    0    0    0    0 -0.00000000000E+00 -0.00000000000E+00 -0.74505805969E-08  0.93827000000E+00  0.93827000000E+00 0. -1.
     999902    2    1    2    0    0  0.20438775303E-01  0.92110872493E-02 -0.48227556428E-02  0.10209986539E+01  0.10207411055E+01 0.  0.
     999903    2    3    3    0    0 -0.78280977175E-01 -0.99029405171E-01 -0.15348560231E-01  0.12882580833E+00  0.20634343067E-01 0.  0.
         14    1    1    2    0    0 -0.20438775303E-01 -0.92110872493E-02  0.48227556428E-02  0.22931346149E-01  0.00000000000E+00 0.  1.
     999901    1    3    3    0    0  0.98719752478E-01  0.10824049242E+00  0.10525804589E-01  0.89217284552E+00  0.88000000000E+00 0.  1.
        -11    1    4    4    0    0 -0.40121045441E-01 -0.57147371411E-01 -0.17975043973E-01  0.72103284761E-01  0.51100000000E-03 0. -1.
         11    1    4    4    0    0 -0.38159931733E-01 -0.41882033760E-01  0.26264837419E-02  0.56722523566E-01  0.51100000000E-03 0.  1.
</event>
<event>
 8    1  0.1061721E+005  0.1043930E+01  0.7957747E-01            NaN
         13   -1    0    0    0    0  0.00000000000E+00  0.00000000000E+00  0.74505805969E-08  0.10566000000E+00  0.10566000000E+00 0. -1.
     999900   -1    0    0    0    0 -0.00000000000E+00 -0.00000000000E+00 -0.74505805969E-08  0.93827000000E+00  0.93827000000E+00 0. -1.
     999902    2    1    2    0    0 -0.24282807055E-01 -0.18905533893E-02 -0.33604271273E-02  0.10193429835E+01  0.10190464153E+01 0.  0.
     999903    2    3    3    0    0 -0.84002834031E-01  0.45918298350E-01 -0.88543059560E-01  0.13192636836E+00  0.19993174456E-01 0.  0.
         14    1    1    2    0    0  0.24282807055E-01  0.18905533893E-02  0.33604271273E-02  0.24587016514E-01  0.00000000000E+00 0. -1.
     999901    1    3    3    0    0  0.59720026976E-01 -0.47808851740E-01  0.85182632433E-01  0.88741661512E+00  0.88000000000E+00 0.  1.
        -11    1    4    4    0    0 -0.44344932053E-01  0.35457397733E-01 -0.51795801743E-01  0.76855489407E-01  0.51100000000E-03 0. -1.
         11    1    4    4    0    0 -0.39657901978E-01  0.10460900617E-01 -0.36747257817E-01  0.55070878957E-01  0.51100000000E-03 0.  1.
</event>
<event>
 8    1  0.1061721E+005  0.1043930E+01  0.7957747E-01            NaN
         13   -1    0    0    0    0  0.00000000000E+00  0.00000000000E+00  0.74505805969E-08  0.10566000000E+00  0.10566000000E+00 0.  1.
     999900   -1    0    0    0    0 -0.00000000000E+00 -0.00000000000E+00 -0.74505805969E-08  0.93827000000E+00  0.93827000000E+00 0. -1.
     999902    2    1    2    0    0  0.20899060417E-01 -0.70943859948E-02  0.69735084515E-02  0.10207841395E+01  0.10205216943E+01 0.  0.
     999903    2    3    3    0    0  0.15418140403E-01  0.12302670734E+00  0.36777523245E-01  0.13069997565E+00  0.18884057976E-01 0.  0.
         14    1    1    2    0    0 -0.20899060417E-01  0.70943859948E-02 -0.69735084515E-02  0.23145860518E-01  0.00000000000E+00 0.  1.
     999901    1    3    3    0    0  0.54809200144E-02 -0.13012109333E+00 -0.29804014793E-01  0.89008416384E+00  0.88000000000E+00 0. -1.
        -11    1    4    4    0    0  0.16616249888E-01  0.10637684843E+00  0.37424308860E-01  0.11398672579E+00  0.51100000000E-03 0. -1.
         11    1    4    4    0    0 -0.11981094852E-02  0.16649858912E-01 -0.64678561479E-03  0.16713249857E-01  0.51100000000E-03 0.  1.
</event>
<event>
 8    1  0.1080127E+005  0.1043930E+01  0.7957747E-01            NaN
         13   -1    0    0    0    0  0.00000000000E+00  0.00000000000E+00  0.74505805969E-08  0.10566000000E+00  0.10566000000E+00 0.  1.
     999900   -1    0    0    0    0 -0.00000000000E+00 -0.00000000000E+00 -0.74505805969E-08  0.93827000000E+00  0.93827000000E+00 0. -1.
     999902    2    1    2    0    0 -0.25263840607E-01 -0.54447334705E-02 -0.44027356100E-02  0.10177137675E+01  0.10173760474E+01 0.  0.
     999903    2    3    3    0    0 -0.58607481704E-02  0.12124136854E+00  0.33763571997E-01  0.12761123664E+00  0.20268969057E-01 0.  0.
         14    1    1    2    0    0  0.25263840607E-01  0.54447334705E-02  0.44027356100E-02  0.26216232484E-01  0.00000000000E+00 0.  1.
     999901    1    3    3    0    0 -0.19403092437E-01 -0.12668610202E+00 -0.38166307607E-01  0.89010253088E+00  0.88000000000E+00 0. -1.
        -11    1    4    4    0    0 -0.98838838961E-02  0.27769516088E-01  0.70323159913E-02  0.30307619073E-01  0.51100000000E-03 0.  1.
         11    1    4    4    0    0  0.40231357257E-02  0.93471852456E-01  0.26731256005E-01  0.97303617565E-01  0.51100000000E-03 0. -1.
</event>
<event>
 8    1  0.1061721E+005  0.1043930E+01  0.7957747E-01            NaN
         13   -1    0    0    0    0  0.00000000000E+00  0.00000000000E+00  0.74505805969E-08  0.10566000000E+00  0.10566000000E+00 0. -1.
     999900   -1    0    0    0    0 -0.00000000000E+00 -0.00000000000E+00 -0.74505805969E-08  0.93827000000E+00  0.93827000000E+00 0.  1.
     999902    2    1    2    0    0 -0.18239559757E-01 -0.14850972359E-01  0.79968092589E-02  0.10190868545E+01  0.10187839983E+01 0.  0.
     999903    2    3    3    0    0 -0.74390895475E-01 -0.84511173056E-01 -0.64867096537E-01  0.13155394534E+00  0.20556182072E-01 0.  0.
         14    1    1    2    0    0  0.18239559757E-01  0.14850972359E-01 -0.79968092589E-02  0.24843145502E-01  0.00000000000E+00 0. -1.
     999901    1    3    3    0    0  0.56151335719E-01  0.69660200697E-01  0.72863905796E-01  0.88753290915E+00  0.88000000000E+00 0. -1.
        -11    1    4    4    0    0 -0.69271591097E-01 -0.68649289052E-01 -0.58353829995E-01  0.11365169958E+00  0.51100000000E-03 0. -1.
         11    1    4    4    0    0 -0.51193043785E-02 -0.15861884003E-01 -0.65132665422E-02  0.17902245767E-01  0.51100000000E-03 0.  1.
</event>
<event>
 8    1  0.1061721E+005  0.1043930E+01  0.7957747E-01            NaN
         13   -1    0    0    0    0  0.00000000000E+00  0.00000000000E+00  0.74505805969E-08  0.10566000000E+00  0.10566000000E+00 0. -1.
     999900   -1    0    0    0    0 -0.00000000000E+00 -0.00000000000E+00 -0.74505805969E-08  0.93827000000E+00  0.93827000000E+00 0. -1.
     999902    2    1    2    0    0  0.19553213972E-01 -0.74209546953E-02  0.71630068157E-02  0.10218232722E+01  0.10215841093E+01 0.  0.
     999903    2    3    3    0    0  0.12804818649E+00  0.22570721493E-01  0.27874599446E-01  0.13441151338E+00  0.19587907052E-01 0.  0.
         14    1    1    2    0    0 -0.19553213972E-01  0.74209546953E-02 -0.71630068157E-02  0.22106727752E-01  0.00000000000E+00 0.  1.
     999901    1    3    3    0    0 -0.10849497252E+00 -0.29991676189E-01 -0.20711592630E-01  0.88741175887E+00  0.88000000000E+00 0.  1.
        -11    1    4    4    0    0  0.48037935658E-01 -0.88845375120E-03  0.12157086380E-01  0.49562974917E-01  0.51100000000E-03 0. -1.
         11    1    4    4    0    0  0.80010250835E-01  0.23459175245E-01  0.15717513066E-01  0.84848538466E-01  0.51100000000E-03 0.  1.
</event>
<event>
 8    1  0.1061721E+005  0.1043930E+01  0.7957747E-01            NaN
         13   -1    0    0    0    0  0.00000000000E+00  0.00000000000E+00  0.74505805969E-08  0.10566000000E+00  0.10566000000E+00 0.  1.
     999900   -1    0    0    0    0 -0.00000000000E+00 -0.00000000000E+00 -0.74505805969E-08  0.93827000000E+00  0.93827000000E+00 0. -1.
     999902    2    1    2    0    0 -0.84997312090E-03  0.11227233915E-01 -0.20572885084E-01  0.10204775623E+01  0.10202080367E+01 0.  0.
     999903    2    3    3    0    0  0.33460515668E-01 -0.87651683445E-01 -0.89884372017E-01  0.13156905618E+00  0.20707305292E-01 0.  0.
         14    1    1    2    0    0  0.84997312090E-03 -0.11227233915E-01  0.20572885084E-01  0.23452437749E-01  0.00000000000E+00 0.  1.
     999901    1    3    3    0    0 -0.34310488789E-01  0.98878917361E-01  0.69311486933E-01  0.88890850607E+00  0.88000000000E+00 0. -1.
        -11    1    4    4    0    0  0.22801837063E-01 -0.32438249508E-01 -0.33125622151E-01  0.51669447147E-01  0.51100000000E-03 0. -1.
         11    1    4    4    0    0  0.10658678605E-01 -0.55213433938E-01 -0.56758749866E-01  0.79899609036E-01  0.51100000000E-03 0.  1.
</event>
<event>
 8    1  0.1061721E+005  0.1043930E+01  0.7957747E-01            NaN
         13   -1    0    0    0    0  0.00000000000E+00  0.00000000000E+00  0.74505805969E-08  0.10566000000E+00  0.10566000000E+00 0. -1.
     999900   -1    0    0    0    0 -0.00000000000E+00 -0.00000000000E+00 -0.74505805969E-08  0.93827000000E+00  0.93827000000E+00 0. -1.
     999902    2    1    2    0    0  0.17679921767E-01  0.57339914512E-02 -0.21133147759E-01  0.10157862933E+01  0.10153963391E+01 0.  0.
     999903    2    3    3    0    0  0.64451674591E-01  0.97096072030E-01  0.46649412616E-01  0.12723179183E+00  0.20738746164E-01 0.  0.
         14    1    1    2    0    0 -0.17679921767E-01 -0.57339914512E-02  0.21133147759E-01  0.28143706683E-01  0.00000000000E+00 0. -1.
     999901    1    3    3    0    0 -0.46771752823E-01 -0.91362080579E-01 -0.67782560376E-01  0.88855450149E+00  0.88000000000E+00 0.  1.
        -11    1    4    4    0    0  0.28725447308E-01  0.44562569276E-01  0.32346703842E-01  0.62109131969E-01  0.51100000000E-03 0.  1.
         11    1    4    4    0    0  0.35726227283E-01  0.52533502754E-01  0.14302708774E-01  0.65122659856E-01  0.51100000000E-03 0. -1.
</event>
<event>
 8    1  0.1061721E+005  0.1043930E+01  0.7957747E-01            NaN
         13   -1    0    0    0    0  0.00000000000E+00  0.00000000000E+00  0.74505805969E-08  0.10566000000E+00  0.10566000000E+00 0.  1.
     999900   -1    0    0    0    0 -0.00000000000E+00 -0.00000000000E+00 -0.74505805969E-08  0.93827000000E+00  0.93827000000E+00 0.  1.
     999902    2    1    2    0    0 -0.11534747226E-01  0.14951302906E-01  0.27905926300E-01  0.10102353035E+01  0.10096732322E+01 0.  0.
     999903    2    3    3    0    0 -0.10918286428E+00 -0.47647238843E-01 -0.13920865892E-01  0.12163910004E+00  0.20276166544E-01 0.  0.
         14    1    1    2    0    0  0.11534747226E-01 -0.14951302906E-01 -0.27905926300E-01  0.33694696539E-01  0.00000000000E+00 0. -1.
     999901    1    3    3    0    0  0.97648117051E-01  0.62598541750E-01  0.41826792193E-01  0.88859620342E+00  0.88000000000E+00 0. -1.
        -11    1    4    4    0    0 -0.51561151124E-01 -0.11554229250E-01 -0.65283399684E-02  0.53244087582E-01  0.51100000000E-03 0.  1.
         11    1    4    4    0    0 -0.57621713154E-01 -0.36093009593E-01 -0.73925259240E-02  0.68395012456E-01  0.51100000000E-03 0. -1.
</event>
<event>
 8    1  0.1061721E+005  0.1043930E+01  0.7957747E-01            NaN
         13   -1    0    0    0    0  0.00000000000E+00  0.00000000000E+00  0.74505805969E-08  0.10566000000E+00  0.10566000000E+00 0.  1.
     999900   -1    0    0    0    0 -0.00000000000E+00 -0.00000000000E+00 -0.74505805969E-08  0.93827000000E+00  0.93827000000E+00 0. -1.
     999902    2    1    2    0    0  0.22906016386E-01  0.10483185114E-01 -0.21481965875E-02  0.10186476444E+01  0.10183338480E+01 0.  0.
     999903    2    3    3    0    0  0.10478399155E+00  0.55198388318E-01  0.54575384227E-01  0.13190020749E+00  0.19815277308E-01 0.  0.
         14    1    1    2    0    0 -0.22906016386E-01 -0.10483185114E-01  0.21481965875E-02  0.25282355614E-01  0.00000000000E+00 0.  1.
     999901    1    3    3    0    0 -0.81877975166E-01 -0.44715203204E-01 -0.56723580814E-01  0.88674743689E+00  0.88000000000E+00 0. -1.
        -11    1    4    4    0    0  0.75577532591E-01  0.45846765422E-01  0.47783418621E-01  0.10048584750E+00  0.51100000000E-03 0. -1.
         11    1    4    4    0    0  0.29206458962E-01  0.93516228955E-02  0.67919656060E-02  0.31414359991E-01  0.51100000000E-03 0.  1.
</event>
<event>
 8    1  0.1061721E+005  0.1043930E+01  0.7957747E-01            NaN
         13   -1    0    0    0    0  0.00000000000E+00  0.00000000000E+00  0.74505805969E-08  0.10566000000E+00  0.10566000000E+00 0. -1.
     999900   -1    0    0    0    0 -0.00000000000E+00 -0.00000000000E+00 -0.74505805969E-08  0.93827000000E+00  0.93827000000E+00 0. -1.
     999902    2    1    2    0    0  0.70400409827E-02 -0.20723004717E-01 -0.93742571841E-02  0.10201207203E+01  0.10198428321E+01 0.  0.
     999903    2    3    3    0    0  0.70818553761E-02 -0.12343270504E+00 -0.45873533609E-01  0.13339557605E+00  0.20105055970E-01 0.  0.
         14    1    1    2    0    0 -0.70400409827E-02  0.20723004717E-01  0.93742571841E-02  0.23809279688E-01  0.00000000000E+00 0.  1.
     999901    1    3    3    0    0 -0.41814393416E-04  0.10270970032E+00  0.36499276425E-01  0.88672514426E+00  0.88000000000E+00 0. -1.
        -11    1    4    4    0    0  0.11585589669E-01 -0.69339785345E-01 -0.18999593090E-01  0.72824977708E-01  0.51100000000E-03 0. -1.
         11    1    4    4    0    0 -0.45037342926E-02 -0.54092919692E-01 -0.26873940520E-01  0.60570598341E-01  0.51100000000E-03 0.  1.
</event>
<event>
 8    1  0.1061721E+005  0.1043930E+01  0.7957747E-01            NaN
         13   -1    0    0    0    0  0.00000000000E+00  0.00000000000E+00  0.74505805969E-08  0.10566000000E+00  0.10566000000E+00 0.  1.
     999900   -1    0    0    0    0 -0.00000000000E+00 -0.00000000000E+00 -0.74505805969E-08  0.93827000000E+00  0.93827000000E+00 0.  1.
     999902    2    1    2    0    0  0.19032596340E-01  0.10495539369E-01  0.98098072855E-02  0.10200840698E+01  0.10198053152E+01 0.  0.
     999903    2    3    3    0    0  0.60738540733E-01  0.51021119918E-01 -0.10230269182E+00  0.13106724150E+00  0.20505024565E-01 0.  0.
         14    1    1    2    0    0 -0.19032596340E-01 -0.10495539369E-01 -0.98098072855E-02  0.23845930241E-01  0.00000000000E+00 0. -1.
     999901    1    3    3    0    0 -0.41705944393E-01 -0.40525580549E-01  0.11211249910E+00  0.88901682826E+00  0.88000000000E+00 0. -1.
        -11    1    4    4    0    0  0.38064743451E-02  0.85177499323E-02 -0.50355028593E-02  0.10614081255E-01  0.51100000000E-03 0.  1.
         11    1    4    4    0    0  0.56932066388E-01  0.42503369986E-01 -0.97267188959E-01  0.12045316024E+00  0.51100000000E-03 0. -1.
</event>
<event>
 8    1  0.1061721E+005  0.1043930E+01  0.7957747E-01            NaN
         13   -1    0    0    0    0  0.00000000000E+00  0.00000000000E+00  0.74505805969E-08  0.10566000000E+00  0.10566000000E+00 0. -1.
     999900   -1    0    0    0    0 -0.00000000000E+00 -0.00000000000E+00 -0.74505805969E-08  0.93827000000E+00  0.93827000000E+00 0.  1.
     999902    2    1    2    0    0  0.97964279777E-02 -0.18769193585E-01 -0.11171863358E-01  0.10199912624E+01  0.10197103079E+01 0.  0.
     999903    2    3    3    0    0  0.96309809408E-01  0.41001185656E-01 -0.76985718064E-01  0.13129079152E+00  0.18809426846E-01 0.  0.
         14    1    1    2    0    0 -0.97964279777E-02  0.18769193585E-01  0.11171863358E-01  0.23938737641E-01  0.00000000000E+00 0.  1.
     999901    1    3    3    0    0 -0.86513381430E-01 -0.59770379241E-01  0.65813854705E-01  0.88870047084E+00  0.88000000000E+00 0. -1.
        -11    1    4    4    0    0  0.20708097243E-01  0.65928077961E-02 -0.25734293247E-01  0.33686872457E-01  0.51100000000E-03 0.  1.
         11    1    4    4    0    0  0.75601712165E-01  0.34408377860E-01 -0.51251424817E-01  0.97603919061E-01  0.51100000000E-03 0. -1.
</event>
<event>
 8    1  0.1061721E+005  0.1043930E+01  0.7957747E-01            NaN
         13   -1    0    0    0    0  0.00000000000E+00  0.00000000000E+00  0.74505805969E-08  0.10566000000E+00  0.10566000000E+00 0.  1.
     999900   -1    0    0    0    0 -0.00000000000E+00 -0.00000000000E+00 -0.74505805969E-08  0.93827000000E+00  0.93827000000E+00 0. -1.
     999902    2    1    2    0    0  0.17321616326E-01 -0.13393721961E-01 -0.89624637644E-02  0.10202708382E+01  0.10199964840E+01 0.  0.
     999903    2    3    3    0    0 -0.53442975328E-01  0.10291343913E+00 -0.52392582553E-01  0.12874340825E+00  0.19559010571E-01 0.  0.
         14    1    1    2    0    0 -0.17321616326E-01  0.13393721961E-01  0.89624637644E-02  0.23659161795E-01  0.00000000000E+00 0. -1.
     999901    1    3    3    0    0  0.70764591654E-01 -0.11630716109E+00  0.43430118789E-01  0.89152742996E+00  0.88000000000E+00 0.  1.
        -11    1    4    4    0    0 -0.11631304428E-01  0.42902476871E-01 -0.19284696732E-01  0.48456892321E-01  0.51100000000E-03 0. -1.
         11    1    4    4    0    0 -0.41811670900E-01  0.60010962258E-01 -0.33107885822E-01  0.80286515924E-01  0.51100000000E-03 0.  1.
</event>
<event>
 7    1  0.1061721E+005  0.1043930E+01  0.7957747E-01            NaN
         13   -1    0    0    0    0  0.00000000000E+00  0.00000000000E+00  0.74505805969E-08  0.10566000000E+00  0.10566000000E+00 0.  1.
     999900   -1    0    0    0    0 -0.00000000000E+00 -0.00000000000E+00 -0.74505805969E-08  0.93827000000E+00  0.93827000000E+00 0. -1.
     999903    2    1    2    0    0  0.27419420224E-02 -0.68641295077E-01 -0.58649083907E-01  0.93616369441E-01  0.24600080251E-01 0.  0.
         14    1    1    2    0    0 -0.38680540173E-01 -0.27267217887E-01 -0.35817409414E-01  0.59351260951E-01  0.00000000000E+00 0. -1.
     999901    1    1    2    0    0  0.35938598151E-01  0.95908512964E-01  0.94466493321E-01  0.89096236961E+00  0.88000000000E+00 0.  1.
        -11    1    3    3    0    0  0.36548099863E-02 -0.65511946346E-01 -0.44975166947E-01  0.79549981226E-01  0.51100000000E-03 0.  1.
         11    1    3    3    0    0 -0.91286796383E-03 -0.31293487307E-02 -0.13673916960E-01  0.14066388216E-01  0.51100000000E-03 0. -1.
</event>
<event>
 8    1  0.1061721E+005  0.1043930E+01  0.7957747E-01            NaN
         13   -1    0    0    0    0  0.00000000000E+00  0.00000000000E+00  0.74505805969E-08  0.10566000000E+00  0.10566000000E+00 0.  1.
     999900   -1    0    0    0    0 -0.00000000000E+00 -0.00000000000E+00 -0.74505805969E-08  0.93827000000E+00  0.93827000000E+00 0.  1.
     999902    2    1    2    0    0 -0.22253419291E-01 -0.12723940777E-01  0.65143445952E-02  0.10174809920E+01  0.10171371683E+01 0.  0.
     999903    2    3    3    0    0  0.58534338129E-03 -0.11644748780E+00 -0.52182780941E-01  0.12915361099E+00  0.19931195773E-01 0.  0.
         14    1    1    2    0    0  0.22253419291E-01  0.12723940777E-01 -0.65143445952E-02  0.26449008007E-01  0.00000000000E+00 0. -1.
     999901    1    3    3    0    0 -0.22838762673E-01  0.10372354702E+00  0.58697125536E-01  0.88832738100E+00  0.88000000000E+00 0. -1.
        -11    1    4    4    0    0 -0.72332384491E-02 -0.87385057023E-01 -0.34391335420E-01  0.94188603358E-01  0.51100000000E-03 0.  1.
         11    1    4    4    0    0  0.78185818304E-02 -0.29062430773E-01 -0.17791445520E-01  0.34965007636E-01  0.51100000000E-03 0. -1.
</event>
<event>
 8    1  0.1061721E+005  0.1043930E+01  0.7957747E-01            NaN
         13   -1    0    0    0    0  0.00000000000E+00  0.00000000000E+00  0.74505805969E-08  0.10566000000E+00  0.10566000000E+00 0. -1.
     999900   -1    0    0    0    0 -0.00000000000E+00 -0.00000000000E+00 -0.74505805969E-08  0.93827000000E+00  0.93827000000E+00 0. -1.
     999902    2    1    2    0    0 -0.19702658934E-01 -0.10278944480E-01  0.10159871095E-01  0.10194948931E+01  0.10192020225E+01 0.  0.
     999903    2    3    3    0    0  0.19553675720E-01  0.50125025410E-01 -0.11424298915E+00  0.12783028629E+00  0.19855908851E-01 0.  0.
         14    1    1    2    0    0  0.19702658934E-01  0.10278944480E-01 -0.10159871095E-01  0.24435106903E-01  0.00000000000E+00 0. -1.
     999901    1    3    3    0    0 -0.39256334654E-01 -0.60403969890E-01  0.12440286025E+00  0.89166460680E+00  0.88000000000E+00 0.  1.
        -11    1    4    4    0    0  0.16029482403E-01  0.27117122952E-01 -0.83648470795E-01  0.89384620884E-01  0.51100000000E-03 0.  1.
         11    1    4    4    0    0  0.35241933175E-02  0.23007902459E-01 -0.30594518359E-01  0.38445665409E-01  0.51100000000E-03 0. -1.
</event>
<event>
 8    1  0.1061721E+005  0.1043930E+01  0.7957747E-01            NaN
         13   -1    0    0    0    0  0.00000000000E+00  0.00000000000E+00  0.74505805969E-08  0.10566000000E+00  0.10566000000E+00 0. -1.
     999900   -1    0    0    0    0 -0.00000000000E+00 -0.00000000000E+00 -0.74505805969E-08  0.93827000000E+00  0.93827000000E+00 0.  1.
     999902    2    1    2    0    0 -0.74833584788E-02  0.20285574571E-01  0.78740629853E-02  0.10209190014E+01  0.10206596403E+01 0.  0.
     999903    2    3    3    0    0  0.10137955282E+00 -0.63050322350E-01 -0.44376219484E-01  0.12877209801E+00  0.18969646582E-01 0.  0.
         14    1    1    2    0    0  0.74833584788E-02 -0.20285574571E-01 -0.78740629853E-02  0.23010998625E-01  0.00000000000E+00 0.  1.
     999901    1    3    3    0    0 -0.10886291130E+00  0.83335896921E-01  0.52250282469E-01  0.89214690337E+00  0.88000000000E+00 0.  1.
        -11    1    4    4    0    0  0.40710921906E-01 -0.21377744901E-01 -0.26323509678E-01  0.52986558883E-01  0.51100000000E-03 0. -1.
         11    1    4    4    0    0  0.60668630912E-01 -0.41672577449E-01 -0.18052709805E-01  0.75785539124E-01  0.51100000000E-03 0.  1.
</event>
<event>
 8    1  0.1061721E+005  0.1043930E+01  0.7957747E-01            NaN
         13   -1    0    0    0    0  0.00000000000E+00  0.00000000000E+00  0.74505805969E-08  0.10566000000E+00  0.10566000000E+00 0. -1.
     999900   -1    0    0    0    0 -0.00000000000E+00 -0.00000000000E+00 -0.74505805969E-08  0.93827000000E+00  0.93827000000E+00 0.  1.
     999902    2    1    2    0    0  0.82348434491E-02  0.28804763428E-02 -0.21100199636E-01  0.10210973870E+01  0.10208420767E+01 0.  0.
     999903    2    3    3    0    0 -0.55349548844E-01 -0.76590297716E-01 -0.90623149146E-01  0.13250748196E+00  0.20396846645E-01 0.  0.
         14    1    1    2    0    0 -0.82348434491E-02 -0.28804763428E-02  0.21100199636E-01  0.22832612975E-01  0.00000000000E+00 0. -1.
     999901    1    3    3    0    0  0.63584392293E-01  0.79470774059E-01  0.69522949509E-01  0.88858990506E+00  0.88000000000E+00 0. -1.
        -11    1    4    4    0    0 -0.46034133440E-01 -0.62490818114E-01 -0.62324690472E-01  0.99543316971E-01  0.51100000000E-03 0. -1.
         11    1    4    4    0    0 -0.93154154045E-02 -0.14099479603E-01 -0.28298458673E-01  0.32964164990E-01  0.51100000000E-03 0.  1.
</event>
<event>
 8    1  0.1061721E+005  0.1043930E+01  0.7957747E-01            NaN
         13   -1    0    0    0    0  0.00000000000E+00  0.00000000000E+00  0.74505805969E-08  0.10566000000E+00  0.10566000000E+00 0. -1.
     999900   -1    0    0    0    0 -0.00000000000E+00 -0.00000000000E+00 -0.74505805969E-08  0.93827000000E+00  0.93827000000E+00 0.  1.
     999902    2    1    2    0    0  0.43137554633E-02  0.32442468430E-02 -0.23442299973E-01  0.10198743343E+01  0.10195905956E+01 0.  0.
     999903    2    3    3    0    0 -0.42562693574E-01 -0.79862324122E-01  0.87882964160E-01  0.12774350419E+00  0.20134889504E-01 0.  0.
         14    1    1    2    0    0 -0.43137554633E-02 -0.32442468430E-02  0.23442299973E-01  0.24055665690E-01  0.00000000000E+00 0. -1.
     999901    1    3    3    0    0  0.46876449038E-01  0.83106570965E-01 -0.11132526413E+00  0.89213083012E+00  0.88000000000E+00 0.  1.
        -11    1    4    4    0    0 -0.33087724978E-01 -0.56724148380E-01  0.74738208407E-01  0.99491142674E-01  0.51100000000E-03 0.  1.
         11    1    4    4    0    0 -0.94749685964E-02 -0.23138175742E-01  0.13144755753E-01  0.28252361518E-01  0.51100000000E-03 0. -1.
</event>
<event>
 8    1  0.1061721E+005  0.1043930E+01  0.7957747E-01            NaN
         13   -1    0    0    0    0  0.00000000000E+00  0.00000000000E+00  0.74505805969E-08  0.10566000000E+00  0.10566000000E+00 0. -1.
     999900   -1    0    0    0    0 -0.00000000000E+00 -0.00000000000E+00 -0.74505805969E-08  0.93827000000E+00  0.93827000000E+00 0.  1.
     999902    2    1    2    0    0  0.11435193862E-01  0.17952769728E-01 -0.96163032075E-02  0.10205732261E+01  0.10203059203E+01 0.  0.
     999903    2    3    3    0    0  0.12505812256E+00 -0.33187152778E-01  0.12168961519E-01  0.13152876188E+00  0.20268459496E-01 0.  0.
         14    1    1    2    0    0 -0.11435193862E-01 -0.17952769728E-01  0.96163032075E-02  0.23356773899E-01  0.00000000000E+00 0.  1.
     999901    1    3    3    0    0 -0.11362292870E+00  0.51139922506E-01 -0.21785264727E-01  0.88904446422E+00  0.88000000000E+00 0. -1.
        -11    1    4    4    0    0  0.10168519415E+00 -0.34560267922E-01  0.12370290225E-01  0.10810909318E+00  0.51100000000E-03 0.  1.
         11    1    4    4    0    0  0.23372928413E-01  0.13731151436E-02 -0.20132870529E-03  0.23419668700E-01  0.51100000000E-03 0. -1.
</event>
<event>
 8    1  0.1061721E+005  0.1043930E+01  0.7957747E-01            NaN
         13   -1    0    0    0    0  0.00000000000E+00  0.00000000000E+00  0.74505805969E-08  0.10566000000E+00  0.10566000000E+00 0.  1.
     999900   -1    0    0    0    0 -0.00000000000E+00 -0.00000000000E+00 -0.74505805969E-08  0.93827000000E+00  0.93827000000E+00 0. -1.
     999902    2    1    2    0    0 -0.90407541748E-02 -0.83316480155E-02 -0.19095485354E-01  0.10212190080E+01  0.10209664408E+01 0.  0.
     999903    2    3    3    0    0  0.49481265624E-01  0.81828623950E-01 -0.88382966454E-01  0.13197525267E+00  0.21484860058E-01 0.  0.
         14    1    1    2    0    0  0.90407541748E-02  0.83316480155E-02  0.19095485354E-01  0.22710991956E-01  0.00000000000E+00 0.  1.
     999901    1    3    3    0    0 -0.58522019799E-01 -0.90160271966E-01  0.69287481100E-01  0.88924375538E+00  0.88000000000E+00 0.  1.
        -11    1    4    4    0    0  0.99478594991E-02  0.11545546968E-01 -0.25515147611E-01  0.29724458650E-01  0.51100000000E-03 0.  1.
         11    1    4    4    0    0  0.39533406125E-01  0.70283076982E-01 -0.62867818843E-01  0.10225079402E+00  0.51100000000E-03 0. -1.
</event>
<event>
 8    1  0.1061721E+005  0.1043930E+01  0.7957747E-01            NaN
         13   -1    0    0    0    0  0.00000000000E+00  0.00000000000E+00  0.74505805969E-08  0.10566000000E+00  0.10566000000E+00 0.  1.
     999900   -1    0    0    0    0 -0.00000000000E+00 -0.00000000000E+00 -0.74505805969E-08  0.93827000000E+00  0.93827000000E+00 0.  1.
     999902    2    1    2    0    0  0.90924724822E-02  0.22057479620E-01 -0.16294418275E-02  0.10200163942E+01  0.10197360364E+01 0.  0.
     999903    2    3    3    0    0 -0.12522184373E+00 -0.20862889198E-01  0.83589680614E-02  0.12873514679E+00  0.19674739661E-01 0.  0.
         14    1    1    2    0    0 -0.90924724822E-02 -0.22057479620E-01  0.16294418275E-02  0.23913605828E-01  0.00000000000E+00 0.  1.
     999901    1    3    3    0    0  0.13431431621E+00  0.42920368818E-01 -0.99884098889E-02  0.89128124738E+00  0.88000000000E+00 0. -1.
        -11    1    4    4    0    0 -0.67930746014E-01 -0.16389447658E-01  0.12998586202E-01  0.71080409487E-01  0.51100000000E-03 0.  1.
         11    1    4    4    0    0 -0.57291097713E-01 -0.44734415400E-02 -0.46396181408E-02  0.57654737306E-01  0.51100000000E-03 0. -1.
</event>
<event>
 8    1  0.1061721E+005  0.1043930E+01  0.7957747E-01            NaN
         13   -1    0    0    0    0  0.00000000000E+00  0.00000000000E+00  0.74505805969E-08  0.10566000000E+00  0.10566000000E+00 0.  1.
     999900   -1    0    0    0    0 -0.00000000000E+00 -0.00000000000E+00 -0.74505805969E-08  0.93827000000E+00  0.93827000000E+00 0. -1.
     999902    2    1    2    0    0  0.72939709857E-02 -0.12837124524E-01 -0.16914160008E-01  0.10214782164E+01  0.10212314449E+01 0.  0.
     999903    2    3    3    0    0 -0.37368680627E-01  0.11458429966E+00  0.41784934966E-01  0.12924699325E+00  0.20804433468E-01 0.  0.
         14    1    1    2    0    0 -0.72939709857E-02  0.12837124524E-01  0.16914160008E-01  0.22451783616E-01  0.00000000000E+00 0.  1.
     999901    1    3    3    0    0  0.44662651613E-01 -0.12742142419E+00 -0.58699094974E-01  0.89223122314E+00  0.88000000000E+00 0. -1.
        -11    1    4    4    0    0 -0.14240350167E-02  0.28917272261E-01  0.14706572823E-01  0.32477390842E-01  0.51100000000E-03 0. -1.
         11    1    4    4    0    0 -0.35944645610E-01  0.85667027402E-01  0.27078362144E-01  0.96769602404E-01  0.51100000000E-03 0.  1.
</event>
<event>
 8    1  0.1061721E+005  0.1043930E+01  0.7957747E-01            NaN
         13   -1    0    0    0    0  0.00000000000E+00  0.00000000000E+00  0.74505805969E-08  0.10566000000E+00  0.10566000000E+00 0. -1.
     999900   -1    0    0    0    0 -0.00000000000E+00 -0.00000000000E+00 -0.74505805969E-08  0.93827000000E+00  0.93827000000E+00 0. -1.
     999902    2    1    2    0    0  0.22039052041E-01  0.93620611225E-02 -0.81020617759E-03  0.10199711929E+01  0.10196897616E+01 0.  0.
     999903    2    3    3    0    0  0.13258765052E-01 -0.10187211688E+00  0.76137779000E-01  0.12959423441E+00  0.21070860292E-01 0.  0.
         14    1    1    2    0    0 -0.22039052041E-01 -0.93620611225E-02  0.81020617759E-03  0.23958807094E-01  0.00000000000E+00 0.  1.
     999901    1    3    3    0    0  0.87802869883E-02  0.11123417800E+00 -0.76947985177E-01  0.89037695849E+00  0.88000000000E+00 0.  1.
        -11    1    4    4    0    0  0.18269769162E-02 -0.38567681105E-01  0.40886776898E-01  0.56238719016E-01  0.51100000000E-03 0. -1.
         11    1    4    4    0    0  0.11431788136E-01 -0.63304435775E-01  0.35251002102E-01  0.73355515395E-01  0.51100000000E-03 0.  1.
</event>
<event>
 8    1  0.1061721E+005  0.1043930E+01  0.7957747E-01            NaN
         13   -1    0    0    0    0  0.00000000000E+00  0.00000000000E+00  0.74505805969E-08  0.10566000000E+00  0.10566000000E+00 0. -1.
     999900   -1    0    0    0    0 -0.00000000000E+00 -0.00000000000E+00 -0.74505805969E-08  0.93827000000E+00  0.93827000000E+00 0. -1.
     999902    2    1    2    0    0 -0.14611810921E-01 -0.15674717203E-01  0.12373281963E-01  0.10191853059E+01  0.10188848747E+01 0.  0.
     999903    2    3    3    0    0 -0.91296670923E-01  0.16336315437E-01 -0.87331340908E-01  0.12966504996E+00  0.24172396515E-01 0.  0.
         14    1    1    2    0    0  0.14611810921E-01  0.15674717203E-01 -0.12373281963E-01  0.24744694064E-01  0.00000000000E+00 0.  1.
     999901    1    3    3    0    0  0.76684860002E-01 -0.32011032640E-01  0.99704622871E-01  0.88952025597E+00  0.88000000000E+00 0.  1.
        -11    1    4    4    0    0 -0.39547582265E-01  0.86226332686E-02 -0.54520674433E-01  0.67905273205E-01  0.51100000000E-03 0.  1.
         11    1    4    4    0    0 -0.51749088659E-01  0.77136821683E-02 -0.32810666476E-01  0.61759776758E-01  0.51100000000E-03 0. -1.
</event>
<event>
 8    1  0.1061721E+005  0.1043930E+01  0.7957747E-01            NaN
         13   -1    0    0    0    0  0.00000000000E+00  0.00000000000E+00  0.74505805969E-08  0.10566000000E+00  0.10566000000E+00 0. -1.
     999900   -1    0    0    0    0 -0.00000000000E+00 -0.00000000000E+00 -0.74505805969E-08  0.93827000000E+00  0.93827000000E+00 0. -1.
     999902    2    1    2    0    0  0.18138751345E-01 -0.15285244017E-01  0.49701731622E-02  0.10196945795E+01  0.10194065332E+01 0.  0.
     999903    2    3    3    0    0  0.42350721371E-01 -0.43878652768E-01  0.11465527455E+00  0.13209409281E+00  0.24168111309E-01 0.  0.
         14    1    1    2    0    0 -0.18138751345E-01  0.15285244017E-01 -0.49701731622E-02  0.24235420489E-01  0.00000000000E+00 0. -1.
     999901    1    3    3    0    0 -0.24211970026E-01  0.28593408751E-01 -0.10968510139E+00  0.88760048670E+00  0.88000000000E+00 0. -1.
        -11    1    4    4    0    0  0.32258551231E-01 -0.43369954277E-01  0.10505920498E+00  0.11814933235E+00  0.51100000000E-03 0. -1.
         11    1    4    4    0    0  0.10092170139E-01 -0.50869849088E-03  0.95960695694E-02  0.13944760466E-01  0.51100000000E-03 0.  1.
</event>
<event>
 8    1  0.1061721E+005  0.1043930E+01  0.7957747E-01            NaN
         13   -1    0    0    0    0  0.00000000000E+00  0.00000000000E+00  0.74505805969E-08  0.10566000000E+00  0.10566000000E+00 0.  1.
     999900   -1    0    0    0    0 -0.00000000000E+00 -0.00000000000E+00 -0.74505805969E-08  0.93827000000E+00  0.93827000000E+00 0. -1.
     999902    2    1    2    0    0 -0.78123512496E-02  0.66727061086E-03  0.21896441333E-01  0.10206720503E+01  0.10204070276E+01 0.  0.
     999903    2    3    3    0    0 -0.12492473161E+00  0.10793795123E-01 -0.33295440097E-01  0.13114183724E+00  0.19154648613E-01 0.  0.
         14    1    1    2    0    0  0.78123512496E-02 -0.66727061086E-03 -0.21896441333E-01  0.23257949720E-01  0.00000000000E+00 0. -1.
     999901    1    3    3    0    0  0.11711238036E+00 -0.10126524512E-01  0.55191881431E-01  0.88953021304E+00  0.88000000000E+00 0. -1.
        -11    1    4    4    0    0 -0.46801922245E-01 -0.47972328453E-02 -0.15237871882E-01  0.49455911975E-01  0.51100000000E-03 0. -1.
         11    1    4    4    0    0 -0.78122809363E-01  0.15591027968E-01 -0.18057568215E-01  0.81685925267E-01  0.51100000000E-03 0.  1.
</event>
<event>
 8    1  0.1061721E+005  0.1043930E+01  0.7957747E-01            NaN
         13   -1    0    0    0    0  0.00000000000E+00  0.00000000000E+00  0.74505805969E-08  0.10566000000E+00  0.10566000000E+00 0. -1.
     999900   -1    0    0    0    0 -0.00000000000E+00 -0.00000000000E+00 -0.74505805969E-08  0.93827000000E+00  0.93827000000E+00 0.  1.
     999902    2    1    2    0    0 -0.18835017828E-01  0.46682647171E-02  0.12971137707E-01  0.10205890273E+01  0.10203220872E+01 0.  0.
     999903    2    3    3    0    0  0.33098048480E-02  0.42177649779E-01  0.12388449623E+00  0.13255799170E+00  0.20840916663E-01 0.  0.
         14    1    1    2    0    0  0.18835017828E-01 -0.46682647171E-02 -0.12971137707E-01  0.23340972676E-01  0.00000000000E+00 0.  1.
     999901    1    3    3    0    0 -0.22144822676E-01 -0.37509385062E-01 -0.11091335852E+00  0.88803103563E+00  0.88000000000E+00 0.  1.
        -11    1    4    4    0    0  0.56011077015E-02  0.20936428773E-01  0.35242967720E-01  0.41376736845E-01  0.51100000000E-03 0. -1.
         11    1    4    4    0    0 -0.22913028535E-02  0.21241221006E-01  0.88641528510E-01  0.91181254851E-01  0.51100000000E-03 0.  1.
</event>
<event>
 8    1  0.1061721E+005  0.1043930E+01  0.7957747E-01            NaN
         13   -1    0    0    0    0  0.00000000000E+00  0.00000000000E+00  0.74505805969E-08  0.10566000000E+00  0.10566000000E+00 0. -1.
     999900   -1    0    0    0    0 -0.00000000000E+00 -0.00000000000E+00 -0.74505805969E-08  0.93827000000E+00  0.93827000000E+00 0.  1.
     999902    2    1    2    0    0  0.22411786432E-01 -0.24839172464E-02 -0.74158897031E-02  0.10201928259E+01  0.10199166380E+01 0.  0.
     999903    2    3    3    0    0  0.11658061617E+00  0.23305435094E-01  0.55380920346E-01  0.13256886351E+00  0.19320296661E-01 0.  0.
         14    1    1    2    0    0 -0.22411786432E-01  0.24839172464E-02  0.74158897031E-02  0.23737174138E-01  0.00000000000E+00 0. -1.
     999901    1    3    3    0    0 -0.94168829736E-01 -0.25789352341E-01 -0.62796810049E-01  0.88762396235E+00  0.88000000000E+00 0.  1.
        -11    1    4    4    0    0  0.53336326765E-01  0.91001086819E-02  0.14818701143E-01  0.56101967482E-01  0.51100000000E-03 0.  1.
         11    1    4    4    0    0  0.63244289403E-01  0.14205326412E-01  0.40562219202E-01  0.76466896028E-01  0.51100000000E-03 0. -1.
</event>
<event>
 8    1  0.1061721E+005  0.1043930E+01  0.7957747E-01            NaN
         13   -1    0    0    0    0  0.00000000000E+00  0.00000000000E+00  0.74505805969E-08  0.10566000000E+00  0.10566000000E+00 0. -1.
     999900   -1    0    0    0    0 -0.00000000000E+00 -0.00000000000E+00 -0.74505805969E-08  0.93827000000E+00  0.93827000000E+00 0.  1.
     999902    2    1    2    0    0  0.15617349198E-01 -0.43938116829E-02 -0.24348525994E-01  0.10146715329E+01  0.10142496053E+01 0.  0.
     999903    2    3    3    0    0 -0.12174066273E+00  0.11151259189E-02 -0.10476623036E-01  0.12389097549E+00  0.20425026560E-01 0.  0.
         14    1    1    2    0    0 -0.15617349198E-01  0.43938116829E-02  0.24348525994E-01  0.29258467068E-01  0.00000000000E+00 0. -1.
     999901    1    3    3    0    0  0.13735801192E+00 -0.55089376019E-02 -0.13871902958E-01  0.89078055745E+00  0.88000000000E+00 0. -1.
        -11    1    4    4    0    0 -0.57084965714E-01  0.10578362881E-01 -0.65339310171E-02  0.58425580420E-01  0.51100000000E-03 0.  1.
         11    1    4    4    0    0 -0.64655697011E-01 -0.94632369625E-02 -0.39426920192E-02  0.65465395066E-01  0.51100000000E-03 0. -1.
</event>
<event>
 8    1  0.1061721E+005  0.1043930E+01  0.7957747E-01            NaN
         13   -1    0    0    0    0  0.00000000000E+00  0.00000000000E+00  0.74505805969E-08  0.10566000000E+00  0.10566000000E+00 0.  1.
     999900   -1    0    0    0    0 -0.00000000000E+00 -0.00000000000E+00 -0.74505805969E-08  0.93827000000E+00  0.93827000000E+00 0.  1.
     999902    2    1    2    0    0  0.12328412776E-01  0.61046632108E-02  0.19089364973E-01  0.10204000079E+01  0.10201286760E+01 0.  0.
     999903    2    3    3    0    0 -0.61177958001E-01  0.75837209307E-02 -0.11024079303E+00  0.12791378169E+00  0.20215037211E-01 0.  0.
         14    1    1    2    0    0 -0.12328412776E-01 -0.61046632108E-02 -0.19089364973E-01  0.23529992128E-01  0.00000000000E+00 0. -1.
     999901    1    3    3    0    0  0.73506370777E-01 -0.14790577199E-02  0.12933015800E+00  0.89248622618E+00  0.88000000000E+00 0. -1.
        -11    1    4    4    0    0 -0.28801849847E-01 -0.33519732911E-02 -0.65329731521E-01  0.71477389580E-01  0.51100000000E-03 0.  1.
         11    1    4    4    0    0 -0.32376108153E-01  0.10935694222E-01 -0.44911061511E-01  0.56436392109E-01  0.51100000000E-03 0. -1.
</event>
<event>
 8    1  0.1061721E+005  0.1043930E+01  0.7957747E-01            NaN
         13   -1    0    0    0    0  0.00000000000E+00  0.00000000000E+00  0.74505805969E-08  0.10566000000E+00  0.10566000000E+00 0.  1.
     999900   -1    0    0    0    0 -0.00000000000E+00 -0.00000000000E+00 -0.74505805969E-08  0.93827000000E+00  0.93827000000E+00 0. -1.
     999902    2    1    2    0    0 -0.77335148879E-02 -0.17527797758E-01  0.11644446184E-01  0.10215107209E+01  0.10212646713E+01 0.  0.
     999903    2    3    3    0    0  0.12848212685E+00  0.22789860550E-02  0.14775219083E-01  0.13080492693E+00  0.19462042853E-01 0.  0.
         14    1    1    2    0    0  0.77335148879E-02  0.17527797758E-01 -0.11644446184E-01  0.22419279063E-01  0.00000000000E+00 0. -1.
     999901    1    3    3    0    0 -0.13621564174E+00 -0.19806783813E-01 -0.31307728988E-02  0.89070579401E+00  0.88000000000E+00 0. -1.
        -11    1    4    4    0    0  0.67386642878E-01  0.10462973455E-01  0.10663243701E-01  0.69024628497E-01  0.51100000000E-03 0.  1.
         11    1    4    4    0    0  0.61095483975E-01 -0.81839874004E-02  0.41119753814E-02  0.61780298433E-01  0.51100000000E-03 0. -1.
</event>
<event>
 8    1  0.1061721E+005  0.1043930E+01  0.7957747E-01            NaN
         13   -1    0    0    0    0  0.00000000000E+00  0.00000000000E+00  0.74505805969E-08  0.10566000000E+00  0.10566000000E+00 0. -1.
     999900   -1    0    0    0    0 -0.00000000000E+00 -0.00000000000E+00 -0.74505805969E-08  0.93827000000E+00  0.93827000000E+00 0. -1.
     999902    2    1    2    0    0 -0.40031307135E-02 -0.20011711188E-01 -0.12583982174E-01  0.10199539651E+01  0.10196721241E+01 0.  0.
     999903    2    3    3    0    0  0.85344909434E-01 -0.96043612597E-01 -0.21436590492E-01  0.13212386260E+00  0.22114668634E-01 0.  0.
         14    1    1    2    0    0  0.40031307135E-02  0.20011711188E-01  0.12583982174E-01  0.23976034858E-01  0.00000000000E+00 0. -1.
     999901    1    3    3    0    0 -0.89348040148E-01  0.76031901409E-01  0.88526083181E-02  0.88783010254E+00  0.88000000000E+00 0.  1.
        -11    1    4    4    0    0  0.55153840390E-01 -0.58271190815E-01 -0.27557185407E-02  0.80282830633E-01  0.51100000000E-03 0.  1.
         11    1    4    4    0    0  0.30191069044E-01 -0.37772421781E-01 -0.18680871951E-01  0.51841031964E-01  0.51100000000E-03 0. -1.
</event>
<event>
 8    1  0.1061721E+005  0.1043930E+01  0.7957747E-01            NaN
         13   -1    0    0    0    0  0.00000000000E+00  0.00000000000E+00  0.74505805969E-08  0.10566000000E+00  0.10566000000E+00 0.  1.
     999900   -1    0    0    0    0 -0.00000000000E+00 -0.00000000000E+00 -0.74505805969E-08  0.93827000000E+00  0.93827000000E+00 0.  1.
     999902    2    1    2    0    0  0.33960350864E-02  0.18827302906E-01  0.12938926199E-01  0.10208341952E+01  0.10205728969E+01 0.  0.
     999903    2    3    3    0    0  0.38275321663E-01  0.29394474056E-01  0.12315229680E+00  0.13321084218E+00  0.15798889605E-01 0.  0.
         14    1    1    2    0    0 -0.33960350864E-02 -0.18827302906E-01 -0.12938926199E-01  0.23095804818E-01  0.00000000000E+00 0.  1.
     999901    1    3    3    0    0 -0.34879286577E-01 -0.10567171150E-01 -0.11021337060E+00  0.88762335300E+00  0.88000000000E+00 0.  1.
        -11    1    4    4    0    0  0.10111163941E-01  0.13805391344E-01  0.58995482693E-01  0.61429248454E-01  0.51100000000E-03 0. -1.
         11    1    4    4    0    0  0.28164157722E-01  0.15589082712E-01  0.64156814108E-01  0.71781593724E-01  0.51100000000E-03 0.  1.
</event>
<event>
 8    1  0.1061721E+005  0.1043930E+01  0.7957747E-01            NaN
         13   -1    0    0    0    0  0.00000000000E+00  0.00000000000E+00  0.74505805969E-08  0.10566000000E+00  0.10566000000E+00 0. -1.
     999900   -1    0    0    0    0 -0.00000000000E+00 -0.00000000000E+00 -0.74505805969E-08  0.93827000000E+00  0.93827000000E+00 0. -1.
     999902    2    1    2    0    0  0.52779303842E-02 -0.40785911789E-02  0.14557104195E-01  0.10279174818E+01  0.10277927557E+01 0.  0.
     999903    2    3    3    0    0  0.10590786813E+00 -0.30091681471E-01  0.82725587026E-01  0.13918242161E+00  0.20155344464E-01 0.  0.
         14    1    1    2    0    0 -0.52779303842E-02  0.40785911789E-02 -0.14557104195E-01  0.16012518156E-01  0.00000000000E+00 0.  1.
     999901    1    3    3    0    0 -0.10062993775E+00  0.26013090292E-01 -0.68168482831E-01  0.88873506023E+00  0.88000000000E+00 0. -1.
        -11    1    4    4    0    0  0.84674136137E-01 -0.15643990207E-01  0.66518919058E-01  0.10880933542E+00  0.51100000000E-03 0.  1.
         11    1    4    4    0    0  0.21233731995E-01 -0.14447691264E-01  0.16206667968E-01  0.30373086193E-01  0.51100000000E-03 0. -1.
</event>
<event>
 8    1  0.1061721E+005  0.1043930E+01  0.7957747E-01            NaN
         13   -1    0    0    0    0  0.00000000000E+00  0.00000000000E+00  0.74505805969E-08  0.10566000000E+00  0.10566000000E+00 0. -1.
     999900   -1    0    0    0    0 -0.00000000000E+00 -0.00000000000E+00 -0.74505805969E-08  0.93827000000E+00  0.93827000000E+00 0. -1.
     999902    2    1    2    0    0  0.10483460103E-01 -0.11278508713E-01  0.18465359974E-01  0.10198867637E+01  0.10196033216E+01 0.  0.
     999903    2    3    3    0    0  0.93467205698E-01  0.80648213160E-01  0.39496281559E-01  0.13096656258E+00  0.18762500664E-01 0.  0.
         14    1    1    2    0    0 -0.10483460103E-01  0.11278508713E-01 -0.18465359974E-01  0.24043236335E-01  0.00000000000E+00 0.  1.
     999901    1    3    3    0    0 -0.82983745595E-01 -0.91926721873E-01 -0.21030921586E-01  0.88892020108E+00  0.88000000000E+00 0. -1.
        -11    1    4    4    0    0  0.44744819017E-01  0.26534929957E-01  0.15094074343E-01  0.54169119782E-01  0.51100000000E-03 0. -1.
         11    1    4    4    0    0  0.48722386681E-01  0.54113283203E-01  0.24402207216E-01  0.76797442802E-01  0.51100000000E-03 0.  1.
</event>
<event>
 8    1  0.1061721E+005  0.1043930E+01  0.7957747E-01            NaN
         13   -1    0    0    0    0  0.00000000000E+00  0.00000000000E+00  0.74505805969E-08  0.10566000000E+00  0.10566000000E+00 0.  1.
     999900   -1    0    0    0    0 -0.00000000000E+00 -0.00000000000E+00 -0.74505805969E-08  0.93827000000E+00  0.93827000000E+00 0.  1.
     999902    2    1    2    0    0  0.73916821424E-02 -0.20280288067E-01  0.10554574256E-01  0.10199023891E+01  0.10196193197E+01 0.  0.
     999903    2    3    3    0    0  0.12931621290E+00  0.26067352832E-02  0.73442960368E-02  0.13119562477E+00  0.20709304382E-01 0.  0.
         14    1    1    2    0    0 -0.73916821424E-02  0.20280288067E-01 -0.10554574256E-01  0.24027610924E-01  0.00000000000E+00 0. -1.
     999901    1    3    3    0    0 -0.12192453075E+00 -0.22887023350E-01  0.32102782196E-02  0.88870676431E+00  0.88000000000E+00 0.  1.
        -11    1    4    4    0    0  0.50615229998E-01  0.49925762452E-02  0.12203883457E-01  0.52307009260E-01  0.51100000000E-03 0.  1.
         11    1    4    4    0    0  0.78700982897E-01 -0.23858409621E-02 -0.48595874202E-02  0.78888615509E-01  0.51100000000E-03 0. -1.
</event>
<event>
 8    1  0.1061721E+005  0.1043930E+01  0.7957747E-01            NaN
         13   -1    0    0    0    0  0.00000000000E+00  0.00000000000E+00  0.74505805969E-08  0.10566000000E+00  0.10566000000E+00 0.  1.
     999900   -1    0    0    0    0 -0.00000000000E+00 -0.00000000000E+00 -0.74505805969E-08  0.93827000000E+00  0.93827000000E+00 0.  1.
     999902    2    1    2    0    0  0.18795159106E-01 -0.29139371004E-02  0.14808631905E-01  0.10198251330E+01  0.10195402185E+01 0.  0.
     999903    2    3    3    0    0 -0.12524710382E+00  0.15065795968E-01 -0.91177940942E-05  0.12780999296E+00  0.20532388906E-01 0.  0.
         14    1    1    2    0    0 -0.18795159106E-01  0.29139371004E-02 -0.14808631905E-01  0.24104867022E-01  0.00000000000E+00 0.  1.
     999901    1    3    3    0    0  0.14404226293E+00 -0.17979733069E-01  0.14817749699E-01  0.89201514002E+00  0.88000000000E+00 0.  1.
        -11    1    4    4    0    0 -0.52082878006E-01  0.13762095612E-01 -0.68806156919E-02  0.54310454337E-01  0.51100000000E-03 0.  1.
         11    1    4    4    0    0 -0.73164225816E-01  0.13037003560E-02  0.68714978978E-02  0.73499538626E-01  0.51100000000E-03 0. -1.
</event>
<event>
 8    1  0.1061721E+005  0.1043930E+01  0.7957747E-01            NaN
         13   -1    0    0    0    0  0.00000000000E+00  0.00000000000E+00  0.74505805969E-08  0.10566000000E+00  0.10566000000E+00 0. -1.
     999900   -1    0    0    0    0 -0.00000000000E+00 -0.00000000000E+00 -0.74505805969E-08  0.93827000000E+00  0.93827000000E+00 0. -1.
     999902    2    1    2    0    0 -0.20607143330E-01 -0.99592447940E-02  0.13089721102E-03  0.10210420545E+01  0.10207854912E+01 0.  0.
     999903    2    3    3    0    0 -0.55624183152E-01 -0.35915818273E-01  0.11320816493E+00  0.13273669868E+00  0.20468190367E-01 0.  0.
         14    1    1    2    0    0  0.20607143330E-01  0.99592447940E-02 -0.13089721102E-03  0.22887945455E-01  0.00000000000E+00 0.  1.
     999901    1    3    3    0    0  0.35017039822E-01  0.25956573479E-01 -0.11307726771E+00  0.88830535587E+00  0.88000000000E+00 0. -1.
        -11    1    4    4    0    0 -0.45147545342E-01 -0.22792870530E-01  0.96993073864E-01  0.10938799430E+00  0.51100000000E-03 0. -1.
         11    1    4    4    0    0 -0.10476637810E-01 -0.13122947743E-01  0.16215091062E-01  0.23348704384E-01  0.51100000000E-03 0.  1.
</event>
<event>
 8    1  0.1061721E+005  0.1043930E+01  0.7957747E-01            NaN
         13   -1    0    0    0    0  0.00000000000E+00  0.00000000000E+00  0.74505805969E-08  0.10566000000E+00  0.10566000000E+00 0. -1.
     999900   -1    0    0    0    0 -0.00000000000E+00 -0.00000000000E+00 -0.74505805969E-08  0.93827000000E+00  0.93827000000E+00 0. -1.
     999902    2    1    2    0    0  0.46716074803E-02 -0.11845873395E-01  0.19193539778E-01  0.10208965330E+01  0.10206366594E+01 0.  0.
     999903    2    3    3    0    0  0.38044555911E-01 -0.12454798143E+00  0.18606046585E-01  0.13308131349E+00  0.20121210660E-01 0.  0.
         14    1    1    2    0    0 -0.46716074803E-02  0.11845873395E-01 -0.19193539778E-01  0.23033467002E-01  0.00000000000E+00 0.  1.
     999901    1    3    3    0    0 -0.33372948431E-01  0.11270210803E+00  0.58749319257E-03  0.88781521951E+00  0.88000000000E+00 0.  1.
        -11    1    4    4    0    0  0.13360930294E-01 -0.27547345554E-01  0.11595752648E-01  0.32742835947E-01  0.51100000000E-03 0.  1.
         11    1    4    4    0    0  0.24683625618E-01 -0.97000635874E-01  0.70102939376E-02  0.10033847754E+00  0.51100000000E-03 0. -1.
</event>
<event>
 8    1  0.1061721E+005  0.1043930E+01  0.7957747E-01            NaN
         13   -1    0    0    0    0  0.00000000000E+00  0.00000000000E+00  0.74505805969E-08  0.10566000000E+00  0.10566000000E+00 0.  1.
     999900   -1    0    0    0    0 -0.00000000000E+00 -0.00000000000E+00 -0.74505805969E-08  0.93827000000E+00  0.93827000000E+00 0. -1.
     999902    2    1    2    0    0 -0.32135795272E-02 -0.13298612737E-01  0.19404882917E-01  0.10201870079E+01  0.10199106830E+01 0.  0.
     999903    2    3    3    0    0  0.10684603935E+00  0.96025873442E-02  0.73533182621E-01  0.13138587292E+00  0.18623448871E-01 0.  0.
         14    1    1    2    0    0  0.32135795272E-02  0.13298612737E-01 -0.19404882917E-01  0.23742992127E-01  0.00000000000E+00 0. -1.
     999901    1    3    3    0    0 -0.11005961887E+00 -0.22901200081E-01 -0.54128299704E-01  0.88880113496E+00  0.88000000000E+00 0. -1.
        -11    1    4    4    0    0  0.34279621625E-01 -0.55180157507E-02  0.22032907096E-01  0.41124823072E-01  0.51100000000E-03 0.  1.
         11    1    4    4    0    0  0.72566417721E-01  0.15120603095E-01  0.51500275525E-01  0.90261049844E-01  0.51100000000E-03 0. -1.
</event>
<event>
 8    1  0.1061721E+005  0.1043930E+01  0.7957747E-01            NaN
         13   -1    0    0    0    0  0.00000000000E+00  0.00000000000E+00  0.74505805969E-08  0.10566000000E+00  0.10566000000E+00 0. -1.
     999900   -1    0    0    0    0 -0.00000000000E+00 -0.00000000000E+00 -0.74505805969E-08  0.93827000000E+00  0.93827000000E+00 0. -1.
     999902    2    1    2    0    0 -0.18335901737E-01  0.66797934908E-02  0.13127958086E-01  0.10204104716E+01  0.10201393838E+01 0.  0.
     999903    2    3    3    0    0 -0.84265197380E-01 -0.62362875661E-02  0.10123007359E+00  0.13346319021E+00  0.20624756255E-01 0.  0.
         14    1    1    2    0    0  0.18335901737E-01 -0.66797934908E-02 -0.13127958086E-01  0.23519528420E-01  0.00000000000E+00 0.  1.
     999901    1    3    3    0    0  0.65929295643E-01  0.12916081057E-01 -0.88102115501E-01  0.88694728137E+00  0.88000000000E+00 0. -1.
        -11    1    4    4    0    0 -0.35741591414E-01 -0.25109759315E-02  0.58987668686E-01  0.69018639041E-01  0.51100000000E-03 0.  1.
         11    1    4    4    0    0 -0.48523605965E-01 -0.37253116346E-02  0.42242404901E-01  0.64444551170E-01  0.51100000000E-03 0. -1.
</event>
<event>
 8    1  0.1061721E+005  0.1043930E+01  0.7957747E-01            NaN
         13   -1    0    0    0    0  0.00000000000E+00  0.00000000000E+00  0.74505805969E-08  0.10566000000E+00  0.10566000000E+00 0.  1.
     999900   -1    0    0    0    0 -0.00000000000E+00 -0.00000000000E+00 -0.74505805969E-08  0.93827000000E+00  0.93827000000E+00 0. -1.
     999902    2    1    2    0    0 -0.11135478867E-01 -0.43820017997E-02 -0.20445695199E-01  0.10202397640E+01  0.10199646802E+01 0.  0.
     999903    2    3    3    0    0 -0.82162884640E-01 -0.51461073783E-01  0.84426286161E-01  0.12992551394E+00  0.18811157615E-01 0.  0.
         14    1    1    2    0    0  0.11135478867E-01  0.43820017997E-02  0.20445695199E-01  0.23690235996E-01  0.00000000000E+00 0. -1.
     999901    1    3    3    0    0  0.71027405774E-01  0.47079071983E-01 -0.10487198136E+00  0.89031425006E+00  0.88000000000E+00 0.  1.
        -11    1    4    4    0    0 -0.47239332089E-01 -0.22804602201E-01  0.55017276911E-01  0.76018196884E-01  0.51100000000E-03 0.  1.
         11    1    4    4    0    0 -0.34923552551E-01 -0.28656471582E-01  0.29409009250E-01  0.53907317058E-01  0.51100000000E-03 0. -1.
</event>
<event>
 8    1  0.1061721E+005  0.1043930E+01  0.7957747E-01            NaN
         13   -1    0    0    0    0  0.00000000000E+00  0.00000000000E+00  0.74505805969E-08  0.10566000000E+00  0.10566000000E+00 0.  1.
     999900   -1    0    0    0    0 -0.00000000000E+00 -0.00000000000E+00 -0.74505805969E-08  0.93827000000E+00  0.93827000000E+00 0. -1.
     999902    2    1    2    0    0  0.12284102568E-01 -0.18504835226E-01 -0.90774454196E-02  0.10199356649E+01  0.10196533883E+01 0.  0.
     999903    2    3    3    0    0 -0.67597398728E-01 -0.11141898655E+00 -0.22823714023E-02  0.13141989867E+00  0.16804215834E-01 0.  0.
         14    1    1    2    0    0 -0.12284102568E-01  0.18504835226E-01  0.90774454196E-02  0.23994335123E-01  0.00000000000E+00 0.  1.
     999901    1    3    3    0    0  0.79881501296E-01  0.92914151320E-01 -0.67950740173E-02  0.88851576621E+00  0.88000000000E+00 0. -1.
        -11    1    4    4    0    0 -0.48831469776E-01 -0.93056780023E-01 -0.32457145303E-02  0.10514215393E+00  0.51100000000E-03 0. -1.
         11    1    4    4    0    0 -0.18765928952E-01 -0.18362206523E-01  0.96334312809E-03  0.26277744744E-01  0.51100000000E-03 0.  1.
</event>
<event>
 8    1  0.1061721E+005  0.1043930E+01  0.7957747E-01            NaN
         13   -1    0    0    0    0  0.00000000000E+00  0.00000000000E+00  0.74505805969E-08  0.10566000000E+00  0.10566000000E+00 0. -1.
     999900   -1    0    0    0    0 -0.00000000000E+00 -0.00000000000E+00 -0.74505805969E-08  0.93827000000E+00  0.93827000000E+00 0.  1.
     999902    2    1    2    0    0  0.16317150479E-01  0.10843266637E-01  0.14137349494E-01  0.10197703129E+01  0.10194840855E+01 0.  0.
     999903    2    3    3    0    0 -0.68956962731E-01  0.10854843582E+00  0.37415987630E-02  0.13020522470E+00  0.20039345068E-01 0.  0.
         14    1    1    2    0    0 -0.16317150479E-01 -0.10843266637E-01 -0.14137349494E-01  0.24159687122E-01  0.00000000000E+00 0. -1.
     999901    1    3    3    0    0  0.85274113210E-01 -0.97705169181E-01  0.10395750731E-01  0.88956508818E+00  0.88000000000E+00 0. -1.
        -11    1    4    4    0    0 -0.29484587898E-01  0.50073293467E-01  0.11463416769E-01  0.59231298207E-01  0.51100000000E-03 0.  1.
         11    1    4    4    0    0 -0.39472374832E-01  0.58475142351E-01 -0.77218180063E-02  0.70973926495E-01  0.51100000000E-03 0. -1.
</event>
<event>
 8    1  0.1061721E+005  0.1043930E+01  0.7957747E-01            NaN
         13   -1    0    0    0    0  0.00000000000E+00  0.00000000000E+00  0.74505805969E-08  0.10566000000E+00  0.10566000000E+00 0.  1.
     999900   -1    0    0    0    0 -0.00000000000E+00 -0.00000000000E+00 -0.74505805969E-08  0.93827000000E+00  0.93827000000E+00 0.  1.
     999902    2    1    2    0    0 -0.18702006120E-01 -0.10912733121E-01  0.10802646898E-01  0.10197318605E+01  0.10194447103E+01 0.  0.
     999903    2    3    3    0    0 -0.43817874777E-01 -0.84382729217E-01 -0.88570901926E-01  0.13074156277E+00  0.14425686382E-01 0.  0.
         14    1    1    2    0    0  0.18702006120E-01  0.10912733121E-01 -0.10802646898E-01  0.24198139538E-01  0.00000000000E+00 0. -1.
     999901    1    3    3    0    0  0.25115868657E-01  0.73469996095E-01  0.99373548824E-01  0.88899029769E+00  0.88000000000E+00 0.  1.
        -11    1    4    4    0    0 -0.37961730317E-01 -0.61274573562E-01 -0.70456449465E-01  0.10079701745E+00  0.51100000000E-03 0.  1.
         11    1    4    4    0    0 -0.58561444601E-02 -0.23108155655E-01 -0.18114452461E-01  0.29944545324E-01  0.51100000000E-03 0. -1.
</event>
<event>
 8    1  0.1061721E+005  0.1043930E+01  0.7957747E-01            NaN
         13   -1    0    0    0    0  0.00000000000E+00  0.00000000000E+00  0.74505805969E-08  0.10566000000E+00  0.10566000000E+00 0.  1.
     999900   -1    0    0    0    0 -0.00000000000E+00 -0.00000000000E+00 -0.74505805969E-08  0.93827000000E+00  0.93827000000E+00 0.  1.
     999902    2    1    2    0    0  0.18248948605E-01 -0.46048389753E-02  0.14416197601E-01  0.10202222920E+01  0.10199467974E+01 0.  0.
     999903    2    3    3    0    0 -0.14655466139E-01 -0.87832640290E-01  0.96928591566E-01  0.13184294586E+00  0.76193911791E-02 0.  0.
         14    1    1    2    0    0 -0.18248948605E-01  0.46048389753E-02 -0.14416197601E-01  0.23707708039E-01  0.00000000000E+00 0. -1.
     999901    1    3    3    0    0  0.32904414744E-01  0.83227801315E-01 -0.82512393965E-01  0.88837934610E+00  0.88000000000E+00 0.  1.
        -11    1    4    4    0    0 -0.62563427312E-02 -0.59077778220E-01  0.64757088198E-01  0.87880983703E-01  0.51100000000E-03 0. -1.
         11    1    4    4    0    0 -0.83991234077E-02 -0.28754862070E-01  0.32171503369E-01  0.43961962157E-01  0.51100000000E-03 0.  1.
</event>
<event>
 8    1  0.1061721E+005  0.1043930E+01  0.7957747E-01            NaN
         13   -1    0    0    0    0  0.00000000000E+00  0.00000000000E+00  0.74505805969E-08  0.10566000000E+00  0.10566000000E+00 0. -1.
     999900   -1    0    0    0    0 -0.00000000000E+00 -0.00000000000E+00 -0.74505805969E-08  0.93827000000E+00  0.93827000000E+00 0.  1.
     999902    2    1    2    0    0 -0.22891284043E-01 -0.88728939495E-03  0.33854228440E-02  0.10207727278E+01  0.10205100208E+01 0.  0.
     999903    2    3    3    0    0 -0.41551516801E-01 -0.71355195625E-01  0.10141401398E+00  0.13233390899E+00  0.20232863025E-01 0.  0.
         14    1    1    2    0    0  0.22891284043E-01  0.88728939495E-03 -0.33854228440E-02  0.23157272193E-01  0.00000000000E+00 0. -1.
     999901    1    3    3    0    0  0.18660232758E-01  0.70467906230E-01 -0.98028591138E-01  0.88843881881E+00  0.88000000000E+00 0.  1.
        -11    1    4    4    0    0 -0.39987328685E-01 -0.65340210232E-01  0.83269541318E-01  0.11314772274E+00  0.51100000000E-03 0.  1.
         11    1    4    4    0    0 -0.15641881154E-02 -0.60149853937E-02  0.18144472664E-01  0.19186186255E-01  0.51100000000E-03 0. -1.
</event>
<event>
 8    1  0.1061721E+005  0.1043930E+01  0.7957747E-01            NaN
         13   -1    0    0    0    0  0.00000000000E+00  0.00000000000E+00  0.74505805969E-08  0.10566000000E+00  0.10566000000E+00 0.  1.
     999900   -1    0    0    0    0 -0.00000000000E+00 -0.00000000000E+00 -0.74505805969E-08  0.93827000000E+00  0.93827000000E+00 0. -1.
     999902    2    1    2    0    0  0.21078340343E-01 -0.30037501162E-02  0.11826212444E-01  0.10195747491E+01  0.10192838126E+01 0.  0.
     999903    2    3    3    0    0 -0.10742925121E+00  0.66527075481E-01  0.20262029035E-02  0.12747342245E+00  0.16687484695E-01 0.  0.
         14    1    1    2    0    0 -0.21078340343E-01  0.30037501162E-02 -0.11826212444E-01  0.24355250915E-01  0.00000000000E+00 0. -1.
     999901    1    3    3    0    0  0.12850759155E+00 -0.69530825597E-01  0.98000095403E-02  0.89210132663E+00  0.88000000000E+00 0. -1.
        -11    1    4    4    0    0 -0.40785301653E-01  0.20928474963E-01 -0.63748934149E-02  0.46285443524E-01  0.51100000000E-03 0. -1.
         11    1    4    4    0    0 -0.66643949558E-01  0.45598600517E-01  0.84010963185E-02  0.81187978927E-01  0.51100000000E-03 0.  1.
</event>
<event>
 8    1  0.1061721E+005  0.1043930E+01  0.7957747E-01            NaN
         13   -1    0    0    0    0  0.00000000000E+00  0.00000000000E+00  0.74505805969E-08  0.10566000000E+00  0.10566000000E+00 0. -1.
     999900   -1    0    0    0    0 -0.00000000000E+00 -0.00000000000E+00 -0.74505805969E-08  0.93827000000E+00  0.93827000000E+00 0. -1.
     999902    2    1    2    0    0 -0.11449620672E-01  0.11126713649E-01 -0.16061896935E-01  0.10212830995E+01  0.10210319717E+01 0.  0.
     999903    2    3    3    0    0  0.42507375056E-01  0.10196079505E+00  0.67672045841E-01  0.13101709378E+00  0.19572746659E-01 0.  0.
         14    1    1    2    0    0  0.11449620672E-01 -0.11126713649E-01  0.16061896935E-01  0.22646900524E-01  0.00000000000E+00 0. -1.
     999901    1    3    3    0    0 -0.53956995728E-01 -0.90834081402E-01 -0.83733942776E-01  0.89026600570E+00  0.88000000000E+00 0. -1.
        -11    1    4    4    0    0  0.29561062644E-01  0.80546893650E-01  0.43404661578E-01  0.96155521261E-01  0.51100000000E-03 0.  1.
         11    1    4    4    0    0  0.12946312413E-01  0.21413901401E-01  0.24267384263E-01  0.34861572516E-01  0.51100000000E-03 0. -1.
</event>
<event>
 8    1  0.1061721E+005  0.1043930E+01  0.7957747E-01            NaN
         13   -1    0    0    0    0  0.00000000000E+00  0.00000000000E+00  0.74505805969E-08  0.10566000000E+00  0.10566000000E+00 0. -1.
     999900   -1    0    0    0    0 -0.00000000000E+00 -0.00000000000E+00 -0.74505805969E-08  0.93827000000E+00  0.93827000000E+00 0. -1.
     999902    2    1    2    0    0  0.16820328733E-01  0.15459500596E-01 -0.58813922903E-02  0.10203395275E+01  0.10200667826E+01 0.  0.
     999903    2    3    3    0    0  0.10148875194E+00  0.39811504617E-01  0.72641766104E-01  0.13246135546E+00  0.19602597732E-01 0.  0.
         14    1    1    2    0    0 -0.16820328733E-01 -0.15459500596E-01  0.58813922903E-02  0.23590472497E-01  0.00000000000E+00 0.  1.
     999901    1    3    3    0    0 -0.84668423204E-01 -0.24352004021E-01 -0.78523158394E-01  0.88787817204E+00  0.88000000000E+00 0. -1.
        -11    1    4    4    0    0  0.81574698455E-01  0.26576969167E-01  0.48859699633E-01  0.98733469945E-01  0.51100000000E-03 0.  1.
         11    1    4    4    0    0  0.19914053482E-01  0.13234535450E-01  0.23782066471E-01  0.33727885515E-01  0.51100000000E-03 0. -1.
</event>
<event>
 8    1  0.1061721E+005  0.1043930E+01  0.7957747E-01            NaN
         13   -1    0    0    0    0  0.00000000000E+00  0.00000000000E+00  0.74505805969E-08  0.10566000000E+00  0.10566000000E+00 0. -1.
     999900   -1    0    0    0    0 -0.00000000000E+00 -0.00000000000E+00 -0.74505805969E-08  0.93827000000E+00  0.93827000000E+00 0.  1.
     999902    2    1    2    0    0  0.11706378762E-01 -0.51841877196E-02  0.20386355665E-01  0.10198568074E+01  0.10195726502E+01 0.  0.
     999903    2    3    3    0    0  0.81354273144E-01  0.87921126656E-01  0.50772798645E-01  0.13168859995E+00  0.20380579073E-01 0.  0.
         14    1    1    2    0    0 -0.11706378762E-01  0.51841877196E-02 -0.20386355665E-01  0.24073192628E-01  0.00000000000E+00 0.  1.
     999901    1    3    3    0    0 -0.69647894383E-01 -0.93105314376E-01 -0.30386442981E-01  0.88816820742E+00  0.88000000000E+00 0.  1.
        -11    1    4    4    0    0  0.26262732964E-01  0.21988736312E-01  0.59170968805E-02  0.34763613504E-01  0.51100000000E-03 0. -1.
         11    1    4    4    0    0  0.55091540181E-01  0.65932390344E-01  0.44855701765E-01  0.96924986447E-01  0.51100000000E-03 0.  1.
</event>
<event>
 8    1  0.1061721E+005  0.1043930E+01  0.7957747E-01            NaN
         13   -1    0    0    0    0  0.00000000000E+00  0.00000000000E+00  0.74505805969E-08  0.10566000000E+00  0.10566000000E+00 0.  1.
     999900   -1    0    0    0    0 -0.00000000000E+00 -0.00000000000E+00 -0.74505805969E-08  0.93827000000E+00  0.93827000000E+00 0.  1.
     999902    2    1    2    0    0  0.10514932703E-01  0.81111998431E-02  0.17739284957E-01  0.10217706317E+01  0.10215303159E+01 0.  0.
     999903    2    3    3    0    0  0.42190770818E-01  0.12283186144E+00 -0.19910929446E-01  0.13296146908E+00  0.20361233261E-01 0.  0.
         14    1    1    2    0    0 -0.10514932703E-01 -0.81111998431E-02 -0.17739284957E-01  0.22159368299E-01  0.00000000000E+00 0. -1.
     999901    1    3    3    0    0 -0.31675838115E-01 -0.11472066160E+00  0.37650214403E-01  0.88880916262E+00  0.88000000000E+00 0.  1.
        -11    1    4    4    0    0  0.16713795414E-01  0.25760795472E-01 -0.35613293693E-03  0.30714125287E-01  0.51100000000E-03 0. -1.
         11    1    4    4    0    0  0.25476975404E-01  0.97071065972E-01 -0.19554796509E-01  0.10224734379E+00  0.51100000000E-03 0.  1.
</event>
<event>
 8    1  0.1061721E+005  0.1043930E+01  0.7957747E-01            NaN
         13   -1    0    0    0    0  0.00000000000E+00  0.00000000000E+00  0.74505805969E-08  0.10566000000E+00  0.10566000000E+00 0. -1.
     999900   -1    0    0    0    0 -0.00000000000E+00 -0.00000000000E+00 -0.74505805969E-08  0.93827000000E+00  0.93827000000E+00 0.  1.
     999902    2    1    2    0    0  0.24592883348E-02  0.22907199118E-01 -0.11503297009E-01  0.10181790056E+01  0.10178533164E+01 0.  0.
     999903    2    3    3    0    0  0.88662898318E-01 -0.46443618815E-01  0.76540582460E-01  0.12689211406E+00  0.15000952634E-01 0.  0.
         14    1    1    2    0    0 -0.24592883348E-02 -0.22907199118E-01  0.11503297009E-01  0.25750994401E-01  0.00000000000E+00 0. -1.
     999901    1    3    3    0    0 -0.86203609983E-01  0.69350817933E-01 -0.88043879469E-01  0.89128689154E+00  0.88000000000E+00 0.  1.
        -11    1    4    4    0    0  0.41407836770E-01 -0.19825877170E-01  0.26036945896E-01  0.52781227952E-01  0.51100000000E-03 0. -1.
         11    1    4    4    0    0  0.47255061548E-01 -0.26617741645E-01  0.50503636564E-01  0.74110886105E-01  0.51100000000E-03 0.  1.
</event>
<event>
 8    1  0.1061721E+005  0.1043930E+01  0.7957747E-01            NaN
         13   -1    0    0    0    0  0.00000000000E+00  0.00000000000E+00  0.74505805969E-08  0.10566000000E+00  0.10566000000E+00 0.  1.
     999900   -1    0    0    0    0 -0.00000000000E+00 -0.00000000000E+00 -0.74505805969E-08  0.93827000000E+00  0.93827000000E+00 0.  1.
     999902    2    1    2    0    0 -0.94876745046E-02 -0.72927866390E-03  0.19807062049E-01  0.10219557532E+01  0.10217194791E+01 0.  0.
     999903    2    3    3    0    0 -0.70222591838E-01  0.11082115692E+00  0.20491222960E-02  0.13265964151E+00  0.19540735831E-01 0.  0.
         14    1    1    2    0    0  0.94876745046E-02  0.72927866390E-03 -0.19807062049E-01  0.21974246788E-01  0.00000000000E+00 0. -1.
     999901    1    3    3    0    0  0.60734917333E-01 -0.11155043559E+00  0.17757939753E-01  0.88929611170E+00  0.88000000000E+00 0.  1.
        -11    1    4    4    0    0 -0.23529161468E-01  0.21620200954E-01  0.75312515392E-03  0.31966902371E-01  0.51100000000E-03 0.  1.
         11    1    4    4    0    0 -0.46693430369E-01  0.89200955971E-01  0.12959971420E-02  0.10069273914E+00  0.51100000000E-03 0. -1.
</event>
<event>
 8    1  0.1061721E+005  0.1043930E+01  0.7957747E-01            NaN
         13   -1    0    0    0    0  0.00000000000E+00  0.00000000000E+00  0.74505805969E-08  0.10566000000E+00  0.10566000000E+00 0.  1.
     999900   -1    0    0    0    0 -0.00000000000E+00 -0.00000000000E+00 -0.74505805969E-08  0.93827000000E+00  0.93827000000E+00 0.  1.
     999902    2    1    2    0    0  0.16245922420E-01 -0.77484992273E-02  0.14273321187E-01  0.10209583450E+01  0.10206998801E+01 0.  0.
     999903    2    3    3    0    0 -0.43144433892E-01  0.10375992705E+00 -0.59940948037E-01  0.12884338531E+00  0.19497077960E-01 0.  0.
         14    1    1    2    0    0 -0.16245922420E-01  0.77484992273E-02 -0.14273321187E-01  0.22971654996E-01  0.00000000000E+00 0.  1.
     999901    1    3    3    0    0  0.59390356312E-01 -0.11150842628E+00  0.74214269224E-01  0.89211495969E+00  0.88000000000E+00 0. -1.
        -11    1    4    4    0    0 -0.25312990863E-01  0.48194546484E-01 -0.19436272585E-01  0.57805636665E-01  0.51100000000E-03 0. -1.
         11    1    4    4    0    0 -0.17831443029E-01  0.55565380567E-01 -0.40504675453E-01  0.71037748645E-01  0.51100000000E-03 0.  1.
</event>
<event>
 7    1  0.1061721E+005  0.1043930E+01  0.7957747E-01            NaN
         13   -1    0    0    0    0  0.00000000000E+00  0.00000000000E+00  0.74505805969E-08  0.10566000000E+00  0.10566000000E+00 0. -1.
     999900   -1    0    0    0    0 -0.00000000000E+00 -0.00000000000E+00 -0.74505805969E-08  0.93827000000E+00  0.93827000000E+00 0. -1.
     999903    2    1    2    0    0  0.62877581117E-01 -0.40381949417E-01  0.65467470903E-01  0.10119162804E+00  0.19221440960E-01 0.  0.
         14    1    1    2    0    0  0.46373796301E-01 -0.18799431881E-01  0.92023289965E-02  0.50878585686E-01  0.00000000000E+00 0.  1.
     999901    1    1    2    0    0 -0.10925137742E+00  0.59181381298E-01 -0.74669799900E-01  0.89185978628E+00  0.88000000000E+00 0. -1.
        -11    1    3    3    0    0  0.45376085718E-01 -0.21791941452E-01  0.34379999476E-01  0.60960014372E-01  0.51100000000E-03 0. -1.
         11    1    3    3    0    0  0.17501495399E-01 -0.18590007965E-01  0.31087471428E-01  0.40231613665E-01  0.51100000000E-03 0.  1.
</event>
<event>
 8    1  0.1061721E+005  0.1043930E+01  0.7957747E-01            NaN
         13   -1    0    0    0    0  0.00000000000E+00  0.00000000000E+00  0.74505805969E-08  0.10566000000E+00  0.10566000000E+00 0. -1.
     999900   -1    0    0    0    0 -0.00000000000E+00 -0.00000000000E+00 -0.74505805969E-08  0.93827000000E+00  0.93827000000E+00 0.  1.
     999902    2    1    2    0    0 -0.12782050725E-01  0.56751805266E-02 -0.18219285777E-01  0.10209619598E+01  0.10207035772E+01 0.  0.
     999903    2    3    3    0    0  0.15278379851E-01  0.11701156169E+00 -0.57077593985E-01  0.13265281002E+00  0.20341627557E-01 0.  0.
         14    1    1    2    0    0  0.12782050725E-01 -0.56751805266E-02  0.18219285777E-01  0.22968040164E-01  0.00000000000E+00 0. -1.
     999901    1    3    3    0    0 -0.28060430576E-01 -0.11133638116E+00  0.38858308208E-01  0.88830914982E+00  0.88000000000E+00 0.  1.
        -11    1    4    4    0    0  0.68784569037E-02  0.10244552979E+00 -0.51917636755E-01  0.11505695055E+00  0.51100000000E-03 0. -1.
         11    1    4    4    0    0  0.83999229477E-02  0.14566031896E-01 -0.51599572302E-02  0.17595859466E-01  0.51100000000E-03 0.  1.
</event>
<event>
 8    1  0.1061721E+005  0.1043930E+01  0.7957747E-01            NaN
         13   -1    0    0    0    0  0.00000000000E+00  0.00000000000E+00  0.74505805969E-08  0.10566000000E+00  0.10566000000E+00 0. -1.
     999900   -1    0    0    0    0 -0.00000000000E+00 -0.00000000000E+00 -0.74505805969E-08  0.93827000000E+00  0.93827000000E+00 0.  1.
     999902    2    1    2    0    0 -0.21836175810E-01 -0.57387729272E-02  0.76364345393E-02  0.10200958392E+01  0.10198173630E+01 0.  0.
     999903    2    3    3    0    0 -0.31960645022E-02  0.12009166844E+00  0.45464670893E-01  0.13014543092E+00  0.20942140105E-01 0.  0.
         14    1    1    2    0    0  0.21836175810E-01  0.57387729272E-02 -0.76364345393E-02  0.23834160803E-01  0.00000000000E+00 0.  1.
     999901    1    3    3    0    0 -0.18640111307E-01 -0.12583044137E+00 -0.37828236354E-01  0.88995040828E+00  0.88000000000E+00 0.  1.
        -11    1    4    4    0    0 -0.24001223102E-02  0.77188757677E-01  0.18331030327E-01  0.79373501200E-01  0.51100000000E-03 0. -1.
         11    1    4    4    0    0 -0.79594219198E-03  0.42902910767E-01  0.27133640566E-01  0.50771929721E-01  0.51100000000E-03 0.  1.
</event>
<event>
 8    1  0.1061721E+005  0.1043930E+01  0.7957747E-01            NaN
         13   -1    0    0    0    0  0.00000000000E+00  0.00000000000E+00  0.74505805969E-08  0.10566000000E+00  0.10566000000E+00 0.  1.
     999900   -1    0    0    0    0 -0.00000000000E+00 -0.00000000000E+00 -0.74505805969E-08  0.93827000000E+00  0.93827000000E+00 0. -1.
     999902    2    1    2    0    0 -0.23892298126E-02 -0.15732374083E-01  0.17621050557E-01  0.10201872656E+01  0.10199109468E+01 0.  0.
     999903    2    3    3    0    0  0.99523334540E-01 -0.80903480298E-01 -0.18231537801E-01  0.13118847374E+00  0.20682345850E-01 0.  0.
         14    1    1    2    0    0  0.23892298126E-02  0.15732374083E-01 -0.17621050557E-01  0.23742734386E-01  0.00000000000E+00 0. -1.
     999901    1    3    3    0    0 -0.10191256435E+00  0.65171106215E-01  0.35852588358E-01  0.88899879187E+00  0.88000000000E+00 0.  1.
        -11    1    4    4    0    0  0.78924821948E-01 -0.60505576751E-01 -0.22275169344E-01  0.10191416304E+00  0.51100000000E-03 0.  1.
         11    1    4    4    0    0  0.20598512591E-01 -0.20397903547E-01  0.40436315431E-02  0.29274310703E-01  0.51100000000E-03 0. -1.
</event>
<event>
 8    1  0.1061721E+005  0.1043930E+01  0.7957747E-01            NaN
         13   -1    0    0    0    0  0.00000000000E+00  0.00000000000E+00  0.74505805969E-08  0.10566000000E+00  0.10566000000E+00 0.  1.
     999900   -1    0    0    0    0 -0.00000000000E+00 -0.00000000000E+00 -0.74505805969E-08  0.93827000000E+00  0.93827000000E+00 0.  1.
     999902    2    1    2    0    0  0.13507093160E-01  0.55941802641E-02 -0.18440002408E-01  0.10203976795E+01  0.10201262933E+01 0.  0.
     999903    2    3    3    0    0 -0.20242053077E-01  0.98971900702E-01 -0.83408263400E-01  0.13243412256E+00  0.19408260457E-01 0.  0.
         14    1    1    2    0    0 -0.13507093160E-01 -0.55941802641E-02  0.18440002408E-01  0.23532320482E-01  0.00000000000E+00 0.  1.
     999901    1    3    3    0    0  0.33749146237E-01 -0.93377720438E-01  0.64968260992E-01  0.88796355696E+00  0.88000000000E+00 0. -1.
        -11    1    4    4    0    0 -0.15095410035E-02  0.29473965353E-01 -0.14904244044E-01  0.33066462756E-01  0.51100000000E-03 0.  1.
         11    1    4    4    0    0 -0.18732512074E-01  0.69497935349E-01 -0.68504019356E-01  0.99367659806E-01  0.51100000000E-03 0. -1.
</event>
<event>
 8    1  0.1061721E+005  0.1043930E+01  0.7957747E-01            NaN
         13   -1    0    0    0    0  0.00000000000E+00  0.00000000000E+00  0.74505805969E-08  0.10566000000E+00  0.10566000000E+00 0. -1.
     999900   -1    0    0    0    0 -0.00000000000E+00 -0.00000000000E+00 -0.74505805969E-08  0.93827000000E+00  0.93827000000E+00 0.  1.
     999902    2    1    2    0    0 -0.76518169056E-02  0.20570943892E-01  0.89353101349E-02  0.10202328736E+01  0.10199576278E+01 0.  0.
     999903    2    3    3    0    0  0.95905666286E-02 -0.12036079988E+00  0.37659558608E-01  0.12838976031E+00  0.22067783812E-01 0.  0.
         14    1    1    2    0    0  0.76518169056E-02 -0.20570943892E-01 -0.89353101349E-02  0.23697126445E-01  0.00000000000E+00 0.  1.
     999901    1    3    3    0    0 -0.17242383534E-01  0.14093174377E+00 -0.28724248473E-01  0.89184311324E+00  0.88000000000E+00 0. -1.
        -11    1    4    4    0    0  0.42327325935E-04 -0.14654941316E-01  0.12601022344E-01  0.19334321340E-01  0.51100000000E-03 0.  1.
         11    1    4    4    0    0  0.95482393027E-02 -0.10570585856E+00  0.25058536264E-01  0.10905543897E+00  0.51100000000E-03 0. -1.
</event>
<event>
 8    1  0.1061721E+005  0.1043930E+01  0.7957747E-01            NaN
         13   -1    0    0    0    0  0.00000000000E+00  0.00000000000E+00  0.74505805969E-08  0.10566000000E+00  0.10566000000E+00 0. -1.
     999900   -1    0    0    0    0 -0.00000000000E+00 -0.00000000000E+00 -0.74505805969E-08  0.93827000000E+00  0.93827000000E+00 0.  1.
     999902    2    1    2    0    0  0.34936700208E-02 -0.17210674681E-02  0.23116526368E-01  0.10204876965E+01  0.10202184065E+01 0.  0.
     999903    2    3    3    0    0  0.79985172886E-01  0.18288353957E-01  0.10349337320E+00  0.13329450192E+00  0.18012611476E-01 0.  0.
         14    1    1    2    0    0 -0.34936700208E-02  0.17210674681E-02 -0.23116526368E-01  0.23442303529E-01  0.00000000000E+00 0.  1.
     999901    1    3    3    0    0 -0.76491502865E-01 -0.20009421425E-01 -0.80376846835E-01  0.88719319455E+00  0.88000000000E+00 0.  1.
        -11    1    4    4    0    0  0.41257045825E-01  0.15115842634E-02  0.58489984870E-01  0.71594470235E-01  0.51100000000E-03 0.  1.
         11    1    4    4    0    0  0.38728127061E-01  0.16776769693E-01  0.45003388333E-01  0.61700031681E-01  0.51100000000E-03 0. -1.
</event>
<event>
 8    1  0.1061721E+005  0.1043930E+01  0.7957747E-01            NaN
         13   -1    0    0    0    0  0.00000000000E+00  0.00000000000E+00  0.74505805969E-08  0.10566000000E+00  0.10566000000E+00 0. -1.
     999900   -1    0    0    0    0 -0.00000000000E+00 -0.00000000000E+00 -0.74505805969E-08  0.93827000000E+00  0.93827000000E+00 0.  1.
     999902    2    1    2    0    0  0.36417708925E-02 -0.21874401679E-01  0.81850603538E-02  0.10202921668E+01  0.10200183128E+01 0.  0.
     999903    2    3    3    0    0 -0.13620271290E-01 -0.69960791488E-01 -0.10712865359E+00  0.13129974188E+00  0.26135218833E-01 0.  0.
         14    1    1    2    0    0 -0.36417708925E-02  0.21874401679E-01 -0.81850603538E-02  0.23637833172E-01  0.00000000000E+00 0. -1.
     999901    1    3    3    0    0  0.17262042183E-01  0.48086389809E-01  0.11531371394E+00  0.88899242494E+00  0.88000000000E+00 0. -1.
        -11    1    4    4    0    0 -0.17212267277E-01 -0.45719425982E-01 -0.54186347172E-01  0.72958545749E-01  0.51100000000E-03 0. -1.
         11    1    4    4    0    0  0.35919959870E-02 -0.24241365507E-01 -0.52942306417E-01  0.58341196135E-01  0.51100000000E-03 0.  1.
</event>
<event>
 8    1  0.1061721E+005  0.1043930E+01  0.7957747E-01            NaN
         13   -1    0    0    0    0  0.00000000000E+00  0.00000000000E+00  0.74505805969E-08  0.10566000000E+00  0.10566000000E+00 0.  1.
     999900   -1    0    0    0    0 -0.00000000000E+00 -0.00000000000E+00 -0.74505805969E-08  0.93827000000E+00  0.93827000000E+00 0.  1.
     999902    2    1    2    0    0 -0.27588860907E-01  0.24238554192E-02  0.86729300859E-02  0.10149086279E+01  0.10144936091E+01 0.  0.
     999903    2    3    3    0    0 -0.82659721566E-01 -0.94007067903E-01 -0.10041317709E-01  0.12773223862E+00  0.23339630143E-01 0.  0.
         14    1    1    2    0    0  0.27588860907E-01 -0.24238554192E-02 -0.86729300859E-02  0.29021372082E-01  0.00000000000E+00 0.  1.
     999901    1    3    3    0    0  0.55070860660E-01  0.96430923322E-01  0.18714247794E-01  0.88717638930E+00  0.88000000000E+00 0.  1.
        -11    1    4    4    0    0 -0.26426587858E-01 -0.19232860184E-01 -0.99579855036E-02  0.34171480111E-01  0.51100000000E-03 0.  1.
         11    1    4    4    0    0 -0.56233133708E-01 -0.74774207719E-01 -0.83332205020E-04  0.93560758505E-01  0.51100000000E-03 0. -1.
</event>
<event>
 8    1  0.1061721E+005  0.1043930E+01  0.7957747E-01            NaN
         13   -1    0    0    0    0  0.00000000000E+00  0.00000000000E+00  0.74505805969E-08  0.10566000000E+00  0.10566000000E+00 0.  1.
     999900   -1    0    0    0    0 -0.00000000000E+00 -0.00000000000E+00 -0.74505805969E-08  0.93827000000E+00  0.93827000000E+00 0. -1.
     999902    2    1    2    0    0  0.13270702373E-01 -0.18301227249E-01 -0.37215437255E-02  0.10210193835E+01  0.10207623059E+01 0.  0.
     999903    2    3    3    0    0 -0.49490763733E-01  0.96722714771E-01  0.67458067774E-01  0.12847468101E+00  0.12269209652E-01 0.  0.
         14    1    1    2    0    0 -0.13270702373E-01  0.18301227249E-01  0.37215437255E-02  0.22910616491E-01  0.00000000000E+00 0.  1.
     999901    1    3    3    0    0  0.62761466106E-01 -0.11502394202E+00 -0.71179611499E-01  0.89254470250E+00  0.88000000000E+00 0.  1.
        -11    1    4    4    0    0 -0.30139148382E-01  0.68704845676E-01  0.50427014561E-01  0.90398390489E-01  0.51100000000E-03 0.  1.
         11    1    4    4    0    0 -0.19351615352E-01  0.28017869095E-01  0.17031053213E-01  0.38076290522E-01  0.51100000000E-03 0. -1.
</event>
<event>
 8    1  0.1061721E+005  0.1043930E+01  0.7957747E-01            NaN
         13   -1    0    0    0    0  0.00000000000E+00  0.00000000000E+00  0.74505805969E-08  0.10566000000E+00  0.10566000000E+00 0.  1.
     999900   -1    0    0    0    0 -0.00000000000E+00 -0.00000000000E+00 -0.74505805969E-08  0.93827000000E+00  0.93827000000E+00 0. -1.
     999902    2    1    2    0    0 -0.15519342806E-01 -0.16134575058E-01 -0.93975052866E-02  0.10196506339E+01  0.10193615294E+01 0.  0.
     999903    2    3    3    0    0 -0.31527669620E-01 -0.11954480527E+00  0.41669134155E-01  0.13198079441E+00  0.19941387482E-01 0.  0.
         14    1    1    2    0    0  0.15519342806E-01  0.16134575058E-01  0.93975052866E-02  0.24279366117E-01  0.00000000000E+00 0. -1.
     999901    1    3    3    0    0  0.16008326814E-01  0.10341023021E+00 -0.51066639441E-01  0.88766983947E+00  0.88000000000E+00 0.  1.
        -11    1    4    4    0    0 -0.30613583128E-01 -0.91362359950E-01  0.37840401884E-01  0.10352018848E+00  0.51100000000E-03 0. -1.
         11    1    4    4    0    0 -0.91408649167E-03 -0.28182445318E-01  0.38287322704E-02  0.28460605932E-01  0.51100000000E-03 0.  1.
</event>
<event>
 8    1  0.1061721E+005  0.1043930E+01  0.7957747E-01            NaN
         13   -1    0    0    0    0  0.00000000000E+00  0.00000000000E+00  0.74505805969E-08  0.10566000000E+00  0.10566000000E+00 0.  1.
     999900   -1    0    0    0    0 -0.00000000000E+00 -0.00000000000E+00 -0.74505805969E-08  0.93827000000E+00  0.93827000000E+00 0. -1.
     999902    2    1    2    0    0 -0.19930712219E-02 -0.66247237934E-02 -0.22592770728E-01  0.10203017841E+01  0.10200281555E+01 0.  0.
     999903    2    3    3    0    0  0.43098607697E-01 -0.12187987321E+00  0.10035635799E-01  0.13104275439E+00  0.18955105207E-01 0.  0.
         14    1    1    2    0    0  0.19930712219E-02  0.66247237934E-02  0.22592770728E-01  0.23628215917E-01  0.00000000000E+00 0.  1.
     999901    1    3    3    0    0 -0.45091678919E-01  0.11525514942E+00 -0.32628406527E-01  0.88925902969E+00  0.88000000000E+00 0.  1.
        -11    1    4    4    0    0  0.24453170825E-01 -0.91010244733E-01  0.29474487111E-02  0.94285581001E-01  0.51100000000E-03 0. -1.
         11    1    4    4    0    0  0.18645436872E-01 -0.30869628478E-01  0.70881870879E-02  0.36757173391E-01  0.51100000000E-03 0.  1.
</event>
<event>
 8    1  0.1061721E+005  0.1043930E+01  0.7957747E-01            NaN
         13   -1    0    0    0    0  0.00000000000E+00  0.00000000000E+00  0.74505805969E-08  0.10566000000E+00  0.10566000000E+00 0.  1.
     999900   -1    0    0    0    0 -0.00000000000E+00 -0.00000000000E+00 -0.74505805969E-08  0.93827000000E+00  0.93827000000E+00 0.  1.
     999902    2    1    2    0    0 -0.37445364317E-02 -0.84372141523E-02 -0.21553625124E-01  0.10204828916E+01  0.10202134900E+01 0.  0.
     999903    2    3    3    0    0 -0.62918501266E-01  0.80648285677E-01  0.75402167004E-01  0.12872159506E+00  0.20515322636E-01 0.  0.
         14    1    1    2    0    0  0.37445364317E-02  0.84372141523E-02  0.21553625124E-01  0.23447108388E-01  0.00000000000E+00 0.  1.
     999901    1    3    3    0    0  0.59173964834E-01 -0.89085499830E-01 -0.96955792128E-01  0.89176129655E+00  0.88000000000E+00 0.  1.
        -11    1    4    4    0    0 -0.26078193632E-01  0.24576550263E-01  0.36562448046E-01  0.51197194592E-01  0.51100000000E-03 0. -1.
         11    1    4    4    0    0 -0.36840307634E-01  0.56071735415E-01  0.38839718957E-01  0.77524400473E-01  0.51100000000E-03 0.  1.
</event>
<event>
 8    1  0.1061721E+005  0.1043930E+01  0.7957747E-01            NaN
         13   -1    0    0    0    0  0.00000000000E+00  0.00000000000E+00  0.74505805969E-08  0.10566000000E+00  0.10566000000E+00 0.  1.
     999900   -1    0    0    0    0 -0.00000000000E+00 -0.00000000000E+00 -0.74505805969E-08  0.93827000000E+00  0.93827000000E+00 0. -1.
     999902    2    1    2    0    0  0.11996180208E-01  0.20691334040E-01  0.78590530042E-02  0.10187545286E+01  0.10184434129E+01 0.  0.
     999903    2    3    3    0    0  0.78650194407E-01  0.10178838027E+00 -0.22099114522E-01  0.13200936778E+00  0.19783196909E-01 0.  0.
         14    1    1    2    0    0 -0.11996180208E-01 -0.20691334040E-01 -0.78590530042E-02  0.25175471357E-01  0.00000000000E+00 0.  1.
     999901    1    3    3    0    0 -0.66654014199E-01 -0.81097046232E-01  0.29958167526E-01  0.88674516087E+00  0.88000000000E+00 0.  1.
        -11    1    4    4    0    0  0.59786707298E-01  0.82703004752E-01 -0.99085601784E-02  0.10253135155E+00  0.51100000000E-03 0.  1.
         11    1    4    4    0    0  0.18863487108E-01  0.19085375520E-01 -0.12190554343E-01  0.29478016229E-01  0.51100000000E-03 0. -1.
</event>
<event>
 8    1  0.1061721E+005  0.1043930E+01  0.7957747E-01            NaN
         13   -1    0    0    0    0  0.00000000000E+00  0.00000000000E+00  0.74505805969E-08  0.10566000000E+00  0.10566000000E+00 0.  1.
     999900   -1    0    0    0    0 -0.00000000000E+00 -0.00000000000E+00 -0.74505805969E-08  0.93827000000E+00  0.93827000000E+00 0.  1.
     999902    2    1    2    0    0 -0.20577491871E-01 -0.10631758832E-01  0.73477353544E-02  0.10196306856E+01  0.10193411000E+01 0.  0.
     999903    2    3    3    0    0  0.17863496216E-01  0.11454004290E+00  0.50614399918E-01  0.12889071577E+00  0.24748196078E-01 0.  0.
         14    1    1    2    0    0  0.20577491871E-01  0.10631758832E-01 -0.73477353544E-02  0.24299314443E-01  0.00000000000E+00 0. -1.
     999901    1    3    3    0    0 -0.38440988087E-01 -0.12517180173E+00 -0.43266664563E-01  0.89073996979E+00  0.88000000000E+00 0.  1.
        -11    1    4    4    0    0 -0.22869516997E-02  0.65115907906E-01  0.28229512270E-01  0.71010408353E-01  0.51100000000E-03 0.  1.
         11    1    4    4    0    0  0.20150447915E-01  0.49424134990E-01  0.22384887647E-01  0.57880307417E-01  0.51100000000E-03 0. -1.
</event>
<event>
 8    1  0.1061721E+005  0.1043930E+01  0.7957747E-01            NaN
         13   -1    0    0    0    0  0.00000000000E+00  0.00000000000E+00  0.74505805969E-08  0.10566000000E+00  0.10566000000E+00 0. -1.
     999900   -1    0    0    0    0 -0.00000000000E+00 -0.00000000000E+00 -0.74505805969E-08  0.93827000000E+00  0.93827000000E+00 0. -1.
     999902    2    1    2    0    0  0.20520247075E-01  0.61446429473E-04  0.91306476551E-02  0.10214699679E+01  0.10212230130E+01 0.  0.
     999903    2    3    3    0    0 -0.93840558799E-01 -0.86614729175E-01 -0.92581410463E-02  0.12965759924E+00  0.20425916828E-01 0.  0.
         14    1    1    2    0    0 -0.20520247075E-01 -0.61446429473E-04 -0.91306476551E-02  0.22460032108E-01  0.00000000000E+00 0. -1.
     999901    1    3    3    0    0  0.11436080587E+00  0.86676175605E-01  0.18388788701E-01  0.89181236866E+00  0.88000000000E+00 0. -1.
        -11    1    4    4    0    0 -0.49236191347E-01 -0.44754904565E-01 -0.15023553531E-01  0.68214164971E-01  0.51100000000E-03 0. -1.
         11    1    4    4    0    0 -0.44604367451E-01 -0.41859824611E-01  0.57654124850E-02  0.61443434265E-01  0.51100000000E-03 0.  1.
</event>
<event>
 8    1  0.1061721E+005  0.1043930E+01  0.7957747E-01            NaN
         13   -1    0    0    0    0  0.00000000000E+00  0.00000000000E+00  0.74505805969E-08  0.10566000000E+00  0.10566000000E+00 0. -1.
     999900   -1    0    0    0    0 -0.00000000000E+00 -0.00000000000E+00 -0.74505805969E-08  0.93827000000E+00  0.93827000000E+00 0. -1.
     999902    2    1    2    0    0  0.72722412790E-02 -0.22666344091E-01 -0.20292748151E-02  0.10200392779E+01  0.10197594627E+01 0.  0.
     999903    2    3    3    0    0 -0.70354149214E-01  0.40930422194E-01 -0.98475931557E-01  0.12910024360E+00  0.18556886313E-01 0.  0.
         14    1    1    2    0    0 -0.72722412790E-02  0.22666344091E-01  0.20292748151E-02  0.23890722131E-01  0.00000000000E+00 0. -1.
     999901    1    3    3    0    0  0.77626390493E-01 -0.63596766285E-01  0.96446656742E-01  0.89093903427E+00  0.88000000000E+00 0.  1.
        -11    1    4    4    0    0 -0.35874274502E-01  0.22736786362E-01 -0.37149634912E-01  0.56429438419E-01  0.51100000000E-03 0. -1.
         11    1    4    4    0    0 -0.34479874712E-01  0.18193635832E-01 -0.61326296645E-01  0.72670805184E-01  0.51100000000E-03 0.  1.
</event>
<event>
 8    1  0.1061721E+005  0.1043930E+01  0.7957747E-01            NaN
         13   -1    0    0    0    0  0.00000000000E+00  0.00000000000E+00  0.74505805969E-08  0.10566000000E+00  0.10566000000E+00 0.  1.
     999900   -1    0    0    0    0 -0.00000000000E+00 -0.00000000000E+00 -0.74505805969E-08  0.93827000000E+00  0.93827000000E+00 0. -1.
     999902    2    1    2    0    0  0.38621946725E-02 -0.14188466364E-01 -0.18120207299E-01  0.10205939541E+01  0.10203271280E+01 0.  0.
     999903    2    3    3    0    0 -0.11957697854E+00  0.15373106546E-01  0.42340537848E-01  0.12943368918E+00  0.20624561744E-01 0.  0.
         14    1    1    2    0    0 -0.38621946725E-02  0.14188466364E-01  0.18120207299E-01  0.23336045895E-01  0.00000000000E+00 0.  1.
     999901    1    3    3    0    0  0.12343917322E+00 -0.29561572910E-01 -0.60460745147E-01  0.89116026492E+00  0.88000000000E+00 0. -1.
        -11    1    4    4    0    0 -0.83400504445E-01  0.92894563408E-02  0.19292926801E-01  0.86107004863E-01  0.51100000000E-03 0.  1.
         11    1    4    4    0    0 -0.36176474098E-01  0.60836502052E-02  0.23047611047E-01  0.43326684318E-01  0.51100000000E-03 0. -1.
</event>
<event>
 8    1  0.1061721E+005  0.1043930E+01  0.7957747E-01            NaN
         13   -1    0    0    0    0  0.00000000000E+00  0.00000000000E+00  0.74505805969E-08  0.10566000000E+00  0.10566000000E+00 0. -1.
     999900   -1    0    0    0    0 -0.00000000000E+00 -0.00000000000E+00 -0.74505805969E-08  0.93827000000E+00  0.93827000000E+00 0. -1.
     999902    2    1    2    0    0  0.71300563266E-02 -0.98597198655E-02 -0.19919413247E-01  0.10205883033E+01  0.10203213465E+01 0.  0.
     999903    2    3    3    0    0 -0.48788664227E-01 -0.10579165799E+00  0.55124269156E-01  0.13044146470E+00  0.20101791128E-01 0.  0.
         14    1    1    2    0    0 -0.71300563266E-02  0.98597198655E-02  0.19919413247E-01  0.23341696664E-01  0.00000000000E+00 0. -1.
     999901    1    3    3    0    0  0.55918720553E-01  0.95931938125E-01 -0.75043682403E-01  0.89014683863E+00  0.88000000000E+00 0. -1.
        -11    1    4    4    0    0 -0.36652617816E-01 -0.58607928352E-01  0.27211822853E-01  0.74290296019E-01  0.51100000000E-03 0.  1.
         11    1    4    4    0    0 -0.12136046410E-01 -0.47183729638E-01  0.27912446303E-01  0.56151168684E-01  0.51100000000E-03 0. -1.
</event>
<event>
 8    1  0.1061721E+005  0.1043930E+01  0.7957747E-01            NaN
         13   -1    0    0    0    0  0.00000000000E+00  0.00000000000E+00  0.74505805969E-08  0.10566000000E+00  0.10566000000E+00 0.  1.
     999900   -1    0    0    0    0 -0.00000000000E+00 -0.00000000000E+00 -0.74505805969E-08  0.93827000000E+00  0.93827000000E+00 0. -1.
     999902    2    1    2    0    0 -0.21902505586E-01 -0.19559206353E-02  0.96588539184E-02  0.10199125306E+01  0.10196297030E+01 0.  0.
     999903    2    3    3    0    0 -0.30627121641E-01 -0.12187805712E+00  0.33010594764E-01  0.13142913654E+00  0.19789825121E-01 0.  0.
         14    1    1    2    0    0  0.21902505586E-01  0.19559206353E-02 -0.96588539184E-02  0.24017469381E-01  0.00000000000E+00 0. -1.
     999901    1    3    3    0    0  0.87246160559E-02  0.11992213649E+00 -0.23351740845E-01  0.88848339407E+00  0.88000000000E+00 0. -1.
        -11    1    4    4    0    0 -0.12511018937E-01 -0.30801652232E-01  0.12050726634E-02  0.33271319424E-01  0.51100000000E-03 0.  1.
         11    1    4    4    0    0 -0.18116102705E-01 -0.91076404890E-01  0.31805522100E-01  0.98157817121E-01  0.51100000000E-03 0. -1.
</event>
<event>
 8    1  0.1061721E+005  0.1043930E+01  0.7957747E-01            NaN
         13   -1    0    0    0    0  0.00000000000E+00  0.00000000000E+00  0.74505805969E-08  0.10566000000E+00  0.10566000000E+00 0. -1.
     999900   -1    0    0    0    0 -0.00000000000E+00 -0.00000000000E+00 -0.74505805969E-08  0.93827000000E+00  0.93827000000E+00 0. -1.
     999902    2    1    2    0    0 -0.21403571143E-01 -0.12108538688E-01  0.92181199531E-02  0.10176677971E+01  0.10173288760E+01 0.  0.
     999903    2    3    3    0    0 -0.11668457569E+00 -0.99151207739E-02 -0.54069641728E-01  0.13026224059E+00  0.18196849810E-01 0.  0.
         14    1    1    2    0    0  0.21403571143E-01  0.12108538688E-01 -0.92181199531E-02  0.26262202922E-01  0.00000000000E+00 0.  1.
     999901    1    3    3    0    0  0.95281004545E-01 -0.21934179136E-02  0.63287761681E-01  0.88740555649E+00  0.88000000000E+00 0.  1.
        -11    1    4    4    0    0 -0.54864861145E-01  0.77896503540E-03 -0.17269883445E-01  0.57526252878E-01  0.51100000000E-03 0.  1.
         11    1    4    4    0    0 -0.61819714544E-01 -0.10694085809E-01 -0.36799758284E-01  0.72735987711E-01  0.51100000000E-03 0. -1.
</event>
<event>
 8    1  0.1061721E+005  0.1043930E+01  0.7957747E-01            NaN
         13   -1    0    0    0    0  0.00000000000E+00  0.00000000000E+00  0.74505805969E-08  0.10566000000E+00  0.10566000000E+00 0. -1.
     999900   -1    0    0    0    0 -0.00000000000E+00 -0.00000000000E+00 -0.74505805969E-08  0.93827000000E+00  0.93827000000E+00 0. -1.
     999902    2    1    2    0    0  0.17551478893E-01  0.39507572293E-02 -0.15125095568E-01  0.10204261405E+01  0.10201554180E+01 0.  0.
     999903    2    3    3    0    0  0.18442902519E-01  0.10307040772E+00 -0.79135016545E-01  0.13255071586E+00  0.18538927451E-01 0.  0.
         14    1    1    2    0    0 -0.17551478893E-01 -0.39507572293E-02  0.15125095568E-01  0.23503859469E-01  0.00000000000E+00 0. -1.
     999901    1    3    3    0    0 -0.89142362592E-03 -0.99119650490E-01  0.64009920977E-01  0.88787542467E+00  0.88000000000E+00 0.  1.
        -11    1    4    4    0    0  0.57729965425E-02  0.21926913885E-01 -0.27046083737E-01  0.35296866831E-01  0.51100000000E-03 0. -1.
         11    1    4    4    0    0  0.12669905976E-01  0.81143493834E-01 -0.52088932808E-01  0.97253849030E-01  0.51100000000E-03 0.  1.
</event>
<event>
 7    1  0.1061721E+005  0.1043930E+01  0.7957747E-01            NaN
         13   -1    0    0    0    0  0.00000000000E+00  0.00000000000E+00  0.74505805969E-08  0.10566000000E+00  0.10566000000E+00 0. -1.
     999900   -1    0    0    0    0 -0.00000000000E+00 -0.00000000000E+00 -0.74505805969E-08  0.93827000000E+00  0.93827000000E+00 0.  1.
     999902    2    1    2    0    0  0.15027775361E-01  0.16293528887E-01  0.90982763797E-02  0.10199697882E+01  0.10196883235E+01 0.  0.
         14    1    1    2    0    0 -0.15027775361E-01 -0.16293528887E-01 -0.90982763797E-02  0.23960211789E-01  0.00000000000E+00 0.  1.
     999901    1    3    3    0    0 -0.60686752862E-01 -0.40266694982E-01 -0.61870073734E-01  0.88517353933E+00  0.88000000000E+00 0.  1.
        -11    1    3    3    0    0  0.48195174057E-01  0.60067016759E-01  0.24757192755E-01  0.80894999962E-01  0.51100000000E-03 0. -1.
         11    1    3    3    0    0  0.27519354166E-01 -0.35067928895E-02  0.46211157359E-01  0.53901248924E-01  0.51100000000E-03 0.  1.
</event>
<event>
 8    1  0.1061721E+005  0.1043930E+01  0.7957747E-01            NaN
         13   -1    0    0    0    0  0.00000000000E+00  0.00000000000E+00  0.74505805969E-08  0.10566000000E+00  0.10566000000E+00 0. -1.
     999900   -1    0    0    0    0 -0.00000000000E+00 -0.00000000000E+00 -0.74505805969E-08  0.93827000000E+00  0.93827000000E+00 0.  1.
     999902    2    1    2    0    0 -0.17979443212E-01  0.13547041270E-01 -0.57900949992E-02  0.10206854758E+01  0.10204207625E+01 0.  0.
     999903    2    3    3    0    0  0.12476558359E+00 -0.74970889058E-02  0.22064360078E-01  0.12850003052E+00  0.20068997642E-01 0.  0.
         14    1    1    2    0    0  0.17979443212E-01 -0.13547041270E-01  0.57900949992E-02  0.23244524204E-01  0.00000000000E+00 0. -1.
     999901    1    3    3    0    0 -0.14274502681E+00  0.21044130176E-01 -0.27854455077E-01  0.89218544528E+00  0.88000000000E+00 0.  1.
        -11    1    4    4    0    0  0.64322201159E-02 -0.50217089206E-02  0.23654741323E-02  0.85116158850E-02  0.51100000000E-03 0. -1.
         11    1    4    4    0    0  0.11833336348E+00 -0.24753799852E-02  0.19698885945E-01  0.11998841464E+00  0.51100000000E-03 0.  1.
</event>
<event>
 8    1  0.1061721E+005  0.1043930E+01  0.7957747E-01            NaN
         13   -1    0    0    0    0  0.00000000000E+00  0.00000000000E+00  0.74505805969E-08  0.10566000000E+00  0.10566000000E+00 0.  1.
     999900   -1    0    0    0    0 -0.00000000000E+00 -0.00000000000E+00 -0.74505805969E-08  0.93827000000E+00  0.93827000000E+00 0. -1.
     999902    2    1    2    0    0  0.16428544008E-01  0.10867857315E-01  0.10633069674E-01  0.10215454171E+01  0.10213001369E+01 0.  0.
     999903    2    3    3    0    0  0.27770392497E-01  0.12634199105E+00  0.28644023163E-01  0.13374628017E+00  0.18278238282E-01 0.  0.
         14    1    1    2    0    0 -0.16428544008E-01 -0.10867857315E-01 -0.10633069674E-01  0.22384582898E-01  0.00000000000E+00 0. -1.
     999901    1    3    3    0    0 -0.11341848489E-01 -0.11547413374E+00 -0.18010953489E-01  0.88779913693E+00  0.88000000000E+00 0. -1.
        -11    1    4    4    0    0  0.15321574156E-01  0.72600276948E-01  0.71686585801E-02  0.74546640664E-01  0.51100000000E-03 0.  1.
         11    1    4    4    0    0  0.12448818341E-01  0.53741714103E-01  0.21475364583E-01  0.59199639507E-01  0.51100000000E-03 0. -1.
</event>
<event>
 8    1  0.1061721E+005  0.1043930E+01  0.7957747E-01            NaN
         13   -1    0    0    0    0  0.00000000000E+00  0.00000000000E+00  0.74505805969E-08  0.10566000000E+00  0.10566000000E+00 0. -1.
     999900   -1    0    0    0    0 -0.00000000000E+00 -0.00000000000E+00 -0.74505805969E-08  0.93827000000E+00  0.93827000000E+00 0.  1.
     999902    2    1    2    0    0 -0.11330758703E-01  0.22426792644E-01 -0.24444601476E-02  0.10186847528E+01  0.10183718884E+01 0.  0.
     999903    2    3    3    0    0  0.73209286031E-01 -0.95767632754E-01 -0.31929938811E-01  0.12627994845E+00  0.19901390516E-01 0.  0.
         14    1    1    2    0    0  0.11330758703E-01 -0.22426792644E-01  0.24444601476E-02  0.25245247206E-01  0.00000000000E+00 0. -1.
     999901    1    3    3    0    0 -0.84540044734E-01  0.11819442540E+00  0.29485478664E-01  0.89240480434E+00  0.88000000000E+00 0. -1.
        -11    1    4    4    0    0  0.41815144798E-01 -0.45337398166E-01 -0.24680947701E-01  0.66433397530E-01  0.51100000000E-03 0. -1.
         11    1    4    4    0    0  0.31394141232E-01 -0.50430234588E-01 -0.72489911107E-02  0.59846550923E-01  0.51100000000E-03 0.  1.
</event>
<event>
 8    1  0.1061721E+005  0.1043930E+01  0.7957747E-01            NaN
         13   -1    0    0    0    0  0.00000000000E+00  0.00000000000E+00  0.74505805969E-08  0.10566000000E+00  0.10566000000E+00 0. -1.
     999900   -1    0    0    0    0 -0.00000000000E+00 -0.00000000000E+00 -0.74505805969E-08  0.93827000000E+00  0.93827000000E+00 0. -1.
     999902    2    1    2    0    0 -0.21493919234E-01 -0.64412033117E-02  0.76542462211E-02  0.10202220868E+01  0.10199465874E+01 0.  0.
     999903    2    3    3    0    0 -0.64406206822E-01  0.11233391789E+00 -0.47473872067E-02  0.13111984611E+00  0.20070071570E-01 0.  0.
         14    1    1    2    0    0  0.21493919234E-01  0.64412033117E-02 -0.76542462211E-02  0.23707913222E-01  0.00000000000E+00 0.  1.
     999901    1    3    3    0    0  0.42912287588E-01 -0.11877512121E+00  0.12401633428E-01  0.88910224066E+00  0.88000000000E+00 0.  1.
        -11    1    4    4    0    0 -0.77072915277E-02  0.56028931405E-02 -0.37653175956E-02  0.10258337674E-01  0.51100000000E-03 0. -1.
         11    1    4    4    0    0 -0.56698915294E-01  0.10673102475E+00 -0.98206961110E-03  0.12086150844E+00  0.51100000000E-03 0.  1.
</event>
<event>
 8    1  0.1061721E+005  0.1043930E+01  0.7957747E-01            NaN
         13   -1    0    0    0    0  0.00000000000E+00  0.00000000000E+00  0.74505805969E-08  0.10566000000E+00  0.10566000000E+00 0. -1.
     999900   -1    0    0    0    0 -0.00000000000E+00 -0.00000000000E+00 -0.74505805969E-08  0.93827000000E+00  0.93827000000E+00 0.  1.
     999902    2    1    2    0    0 -0.12837240831E-01  0.17570022563E-01  0.12714608834E-01  0.10187275850E+01  0.10184157946E+01 0.  0.
     999903    2    3    3    0    0 -0.52328479565E-01  0.11905331565E+00 -0.40529399180E-02  0.13185692507E+00  0.21397678067E-01 0.  0.
         14    1    1    2    0    0  0.12837240831E-01 -0.17570022563E-01 -0.12714608834E-01  0.25202415019E-01  0.00000000000E+00 0. -1.
     999901    1    3    3    0    0  0.39491238734E-01 -0.10148329309E+00  0.16767548752E-01  0.88687065991E+00  0.88000000000E+00 0. -1.
        -11    1    4    4    0    0 -0.38611842041E-01  0.64877004752E-01  0.27932280036E-02  0.75551064421E-01  0.51100000000E-03 0.  1.
         11    1    4    4    0    0 -0.13716637523E-01  0.54176310900E-01 -0.68461679217E-02  0.56305860653E-01  0.51100000000E-03 0. -1.
</event>
<event>
 8    1  0.1061721E+005  0.1043930E+01  0.7957747E-01            NaN
         13   -1    0    0    0    0  0.00000000000E+00  0.00000000000E+00  0.74505805969E-08  0.10566000000E+00  0.10566000000E+00 0. -1.
     999900   -1    0    0    0    0 -0.00000000000E+00 -0.00000000000E+00 -0.74505805969E-08  0.93827000000E+00  0.93827000000E+00 0. -1.
     999902    2    1    2    0    0  0.34452036724E-02  0.14561180997E-01  0.18312008189E-01  0.10202820178E+01  0.10200079258E+01 0.  0.
     999903    2    3    3    0    0 -0.12256847077E+00  0.32631773668E-01 -0.21492338913E-01  0.13023124476E+00  0.20258178602E-01 0.  0.
         14    1    1    2    0    0 -0.34452036724E-02 -0.14561180997E-01 -0.18312008189E-01  0.23647982245E-01  0.00000000000E+00 0.  1.
     999901    1    3    3    0    0  0.12601367444E+00 -0.18070592672E-01  0.39804347102E-01  0.89005077300E+00  0.88000000000E+00 0. -1.
        -11    1    4    4    0    0 -0.64445836107E-01  0.25451381397E-01 -0.17837975417E-01  0.71550633083E-01  0.51100000000E-03 0.  1.
         11    1    4    4    0    0 -0.58122634660E-01  0.71803922711E-02 -0.36543634963E-02  0.58680611675E-01  0.51100000000E-03 0. -1.
</event>
<event>
 8    1  0.1061721E+005  0.1043930E+01  0.7957747E-01            NaN
         13   -1    0    0    0    0  0.00000000000E+00  0.00000000000E+00  0.74505805969E-08  0.10566000000E+00  0.10566000000E+00 0.  1.
     999900   -1    0    0    0    0 -0.00000000000E+00 -0.00000000000E+00 -0.74505805969E-08  0.93827000000E+00  0.93827000000E+00 0. -1.
     999902    2    1    2    0    0 -0.12706334249E-01 -0.14810464940E-02 -0.20042778462E-01  0.10201527546E+01  0.10198756225E+01 0.  0.
     999903    2    3    3    0    0 -0.69104153977E-02 -0.66074318057E-01  0.10823405929E+00  0.12849091822E+00  0.19538043089E-01 0.  0.
         14    1    1    2    0    0  0.12706334249E-01  0.14810464940E-02  0.20042778462E-01  0.23777245367E-01  0.00000000000E+00 0.  1.
     999901    1    3    3    0    0 -0.57959188510E-02  0.64593271563E-01 -0.12827683775E+00  0.89166183641E+00  0.88000000000E+00 0.  1.
        -11    1    4    4    0    0 -0.10283218585E-01 -0.24557432611E-01  0.32113645546E-01  0.41717615370E-01  0.51100000000E-03 0. -1.
         11    1    4    4    0    0  0.33728031871E-02 -0.41516885447E-01  0.76120413743E-01  0.86773302853E-01  0.51100000000E-03 0.  1.
</event>
<event>
 8    1  0.1061721E+005  0.1043930E+01  0.7957747E-01            NaN
         13   -1    0    0    0    0  0.00000000000E+00  0.00000000000E+00  0.74505805969E-08  0.10566000000E+00  0.10566000000E+00 0.  1.
     999900   -1    0    0    0    0 -0.00000000000E+00 -0.00000000000E+00 -0.74505805969E-08  0.93827000000E+00  0.93827000000E+00 0. -1.
     999902    2    1    2    0    0  0.17245943003E-01 -0.11282444999E-01  0.12095483106E-01  0.10200340416E+01  0.10197541023E+01 0.  0.
     999903    2    3    3    0    0 -0.38236628681E-01  0.14208661182E-01 -0.11970760367E+00  0.12812588159E+00  0.20552501825E-01 0.  0.
         14    1    1    2    0    0 -0.17245943003E-01  0.11282444999E-01 -0.12095483106E-01  0.23895958378E-01  0.00000000000E+00 0.  1.
     999901    1    3    3    0    0  0.55482571684E-01 -0.25491106181E-01  0.13180308677E+00  0.89190816004E+00  0.88000000000E+00 0.  1.
        -11    1    4    4    0    0 -0.14431686762E-01  0.70385534495E-02 -0.21618614663E-01  0.26934001530E-01  0.51100000000E-03 0.  1.
         11    1    4    4    0    0 -0.23804941919E-01  0.71701077321E-02 -0.98088989003E-01  0.10119188006E+00  0.51100000000E-03 0. -1.
</event>
<event>
 8    1  0.1061721E+005  0.1043930E+01  0.7957747E-01            NaN
         13   -1    0    0    0    0  0.00000000000E+00  0.00000000000E+00  0.74505805969E-08  0.10566000000E+00  0.10566000000E+00 0. -1.
     999900   -1    0    0    0    0 -0.00000000000E+00 -0.00000000000E+00 -0.74505805969E-08  0.93827000000E+00  0.93827000000E+00 0. -1.
     999902    2    1    2    0    0  0.25206078308E-01 -0.16826088619E-02  0.98088213887E-03  0.10186487879E+01  0.10183350202E+01 0.  0.
     999903    2    3    3    0    0 -0.95404235945E-01  0.42909445657E-01 -0.68450453292E-01  0.12659721450E+00  0.19954984378E-01 0.  0.
         14    1    1    2    0    0 -0.25206078308E-01  0.16826088619E-02 -0.98088213887E-03  0.25281212116E-01  0.00000000000E+00 0.  1.
     999901    1    3    3    0    0  0.12061031425E+00 -0.44592054519E-01  0.69431335431E-01  0.89205157338E+00  0.88000000000E+00 0. -1.
        -11    1    4    4    0    0 -0.67518316896E-01  0.39120237600E-01 -0.45914605939E-01  0.90540202484E-01  0.51100000000E-03 0.  1.
         11    1    4    4    0    0 -0.27885919049E-01  0.37892080576E-02 -0.22535847354E-01  0.36057012020E-01  0.51100000000E-03 0. -1.
</event>
<event>
 8    1  0.1061721E+005  0.1043930E+01  0.7957747E-01            NaN
         13   -1    0    0    0    0  0.00000000000E+00  0.00000000000E+00  0.74505805969E-08  0.10566000000E+00  0.10566000000E+00 0.  1.
     999900   -1    0    0    0    0 -0.00000000000E+00 -0.00000000000E+00 -0.74505805969E-08  0.93827000000E+00  0.93827000000E+00 0.  1.
     999902    2    1    2    0    0 -0.43522483934E-02  0.17838853602E-01  0.19185799432E-01  0.10173732369E+01  0.10170265688E+01 0.  0.
     999903    2    3    3    0    0  0.21506660243E-01 -0.10287035283E+00 -0.64604190016E-01  0.12481502708E+00  0.18980086676E-01 0.  0.
         14    1    1    2    0    0  0.43522483934E-02 -0.17838853602E-01 -0.19185799432E-01  0.26556763051E-01  0.00000000000E+00 0. -1.
     999901    1    3    3    0    0 -0.25858908636E-01  0.12070920644E+00  0.83789989448E-01  0.89255820987E+00  0.88000000000E+00 0. -1.
        -11    1    4    4    0    0  0.12452898281E-01 -0.84339469192E-01 -0.45215782623E-01  0.96503620960E-01  0.51100000000E-03 0.  1.
         11    1    4    4    0    0  0.90537619617E-02 -0.18530883642E-01 -0.19388407394E-01  0.28311406119E-01  0.51100000000E-03 0. -1.
</event>
<event>
 8    1  0.1061721E+005  0.1043930E+01  0.7957747E-01            NaN
         13   -1    0    0    0    0  0.00000000000E+00  0.00000000000E+00  0.74505805969E-08  0.10566000000E+00  0.10566000000E+00 0. -1.
     999900   -1    0    0    0    0 -0.00000000000E+00 -0.00000000000E+00 -0.74505805969E-08  0.93827000000E+00  0.93827000000E+00 0.  1.
     999902    2    1    2    0    0 -0.19299590038E-01  0.12873964326E-01  0.77229500434E-02  0.10194788837E+01  0.10191856245E+01 0.  0.
     999903    2    3    3    0    0 -0.93220490489E-01 -0.76885701476E-01 -0.44417143094E-01  0.13029966300E+00  0.20091008923E-01 0.  0.
         14    1    1    2    0    0  0.19299590038E-01 -0.12873964326E-01 -0.77229500434E-02  0.24451116344E-01  0.00000000000E+00 0.  1.
     999901    1    3    3    0    0  0.73920900451E-01  0.89759665802E-01  0.52140093137E-01  0.88917922065E+00  0.88000000000E+00 0. -1.
        -11    1    4    4    0    0 -0.45862652463E-01 -0.47879441764E-01 -0.30852939994E-01  0.73129945042E-01  0.51100000000E-03 0. -1.
         11    1    4    4    0    0 -0.47357838026E-01 -0.29006259713E-01 -0.13564203100E-01  0.57169717961E-01  0.51100000000E-03 0.  1.
</event>
<event>
 8    1  0.1061721E+005  0.1043930E+01  0.7957747E-01            NaN
         13   -1    0    0    0    0  0.00000000000E+00  0.00000000000E+00  0.74505805969E-08  0.10566000000E+00  0.10566000000E+00 0. -1.
     999900   -1    0    0    0    0 -0.00000000000E+00 -0.00000000000E+00 -0.74505805969E-08  0.93827000000E+00  0.93827000000E+00 0.  1.
     999902    2    1    2    0    0 -0.14397587221E-01  0.11272610195E-02  0.98045253430E-02  0.10264746297E+01  0.10263262032E+01 0.  0.
     999903    2    3    3    0    0 -0.84608215771E-01 -0.94318678905E-01  0.49625128002E-01  0.13764104561E+00  0.20684311458E-01 0.  0.
         14    1    1    2    0    0  0.14397587221E-01 -0.11272610195E-02 -0.98045253430E-02  0.17455370303E-01  0.00000000000E+00 0.  1.
     999901    1    3    3    0    0  0.70210628550E-01  0.95445939924E-01 -0.39820602659E-01  0.88883358409E+00  0.88000000000E+00 0. -1.
        -11    1    4    4    0    0 -0.25374582364E-01 -0.25646745538E-01  0.24229787807E-01  0.43462267831E-01  0.51100000000E-03 0. -1.
         11    1    4    4    0    0 -0.59233633407E-01 -0.68671933367E-01  0.25395340195E-01  0.94178777777E-01  0.51100000000E-03 0.  1.
</event>
<event>
 8    1  0.1061721E+005  0.1043930E+01  0.7957747E-01            NaN
         13   -1    0    0    0    0  0.00000000000E+00  0.00000000000E+00  0.74505805969E-08  0.10566000000E+00  0.10566000000E+00 0. -1.
     999900   -1    0    0    0    0 -0.00000000000E+00 -0.00000000000E+00 -0.74505805969E-08  0.93827000000E+00  0.93827000000E+00 0.  1.
     999902    2    1    2    0    0 -0.23151423783E-01 -0.95854643856E-03 -0.45478615224E-02  0.10203166504E+01  0.10200433701E+01 0.  0.
     999903    2    3    3    0    0  0.59125568357E-01  0.72820917348E-01  0.85763704711E-01  0.12881842175E+00  0.20977461685E-01 0.  0.
         14    1    1    2    0    0  0.23151423783E-01  0.95854643856E-03  0.45478615224E-02  0.23613349590E-01  0.00000000000E+00 0. -1.
     999901    1    3    3    0    0 -0.82276992140E-01 -0.73779463786E-01 -0.90311566234E-01  0.89149822866E+00  0.88000000000E+00 0.  1.
        -11    1    4    4    0    0  0.14434397463E-01  0.31897094790E-01  0.37877238639E-01  0.51582194739E-01  0.51100000000E-03 0.  1.
         11    1    4    4    0    0  0.44691170894E-01  0.40923822558E-01  0.47886466073E-01  0.77236227008E-01  0.51100000000E-03 0. -1.
</event>
<event>
 8    1  0.1061721E+005  0.1043930E+01  0.7957747E-01            NaN
         13   -1    0    0    0    0  0.00000000000E+00  0.00000000000E+00  0.74505805969E-08  0.10566000000E+00  0.10566000000E+00 0.  1.
     999900   -1    0    0    0    0 -0.00000000000E+00 -0.00000000000E+00 -0.74505805969E-08  0.93827000000E+00  0.93827000000E+00 0.  1.
     999902    2    1    2    0    0  0.14113075499E-01  0.11574561066E-01 -0.16124703373E-01  0.10195752177E+01  0.10192842926E+01 0.  0.
     999903    2    3    3    0    0 -0.15575128539E-01  0.80377699379E-01  0.97797537879E-01  0.12907337131E+00  0.19809532551E-01 0.  0.
         14    1    1    2    0    0 -0.14113075499E-01 -0.11574561066E-01  0.16124703373E-01  0.24354782339E-01  0.00000000000E+00 0.  1.
     999901    1    3    3    0    0  0.29688204038E-01 -0.68803138314E-01 -0.11392224125E+00  0.89050184635E+00  0.88000000000E+00 0.  1.
        -11    1    4    4    0    0 -0.82702428365E-03  0.30055074526E-02  0.12827947025E-01  0.13211146433E-01  0.51100000000E-03 0.  1.
         11    1    4    4    0    0 -0.14748104255E-01  0.77372191927E-01  0.84969590854E-01  0.11586222488E+00  0.51100000000E-03 0. -1.
</event>
<event>
 7    1  0.1735408E+005  0.1043930E+01  0.7957747E-01            NaN
         13   -1    0    0    0    0  0.00000000000E+00  0.00000000000E+00  0.74505805969E-08  0.10566000000E+00  0.10566000000E+00 0.  1.
     999900   -1    0    0    0    0 -0.00000000000E+00 -0.00000000000E+00 -0.74505805969E-08  0.93827000000E+00  0.93827000000E+00 0. -1.
     999903    2    1    2    0    0  0.10311191271E+00  0.13475233819E-01  0.25041485127E-01  0.10853156875E+00  0.18395025651E-01 0.  0.
         14    1    1    2    0    0 -0.42240838417E-01 -0.31850462728E-02  0.29390293969E-01  0.51557951176E-01  0.00000000000E+00 0.  1.
     999901    1    1    2    0    0 -0.60871074291E-01 -0.10290187546E-01 -0.54431779096E-01  0.88384048008E+00  0.88000000000E+00 0. -1.
        -11    1    3    3    0    0  0.55287734009E-01  0.17432951418E-02  0.20820958867E-01  0.59106226905E-01  0.51100000000E-03 0.  1.
         11    1    3    3    0    0  0.47824178699E-01  0.11731938677E-01  0.42205262600E-02  0.49425341843E-01  0.51100000000E-03 0. -1.
</event>
<event>
 8    1  0.1061721E+005  0.1043930E+01  0.7957747E-01            NaN
         13   -1    0    0    0    0  0.00000000000E+00  0.00000000000E+00  0.74505805969E-08  0.10566000000E+00  0.10566000000E+00 0.  1.
     999900   -1    0    0    0    0 -0.00000000000E+00 -0.00000000000E+00 -0.74505805969E-08  0.93827000000E+00  0.93827000000E+00 0. -1.
     999902    2    1    2    0    0 -0.40602281797E-02  0.51916179905E-02 -0.22955513704E-01  0.10200470781E+01  0.10197674478E+01 0.  0.
     999903    2    3    3    0    0  0.10029898534E+00 -0.35118923348E-01 -0.74615637061E-01  0.13146137397E+00  0.20527404010E-01 0.  0.
         14    1    1    2    0    0  0.40602281797E-02 -0.51916179905E-02  0.22955513704E-01  0.23882921924E-01  0.00000000000E+00 0.  1.
     999901    1    3    3    0    0 -0.10435921352E+00  0.40310541339E-01  0.51660123357E-01  0.88858570410E+00  0.88000000000E+00 0.  1.
        -11    1    4    4    0    0  0.55222258485E-01 -0.18116762681E-01 -0.52992302644E-01  0.78652146714E-01  0.51100000000E-03 0.  1.
         11    1    4    4    0    0  0.45076726856E-01 -0.17002160667E-01 -0.21623334417E-01  0.52809227260E-01  0.51100000000E-03 0. -1.
</event>
<event>
 8    1  0.1061721E+005  0.1043930E+01  0.7957747E-01            NaN
         13   -1    0    0    0    0  0.00000000000E+00  0.00000000000E+00  0.74505805969E-08  0.10566000000E+00  0.10566000000E+00 0.  1.
     999900   -1    0    0    0    0 -0.00000000000E+00 -0.00000000000E+00 -0.74505805969E-08  0.93827000000E+00  0.93827000000E+00 0.  1.
     999902    2    1    2    0    0  0.11512265421E-01  0.15003610342E-01 -0.14239078368E-01  0.10202574013E+01  0.10199827317E+01 0.  0.
     999903    2    3    3    0    0 -0.58334687643E-01  0.11311784270E+00  0.23965763456E-01  0.13123287438E+00  0.21192625647E-01 0.  0.
         14    1    1    2    0    0 -0.11512265421E-01 -0.15003610342E-01  0.14239078368E-01  0.23672598743E-01  0.00000000000E+00 0.  1.
     999901    1    3    3    0    0  0.69846953065E-01 -0.98114232356E-01 -0.38204841825E-01  0.88902452687E+00  0.88000000000E+00 0.  1.
        -11    1    4    4    0    0 -0.43101500722E-01  0.61291681145E-01  0.16115694558E-01  0.76644544973E-01  0.51100000000E-03 0.  1.
         11    1    4    4    0    0 -0.15233186921E-01  0.51826161554E-01  0.78500688978E-02  0.54588329411E-01  0.51100000000E-03 0. -1.
</event>
<event>
 8    1  0.1061721E+005  0.1043930E+01  0.7957747E-01            NaN
         13   -1    0    0    0    0  0.00000000000E+00  0.00000000000E+00  0.74505805969E-08  0.10566000000E+00  0.10566000000E+00 0.  1.
     999900   -1    0    0    0    0 -0.00000000000E+00 -0.00000000000E+00 -0.74505805969E-08  0.93827000000E+00  0.93827000000E+00 0. -1.
     999902    2    1    2    0    0 -0.16199774741E-01 -0.12589256257E-01  0.10504672116E-01  0.10208807004E+01  0.10206204653E+01 0.  0.
     999903    2    3    3    0    0 -0.57653158424E-01  0.65721305587E-01 -0.94443101090E-01  0.13022646773E+00  0.19906201780E-01 0.  0.
         14    1    1    2    0    0  0.16199774741E-01  0.12589256257E-01 -0.10504672116E-01  0.23049299577E-01  0.00000000000E+00 0. -1.
     999901    1    3    3    0    0  0.41453383683E-01 -0.78310561844E-01  0.10494777321E+00  0.89065423269E+00  0.88000000000E+00 0.  1.
        -11    1    4    4    0    0 -0.24862589308E-01  0.38799408986E-01 -0.38741948527E-01  0.60205831790E-01  0.51100000000E-03 0. -1.
         11    1    4    4    0    0 -0.32790569115E-01  0.26921896601E-01 -0.55701152562E-01  0.70020635939E-01  0.51100000000E-03 0.  1.
</event>
<event>
 8    1  0.1061721E+005  0.1043930E+01  0.7957747E-01            NaN
         13   -1    0    0    0    0  0.00000000000E+00  0.00000000000E+00  0.74505805969E-08  0.10566000000E+00  0.10566000000E+00 0.  1.
     999900   -1    0    0    0    0 -0.00000000000E+00 -0.00000000000E+00 -0.74505805969E-08  0.93827000000E+00  0.93827000000E+00 0.  1.
     999902    2    1    2    0    0 -0.18729218612E-01 -0.28893244739E-02 -0.12676749848E-01  0.10211301796E+01  0.10208756103E+01 0.  0.
     999903    2    3    3    0    0 -0.40046297150E-01 -0.17708888204E-02 -0.12583992305E+00  0.13362718096E+00  0.20339500886E-01 0.  0.
         14    1    1    2    0    0  0.18729218612E-01  0.28893244739E-02  0.12676749848E-01  0.22799820448E-01  0.00000000000E+00 0. -1.
     999901    1    3    3    0    0  0.21317078538E-01 -0.11184356534E-02  0.11316317320E+00  0.88750299859E+00  0.88000000000E+00 0. -1.
        -11    1    4    4    0    0 -0.14401091276E-01  0.16609287726E-02 -0.77002527926E-01  0.78356879355E-01  0.51100000000E-03 0. -1.
         11    1    4    4    0    0 -0.25645205874E-01 -0.34318175930E-02 -0.48837395125E-01  0.55270301608E-01  0.51100000000E-03 0.  1.
</event>
<event>
 8    1  0.1061721E+005  0.1043930E+01  0.7957747E-01            NaN
         13   -1    0    0    0    0  0.00000000000E+00  0.00000000000E+00  0.74505805969E-08  0.10566000000E+00  0.10566000000E+00 0. -1.
     999900   -1    0    0    0    0 -0.00000000000E+00 -0.00000000000E+00 -0.74505805969E-08  0.93827000000E+00  0.93827000000E+00 0. -1.
     999902    2    1    2    0    0 -0.18374888719E-01 -0.51212553915E-02 -0.14007477681E-01  0.10202641338E+01  0.10199896222E+01 0.  0.
     999903    2    3    3    0    0 -0.61428659538E-01 -0.96813444596E-02 -0.11507727633E+00  0.13342168680E+00  0.26293693904E-01 0.  0.
         14    1    1    2    0    0  0.18374888719E-01  0.51212553915E-02  0.14007477681E-01  0.23665866205E-01  0.00000000000E+00 0. -1.
     999901    1    3    3    0    0  0.43053770818E-01  0.45600890681E-02  0.10106979864E+00  0.88684244699E+00  0.88000000000E+00 0.  1.
        -11    1    4    4    0    0 -0.47379659703E-01  0.44404712930E-02 -0.80829582544E-01  0.93798893779E-01  0.51100000000E-03 0.  1.
         11    1    4    4    0    0 -0.14048999834E-01 -0.14121815753E-01 -0.34247693781E-01  0.39622793021E-01  0.51100000000E-03 0. -1.
</event>
<event>
 8    1  0.1061721E+005  0.1043930E+01  0.7957747E-01            NaN
         13   -1    0    0    0    0  0.00000000000E+00  0.00000000000E+00  0.74505805969E-08  0.10566000000E+00  0.10566000000E+00 0. -1.
     999900   -1    0    0    0    0 -0.00000000000E+00 -0.00000000000E+00 -0.74505805969E-08  0.93827000000E+00  0.93827000000E+00 0.  1.
     999902    2    1    2    0    0 -0.11253341416E-01 -0.15687534367E-01  0.14056399403E-01  0.10200486518E+01  0.10197690588E+01 0.  0.
     999903    2    3    3    0    0 -0.47543090429E-01  0.53853955483E-01 -0.10535106722E+00  0.12852685859E+00  0.16115583948E-01 0.  0.
         14    1    1    2    0    0  0.11253341416E-01  0.15687534367E-01 -0.14056399403E-01  0.23881348197E-01  0.00000000000E+00 0.  1.
     999901    1    3    3    0    0  0.36289749013E-01 -0.69541489850E-01  0.11940746662E+00  0.89152179322E+00  0.88000000000E+00 0.  1.
        -11    1    4    4    0    0 -0.17505240227E-01  0.15349445226E-01 -0.46860899853E-01  0.52328232917E-01  0.51100000000E-03 0. -1.
         11    1    4    4    0    0 -0.30037850203E-01  0.38504510257E-01 -0.58490167363E-01  0.76198625671E-01  0.51100000000E-03 0.  1.
</event>
<event>
 8    1  0.1061721E+005  0.1043930E+01  0.7957747E-01            NaN
         13   -1    0    0    0    0  0.00000000000E+00  0.00000000000E+00  0.74505805969E-08  0.10566000000E+00  0.10566000000E+00 0.  1.
     999900   -1    0    0    0    0 -0.00000000000E+00 -0.00000000000E+00 -0.74505805969E-08  0.93827000000E+00  0.93827000000E+00 0.  1.
     999902    2    1    2    0    0 -0.10207569446E-01 -0.15266420334E-01 -0.12182957786E-01  0.10218917940E+01  0.10216541274E+01 0.  0.
     999903    2    3    3    0    0  0.62575263363E-02 -0.12843558533E+00 -0.32893053010E-01  0.13425038704E+00  0.20158305209E-01 0.  0.
         14    1    1    2    0    0  0.10207569446E-01  0.15266420334E-01  0.12182957786E-01  0.22038206012E-01  0.00000000000E+00 0.  1.
     999901    1    3    3    0    0 -0.16465095782E-01  0.11316916500E+00  0.20710095224E-01  0.88764140695E+00  0.88000000000E+00 0. -1.
        -11    1    4    4    0    0  0.85368051657E-02 -0.36252252555E-01 -0.32447552478E-02  0.37388399476E-01  0.51100000000E-03 0.  1.
         11    1    4    4    0    0 -0.22792788294E-02 -0.92183332776E-01 -0.29648297762E-01  0.96861987564E-01  0.51100000000E-03 0. -1.
</event>
<event>
 8    1  0.1061721E+005  0.1043930E+01  0.7957747E-01            NaN
         13   -1    0    0    0    0  0.00000000000E+00  0.00000000000E+00  0.74505805969E-08  0.10566000000E+00  0.10566000000E+00 0.  1.
     999900   -1    0    0    0    0 -0.00000000000E+00 -0.00000000000E+00 -0.74505805969E-08  0.93827000000E+00  0.93827000000E+00 0.  1.
     999902    2    1    2    0    0 -0.18019209299E-01 -0.86321885692E-02 -0.10322773322E-01  0.10214407530E+01  0.10211931480E+01 0.  0.
     999903    2    3    3    0    0 -0.68785173819E-01 -0.28966194296E-01 -0.10947878084E+00  0.13418511406E+00  0.21203792851E-01 0.  0.
         14    1    1    2    0    0  0.18019209299E-01  0.86321885692E-02  0.10322773322E-01  0.22489247038E-01  0.00000000000E+00 0.  1.
     999901    1    3    3    0    0  0.50765964520E-01  0.20334005727E-01  0.99156007516E-01  0.88725563891E+00  0.88000000000E+00 0. -1.
        -11    1    4    4    0    0 -0.60956157951E-02 -0.17223070418E-02 -0.17351635525E-02  0.65874719750E-02  0.51100000000E-03 0.  1.
         11    1    4    4    0    0 -0.62689558024E-01 -0.27243887255E-01 -0.10774361729E+00  0.12759764208E+00  0.51100000000E-03 0. -1.
</event>
<event>
 8    1  0.1061721E+005  0.1043930E+01  0.7957747E-01            NaN
         13   -1    0    0    0    0  0.00000000000E+00  0.00000000000E+00  0.74505805969E-08  0.10566000000E+00  0.10566000000E+00 0. -1.
     999900   -1    0    0    0    0 -0.00000000000E+00 -0.00000000000E+00 -0.74505805969E-08  0.93827000000E+00  0.93827000000E+00 0. -1.
     999902    2    1    2    0    0 -0.23823460069E-01  0.30668211831E-02 -0.20116061365E-03  0.10199091110E+01  0.10196262019E+01 0.  0.
     999903    2    3    3    0    0  0.16794122722E-01  0.12331786285E+00 -0.32895894035E-01  0.13020182958E+00  0.19520213254E-01 0.  0.
         14    1    1    2    0    0  0.23823460069E-01 -0.30668211831E-02  0.20116061365E-03  0.24020888981E-01  0.00000000000E+00 0. -1.
     999901    1    3    3    0    0 -0.40617582791E-01 -0.12025104167E+00  0.32694733421E-01  0.88970728144E+00  0.88000000000E+00 0.  1.
        -11    1    4    4    0    0  0.61678811007E-02  0.10095838305E+00 -0.28121754295E-01  0.10498443718E+00  0.51100000000E-03 0. -1.
         11    1    4    4    0    0  0.10626241621E-01  0.22359479801E-01 -0.47741397395E-02  0.25217392396E-01  0.51100000000E-03 0.  1.
</event>
<event>
 8    1  0.1061721E+005  0.1043930E+01  0.7957747E-01            NaN
         13   -1    0    0    0    0  0.00000000000E+00  0.00000000000E+00  0.74505805969E-08  0.10566000000E+00  0.10566000000E+00 0.  1.
     999900   -1    0    0    0    0 -0.00000000000E+00 -0.00000000000E+00 -0.74505805969E-08  0.93827000000E+00  0.93827000000E+00 0.  1.
     999902    2    1    2    0    0  0.13221450745E-01  0.18079277091E-01 -0.61928204865E-02  0.10206917116E+01  0.10204271420E+01 0.  0.
     999903    2    3    3    0    0 -0.72581223916E-01  0.10554798482E+00  0.23208886828E-01  0.13171627093E+00  0.20052741325E-01 0.  0.
         14    1    1    2    0    0 -0.13221450745E-01 -0.18079277091E-01  0.61928204865E-02  0.23238288352E-01  0.00000000000E+00 0.  1.
     999901    1    3    3    0    0  0.85802674661E-01 -0.87468707729E-01 -0.29401707314E-01  0.88897544072E+00  0.88000000000E+00 0. -1.
        -11    1    4    4    0    0 -0.10560320704E-01  0.30578781105E-01  0.56009011673E-02  0.32836160588E-01  0.51100000000E-03 0. -1.
         11    1    4    4    0    0 -0.62020903212E-01  0.74969203715E-01  0.17607985660E-01  0.98880110340E-01  0.51100000000E-03 0.  1.
</event>
<event>
 8    1  0.1061721E+005  0.1043930E+01  0.7957747E-01            NaN
         13   -1    0    0    0    0  0.00000000000E+00  0.00000000000E+00  0.74505805969E-08  0.10566000000E+00  0.10566000000E+00 0. -1.
     999900   -1    0    0    0    0 -0.00000000000E+00 -0.00000000000E+00 -0.74505805969E-08  0.93827000000E+00  0.93827000000E+00 0.  1.
     999902    2    1    2    0    0 -0.12045682361E-02  0.12675761344E-01 -0.19065000411E-01  0.10210040289E+01  0.10207466027E+01 0.  0.
     999903    2    3    3    0    0 -0.86151027586E-01  0.52123008367E-01 -0.85554923884E-01  0.13353972191E+00  0.19349541899E-01 0.  0.
         14    1    1    2    0    0  0.12045682361E-02 -0.12675761344E-01  0.19065000411E-01  0.22925971102E-01  0.00000000000E+00 0. -1.
     999901    1    3    3    0    0  0.84946459350E-01 -0.39447247024E-01  0.66489923473E-01  0.88746430699E+00  0.88000000000E+00 0.  1.
        -11    1    4    4    0    0 -0.53315946529E-01  0.22440637770E-01 -0.54404730515E-01  0.79412267322E-01  0.51100000000E-03 0. -1.
         11    1    4    4    0    0 -0.32835081057E-01  0.29682370597E-01 -0.31150193369E-01  0.54127454588E-01  0.51100000000E-03 0.  1.
</event>
<event>
 8    1  0.1061721E+005  0.1043930E+01  0.7957747E-01            NaN
         13   -1    0    0    0    0  0.00000000000E+00  0.00000000000E+00  0.74505805969E-08  0.10566000000E+00  0.10566000000E+00 0. -1.
     999900   -1    0    0    0    0 -0.00000000000E+00 -0.00000000000E+00 -0.74505805969E-08  0.93827000000E+00  0.93827000000E+00 0. -1.
     999902    2    1    2    0    0 -0.11927345929E-01 -0.20985885774E-01 -0.40241038906E-02  0.10194583349E+01  0.10191645766E+01 0.  0.
     999903    2    3    3    0    0  0.14362694132E-02  0.37332230299E-01  0.12136484320E+00  0.12855880240E+00  0.20054481319E-01 0.  0.
         14    1    1    2    0    0  0.11927345929E-01  0.20985885774E-01  0.40241038906E-02  0.24471665141E-01  0.00000000000E+00 0. -1.
     999901    1    3    3    0    0 -0.13363615343E-01 -0.58318116073E-01 -0.12538894709E+00  0.89089953246E+00  0.88000000000E+00 0. -1.
        -11    1    4    4    0    0  0.84884512781E-02  0.11443325706E-01  0.58363088461E-01  0.60079237046E-01  0.51100000000E-03 0.  1.
         11    1    4    4    0    0 -0.70521818650E-02  0.25888904592E-01  0.63001754741E-01  0.68479565357E-01  0.51100000000E-03 0. -1.
</event>
<event>
 8    1  0.1061721E+005  0.1043930E+01  0.7957747E-01            NaN
         13   -1    0    0    0    0  0.00000000000E+00  0.00000000000E+00  0.74505805969E-08  0.10566000000E+00  0.10566000000E+00 0.  1.
     999900   -1    0    0    0    0 -0.00000000000E+00 -0.00000000000E+00 -0.74505805969E-08  0.93827000000E+00  0.93827000000E+00 0.  1.
     999902    2    1    2    0    0 -0.11069015709E-02 -0.23769676257E-01  0.27632427865E-02  0.10199746613E+01  0.10196933125E+01 0.  0.
     999903    2    3    3    0    0 -0.43288494845E-02  0.11941273255E+00  0.40084355942E-01  0.12761573767E+00  0.20022019809E-01 0.  0.
         14    1    1    2    0    0  0.11069015709E-02  0.23769676257E-01 -0.27632427865E-02  0.23955338677E-01  0.00000000000E+00 0.  1.
     999901    1    3    3    0    0  0.32219479136E-02 -0.14318240880E+00 -0.37321113155E-01  0.89235892365E+00  0.88000000000E+00 0. -1.
        -11    1    4    4    0    0 -0.10118038809E-01  0.50090764879E-01  0.11352921797E-01  0.52350829887E-01  0.51100000000E-03 0.  1.
         11    1    4    4    0    0  0.57891893244E-02  0.69321967668E-01  0.28731434144E-01  0.75264907781E-01  0.51100000000E-03 0. -1.
</event>
<event>
 7    1  0.1061721E+005  0.1043930E+01  0.7957747E-01            NaN
         13   -1    0    0    0    0  0.00000000000E+00  0.00000000000E+00  0.74505805969E-08  0.10566000000E+00  0.10566000000E+00 0. -1.
     999900   -1    0    0    0    0 -0.00000000000E+00 -0.00000000000E+00 -0.74505805969E-08  0.93827000000E+00  0.93827000000E+00 0. -1.
     999903    2    1    2    0    0 -0.86273674621E-01  0.11565595362E-01  0.44905105667E-01  0.99889645446E-01  0.19610273425E-01 0.  0.
         14    1    1    2    0    0  0.49695252122E-01 -0.32964264421E-01 -0.19187788256E-01  0.62645287376E-01  0.00000000000E+00 0. -1.
     999901    1    1    2    0    0  0.36578422498E-01  0.21398669059E-01 -0.25717317412E-01  0.88139506718E+00  0.88000000000E+00 0.  1.
        -11    1    3    3    0    0 -0.71525968735E-01  0.16601626487E-01  0.39553739834E-01  0.83404662108E-01  0.51100000000E-03 0. -1.
         11    1    3    3    0    0 -0.14747705886E-01 -0.50360311253E-02  0.53513658333E-02  0.16484983338E-01  0.51100000000E-03 0.  1.
</event>
<event>
 8    1  0.1061721E+005  0.1043930E+01  0.7957747E-01            NaN
         13   -1    0    0    0    0  0.00000000000E+00  0.00000000000E+00  0.74505805969E-08  0.10566000000E+00  0.10566000000E+00 0. -1.
     999900   -1    0    0    0    0 -0.00000000000E+00 -0.00000000000E+00 -0.74505805969E-08  0.93827000000E+00  0.93827000000E+00 0.  1.
     999902    2    1    2    0    0  0.10023633889E-01 -0.51764641263E-02  0.22448048534E-01  0.10188066264E+01  0.10184968130E+01 0.  0.
     999903    2    3    3    0    0 -0.10904173672E+00  0.62460535266E-01 -0.96368887705E-02  0.12763842155E+00  0.20181135232E-01 0.  0.
         14    1    1    2    0    0 -0.10023633889E-01  0.51764641263E-02 -0.22448048534E-01  0.25123373582E-01  0.00000000000E+00 0.  1.
     999901    1    3    3    0    0  0.11906537060E+00 -0.67636999392E-01  0.32084937304E-01  0.89116820487E+00  0.88000000000E+00 0. -1.
        -11    1    4    4    0    0 -0.84743977244E-01  0.39722880136E-01 -0.26453210070E-02  0.93630698650E-01  0.51100000000E-03 0.  1.
         11    1    4    4    0    0 -0.24297759471E-01  0.22737655130E-01 -0.69915677635E-02  0.34007722901E-01  0.51100000000E-03 0. -1.
</event>
<event>
 8    1  0.1061721E+005  0.1043930E+01  0.7957747E-01            NaN
         13   -1    0    0    0    0  0.00000000000E+00  0.00000000000E+00  0.74505805969E-08  0.10566000000E+00  0.10566000000E+00 0.  1.
     999900   -1    0    0    0    0 -0.00000000000E+00 -0.00000000000E+00 -0.74505805969E-08  0.93827000000E+00  0.93827000000E+00 0.  1.
     999902    2    1    2    0    0  0.18575035249E-01  0.18908237442E-02  0.15864980187E-01  0.10194288828E+01  0.10191344084E+01 0.  0.
     999903    2    3    3    0    0  0.11623874673E+00 -0.58263900268E-01  0.93594667873E-02  0.13196107318E+00  0.20493825930E-01 0.  0.
         14    1    1    2    0    0 -0.18575035249E-01 -0.18908237442E-02 -0.15864980187E-01  0.24501117225E-01  0.00000000000E+00 0. -1.
     999901    1    3    3    0    0 -0.97663711480E-01  0.60154724012E-01  0.65055133995E-02  0.88746780959E+00  0.88000000000E+00 0.  1.
        -11    1    4    4    0    0  0.60947281040E-02 -0.19955225108E-02  0.50873647908E-02  0.82018426141E-02  0.51100000000E-03 0.  1.
         11    1    4    4    0    0  0.11014401862E+00 -0.56268377757E-01  0.42721019965E-02  0.12375923057E+00  0.51100000000E-03 0. -1.
</event>
<event>
 8    1  0.1061721E+005  0.1043930E+01  0.7957747E-01            NaN
         13   -1    0    0    0    0  0.00000000000E+00  0.00000000000E+00  0.74505805969E-08  0.10566000000E+00  0.10566000000E+00 0. -1.
     999900   -1    0    0    0    0 -0.00000000000E+00 -0.00000000000E+00 -0.74505805969E-08  0.93827000000E+00  0.93827000000E+00 0. -1.
     999902    2    1    2    0    0 -0.75419933347E-02  0.13812058605E-01 -0.19947781109E-01  0.10185219580E+01  0.10182049943E+01 0.  0.
     999903    2    3    3    0    0 -0.94225014498E-01  0.11634777495E-01 -0.88807547325E-01  0.13158320358E+00  0.20338082467E-01 0.  0.
         14    1    1    2    0    0  0.75419933347E-02 -0.13812058605E-01  0.19947781109E-01  0.25408041985E-01  0.00000000000E+00 0. -1.
     999901    1    3    3    0    0  0.86683021163E-01  0.21772811096E-02  0.68859766217E-01  0.88693875443E+00  0.88000000000E+00 0.  1.
        -11    1    4    4    0    0 -0.56694288792E-01  0.11878836148E-01 -0.65317016760E-01  0.87303624949E-01  0.51100000000E-03 0.  1.
         11    1    4    4    0    0 -0.37530725706E-01 -0.24405865264E-03 -0.23490530566E-01  0.44279578633E-01  0.51100000000E-03 0. -1.
</event>
<event>
 8    1  0.1061721E+005  0.1043930E+01  0.7957747E-01            NaN
         13   -1    0    0    0    0  0.00000000000E+00  0.00000000000E+00  0.74505805969E-08  0.10566000000E+00  0.10566000000E+00 0.  1.
     999900   -1    0    0    0    0 -0.00000000000E+00 -0.00000000000E+00 -0.74505805969E-08  0.93827000000E+00  0.93827000000E+00 0.  1.
     999902    2    1    2    0    0 -0.32075438827E-02 -0.21197561691E-02  0.22413804331E-01  0.10211888406E+01  0.10209355944E+01 0.  0.
     999903    2    3    3    0    0  0.86382241017E-01  0.71988532144E-01  0.66859103854E-01  0.13242916976E+00  0.20569514119E-01 0.  0.
         14    1    1    2    0    0  0.32075438827E-02  0.21197561691E-02 -0.22413804331E-01  0.22741159350E-01  0.00000000000E+00 0. -1.
     999901    1    3    3    0    0 -0.89589784900E-01 -0.74108288313E-01 -0.44445299523E-01  0.88875967089E+00  0.88000000000E+00 0. -1.
        -11    1    4    4    0    0  0.84542747481E-01  0.64065439675E-01  0.63374991712E-01  0.12356580194E+00  0.51100000000E-03 0. -1.
         11    1    4    4    0    0  0.18394935362E-02  0.79230924682E-02  0.34841121427E-02  0.88633678223E-02  0.51100000000E-03 0.  1.
</event>
<event>
 8    1  0.1107996E+005  0.1043930E+01  0.7957747E-01            NaN
         13   -1    0    0    0    0  0.00000000000E+00  0.00000000000E+00  0.74505805969E-08  0.10566000000E+00  0.10566000000E+00 0. -1.
     999900   -1    0    0    0    0 -0.00000000000E+00 -0.00000000000E+00 -0.74505805969E-08  0.93827000000E+00  0.93827000000E+00 0.  1.
     999902    2    1    2    0    0 -0.13109810720E-01  0.19614058843E-01 -0.28082015187E-02  0.10201715397E+01  0.10198948504E+01 0.  0.
     999903    2    3    3    0    0 -0.10593119399E+00  0.53952296783E-01  0.55493709105E-01  0.13270659019E+00  0.19980469002E-01 0.  0.
         14    1    1    2    0    0  0.13109810720E-01 -0.19614058843E-01  0.28082015187E-02  0.23758460329E-01  0.00000000000E+00 0. -1.
     999901    1    3    3    0    0  0.92821383268E-01 -0.34338237940E-01 -0.58301910623E-01  0.88746494948E+00  0.88000000000E+00 0.  1.
        -11    1    4    4    0    0 -0.33186373752E-01  0.20068727933E-01  0.28152923926E-01  0.47926375726E-01  0.51100000000E-03 0.  1.
         11    1    4    4    0    0 -0.72744820237E-01  0.33883568851E-01  0.27340785178E-01  0.84780214463E-01  0.51100000000E-03 0. -1.
</event>
<event>
 8    1  0.1061721E+005  0.1043930E+01  0.7957747E-01            NaN
         13   -1    0    0    0    0  0.00000000000E+00  0.00000000000E+00  0.74505805969E-08  0.10566000000E+00  0.10566000000E+00 0. -1.
     999900   -1    0    0    0    0 -0.00000000000E+00 -0.00000000000E+00 -0.74505805969E-08  0.93827000000E+00  0.93827000000E+00 0. -1.
     999902    2    1    2    0    0 -0.27638998371E-02  0.22292698122E-01 -0.76212786562E-02  0.10202089667E+01  0.10199331588E+01 0.  0.
     999903    2    3    3    0    0  0.75016658813E-01  0.67469846323E-01 -0.83290754095E-01  0.13239329917E+00  0.20272066613E-01 0.  0.
         14    1    1    2    0    0  0.27638998371E-02 -0.22292698122E-01  0.76212786562E-02  0.23721033288E-01  0.00000000000E+00 0. -1.
     999901    1    3    3    0    0 -0.77780558650E-01 -0.45177148200E-01  0.75669475439E-01  0.88781566754E+00  0.88000000000E+00 0.  1.
        -11    1    4    4    0    0  0.53756554589E-01  0.55506802394E-01 -0.54000737117E-01  0.94271485633E-01  0.51100000000E-03 0. -1.
         11    1    4    4    0    0  0.21260104224E-01  0.11963043929E-01 -0.29290016979E-01  0.38121813536E-01  0.51100000000E-03 0.  1.
</event>
<event>
 8    1  0.1061721E+005  0.1043930E+01  0.7957747E-01            NaN
         13   -1    0    0    0    0  0.00000000000E+00  0.00000000000E+00  0.74505805969E-08  0.10566000000E+00  0.10566000000E+00 0. -1.
     999900   -1    0    0    0    0 -0.00000000000E+00 -0.00000000000E+00 -0.74505805969E-08  0.93827000000E+00  0.93827000000E+00 0.  1.
     999902    2    1    2    0    0 -0.97447453454E-02 -0.10255173103E-01  0.19032046972E-01  0.10202161338E+01  0.10199404945E+01 0.  0.
     999903    2    3    3    0    0 -0.53306797003E-01  0.92006293655E-01  0.74779444844E-01  0.13147385830E+00  0.19663096559E-01 0.  0.
         14    1    1    2    0    0  0.97447453454E-02  0.10255173103E-01 -0.19032046972E-01  0.23713866179E-01  0.00000000000E+00 0.  1.
     999901    1    3    3    0    0  0.43562051657E-01 -0.10226146676E+00 -0.55747397872E-01  0.88874227552E+00  0.88000000000E+00 0.  1.
        -11    1    4    4    0    0 -0.50637738845E-01  0.79037951563E-01  0.59009072033E-01  0.11087610241E+00  0.51100000000E-03 0. -1.
         11    1    4    4    0    0 -0.26690581574E-02  0.12968342092E-01  0.15770372811E-01  0.20597755889E-01  0.51100000000E-03 0.  1.
</event>
<event>
 8    1  0.1061721E+005  0.1043930E+01  0.7957747E-01            NaN
         13   -1    0    0    0    0  0.00000000000E+00  0.00000000000E+00  0.74505805969E-08  0.10566000000E+00  0.10566000000E+00 0. -1.
     999900   -1    0    0    0    0 -0.00000000000E+00 -0.00000000000E+00 -0.74505805969E-08  0.93827000000E+00  0.93827000000E+00 0. -1.
     999902    2    1    2    0    0 -0.45739782186E-02  0.17659104853E-01 -0.16106524193E-01  0.10195951406E+01  0.10193046970E+01 0.  0.
     999903    2    3    3    0    0 -0.12220548684E+00  0.38575794833E-01  0.16538000268E-01  0.13092177837E+00  0.21088708784E-01 0.  0.
         14    1    1    2    0    0  0.45739782186E-02 -0.17659104853E-01  0.16106524193E-01  0.24334859411E-01  0.00000000000E+00 0. -1.
     999901    1    3    3    0    0  0.11763150862E+00 -0.20916689980E-01 -0.32644524461E-01  0.88867336222E+00  0.88000000000E+00 0.  1.
        -11    1    4    4    0    0 -0.46576987373E-01  0.22253637793E-01  0.14092474875E-01  0.53511672716E-01  0.51100000000E-03 0. -1.
         11    1    4    4    0    0 -0.75628499466E-01  0.16322157040E-01  0.24455253936E-02  0.77410105654E-01  0.51100000000E-03 0.  1.
</event>
<event>
 8    1  0.1061721E+005  0.1043930E+01  0.7957747E-01            NaN
         13   -1    0    0    0    0  0.00000000000E+00  0.00000000000E+00  0.74505805969E-08  0.10566000000E+00  0.10566000000E+00 0. -1.
     999900   -1    0    0    0    0 -0.00000000000E+00 -0.00000000000E+00 -0.74505805969E-08  0.93827000000E+00  0.93827000000E+00 0.  1.
     999902    2    1    2    0    0  0.16881754444E-01 -0.39780880505E-02 -0.15391276133E-01  0.10207414209E+01  0.10204779950E+01 0.  0.
     999903    2    3    3    0    0 -0.62858586943E-01  0.91721209019E-01  0.61646573059E-01  0.12863620982E+00  0.19570190871E-01 0.  0.
         14    1    1    2    0    0 -0.16881754444E-01  0.39780880505E-02  0.15391276133E-01  0.23188579057E-01  0.00000000000E+00 0. -1.
     999901    1    3    3    0    0  0.79740341387E-01 -0.95699297069E-01 -0.77037849193E-01  0.89210521112E+00  0.88000000000E+00 0.  1.
        -11    1    4    4    0    0 -0.30208894096E-01  0.51689474118E-01  0.23074382841E-01  0.64164377045E-01  0.51100000000E-03 0.  1.
         11    1    4    4    0    0 -0.32649692847E-01  0.40031734900E-01  0.38572190219E-01  0.64471832775E-01  0.51100000000E-03 0. -1.
</event>
<event>
 8    1  0.1061721E+005  0.1043930E+01  0.7957747E-01            NaN
         13   -1    0    0    0    0  0.00000000000E+00  0.00000000000E+00  0.74505805969E-08  0.10566000000E+00  0.10566000000E+00 0.  1.
     999900   -1    0    0    0    0 -0.00000000000E+00 -0.00000000000E+00 -0.74505805969E-08  0.93827000000E+00  0.93827000000E+00 0. -1.
     999902    2    1    2    0    0  0.39574168564E-02 -0.28018062940E-02  0.24100281810E-01  0.10193467771E+01  0.10190503015E+01 0.  0.
     999903    2    3    3    0    0 -0.48751342016E-01  0.98607907146E-01  0.68040797423E-01  0.13086891456E+00  0.19922599841E-01 0.  0.
         14    1    1    2    0    0 -0.39574168564E-02  0.28018062940E-02 -0.24100281810E-01  0.24583222938E-01  0.00000000000E+00 0. -1.
     999901    1    3    3    0    0  0.52708758873E-01 -0.10140971344E+00 -0.43940515612E-01  0.88847786250E+00  0.88000000000E+00 0. -1.
        -11    1    4    4    0    0 -0.36620468668E-01  0.51941223367E-01  0.37609385758E-01  0.73849011019E-01  0.51100000000E-03 0. -1.
         11    1    4    4    0    0 -0.12130873349E-01  0.46666683779E-01  0.30431411665E-01  0.57019903542E-01  0.51100000000E-03 0.  1.
</event>
<event>
 8    1  0.1061721E+005  0.1043930E+01  0.7957747E-01            NaN
         13   -1    0    0    0    0  0.00000000000E+00  0.00000000000E+00  0.74505805969E-08  0.10566000000E+00  0.10566000000E+00 0. -1.
     999900   -1    0    0    0    0 -0.00000000000E+00 -0.00000000000E+00 -0.74505805969E-08  0.93827000000E+00  0.93827000000E+00 0.  1.
     999902    2    1    2    0    0 -0.41933108146E-02  0.23763462652E-01 -0.27721585761E-02  0.10196406839E+01  0.10193513395E+01 0.  0.
     999903    2    3    3    0    0 -0.17226214385E-01 -0.12358337825E+00 -0.11340415539E-01  0.12725379297E+00  0.22255987053E-01 0.  0.
         14    1    1    2    0    0  0.41933108146E-02 -0.23763462652E-01  0.27721585761E-02  0.24289316087E-01  0.00000000000E+00 0.  1.
     999901    1    3    3    0    0  0.13032903571E-01  0.14734684090E+00  0.85682569630E-02  0.89238689094E+00  0.88000000000E+00 0.  1.
        -11    1    4    4    0    0 -0.63240403986E-03 -0.77787771297E-01 -0.10805690813E-01  0.78538916297E-01  0.51100000000E-03 0. -1.
         11    1    4    4    0    0 -0.16593810346E-01 -0.45795606951E-01 -0.53472472603E-03  0.48714876673E-01  0.51100000000E-03 0.  1.
</event>
<event>
 8    1  0.1061721E+005  0.1043930E+01  0.7957747E-01            NaN
         13   -1    0    0    0    0  0.00000000000E+00  0.00000000000E+00  0.74505805969E-08  0.10566000000E+00  0.10566000000E+00 0. -1.
     999900   -1    0    0    0    0 -0.00000000000E+00 -0.00000000000E+00 -0.74505805969E-08  0.93827000000E+00  0.93827000000E+00 0. -1.
     999902    2    1    2    0    0  0.19356593111E-01  0.40226200247E-02  0.12504327018E-01  0.10205373225E+01  0.10202691847E+01 0.  0.
     999903    2    3    3    0    0 -0.27697152088E-01 -0.11048043854E+00 -0.57521778559E-01  0.12911785844E+00  0.19738460583E-01 0.  0.
         14    1    1    2    0    0 -0.19356593111E-01 -0.40226200247E-02 -0.12504327018E-01  0.23392677548E-01  0.00000000000E+00 0.  1.
     999901    1    3    3    0    0  0.47053745199E-01  0.11450305856E+00  0.70026105577E-01  0.89141946401E+00  0.88000000000E+00 0.  1.
        -11    1    4    4    0    0 -0.40592835221E-02 -0.11069795663E-01  0.11052245571E-03  0.11802181787E-01  0.51100000000E-03 0. -1.
         11    1    4    4    0    0 -0.23637868566E-01 -0.99410642875E-01 -0.57632301015E-01  0.11731567665E+00  0.51100000000E-03 0.  1.
</event>
<event>
 8    1  0.1061721E+005  0.1043930E+01  0.7957747E-01            NaN
         13   -1    0    0    0    0  0.00000000000E+00  0.00000000000E+00  0.74505805969E-08  0.10566000000E+00  0.10566000000E+00 0. -1.
     999900   -1    0    0    0    0 -0.00000000000E+00 -0.00000000000E+00 -0.74505805969E-08  0.93827000000E+00  0.93827000000E+00 0. -1.
     999902    2    1    2    0    0  0.11477406188E-01  0.19925442688E-01 -0.41959649382E-02  0.10205556499E+01  0.10202879370E+01 0.  0.
     999903    2    3    3    0    0 -0.11252082251E+00  0.58452467207E-01 -0.25024503156E-01  0.13078392621E+00  0.20014574123E-01 0.  0.
         14    1    1    2    0    0 -0.11477406188E-01 -0.19925442688E-01  0.41959649382E-02  0.23374350063E-01  0.00000000000E+00 0. -1.
     999901    1    3    3    0    0  0.12399822869E+00 -0.38527024519E-01  0.20828538218E-01  0.88977172373E+00  0.88000000000E+00 0.  1.
        -11    1    4    4    0    0 -0.21570514941E-01  0.75823240997E-02  0.24799290786E-02  0.23004128386E-01  0.51100000000E-03 0. -1.
         11    1    4    4    0    0 -0.90950307564E-01  0.50870143107E-01 -0.27504432235E-01  0.10777979783E+00  0.51100000000E-03 0.  1.
</event>
<event>
 8    1  0.1061721E+005  0.1043930E+01  0.7957747E-01            NaN
         13   -1    0    0    0    0  0.00000000000E+00  0.00000000000E+00  0.74505805969E-08  0.10566000000E+00  0.10566000000E+00 0.  1.
     999900   -1    0    0    0    0 -0.00000000000E+00 -0.00000000000E+00 -0.74505805969E-08  0.93827000000E+00  0.93827000000E+00 0.  1.
     999902    2    1    2    0    0 -0.57048968041E-02 -0.23232256871E-01 -0.63478938810E-03  0.10199991295E+01  0.10197183619E+01 0.  0.
     999903    2    3    3    0    0  0.10826541712E+00 -0.68083254872E-01 -0.21771901782E-01  0.13126541119E+00  0.19996557993E-01 0.  0.
         14    1    1    2    0    0  0.57048968041E-02  0.23232256871E-01  0.63478938810E-03  0.23930870532E-01  0.00000000000E+00 0. -1.
     999901    1    3    3    0    0 -0.11397031392E+00  0.44850998000E-01  0.21137112394E-01  0.88873371827E+00  0.88000000000E+00 0.  1.
        -11    1    4    4    0    0  0.88776547099E-01 -0.52947798479E-01 -0.25069694621E-01  0.10636491615E+00  0.51100000000E-03 0.  1.
         11    1    4    4    0    0  0.19488870016E-01 -0.15135456393E-01  0.32977928387E-02  0.24900495042E-01  0.51100000000E-03 0. -1.
</event>
<event>
 8    1  0.1061721E+005  0.1043930E+01  0.7957747E-01            NaN
         13   -1    0    0    0    0  0.00000000000E+00  0.00000000000E+00  0.74505805969E-08  0.10566000000E+00  0.10566000000E+00 0. -1.
     999900   -1    0    0    0    0 -0.00000000000E+00 -0.00000000000E+00 -0.74505805969E-08  0.93827000000E+00  0.93827000000E+00 0.  1.
     999902    2    1    2    0    0  0.21824402011E-01 -0.18608846771E-02  0.89431449061E-02  0.10202710217E+01  0.10199966718E+01 0.  0.
     999903    2    3    3    0    0 -0.95309203456E-01 -0.48008145097E-01  0.69966531076E-01  0.12921900027E+00  0.20337362205E-01 0.  0.
         14    1    1    2    0    0 -0.21824402011E-01  0.18608846771E-02 -0.89431449061E-02  0.23658978332E-01  0.00000000000E+00 0.  1.
     999901    1    3    3    0    0  0.11713360547E+00  0.46147260420E-01 -0.61023386170E-01  0.89105202140E+00  0.88000000000E+00 0.  1.
        -11    1    4    4    0    0 -0.71571684609E-01 -0.44431401913E-01  0.49793698261E-01  0.97858719699E-01  0.51100000000E-03 0. -1.
         11    1    4    4    0    0 -0.23737518847E-01 -0.35767431844E-02  0.20172832815E-01  0.31360280573E-01  0.51100000000E-03 0.  1.
</event>
<event>
 8    1  0.1061721E+005  0.1043930E+01  0.7957747E-01            NaN
         13   -1    0    0    0    0  0.00000000000E+00  0.00000000000E+00  0.74505805969E-08  0.10566000000E+00  0.10566000000E+00 0. -1.
     999900   -1    0    0    0    0 -0.00000000000E+00 -0.00000000000E+00 -0.74505805969E-08  0.93827000000E+00  0.93827000000E+00 0. -1.
     999902    2    1    2    0    0  0.16444351866E-03 -0.21865092787E-01  0.14322832399E-02  0.10220174292E+01  0.10217824939E+01 0.  0.
     999903    2    3    3    0    0  0.97010196075E-01  0.22138226509E-01 -0.82929898246E-01  0.13160608068E+00  0.23274733770E-01 0.  0.
         14    1    1    2    0    0 -0.16444351866E-03  0.21865092787E-01 -0.14322832399E-02  0.21912570811E-01  0.00000000000E+00 0.  1.
     999901    1    3    3    0    0 -0.96845752557E-01 -0.44003319296E-01  0.84362181486E-01  0.89041134851E+00  0.88000000000E+00 0.  1.
        -11    1    4    4    0    0  0.66042224623E-01  0.24975463873E-01 -0.51549708861E-01  0.87424154749E-01  0.51100000000E-03 0.  1.
         11    1    4    4    0    0  0.30967971452E-01 -0.28372373648E-02 -0.31380189385E-01  0.44181925926E-01  0.51100000000E-03 0. -1.
</event>
<event>
 8    1  0.1061721E+005  0.1043930E+01  0.7957747E-01            NaN
         13   -1    0    0    0    0  0.00000000000E+00  0.00000000000E+00  0.74505805969E-08  0.10566000000E+00  0.10566000000E+00 0. -1.
     999900   -1    0    0    0    0 -0.00000000000E+00 -0.00000000000E+00 -0.74505805969E-08  0.93827000000E+00  0.93827000000E+00 0.  1.
     999902    2    1    2    0    0  0.14963165871E-01  0.10628072371E-01 -0.14892417242E-01  0.10202945109E+01  0.10200207118E+01 0.  0.
     999903    2    3    3    0    0 -0.70749607520E-01  0.29859244026E-01 -0.10468399637E+00  0.13137435407E+00  0.20084829902E-01 0.  0.
         14    1    1    2    0    0 -0.14963165871E-01 -0.10628072371E-01  0.14892417242E-01  0.23635489132E-01  0.00000000000E+00 0. -1.
     999901    1    3    3    0    0  0.85712773391E-01 -0.19231171655E-01  0.89791579128E-01  0.88892015680E+00  0.88000000000E+00 0. -1.
        -11    1    4    4    0    0 -0.59427286391E-01  0.16162305184E-01 -0.82071665725E-01  0.10261014527E+00  0.51100000000E-03 0.  1.
         11    1    4    4    0    0 -0.11322321128E-01  0.13696938842E-01 -0.22612330646E-01  0.28764208795E-01  0.51100000000E-03 0. -1.
</event>
<event>
 8    1  0.1061721E+005  0.1043930E+01  0.7957747E-01            NaN
         13   -1    0    0    0    0  0.00000000000E+00  0.00000000000E+00  0.74505805969E-08  0.10566000000E+00  0.10566000000E+00 0. -1.
     999900   -1    0    0    0    0 -0.00000000000E+00 -0.00000000000E+00 -0.74505805969E-08  0.93827000000E+00  0.93827000000E+00 0.  1.
     999902    2    1    2    0    0  0.10745685055E-01  0.14160007244E-01  0.17149303994E-01  0.10192303202E+01  0.10189309945E+01 0.  0.
     999903    2    3    3    0    0  0.22807384788E-01 -0.12337756820E+00  0.22083090136E-01  0.12845177790E+00  0.16431531881E-01 0.  0.
         14    1    1    2    0    0 -0.10745685055E-01 -0.14160007244E-01 -0.17149303994E-01  0.24699679754E-01  0.00000000000E+00 0.  1.
     999901    1    3    3    0    0 -0.12061699733E-01  0.13753757544E+00 -0.49337861421E-02  0.89077854235E+00  0.88000000000E+00 0. -1.
        -11    1    4    4    0    0  0.66072839617E-02 -0.24074307377E-01 -0.18139581131E-02  0.25035575529E-01  0.51100000000E-03 0.  1.
         11    1    4    4    0    0  0.16200100826E-01 -0.99303260822E-01  0.23897048249E-01  0.10341620237E+00  0.51100000000E-03 0. -1.
</event>
<event>
 8    1  0.1061721E+005  0.1043930E+01  0.7957747E-01            NaN
         13   -1    0    0    0    0  0.00000000000E+00  0.00000000000E+00  0.74505805969E-08  0.10566000000E+00  0.10566000000E+00 0. -1.
     999900   -1    0    0    0    0 -0.00000000000E+00 -0.00000000000E+00 -0.74505805969E-08  0.93827000000E+00  0.93827000000E+00 0. -1.
     999902    2    1    2    0    0 -0.94624561035E-02 -0.21977504110E-01  0.57507573485E-02  0.10193206527E+01  0.10190235390E+01 0.  0.
     999903    2    3    3    0    0 -0.19500719134E-02  0.65534346853E-01 -0.10754519644E+00  0.12772055566E+00  0.21166427707E-01 0.  0.
         14    1    1    2    0    0  0.94624561035E-02  0.21977504110E-01 -0.57507573485E-02  0.24609347259E-01  0.00000000000E+00 0.  1.
     999901    1    3    3    0    0 -0.75123841901E-02 -0.87511850963E-01  0.11329595379E+00  0.89160009708E+00  0.88000000000E+00 0. -1.
        -11    1    4    4    0    0 -0.25786901740E-02  0.26406695287E-01 -0.63374795220E-01  0.68706542550E-01  0.51100000000E-03 0.  1.
         11    1    4    4    0    0  0.62861826061E-03  0.39127651565E-01 -0.44170401221E-01  0.59014013107E-01  0.51100000000E-03 0. -1.
</event>
<event>
 8    1  0.1061721E+005  0.1043930E+01  0.7957747E-01            NaN
         13   -1    0    0    0    0  0.00000000000E+00  0.00000000000E+00  0.74505805969E-08  0.10566000000E+00  0.10566000000E+00 0.  1.
     999900   -1    0    0    0    0 -0.00000000000E+00 -0.00000000000E+00 -0.74505805969E-08  0.93827000000E+00  0.93827000000E+00 0.  1.
     999902    2    1    2    0    0  0.35870569598E-03  0.23588503646E-01  0.17276669423E-02  0.10202755922E+01  0.10200013496E+01 0.  0.
     999903    2    3    3    0    0  0.11362978968E+00 -0.57469935044E-01  0.83402009128E-02  0.12929605567E+00  0.20817985633E-01 0.  0.
         14    1    1    2    0    0 -0.35870569598E-03 -0.23588503646E-01 -0.17276669423E-02  0.23654407773E-01  0.00000000000E+00 0. -1.
     999901    1    3    3    0    0 -0.11327108398E+00  0.81058438690E-01 -0.66125339705E-02  0.89097953655E+00  0.88000000000E+00 0.  1.
        -11    1    4    4    0    0  0.44090849921E-01 -0.33833714734E-01  0.34699062384E-02  0.55686844674E-01  0.51100000000E-03 0. -1.
         11    1    4    4    0    0  0.69538939756E-01 -0.23636220310E-01  0.48702946744E-02  0.73609211001E-01  0.51100000000E-03 0.  1.
</event>
<event>
 8    1  0.1061721E+005  0.1043930E+01  0.7957747E-01            NaN
         13   -1    0    0    0    0  0.00000000000E+00  0.00000000000E+00  0.74505805969E-08  0.10566000000E+00  0.10566000000E+00 0. -1.
     999900   -1    0    0    0    0 -0.00000000000E+00 -0.00000000000E+00 -0.74505805969E-08  0.93827000000E+00  0.93827000000E+00 0. -1.
     999902    2    1    2    0    0 -0.56718561233E-02  0.81484803462E-03 -0.24937040838E-01  0.10183430906E+01  0.10180215912E+01 0.  0.
     999903    2    3    3    0    0  0.46257466104E-01 -0.11798974844E+00 -0.10390134455E-01  0.12872362183E+00  0.20012046750E-01 0.  0.
         14    1    1    2    0    0  0.56718561233E-02 -0.81484803462E-03  0.24937040838E-01  0.25586909446E-01  0.00000000000E+00 0. -1.
     999901    1    3    3    0    0 -0.51929322227E-01  0.11880459648E+00 -0.14546906383E-01  0.88961946873E+00  0.88000000000E+00 0. -1.
        -11    1    4    4    0    0  0.34345666970E-01 -0.62364610354E-01 -0.94877643970E-02  0.71827907240E-01  0.51100000000E-03 0.  1.
         11    1    4    4    0    0  0.11911799134E-01 -0.55625138087E-01 -0.90237005817E-03  0.56895714589E-01  0.51100000000E-03 0. -1.
</event>
<event>
 8    1  0.1061721E+005  0.1043930E+01  0.7957747E-01            NaN
         13   -1    0    0    0    0  0.00000000000E+00  0.00000000000E+00  0.74505805969E-08  0.10566000000E+00  0.10566000000E+00 0.  1.
     999900   -1    0    0    0    0 -0.00000000000E+00 -0.00000000000E+00 -0.74505805969E-08  0.93827000000E+00  0.93827000000E+00 0.  1.
     999902    2    1    2    0    0  0.17546190391E-01 -0.16069508118E-01 -0.28255104075E-02  0.10199700042E+01  0.10196885447E+01 0.  0.
     999903    2    3    3    0    0  0.29454664651E-01 -0.48730882407E-02 -0.12588285374E+00  0.13125729400E+00  0.22150848789E-01 0.  0.
         14    1    1    2    0    0 -0.17546190391E-01  0.16069508118E-01  0.28255104075E-02  0.23959995773E-01  0.00000000000E+00 0.  1.
     999901    1    3    3    0    0 -0.11908474260E-01 -0.11196419877E-01  0.12305734334E+00  0.88871271023E+00  0.88000000000E+00 0. -1.
        -11    1    4    4    0    0  0.89537055527E-02  0.87495070195E-02 -0.44811383096E-01  0.46530032154E-01  0.51100000000E-03 0.  1.
         11    1    4    4    0    0  0.20500959098E-01 -0.13622595260E-01 -0.81071470647E-01  0.84727261843E-01  0.51100000000E-03 0. -1.
</event>
<event>
 8    1  0.1061721E+005  0.1043930E+01  0.7957747E-01            NaN
         13   -1    0    0    0    0  0.00000000000E+00  0.00000000000E+00  0.74505805969E-08  0.10566000000E+00  0.10566000000E+00 0.  1.
     999900   -1    0    0    0    0 -0.00000000000E+00 -0.00000000000E+00 -0.74505805969E-08  0.93827000000E+00  0.93827000000E+00 0.  1.
     999902    2    1    2    0    0 -0.16714319757E-01  0.55206834108E-02  0.17421742240E-01  0.10191638228E+01  0.10188628633E+01 0.  0.
     999903    2    3    3    0    0 -0.79577973690E-01  0.10057741284E+00 -0.17162500900E-01  0.13114147473E+00  0.21332254643E-01 0.  0.
         14    1    1    2    0    0  0.16714319757E-01 -0.55206834108E-02 -0.17421742240E-01  0.24766177197E-01  0.00000000000E+00 0. -1.
     999901    1    3    3    0    0  0.62863653933E-01 -0.95056729430E-01  0.34584243139E-01  0.88802234807E+00  0.88000000000E+00 0. -1.
        -11    1    4    4    0    0 -0.53492035360E-01  0.78563671489E-01 -0.19109594578E-01  0.96948883700E-01  0.51100000000E-03 0. -1.
         11    1    4    4    0    0 -0.26085938331E-01  0.22013741351E-01  0.19470936778E-02  0.34192591035E-01  0.51100000000E-03 0.  1.
</event>
<event>
 8    1  0.1061721E+005  0.1043930E+01  0.7957747E-01            NaN
         13   -1    0    0    0    0  0.00000000000E+00  0.00000000000E+00  0.74505805969E-08  0.10566000000E+00  0.10566000000E+00 0. -1.
     999900   -1    0    0    0    0 -0.00000000000E+00 -0.00000000000E+00 -0.74505805969E-08  0.93827000000E+00  0.93827000000E+00 0.  1.
     999902    2    1    2    0    0 -0.87236992484E-03 -0.12620450695E-01  0.20028346805E-01  0.10202409417E+01  0.10199658856E+01 0.  0.
     999903    2    3    3    0    0 -0.30002955879E-01  0.10826826628E+00 -0.58138888252E-01  0.12806787022E+00  0.19976341237E-01 0.  0.
         14    1    1    2    0    0  0.87236992484E-03  0.12620450695E-01 -0.20028346805E-01  0.23689058250E-01  0.00000000000E+00 0.  1.
     999901    1    3    3    0    0  0.29130585954E-01 -0.12088871698E+00  0.78167235057E-01  0.89217307153E+00  0.88000000000E+00 0.  1.
        -11    1    4    4    0    0 -0.23773602590E-01  0.48692175646E-01 -0.26437220503E-01  0.60293448219E-01  0.51100000000E-03 0.  1.
         11    1    4    4    0    0 -0.62293532888E-02  0.59576090639E-01 -0.31701667748E-01  0.67774421998E-01  0.51100000000E-03 0. -1.
</event>
<event>
 8    1  0.1061721E+005  0.1043930E+01  0.7957747E-01            NaN
         13   -1    0    0    0    0  0.00000000000E+00  0.00000000000E+00  0.74505805969E-08  0.10566000000E+00  0.10566000000E+00 0.  1.
     999900   -1    0    0    0    0 -0.00000000000E+00 -0.00000000000E+00 -0.74505805969E-08  0.93827000000E+00  0.93827000000E+00 0. -1.
     999902    2    1    2    0    0  0.21509768683E-04 -0.11054230172E-01  0.36532370707E-01  0.10057618120E+01  0.10050373186E+01 0.  0.
     999903    2    3    3    0    0  0.59816262298E-01 -0.47793006630E-01  0.91933601042E-01  0.12123117574E+00  0.19571771824E-01 0.  0.
         14    1    1    2    0    0 -0.21509768683E-04  0.11054230172E-01 -0.36532370707E-01  0.38168188021E-01  0.00000000000E+00 0. -1.
     999901    1    3    3    0    0 -0.59794752529E-01  0.36738776458E-01 -0.55401230335E-01  0.88453063624E+00  0.88000000000E+00 0. -1.
        -11    1    4    4    0    0  0.59516495734E-01 -0.45607531804E-01  0.82306149433E-01  0.11134102378E+00  0.51100000000E-03 0.  1.
         11    1    4    4    0    0  0.29976656400E-03 -0.21854748260E-02  0.96274516083E-02  0.98901519543E-02  0.51100000000E-03 0. -1.
</event>
<event>
 8    1  0.1061721E+005  0.1043930E+01  0.7957747E-01            NaN
         13   -1    0    0    0    0  0.00000000000E+00  0.00000000000E+00  0.74505805969E-08  0.10566000000E+00  0.10566000000E+00 0.  1.
     999900   -1    0    0    0    0 -0.00000000000E+00 -0.00000000000E+00 -0.74505805969E-08  0.93827000000E+00  0.93827000000E+00 0.  1.
     999902    2    1    2    0    0 -0.76160549156E-02  0.16753821549E-01  0.14209453196E-01  0.10206791207E+01  0.10204142610E+01 0.  0.
     999903    2    3    3    0    0  0.37905485909E-01 -0.97156020214E-01  0.75512267609E-01  0.13005815878E+00  0.18354944264E-01 0.  0.
         14    1    1    2    0    0  0.76160549156E-02 -0.16753821549E-01 -0.14209453196E-01  0.23250879319E-01  0.00000000000E+00 0. -1.
     999901    1    3    3    0    0 -0.45521540824E-01  0.11390984176E+00 -0.61302814413E-01  0.89062096190E+00  0.88000000000E+00 0.  1.
        -11    1    4    4    0    0  0.22258102304E-01 -0.56963854058E-01  0.32996992708E-01  0.69493643135E-01  0.51100000000E-03 0.  1.
         11    1    4    4    0    0  0.15647383605E-01 -0.40192166155E-01  0.42515274901E-01  0.60564515641E-01  0.51100000000E-03 0. -1.
</event>
<event>
 8    1  0.1061721E+005  0.1043930E+01  0.7957747E-01            NaN
         13   -1    0    0    0    0  0.00000000000E+00  0.00000000000E+00  0.74505805969E-08  0.10566000000E+00  0.10566000000E+00 0. -1.
     999900   -1    0    0    0    0 -0.00000000000E+00 -0.00000000000E+00 -0.74505805969E-08  0.93827000000E+00  0.93827000000E+00 0. -1.
     999902    2    1    2    0    0  0.81606493825E-02  0.20589647749E-01 -0.75443793721E-02  0.10205324050E+01  0.10202641531E+01 0.  0.
     999903    2    3    3    0    0 -0.12524657170E+00  0.96324241041E-02  0.25468783265E-01  0.12979820428E+00  0.20479931521E-01 0.  0.
         14    1    1    2    0    0 -0.81606493825E-02 -0.20589647749E-01  0.75443793721E-02  0.23397595023E-01  0.00000000000E+00 0. -1.
     999901    1    3    3    0    0  0.13340722109E+00  0.10957223644E-01 -0.33013162637E-01  0.89073420070E+00  0.88000000000E+00 0. -1.
        -11    1    4    4    0    0 -0.20345979526E-01  0.92898579704E-02  0.43840818798E-02  0.22797842857E-01  0.51100000000E-03 0. -1.
         11    1    4    4    0    0 -0.10490059218E+00  0.34256613366E-03  0.21084701385E-01  0.10700036142E+00  0.51100000000E-03 0.  1.
</event>
<event>
 8    1  0.1061721E+005  0.1043930E+01  0.7957747E-01            NaN
         13   -1    0    0    0    0  0.00000000000E+00  0.00000000000E+00  0.74505805969E-08  0.10566000000E+00  0.10566000000E+00 0. -1.
     999900   -1    0    0    0    0 -0.00000000000E+00 -0.00000000000E+00 -0.74505805969E-08  0.93827000000E+00  0.93827000000E+00 0.  1.
     999902    2    1    2    0    0  0.49411779333E-02  0.23092537100E-01  0.40578430226E-02  0.10199686436E+01  0.10196871517E+01 0.  0.
     999903    2    3    3    0    0  0.19889843816E-01 -0.89137259149E-01  0.89978857890E-01  0.12856446450E+00  0.95692115053E-02 0.  0.
         14    1    1    2    0    0 -0.49411779333E-02 -0.23092537100E-01 -0.40578430226E-02  0.23961356370E-01  0.00000000000E+00 0.  1.
     999901    1    3    3    0    0 -0.14948665883E-01  0.11222979625E+00 -0.85921014868E-01  0.89140417913E+00  0.88000000000E+00 0. -1.
        -11    1    4    4    0    0  0.39308922886E-02 -0.29287720681E-01  0.34287240866E-01  0.45266969239E-01  0.51100000000E-03 0. -1.
         11    1    4    4    0    0  0.15958951528E-01 -0.59849538468E-01  0.55691617025E-01  0.83297495259E-01  0.51100000000E-03 0.  1.
</event>
<event>
 8    1  0.1061721E+005  0.1043930E+01  0.7957747E-01            NaN
         13   -1    0    0    0    0  0.00000000000E+00  0.00000000000E+00  0.74505805969E-08  0.10566000000E+00  0.10566000000E+00 0.  1.
     999900   -1    0    0    0    0 -0.00000000000E+00 -0.00000000000E+00 -0.74505805969E-08  0.93827000000E+00  0.93827000000E+00 0.  1.
     999902    2    1    2    0    0  0.22263078397E-01 -0.95668540563E-02 -0.77711324336E-03  0.10196859644E+01  0.10193977108E+01 0.  0.
     999903    2    3    3    0    0  0.22008124086E-01 -0.65131832909E-01  0.10979506262E+00  0.13102757226E+00  0.19666106196E-01 0.  0.
         14    1    1    2    0    0 -0.22263078397E-01  0.95668540563E-02  0.77711324336E-03  0.24244035581E-01  0.00000000000E+00 0. -1.
     999901    1    3    3    0    0  0.25495431090E-03  0.55564978852E-01 -0.11057217586E+00  0.88865839216E+00  0.88000000000E+00 0. -1.
        -11    1    4    4    0    0  0.18649497868E-01 -0.65401225351E-01  0.10583320060E+00  0.12580163560E+00  0.51100000000E-03 0. -1.
         11    1    4    4    0    0  0.33586262185E-02  0.26939244252E-03  0.39618620177E-02  0.52259366635E-02  0.51100000000E-03 0.  1.
</event>
<event>
 8    1  0.1061721E+005  0.1043930E+01  0.7957747E-01            NaN
         13   -1    0    0    0    0  0.00000000000E+00  0.00000000000E+00  0.74505805969E-08  0.10566000000E+00  0.10566000000E+00 0. -1.
     999900   -1    0    0    0    0 -0.00000000000E+00 -0.00000000000E+00 -0.74505805969E-08  0.93827000000E+00  0.93827000000E+00 0.  1.
     999902    2    1    2    0    0 -0.97898979105E-02  0.95824821376E-02 -0.19084465438E-01  0.10204378122E+01  0.10201673616E+01 0.  0.
     999903    2    3    3    0    0  0.85205847200E-01 -0.19449809371E-01  0.91218618805E-01  0.12800639418E+00  0.20651127132E-01 0.  0.
         14    1    1    2    0    0  0.97898979105E-02 -0.95824821376E-02  0.19084465438E-01  0.23492187767E-01  0.00000000000E+00 0.  1.
     999901    1    3    3    0    0 -0.94995745111E-01  0.29032291508E-01 -0.11030308424E+00  0.89243141806E+00  0.88000000000E+00 0. -1.
        -11    1    4    4    0    0  0.20764592515E-01 -0.11885685791E-01  0.33461692242E-01  0.41138592559E-01  0.51100000000E-03 0. -1.
         11    1    4    4    0    0  0.64441254685E-01 -0.75641235792E-02  0.57756926564E-01  0.86867801618E-01  0.51100000000E-03 0.  1.
</event>
<event>
 8    1  0.1061721E+005  0.1043930E+01  0.7957747E-01            NaN
         13   -1    0    0    0    0  0.00000000000E+00  0.00000000000E+00  0.74505805969E-08  0.10566000000E+00  0.10566000000E+00 0.  1.
     999900   -1    0    0    0    0 -0.00000000000E+00 -0.00000000000E+00 -0.74505805969E-08  0.93827000000E+00  0.93827000000E+00 0. -1.
     999902    2    1    2    0    0 -0.94159551841E-02 -0.13721130609E-01  0.18815227958E-01  0.10188114324E+01  0.10185017390E+01 0.  0.
     999903    2    3    3    0    0  0.37722931118E-01 -0.32345938958E-01 -0.11529502729E+00  0.12720921239E+00  0.20492952436E-01 0.  0.
         14    1    1    2    0    0  0.94159551841E-02  0.13721130609E-01 -0.18815227958E-01  0.25118567641E-01  0.00000000000E+00 0. -1.
     999901    1    3    3    0    0 -0.47138886302E-01  0.18624808350E-01  0.13411025525E+00  0.89160221997E+00  0.88000000000E+00 0.  1.
        -11    1    4    4    0    0  0.39645927666E-02  0.52654262709E-03 -0.25344880608E-01  0.25663579972E-01  0.51100000000E-03 0.  1.
         11    1    4    4    0    0  0.33758338351E-01 -0.32872481586E-01 -0.89950146685E-01  0.10154563242E+00  0.51100000000E-03 0. -1.
</event>
<event>
 8    1  0.1061721E+005  0.1043930E+01  0.7957747E-01            NaN
         13   -1    0    0    0    0  0.00000000000E+00  0.00000000000E+00  0.74505805969E-08  0.10566000000E+00  0.10566000000E+00 0. -1.
     999900   -1    0    0    0    0 -0.00000000000E+00 -0.00000000000E+00 -0.74505805969E-08  0.93827000000E+00  0.93827000000E+00 0.  1.
     999902    2    1    2    0    0 -0.93695757480E-02 -0.50159102219E-03  0.21658092174E-01  0.10203267481E+01  0.10200537042E+01 0.  0.
     999903    2    3    3    0    0  0.82303787269E-01 -0.90156283516E-01 -0.36902612743E-01  0.12910773713E+00  0.20123024188E-01 0.  0.
         14    1    1    2    0    0  0.93695757480E-02  0.50159102219E-03 -0.21658092174E-01  0.23603251892E-01  0.00000000000E+00 0.  1.
     999901    1    3    3    0    0 -0.91673363017E-01  0.89654692494E-01  0.58560704918E-01  0.89121901098E+00  0.88000000000E+00 0. -1.
        -11    1    4    4    0    0  0.72669742747E-01 -0.73525526724E-01 -0.24545764234E-01  0.10625276586E+00  0.51100000000E-03 0.  1.
         11    1    4    4    0    0  0.96340445222E-02 -0.16630756793E-01 -0.12356848510E-01  0.22854971263E-01  0.51100000000E-03 0. -1.
</event>
<event>
 8    1  0.1061721E+005  0.1043930E+01  0.7957747E-01            NaN
         13   -1    0    0    0    0  0.00000000000E+00  0.00000000000E+00  0.74505805969E-08  0.10566000000E+00  0.10566000000E+00 0. -1.
     999900   -1    0    0    0    0 -0.00000000000E+00 -0.00000000000E+00 -0.74505805969E-08  0.93827000000E+00  0.93827000000E+00 0.  1.
     999902    2    1    2    0    0  0.51139576400E-02  0.23873655160E-01  0.10574332977E-01  0.10173232247E+01  0.10169752323E+01 0.  0.
     999903    2    3    3    0    0 -0.51415470308E-01  0.99870208734E-01 -0.61156955969E-01  0.12933874839E+00  0.19254334346E-01 0.  0.
         14    1    1    2    0    0 -0.51139576400E-02 -0.23873655160E-01 -0.10574332977E-01  0.26606775290E-01  0.00000000000E+00 0.  1.
     999901    1    3    3    0    0  0.56529427948E-01 -0.75996553574E-01  0.71731288946E-01  0.88798447632E+00  0.88000000000E+00 0.  1.
        -11    1    4    4    0    0 -0.92485357052E-02  0.37849430165E-01 -0.20681678605E-01  0.44114711009E-01  0.51100000000E-03 0.  1.
         11    1    4    4    0    0 -0.42166934603E-01  0.62020778569E-01 -0.40475277363E-01  0.85224037376E-01  0.51100000000E-03 0. -1.
</event>
<event>
 8    1  0.1061721E+005  0.1043930E+01  0.7957747E-01            NaN
         13   -1    0    0    0    0  0.00000000000E+00  0.00000000000E+00  0.74505805969E-08  0.10566000000E+00  0.10566000000E+00 0. -1.
     999900   -1    0    0    0    0 -0.00000000000E+00 -0.00000000000E+00 -0.74505805969E-08  0.93827000000E+00  0.93827000000E+00 0.  1.
     999902    2    1    2    0    0 -0.35649124790E-02 -0.21531671628E-01  0.17124392227E-02  0.10220381309E+01  0.10218036441E+01 0.  0.
     999903    2    3    3    0    0 -0.63459969803E-01  0.23522523174E-01  0.11256774701E+00  0.13192229709E+00  0.12309262243E-01 0.  0.
         14    1    1    2    0    0  0.35649124790E-02  0.21531671628E-01 -0.17124392227E-02  0.21891869088E-01  0.00000000000E+00 0.  1.
     999901    1    3    3    0    0  0.59895057324E-01 -0.45054194802E-01 -0.11085530779E+00  0.89011583383E+00  0.88000000000E+00 0.  1.
        -11    1    4    4    0    0 -0.33793800687E-01  0.13305509604E-01  0.71911367086E-01  0.80564032843E-01  0.51100000000E-03 0.  1.
         11    1    4    4    0    0 -0.29666169116E-01  0.10217013570E-01  0.40656379927E-01  0.51358264244E-01  0.51100000000E-03 0. -1.
</event>
<event>
 8    1  0.1061721E+005  0.1043930E+01  0.7957747E-01            NaN
         13   -1    0    0    0    0  0.00000000000E+00  0.00000000000E+00  0.74505805969E-08  0.10566000000E+00  0.10566000000E+00 0.  1.
     999900   -1    0    0    0    0 -0.00000000000E+00 -0.00000000000E+00 -0.74505805969E-08  0.93827000000E+00  0.93827000000E+00 0. -1.
     999902    2    1    2    0    0  0.11762811790E-01 -0.19780112657E-01  0.34319752381E-02  0.10206621025E+01  0.10203968505E+01 0.  0.
     999903    2    3    3    0    0 -0.83463270530E-01  0.94493775938E-03 -0.96702409637E-01  0.12963773166E+00  0.22081100667E-01 0.  0.
         14    1    1    2    0    0 -0.11762811790E-01  0.19780112657E-01 -0.34319752381E-02  0.23267897455E-01  0.00000000000E+00 0.  1.
     999901    1    3    3    0    0  0.95226082320E-01 -0.20725050417E-01  0.10013438487E+00  0.89102437088E+00  0.88000000000E+00 0.  1.
        -11    1    4    4    0    0 -0.38863514449E-01  0.11395114489E-01 -0.43776040630E-01  0.59639116726E-01  0.51100000000E-03 0. -1.
         11    1    4    4    0    0 -0.44599756081E-01 -0.10450176730E-01 -0.52926369007E-01  0.69998614939E-01  0.51100000000E-03 0.  1.
</event>
<event>
 8    1  0.1061721E+005  0.1043930E+01  0.7957747E-01            NaN
         13   -1    0    0    0    0  0.00000000000E+00  0.00000000000E+00  0.74505805969E-08  0.10566000000E+00  0.10566000000E+00 0.  1.
     999900   -1    0    0    0    0 -0.00000000000E+00 -0.00000000000E+00 -0.74505805969E-08  0.93827000000E+00  0.93827000000E+00 0.  1.
     999902    2    1    2    0    0  0.12837923861E-03 -0.19986381021E-01  0.13196801390E-01  0.10199794786E+01  0.10196982443E+01 0.  0.
     999903    2    3    3    0    0 -0.96150502180E-01  0.79063329525E-01  0.27319134690E-01  0.12909233175E+00  0.20556406546E-01 0.  0.
         14    1    1    2    0    0 -0.12837923861E-03  0.19986381021E-01 -0.13196801390E-01  0.23950521381E-01  0.00000000000E+00 0. -1.
     999901    1    3    3    0    0  0.96278881419E-01 -0.99049710546E-01 -0.14122333301E-01  0.89088714687E+00  0.88000000000E+00 0.  1.
        -11    1    4    4    0    0 -0.58209139399E-01  0.50009989848E-01  0.66730080792E-02  0.77033065316E-01  0.51100000000E-03 0. -1.
         11    1    4    4    0    0 -0.37941362781E-01  0.29053339677E-01  0.20646126611E-01  0.52059266429E-01  0.51100000000E-03 0.  1.
</event>
<event>
 8    1  0.1061721E+005  0.1043930E+01  0.7957747E-01            NaN
         13   -1    0    0    0    0  0.00000000000E+00  0.00000000000E+00  0.74505805969E-08  0.10566000000E+00  0.10566000000E+00 0. -1.
     999900   -1    0    0    0    0 -0.00000000000E+00 -0.00000000000E+00 -0.74505805969E-08  0.93827000000E+00  0.93827000000E+00 0. -1.
     999902    2    1    2    0    0 -0.10124978222E-01 -0.11602975927E-01  0.17988860890E-01  0.10202499799E+01  0.10199751361E+01 0.  0.
     999903    2    3    3    0    0  0.48005651326E-01  0.11069891976E+00 -0.38076423570E-01  0.12812877746E+00  0.20208319689E-01 0.  0.
         14    1    1    2    0    0  0.10124978222E-01  0.11602975927E-01 -0.17988860890E-01  0.23680020069E-01  0.00000000000E+00 0. -1.
     999901    1    3    3    0    0 -0.58130629548E-01 -0.12230189569E+00  0.56065284459E-01  0.89212120247E+00  0.88000000000E+00 0.  1.
        -11    1    4    4    0    0  0.54084861718E-02  0.31341629121E-01 -0.14901578316E-01  0.35126451514E-01  0.51100000000E-03 0.  1.
         11    1    4    4    0    0  0.42597165154E-01  0.79357290644E-01 -0.23174845253E-01  0.93002325944E-01  0.51100000000E-03 0. -1.
</event>
<event>
 8    1  0.1061721E+005  0.1043930E+01  0.7957747E-01            NaN
         13   -1    0    0    0    0  0.00000000000E+00  0.00000000000E+00  0.74505805969E-08  0.10566000000E+00  0.10566000000E+00 0.  1.
     999900   -1    0    0    0    0 -0.00000000000E+00 -0.00000000000E+00 -0.74505805969E-08  0.93827000000E+00  0.93827000000E+00 0. -1.
     999902    2    1    2    0    0 -0.57510598847E-02  0.12591848574E-02 -0.22850002225E-01  0.10203337537E+01  0.10200608738E+01 0.  0.
     999903    2    3    3    0    0  0.33079384155E-01  0.12181268736E+00  0.24957989178E-01  0.12998182646E+00  0.18433597857E-01 0.  0.
         14    1    1    2    0    0  0.57510598847E-02 -0.12591848574E-02  0.22850002225E-01  0.23596246269E-01  0.00000000000E+00 0.  1.
     999901    1    3    3    0    0 -0.38830444040E-01 -0.12055350250E+00 -0.47807991403E-01  0.89035192727E+00  0.88000000000E+00 0. -1.
        -11    1    4    4    0    0  0.22628179665E-01  0.73281297852E-01  0.63386318289E-02  0.76958576548E-01  0.51100000000E-03 0. -1.
         11    1    4    4    0    0  0.10451204490E-01  0.48531389504E-01  0.18619357349E-01  0.53023249915E-01  0.51100000000E-03 0.  1.
</event>
<event>
 8    1  0.1061721E+005  0.1043930E+01  0.7957747E-01            NaN
         13   -1    0    0    0    0  0.00000000000E+00  0.00000000000E+00  0.74505805969E-08  0.10566000000E+00  0.10566000000E+00 0.  1.
     999900   -1    0    0    0    0 -0.00000000000E+00 -0.00000000000E+00 -0.74505805969E-08  0.93827000000E+00  0.93827000000E+00 0.  1.
     999902    2    1    2    0    0 -0.22770736800E-01  0.75016718300E-02 -0.40571244217E-02  0.10196145359E+01  0.10193245607E+01 0.  0.
     999903    2    3    3    0    0 -0.64293884775E-01  0.34164605610E-01 -0.10836570007E+00  0.13208123356E+00  0.20035054518E-01 0.  0.
         14    1    1    2    0    0  0.22770736800E-01 -0.75016718300E-02  0.40571244217E-02  0.24315464076E-01  0.00000000000E+00 0.  1.
     999901    1    3    3    0    0  0.41523147976E-01 -0.26662933780E-01  0.10430857565E+00  0.88753330237E+00  0.88000000000E+00 0. -1.
        -11    1    4    4    0    0 -0.59696673535E-01  0.36284178066E-01 -0.10445650064E+00  0.12566485609E+00  0.51100000000E-03 0. -1.
         11    1    4    4    0    0 -0.45972112400E-02 -0.21195724559E-02 -0.39091994300E-02  0.64163774643E-02  0.51100000000E-03 0.  1.
</event>
<event>
 8    1  0.1061721E+005  0.1043930E+01  0.7957747E-01            NaN
         13   -1    0    0    0    0  0.00000000000E+00  0.00000000000E+00  0.74505805969E-08  0.10566000000E+00  0.10566000000E+00 0. -1.
     999900   -1    0    0    0    0 -0.00000000000E+00 -0.00000000000E+00 -0.74505805969E-08  0.93827000000E+00  0.93827000000E+00 0. -1.
     999902    2    1    2    0    0  0.10244507715E-02 -0.23078486197E-02 -0.22940952758E-01  0.10208505074E+01  0.10205895823E+01 0.  0.
     999903    2    3    3    0    0  0.85096719092E-01  0.77082889003E-01 -0.63038383044E-01  0.13238056451E+00  0.19171665206E-01 0.  0.
         14    1    1    2    0    0 -0.10244507715E-02  0.23078486197E-02  0.22940952758E-01  0.23079492587E-01  0.00000000000E+00 0. -1.
     999901    1    3    3    0    0 -0.84072268321E-01 -0.79390737623E-01  0.40097430286E-01  0.88846994290E+00  0.88000000000E+00 0.  1.
        -11    1    4    4    0    0  0.55525926101E-01  0.41659044610E-01 -0.45564535659E-01  0.83036091538E-01  0.51100000000E-03 0. -1.
         11    1    4    4    0    0  0.29570792991E-01  0.35423844393E-01 -0.17473847385E-01  0.49344472975E-01  0.51100000000E-03 0.  1.
</event>
<event>
 8    1  0.1061721E+005  0.1043930E+01  0.7957747E-01            NaN
         13   -1    0    0    0    0  0.00000000000E+00  0.00000000000E+00  0.74505805969E-08  0.10566000000E+00  0.10566000000E+00 0. -1.
     999900   -1    0    0    0    0 -0.00000000000E+00 -0.00000000000E+00 -0.74505805969E-08  0.93827000000E+00  0.93827000000E+00 0.  1.
     999902    2    1    2    0    0  0.16269876156E-01  0.89317322841E-02 -0.12140671257E-01  0.10217516184E+01  0.10215108855E+01 0.  0.
     999903    2    3    3    0    0  0.10178422248E+00  0.82715373757E-01  0.18860256244E-01  0.13399163582E+00  0.19904476920E-01 0.  0.
         14    1    1    2    0    0 -0.16269876156E-01 -0.89317322841E-02  0.12140671257E-01  0.22178381598E-01  0.00000000000E+00 0. -1.
     999901    1    3    3    0    0 -0.85514346324E-01 -0.73783641473E-01 -0.31000927501E-01  0.88775998259E+00  0.88000000000E+00 0.  1.
        -11    1    4    4    0    0  0.77028927085E-01  0.53438938526E-01  0.77524400451E-02  0.94071978858E-01  0.51100000000E-03 0. -1.
         11    1    4    4    0    0  0.24755295395E-01  0.29276435231E-01  0.11107816198E-01  0.39919656958E-01  0.51100000000E-03 0.  1.
</event>
<event>
 8    1  0.1061721E+005  0.1043930E+01  0.7957747E-01            NaN
         13   -1    0    0    0    0  0.00000000000E+00  0.00000000000E+00  0.74505805969E-08  0.10566000000E+00  0.10566000000E+00 0. -1.
     999900   -1    0    0    0    0 -0.00000000000E+00 -0.00000000000E+00 -0.74505805969E-08  0.93827000000E+00  0.93827000000E+00 0. -1.
     999902    2    1    2    0    0 -0.11234495541E-01 -0.84998247797E-02  0.20259655233E-01  0.10192538062E+01  0.10189550564E+01 0.  0.
     999903    2    3    3    0    0 -0.40473084011E-03 -0.20031518108E-01 -0.12419658329E+00  0.12733572216E+00  0.19702012866E-01 0.  0.
         14    1    1    2    0    0  0.11234495541E-01  0.84998247797E-02 -0.20259655233E-01  0.24676193821E-01  0.00000000000E+00 0.  1.
     999901    1    3    3    0    0 -0.10829764701E-01  0.11531693329E-01  0.14445623853E+00  0.89191808402E+00  0.88000000000E+00 0.  1.
        -11    1    4    4    0    0 -0.31221632443E-02 -0.35875041631E-02 -0.79274313362E-01  0.79418486321E-01  0.51100000000E-03 0.  1.
         11    1    4    4    0    0  0.27174324042E-02 -0.16444013945E-01 -0.44922269931E-01  0.47917235837E-01  0.51100000000E-03 0. -1.
</event>
<event>
 7    1  0.1061721E+005  0.1043930E+01  0.7957747E-01            NaN
         13   -1    0    0    0    0  0.00000000000E+00  0.00000000000E+00  0.74505805969E-08  0.10566000000E+00  0.10566000000E+00 0.  1.
     999900   -1    0    0    0    0 -0.00000000000E+00 -0.00000000000E+00 -0.74505805969E-08  0.93827000000E+00  0.93827000000E+00 0.  1.
     999903    2    1    2    0    0 -0.12533380690E-01  0.54540784282E-01 -0.21507811664E-01  0.62653231588E-01  0.18195018118E-01 0.  0.
         14    1    1    2    0    0 -0.47813986236E-01  0.41558326882E-01  0.67791160037E-01  0.92784229221E-01  0.00000000000E+00 0.  1.
     999901    1    1    2    0    0  0.60347366926E-01 -0.96099111164E-01 -0.46283348373E-01  0.88849253919E+00  0.88000000000E+00 0. -1.
        -11    1    3    3    0    0 -0.54954298611E-03  0.35085582843E-01 -0.76274242677E-02  0.35912934200E-01  0.51100000000E-03 0. -1.
         11    1    3    3    0    0 -0.11983837704E-01  0.19455201439E-01 -0.13880387396E-01  0.26740297388E-01  0.51100000000E-03 0.  1.
</event>
<event>
 8    1  0.1061721E+005  0.1043930E+01  0.7957747E-01            NaN
         13   -1    0    0    0    0  0.00000000000E+00  0.00000000000E+00  0.74505805969E-08  0.10566000000E+00  0.10566000000E+00 0.  1.
     999900   -1    0    0    0    0 -0.00000000000E+00 -0.00000000000E+00 -0.74505805969E-08  0.93827000000E+00  0.93827000000E+00 0. -1.
     999902    2    1    2    0    0  0.12186769986E-01 -0.19966329183E-02 -0.19808175862E-01  0.10205875979E+01  0.10203206247E+01 0.  0.
     999903    2    3    3    0    0  0.12152068674E-01  0.85207338577E-01  0.93820579700E-01  0.12900696331E+00  0.20797405776E-01 0.  0.
         14    1    1    2    0    0 -0.12186769986E-01  0.19966329183E-02  0.19808175862E-01  0.23342402119E-01  0.00000000000E+00 0.  1.
     999901    1    3    3    0    0  0.34701311621E-04 -0.87203971495E-01 -0.11362875556E+00  0.89158063457E+00  0.88000000000E+00 0. -1.
        -11    1    4    4    0    0  0.60806017487E-03  0.25119484614E-01  0.15162357954E-01  0.29351600709E-01  0.51100000000E-03 0. -1.
         11    1    4    4    0    0  0.11544008500E-01  0.60087853963E-01  0.78658221746E-01  0.99655362602E-01  0.51100000000E-03 0.  1.
</event>
<event>
 8    1  0.1061721E+005  0.1043930E+01  0.7957747E-01            NaN
         13   -1    0    0    0    0  0.00000000000E+00  0.00000000000E+00  0.74505805969E-08  0.10566000000E+00  0.10566000000E+00 0. -1.
     999900   -1    0    0    0    0 -0.00000000000E+00 -0.00000000000E+00 -0.74505805969E-08  0.93827000000E+00  0.93827000000E+00 0.  1.
     999902    2    1    2    0    0  0.94162863690E-02 -0.10974356122E-01 -0.14361282338E-01  0.10235498780E+01  0.10233469614E+01 0.  0.
     999903    2    3    3    0    0  0.48563690955E-01 -0.16167308802E-01  0.12047728987E+00  0.13240402768E+00  0.19905657947E-01 0.  0.
         14    1    1    2    0    0 -0.94162863690E-02  0.10974356122E-01  0.14361282338E-01  0.20380121973E-01  0.00000000000E+00 0. -1.
     999901    1    3    3    0    0 -0.39147404586E-01  0.51929526799E-02 -0.13483857220E+00  0.89114585035E+00  0.88000000000E+00 0.  1.
        -11    1    4    4    0    0  0.14175649838E-01 -0.14383002442E-01  0.51143967582E-01  0.54988965698E-01  0.51100000000E-03 0.  1.
         11    1    4    4    0    0  0.34388041116E-01 -0.17843063599E-02  0.69333322284E-01  0.77415061977E-01  0.51100000000E-03 0. -1.
</event>
<event>
 8    1  0.1061721E+005  0.1043930E+01  0.7957747E-01            NaN
         13   -1    0    0    0    0  0.00000000000E+00  0.00000000000E+00  0.74505805969E-08  0.10566000000E+00  0.10566000000E+00 0.  1.
     999900   -1    0    0    0    0 -0.00000000000E+00 -0.00000000000E+00 -0.74505805969E-08  0.93827000000E+00  0.93827000000E+00 0.  1.
     999902    2    1    2    0    0 -0.52414847665E-02 -0.11159223518E-01 -0.20018809500E-01  0.10204192755E+01  0.10201483930E+01 0.  0.
     999903    2    3    3    0    0 -0.78890946867E-01  0.40285872627E-01  0.91072061685E-01  0.12889696909E+00  0.21761782803E-01 0.  0.
         14    1    1    2    0    0  0.52414847665E-02  0.11159223518E-01  0.20018809500E-01  0.23510724487E-01  0.00000000000E+00 0.  1.
     999901    1    3    3    0    0  0.73649462100E-01 -0.51445096145E-01 -0.11109087119E+00  0.89152230642E+00  0.88000000000E+00 0.  1.
        -11    1    4    4    0    0 -0.66339210901E-01  0.24213104721E-01  0.67042859514E-01  0.97376442100E-01  0.51100000000E-03 0.  1.
         11    1    4    4    0    0 -0.12551735965E-01  0.16072767906E-01  0.24029202171E-01  0.31520526992E-01  0.51100000000E-03 0. -1.
</event>
<event>
 8    1  0.1061721E+005  0.1043930E+01  0.7957747E-01            NaN
         13   -1    0    0    0    0  0.00000000000E+00  0.00000000000E+00  0.74505805969E-08  0.10566000000E+00  0.10566000000E+00 0. -1.
     999900   -1    0    0    0    0 -0.00000000000E+00 -0.00000000000E+00 -0.74505805969E-08  0.93827000000E+00  0.93827000000E+00 0.  1.
     999902    2    1    2    0    0  0.35714862165E-02 -0.24145621706E-01 -0.10211224432E-01  0.10174718129E+01  0.10171277473E+01 0.  0.
     999903    2    3    3    0    0  0.96058988760E-01  0.62497438313E-01  0.49123001619E-01  0.12641541267E+00  0.20845338914E-01 0.  0.
         14    1    1    2    0    0 -0.35714862165E-02  0.24145621706E-01  0.10211224432E-01  0.26458187122E-01  0.00000000000E+00 0. -1.
     999901    1    3    3    0    0 -0.92487502544E-01 -0.86643060019E-01 -0.59334226051E-01  0.89105640021E+00  0.88000000000E+00 0.  1.
        -11    1    4    4    0    0  0.75773936236E-01  0.58409543349E-01  0.38282601874E-01  0.10304941967E+00  0.51100000000E-03 0. -1.
         11    1    4    4    0    0  0.20285052524E-01  0.40878949638E-02  0.10840399745E-01  0.23365992998E-01  0.51100000000E-03 0.  1.
</event>
<event>
 8    1  0.1061721E+005  0.1043930E+01  0.7957747E-01            NaN
         13   -1    0    0    0    0  0.00000000000E+00  0.00000000000E+00  0.74505805969E-08  0.10566000000E+00  0.10566000000E+00 0.  1.
     999900   -1    0    0    0    0 -0.00000000000E+00 -0.00000000000E+00 -0.74505805969E-08  0.93827000000E+00  0.93827000000E+00 0. -1.
     999902    2    1    2    0    0  0.18819183264E-01  0.12970561510E-01  0.61583126999E-02  0.10202588796E+01  0.10199842447E+01 0.  0.
     999903    2    3    3    0    0 -0.22682604794E-01  0.30122256264E-01 -0.12259414236E+00  0.12975690111E+00  0.19638705723E-01 0.  0.
         14    1    1    2    0    0 -0.18819183264E-01 -0.12970561510E-01 -0.61583126999E-02  0.23671120377E-01  0.00000000000E+00 0. -1.
     999901    1    3    3    0    0  0.41501788057E-01 -0.17151694753E-01  0.12875245506E+00  0.89050197851E+00  0.88000000000E+00 0.  1.
        -11    1    4    4    0    0 -0.15816185658E-01  0.10125619777E-01 -0.35877813484E-01  0.40498870676E-01  0.51100000000E-03 0. -1.
         11    1    4    4    0    0 -0.68664191359E-02  0.19996636487E-01 -0.86716328878E-01  0.89258030437E-01  0.51100000000E-03 0.  1.
</event>
<event>
 8    1  0.1061721E+005  0.1043930E+01  0.7957747E-01            NaN
         13   -1    0    0    0    0  0.00000000000E+00  0.00000000000E+00  0.74505805969E-08  0.10566000000E+00  0.10566000000E+00 0.  1.
     999900   -1    0    0    0    0 -0.00000000000E+00 -0.00000000000E+00 -0.74505805969E-08  0.93827000000E+00  0.93827000000E+00 0.  1.
     999902    2    1    2    0    0  0.10087893233E-01  0.17650057892E-03  0.20776480008E-01  0.10208332716E+01  0.10205719521E+01 0.  0.
     999903    2    3    3    0    0  0.46674912969E-01 -0.77686454151E-01 -0.90579536459E-01  0.12965348493E+00  0.19789923420E-01 0.  0.
         14    1    1    2    0    0 -0.10087893233E-01 -0.17650057892E-03 -0.20776480008E-01  0.23096728423E-01  0.00000000000E+00 0. -1.
     999901    1    3    3    0    0 -0.36587019736E-01  0.77862954729E-01  0.11135601647E+00  0.89117978665E+00  0.88000000000E+00 0. -1.
        -11    1    4    4    0    0  0.23637639811E-01 -0.40885537057E-01 -0.33352458160E-01  0.57818792296E-01  0.51100000000E-03 0. -1.
         11    1    4    4    0    0  0.23037273158E-01 -0.36800917094E-01 -0.57227078300E-01  0.71834692630E-01  0.51100000000E-03 0.  1.
</event>
<event>
 8    1  0.1061721E+005  0.1043930E+01  0.7957747E-01            NaN
         13   -1    0    0    0    0  0.00000000000E+00  0.00000000000E+00  0.74505805969E-08  0.10566000000E+00  0.10566000000E+00 0. -1.
     999900   -1    0    0    0    0 -0.00000000000E+00 -0.00000000000E+00 -0.74505805969E-08  0.93827000000E+00  0.93827000000E+00 0. -1.
     999902    2    1    2    0    0 -0.49591964513E-02  0.31352893339E-01  0.18944503893E-01  0.10069639104E+01  0.10062851609E+01 0.  0.
     999903    2    3    3    0    0 -0.82191243676E-01  0.29904490894E-02  0.84870396424E-01  0.12067082084E+00  0.24374566441E-01 0.  0.
         14    1    1    2    0    0  0.49591964513E-02 -0.31352893339E-01 -0.18944503893E-01  0.36966089567E-01  0.00000000000E+00 0.  1.
     999901    1    3    3    0    0  0.77232047225E-01  0.28362444249E-01 -0.65925892531E-01  0.88629308960E+00  0.88000000000E+00 0. -1.
        -11    1    4    4    0    0 -0.33287171275E-01  0.12355297438E-01  0.41668528524E-01  0.54746840426E-01  0.51100000000E-03 0.  1.
         11    1    4    4    0    0 -0.48904072401E-01 -0.93648483486E-02  0.43201867900E-01  0.65923980409E-01  0.51100000000E-03 0. -1.
</event>
<event>
 8    1  0.1061721E+005  0.1043930E+01  0.7957747E-01            NaN
         13   -1    0    0    0    0  0.00000000000E+00  0.00000000000E+00  0.74505805969E-08  0.10566000000E+00  0.10566000000E+00 0.  1.
     999900   -1    0    0    0    0 -0.00000000000E+00 -0.00000000000E+00 -0.74505805969E-08  0.93827000000E+00  0.93827000000E+00 0. -1.
     999902    2    1    2    0    0 -0.12656085119E-01  0.28647053624E-02  0.20530026706E-01  0.10196428630E+01  0.10193535712E+01 0.  0.
     999903    2    3    3    0    0  0.27720081800E-01 -0.61958242218E-01 -0.10589684175E+00  0.12733349823E+00  0.19810400395E-01 0.  0.
         14    1    1    2    0    0  0.12656085119E-01 -0.28647053624E-02 -0.20530026706E-01  0.24287137005E-01  0.00000000000E+00 0. -1.
     999901    1    3    3    0    0 -0.40376166918E-01  0.64822947581E-01  0.12642686846E+00  0.89230936477E+00  0.88000000000E+00 0.  1.
        -11    1    4    4    0    0  0.11007452500E-01 -0.34747016732E-01 -0.40082585899E-01  0.54179276441E-01  0.51100000000E-03 0. -1.
         11    1    4    4    0    0  0.16712629300E-01 -0.27211225486E-01 -0.65814255852E-01  0.73154221785E-01  0.51100000000E-03 0.  1.
</event>
<event>
 8    1  0.1061721E+005  0.1043930E+01  0.7957747E-01            NaN
         13   -1    0    0    0    0  0.00000000000E+00  0.00000000000E+00  0.74505805969E-08  0.10566000000E+00  0.10566000000E+00 0.  1.
     999900   -1    0    0    0    0 -0.00000000000E+00 -0.00000000000E+00 -0.74505805969E-08  0.93827000000E+00  0.93827000000E+00 0.  1.
     999902    2    1    2    0    0  0.78414546910E-02 -0.11177648785E-01 -0.18879218686E-01  0.10206307910E+01  0.10203648163E+01 0.  0.
     999903    2    3    3    0    0  0.23942601463E-02 -0.78118867525E-01  0.10178784956E+00  0.12986070835E+00  0.19868248828E-01 0.  0.
         14    1    1    2    0    0 -0.78414546910E-02  0.11177648785E-01  0.18879218686E-01  0.23299209047E-01  0.00000000000E+00 0.  1.
     999901    1    3    3    0    0  0.54471945447E-02  0.66941218740E-01 -0.12066706824E+00  0.89077008260E+00  0.88000000000E+00 0.  1.
        -11    1    4    4    0    0  0.80438418216E-02 -0.62074637222E-01  0.87818426496E-01  0.10784387387E+00  0.51100000000E-03 0. -1.
         11    1    4    4    0    0 -0.56495816752E-02 -0.16044230303E-01  0.13969423062E-01  0.22016834487E-01  0.51100000000E-03 0.  1.
</event>
<event>
 8    1  0.1061721E+005  0.1043930E+01  0.7957747E-01            NaN
         13   -1    0    0    0    0  0.00000000000E+00  0.00000000000E+00  0.74505805969E-08  0.10566000000E+00  0.10566000000E+00 0. -1.
     999900   -1    0    0    0    0 -0.00000000000E+00 -0.00000000000E+00 -0.74505805969E-08  0.93827000000E+00  0.93827000000E+00 0.  1.
     999902    2    1    2    0    0  0.78957550311E-02  0.16978568234E-01 -0.80746990556E-02  0.10235384456E+01  0.10233352990E+01 0.  0.
     999903    2    3    3    0    0  0.37827198751E-01 -0.11289720891E+00 -0.54646324005E-01  0.13228510053E+00  0.18342582975E-01 0.  0.
         14    1    1    2    0    0 -0.78957550311E-02 -0.16978568234E-01  0.80746990556E-02  0.20391554419E-01  0.00000000000E+00 0. -1.
     999901    1    3    3    0    0 -0.29931443720E-01  0.12987577714E+00  0.46571624950E-01  0.89125334505E+00  0.88000000000E+00 0. -1.
        -11    1    4    4    0    0  0.16793729259E-01 -0.39001755713E-01 -0.10785942797E-01  0.43815111253E-01  0.51100000000E-03 0. -1.
         11    1    4    4    0    0  0.21033469492E-01 -0.73895453197E-01 -0.43860381209E-01  0.88469989278E-01  0.51100000000E-03 0.  1.
</event>
<event>
 8    1  0.1061721E+005  0.1043930E+01  0.7957747E-01            NaN
         13   -1    0    0    0    0  0.00000000000E+00  0.00000000000E+00  0.74505805969E-08  0.10566000000E+00  0.10566000000E+00 0. -1.
     999900   -1    0    0    0    0 -0.00000000000E+00 -0.00000000000E+00 -0.74505805969E-08  0.93827000000E+00  0.93827000000E+00 0.  1.
     999902    2    1    2    0    0 -0.22147754072E-01 -0.63949859382E-02  0.11330202474E-01  0.10182435767E+01  0.10179195396E+01 0.  0.
     999903    2    3    3    0    0  0.11299223079E+00 -0.15721166056E-01  0.51998874237E-01  0.12695028374E+00  0.19952251483E-01 0.  0.
         14    1    1    2    0    0  0.22147754072E-01  0.63949859382E-02 -0.11330202474E-01  0.25686423334E-01  0.00000000000E+00 0.  1.
     999901    1    3    3    0    0 -0.13513998486E+00  0.93261801183E-02 -0.40668671763E-01  0.89129329292E+00  0.88000000000E+00 0. -1.
        -11    1    4    4    0    0  0.63265367467E-01 -0.16707330253E-01  0.36089914684E-01  0.74728740574E-01  0.51100000000E-03 0.  1.
         11    1    4    4    0    0  0.49726863325E-01  0.98616419633E-03  0.15908959553E-01  0.52221543170E-01  0.51100000000E-03 0. -1.
</event>
<event>
 8    1  0.1061721E+005  0.1043930E+01  0.7957747E-01            NaN
         13   -1    0    0    0    0  0.00000000000E+00  0.00000000000E+00  0.74505805969E-08  0.10566000000E+00  0.10566000000E+00 0.  1.
     999900   -1    0    0    0    0 -0.00000000000E+00 -0.00000000000E+00 -0.74505805969E-08  0.93827000000E+00  0.93827000000E+00 0.  1.
     999902    2    1    2    0    0  0.59061575905E-02 -0.44487650400E-02  0.23024428258E-01  0.10197473925E+01  0.10194606153E+01 0.  0.
     999903    2    3    3    0    0 -0.11035061025E+00  0.12161898548E-01 -0.60353234916E-01  0.12803926486E+00  0.20648763248E-01 0.  0.
         14    1    1    2    0    0 -0.59061575905E-02  0.44487650400E-02 -0.23024428258E-01  0.24182607479E-01  0.00000000000E+00 0. -1.
     999901    1    3    3    0    0  0.11625676784E+00 -0.16610663588E-01  0.83377663174E-01  0.89170812766E+00  0.88000000000E+00 0. -1.
        -11    1    4    4    0    0 -0.58533100334E-01  0.16575027560E-01 -0.34910932427E-01  0.70141925389E-01  0.51100000000E-03 0. -1.
         11    1    4    4    0    0 -0.51817509914E-01 -0.44131290120E-02 -0.25442302489E-01  0.57897339475E-01  0.51100000000E-03 0.  1.
</event>
<event>
 8    1  0.1061721E+005  0.1043930E+01  0.7957747E-01            NaN
         13   -1    0    0    0    0  0.00000000000E+00  0.00000000000E+00  0.74505805969E-08  0.10566000000E+00  0.10566000000E+00 0. -1.
     999900   -1    0    0    0    0 -0.00000000000E+00 -0.00000000000E+00 -0.74505805969E-08  0.93827000000E+00  0.93827000000E+00 0.  1.
     999902    2    1    2    0    0  0.18397458516E-01 -0.79864251020E-02 -0.11022566806E-01  0.10210444927E+01  0.10207879847E+01 0.  0.
     999903    2    3    3    0    0 -0.10763434440E+00 -0.11847878303E-01  0.67403617072E-01  0.12860424680E+00  0.16440206389E-01 0.  0.
         14    1    1    2    0    0 -0.18397458516E-01  0.79864251020E-02  0.11022566806E-01  0.22885507308E-01  0.00000000000E+00 0. -1.
     999901    1    3    3    0    0  0.12603180292E+00  0.38614532013E-02 -0.78426183878E-01  0.89244024589E+00  0.88000000000E+00 0.  1.
        -11    1    4    4    0    0 -0.42807879720E-01  0.33412886560E-02  0.26526800962E-01  0.50473865181E-01  0.51100000000E-03 0.  1.
         11    1    4    4    0    0 -0.64826464681E-01 -0.15189166959E-01  0.40876816110E-01  0.78130381621E-01  0.51100000000E-03 0. -1.
</event>
<event>
 8    1  0.1061721E+005  0.1043930E+01  0.7957747E-01            NaN
         13   -1    0    0    0    0  0.00000000000E+00  0.00000000000E+00  0.74505805969E-08  0.10566000000E+00  0.10566000000E+00 0. -1.
     999900   -1    0    0    0    0 -0.00000000000E+00 -0.00000000000E+00 -0.74505805969E-08  0.93827000000E+00  0.93827000000E+00 0.  1.
     999902    2    1    2    0    0  0.46800850607E-02  0.19432055172E-02 -0.23019402316E-01  0.10203594224E+01  0.10200871428E+01 0.  0.
     999903    2    3    3    0    0  0.76109646643E-02  0.89557217027E-01  0.90063940370E-01  0.12880311604E+00  0.20007684603E-01 0.  0.
         14    1    1    2    0    0 -0.46800850607E-02 -0.19432055172E-02  0.23019402316E-01  0.23570577567E-01  0.00000000000E+00 0. -1.
     999901    1    3    3    0    0 -0.29308796036E-02 -0.87614011510E-01 -0.11308334269E+00  0.89155630639E+00  0.88000000000E+00 0.  1.
        -11    1    4    4    0    0 -0.22172265827E-02  0.70060546340E-01  0.65542663208E-01  0.95966129799E-01  0.51100000000E-03 0.  1.
         11    1    4    4    0    0  0.98281912471E-02  0.19496670687E-01  0.24521277162E-01  0.32836986246E-01  0.51100000000E-03 0. -1.
</event>
<event>
 8    1  0.1061721E+005  0.1043930E+01  0.7957747E-01            NaN
         13   -1    0    0    0    0  0.00000000000E+00  0.00000000000E+00  0.74505805969E-08  0.10566000000E+00  0.10566000000E+00 0. -1.
     999900   -1    0    0    0    0 -0.00000000000E+00 -0.00000000000E+00 -0.74505805969E-08  0.93827000000E+00  0.93827000000E+00 0.  1.
     999902    2    1    2    0    0  0.38900186826E-02 -0.29312441416E-01  0.50875342989E-02  0.10139260924E+01  0.10134820602E+01 0.  0.
     999903    2    3    3    0    0 -0.10576408849E+00 -0.21355197752E-01 -0.59288344019E-01  0.12475142188E+00  0.20142557921E-01 0.  0.
         14    1    1    2    0    0 -0.38900186826E-02  0.29312441416E-01 -0.50875342989E-02  0.30003907618E-01  0.00000000000E+00 0. -1.
     999901    1    3    3    0    0  0.10965410718E+00 -0.79572436634E-02  0.64375878318E-01  0.88917467050E+00  0.88000000000E+00 0.  1.
        -11    1    4    4    0    0 -0.31099216811E-01 -0.87332864783E-02 -0.79703475778E-02  0.33274902561E-01  0.51100000000E-03 0. -1.
         11    1    4    4    0    0 -0.74664871683E-01 -0.12621911274E-01 -0.51317996441E-01  0.91476519322E-01  0.51100000000E-03 0.  1.
</event>
<event>
 8    1  0.1061721E+005  0.1043930E+01  0.7957747E-01            NaN
         13   -1    0    0    0    0  0.00000000000E+00  0.00000000000E+00  0.74505805969E-08  0.10566000000E+00  0.10566000000E+00 0. -1.
     999900   -1    0    0    0    0 -0.00000000000E+00 -0.00000000000E+00 -0.74505805969E-08  0.93827000000E+00  0.93827000000E+00 0. -1.
     999902    2    1    2    0    0  0.25493973729E-02 -0.28894762630E-01  0.23774360330E-02  0.10148257231E+01  0.10144082951E+01 0.  0.
     999903    2    3    3    0    0  0.11844835568E+00 -0.38492319030E-01  0.15823516831E-01  0.12707267253E+00  0.19631832088E-01 0.  0.
         14    1    1    2    0    0 -0.25493973729E-02  0.28894762630E-01 -0.23774360330E-02  0.29104276945E-01  0.00000000000E+00 0.  1.
     999901    1    3    3    0    0 -0.11589895831E+00  0.95975564002E-02 -0.13446080798E-01  0.88775305052E+00  0.88000000000E+00 0. -1.
        -11    1    4    4    0    0  0.43504742198E-01 -0.45524349668E-02  0.35365506312E-02  0.43887988894E-01  0.51100000000E-03 0.  1.
         11    1    4    4    0    0  0.74943613484E-01 -0.33939884064E-01  0.12286966200E-01  0.83184683636E-01  0.51100000000E-03 0. -1.
</event>
<event>
 8    1  0.1061721E+005  0.1043930E+01  0.7957747E-01            NaN
         13   -1    0    0    0    0  0.00000000000E+00  0.00000000000E+00  0.74505805969E-08  0.10566000000E+00  0.10566000000E+00 0.  1.
     999900   -1    0    0    0    0 -0.00000000000E+00 -0.00000000000E+00 -0.74505805969E-08  0.93827000000E+00  0.93827000000E+00 0. -1.
     999902    2    1    2    0    0  0.13791667191E-01  0.18677997976E-01  0.15636382347E-01  0.10159376056E+01  0.10155518915E+01 0.  0.
     999903    2    3    3    0    0 -0.52183477897E-01 -0.59894241728E-01  0.96134415173E-01  0.12632743820E+00  0.20158380492E-01 0.  0.
         14    1    1    2    0    0 -0.13791667191E-01 -0.18677997976E-01 -0.15636382347E-01  0.27992394417E-01  0.00000000000E+00 0. -1.
     999901    1    3    3    0    0  0.65975145088E-01  0.78572239704E-01 -0.80498032826E-01  0.88961016738E+00  0.88000000000E+00 0. -1.
        -11    1    4    4    0    0 -0.23449710523E-01 -0.37154700733E-01  0.63730124695E-01  0.77408982843E-01  0.51100000000E-03 0. -1.
         11    1    4    4    0    0 -0.28733767374E-01 -0.22739540995E-01  0.32404290478E-01  0.48918455357E-01  0.51100000000E-03 0.  1.
</event>
<event>
 8    1  0.1061721E+005  0.1043930E+01  0.7957747E-01            NaN
         13   -1    0    0    0    0  0.00000000000E+00  0.00000000000E+00  0.74505805969E-08  0.10566000000E+00  0.10566000000E+00 0.  1.
     999900   -1    0    0    0    0 -0.00000000000E+00 -0.00000000000E+00 -0.74505805969E-08  0.93827000000E+00  0.93827000000E+00 0.  1.
     999902    2    1    2    0    0 -0.56834688549E-02  0.18804675914E-02 -0.22388581106E-01  0.10207548724E+01  0.10204917554E+01 0.  0.
     999903    2    3    3    0    0  0.11425078106E+00  0.58241043568E-01  0.10921321559E-01  0.13020993334E+00  0.19750730242E-01 0.  0.
         14    1    1    2    0    0  0.56834688549E-02 -0.18804675914E-02  0.22388581106E-01  0.23175127627E-01  0.00000000000E+00 0.  1.
     999901    1    3    3    0    0 -0.11993424992E+00 -0.56360575977E-01 -0.33309902665E-01  0.89054493904E+00  0.88000000000E+00 0.  1.
        -11    1    4    4    0    0  0.67170322983E-01  0.42094372988E-01  0.13291592176E-01  0.80378579675E-01  0.51100000000E-03 0.  1.
         11    1    4    4    0    0  0.47080458081E-01  0.16146670580E-01 -0.23702706169E-02  0.49831353662E-01  0.51100000000E-03 0. -1.
</event>
<event>
 8    1  0.1061721E+005  0.1043930E+01  0.7957747E-01            NaN
         13   -1    0    0    0    0  0.00000000000E+00  0.00000000000E+00  0.74505805969E-08  0.10566000000E+00  0.10566000000E+00 0.  1.
     999900   -1    0    0    0    0 -0.00000000000E+00 -0.00000000000E+00 -0.74505805969E-08  0.93827000000E+00  0.93827000000E+00 0. -1.
     999902    2    1    2    0    0  0.14917861000E-01  0.10280684498E-01  0.15310476734E-01  0.10202098451E+01  0.10199340578E+01 0.  0.
     999903    2    3    3    0    0 -0.98166173394E-01 -0.38641596479E-01 -0.68784269463E-01  0.12765546875E+00  0.20853594380E-01 0.  0.
         14    1    1    2    0    0 -0.14917861000E-01 -0.10280684498E-01 -0.15310476734E-01  0.23720154898E-01  0.00000000000E+00 0. -1.
     999901    1    3    3    0    0  0.11308403439E+00  0.48922280977E-01  0.84094746197E-01  0.89255437635E+00  0.88000000000E+00 0.  1.
        -11    1    4    4    0    0 -0.72962894822E-01 -0.28199830177E-01 -0.61243749333E-01  0.99347231447E-01  0.51100000000E-03 0.  1.
         11    1    4    4    0    0 -0.25203278571E-01 -0.10441766302E-01 -0.75405201298E-02  0.28308237301E-01  0.51100000000E-03 0. -1.
</event>
<event>
 8    1  0.1061721E+005  0.1043930E+01  0.7957747E-01            NaN
         13   -1    0    0    0    0  0.00000000000E+00  0.00000000000E+00  0.74505805969E-08  0.10566000000E+00  0.10566000000E+00 0. -1.
     999900   -1    0    0    0    0 -0.00000000000E+00 -0.00000000000E+00 -0.74505805969E-08  0.93827000000E+00  0.93827000000E+00 0.  1.
     999902    2    1    2    0    0 -0.17154103755E-01 -0.10355490948E-01 -0.11988398802E-01  0.10205800284E+01  0.10203128800E+01 0.  0.
     999903    2    3    3    0    0  0.82849887293E-01 -0.35120894621E-01  0.89819239371E-01  0.12873984168E+00  0.20220534372E-01 0.  0.
         14    1    1    2    0    0  0.17154103755E-01  0.10355490948E-01  0.11988398802E-01  0.23349971611E-01  0.00000000000E+00 0. -1.
     999901    1    3    3    0    0 -0.10000399105E+00  0.24765403674E-01 -0.10180763817E+00  0.89184018671E+00  0.88000000000E+00 0.  1.
        -11    1    4    4    0    0  0.44036690501E-01 -0.26255006897E-01  0.60439779777E-01  0.79257703714E-01  0.51100000000E-03 0.  1.
         11    1    4    4    0    0  0.38813196792E-01 -0.88658877244E-02  0.29379459593E-01  0.49482137963E-01  0.51100000000E-03 0. -1.
</event>
<event>
 8    1  0.1061721E+005  0.1043930E+01  0.7957747E-01            NaN
         13   -1    0    0    0    0  0.00000000000E+00  0.00000000000E+00  0.74505805969E-08  0.10566000000E+00  0.10566000000E+00 0.  1.
     999900   -1    0    0    0    0 -0.00000000000E+00 -0.00000000000E+00 -0.74505805969E-08  0.93827000000E+00  0.93827000000E+00 0. -1.
     999902    2    1    2    0    0 -0.22924200836E-01 -0.57113401569E-02  0.53260729814E-02  0.10197121255E+01  0.10194245011E+01 0.  0.
     999903    2    3    3    0    0  0.12253466023E+00 -0.19818192480E-01 -0.20334231148E-01  0.12729084903E+00  0.19544195514E-01 0.  0.
         14    1    1    2    0    0  0.22924200836E-01  0.57113401569E-02 -0.53260729814E-02  0.24217874468E-01  0.00000000000E+00 0.  1.
     999901    1    3    3    0    0 -0.14545886107E+00  0.14106852324E-01  0.25660304130E-01  0.89242127650E+00  0.88000000000E+00 0.  1.
        -11    1    4    4    0    0  0.54588649284E-01 -0.14958467495E-01 -0.15399294098E-02  0.56624278221E-01  0.51100000000E-03 0. -1.
         11    1    4    4    0    0  0.67946010950E-01 -0.48597249856E-02 -0.18794301738E-01  0.70666570808E-01  0.51100000000E-03 0.  1.
</event>
<event>
 8    1  0.1061721E+005  0.1043930E+01  0.7957747E-01            NaN
         13   -1    0    0    0    0  0.00000000000E+00  0.00000000000E+00  0.74505805969E-08  0.10566000000E+00  0.10566000000E+00 0. -1.
     999900   -1    0    0    0    0 -0.00000000000E+00 -0.00000000000E+00 -0.74505805969E-08  0.93827000000E+00  0.93827000000E+00 0. -1.
     999902    2    1    2    0    0  0.29688257742E-02  0.10423323253E-01  0.20071598104E-01  0.10211192866E+01  0.10208644714E+01 0.  0.
     999903    2    3    3    0    0 -0.47795251521E-01  0.10916199627E+00 -0.51184682264E-01  0.13128572096E+00  0.20379924754E-01 0.  0.
         14    1    1    2    0    0 -0.29688257742E-02 -0.10423323253E-01 -0.20071598104E-01  0.22810713372E-01  0.00000000000E+00 0. -1.
     999901    1    3    3    0    0  0.50764077295E-01 -0.98738673015E-01  0.71256280368E-01  0.88983356567E+00  0.88000000000E+00 0.  1.
        -11    1    4    4    0    0 -0.30947120308E-01  0.67750768531E-01 -0.21172941858E-01  0.77436719196E-01  0.51100000000E-03 0. -1.
         11    1    4    4    0    0 -0.16848131213E-01  0.41411227737E-01 -0.30011740406E-01  0.53849001767E-01  0.51100000000E-03 0.  1.
</event>
<event>
 8    1  0.1061721E+005  0.1043930E+01  0.7957747E-01            NaN
         13   -1    0    0    0    0  0.00000000000E+00  0.00000000000E+00  0.74505805969E-08  0.10566000000E+00  0.10566000000E+00 0. -1.
     999900   -1    0    0    0    0 -0.00000000000E+00 -0.00000000000E+00 -0.74505805969E-08  0.93827000000E+00  0.93827000000E+00 0.  1.
     999902    2    1    2    0    0  0.27576782696E-01  0.36235346323E-02  0.45004378054E-02  0.10157544275E+01  0.10153635773E+01 0.  0.
     999903    2    3    3    0    0  0.14882261681E-01 -0.11926668974E+00  0.33822416440E-01  0.12664085961E+00  0.21164273565E-01 0.  0.
         14    1    1    2    0    0 -0.27576782696E-01 -0.36235346323E-02 -0.45004378054E-02  0.28175572533E-01  0.00000000000E+00 0. -1.
     999901    1    3    3    0    0  0.12694521015E-01  0.12289022437E+00 -0.29321978634E-01  0.88911356785E+00  0.88000000000E+00 0. -1.
        -11    1    4    4    0    0  0.36792481634E-02 -0.78743391567E-01  0.30276355860E-01  0.84445114883E-01  0.51100000000E-03 0.  1.
         11    1    4    4    0    0  0.11203013518E-01 -0.40523298173E-01  0.35460605800E-02  0.42195744730E-01  0.51100000000E-03 0. -1.
</event>
<event>
 8    1  0.1061721E+005  0.1043930E+01  0.7957747E-01            NaN
         13   -1    0    0    0    0  0.00000000000E+00  0.00000000000E+00  0.74505805969E-08  0.10566000000E+00  0.10566000000E+00 0. -1.
     999900   -1    0    0    0    0 -0.00000000000E+00 -0.00000000000E+00 -0.74505805969E-08  0.93827000000E+00  0.93827000000E+00 0.  1.
     999902    2    1    2    0    0 -0.75807946018E-02 -0.20967763917E-01  0.34768203066E-02  0.10213644544E+01  0.10211151477E+01 0.  0.
     999903    2    3    3    0    0 -0.94565326010E-02  0.11037246039E+00  0.64302636314E-01  0.12953848882E+00  0.19336106852E-01 0.  0.
         14    1    1    2    0    0  0.75807946018E-02  0.20967763917E-01 -0.34768203066E-02  0.22565545637E-01  0.00000000000E+00 0. -1.
     999901    1    3    3    0    0  0.18757379993E-02 -0.13134022431E+00 -0.60825816007E-01  0.89182596554E+00  0.88000000000E+00 0.  1.
        -11    1    4    4    0    0 -0.13857054040E-01  0.88208438222E-01  0.45937115775E-01  0.10041526899E+00  0.51100000000E-03 0.  1.
         11    1    4    4    0    0  0.44005214388E-02  0.22164022171E-01  0.18365520539E-01  0.29123219832E-01  0.51100000000E-03 0. -1.
</event>
<event>
 8    1  0.1061721E+005  0.1043930E+01  0.7957747E-01            NaN
         13   -1    0    0    0    0  0.00000000000E+00  0.00000000000E+00  0.74505805969E-08  0.10566000000E+00  0.10566000000E+00 0.  1.
     999900   -1    0    0    0    0 -0.00000000000E+00 -0.00000000000E+00 -0.74505805969E-08  0.93827000000E+00  0.93827000000E+00 0. -1.
     999902    2    1    2    0    0 -0.16141480277E-01 -0.17754412674E-01 -0.51585727259E-03  0.10199293195E+01  0.10196468919E+01 0.  0.
     999903    2    3    3    0    0  0.19812792663E-01 -0.97483874114E-01  0.83420343009E-01  0.13161924838E+00  0.21656879994E-01 0.  0.
         14    1    1    2    0    0  0.16141480277E-01  0.17754412674E-01  0.51585727259E-03  0.24000680483E-01  0.00000000000E+00 0.  1.
     999901    1    3    3    0    0 -0.35954272941E-01  0.79729461441E-01 -0.83936200281E-01  0.88831007114E+00  0.88000000000E+00 0. -1.
        -11    1    4    4    0    0  0.28672001845E-02 -0.62938291999E-02  0.14469716761E-01  0.16045776611E-01  0.51100000000E-03 0. -1.
         11    1    4    4    0    0  0.16945592479E-01 -0.91190044915E-01  0.68950626247E-01  0.11557347177E+00  0.51100000000E-03 0.  1.
</event>
<event>
 8    1  0.1061721E+005  0.1043930E+01  0.7957747E-01            NaN
         13   -1    0    0    0    0  0.00000000000E+00  0.00000000000E+00  0.74505805969E-08  0.10566000000E+00  0.10566000000E+00 0.  1.
     999900   -1    0    0    0    0 -0.00000000000E+00 -0.00000000000E+00 -0.74505805969E-08  0.93827000000E+00  0.93827000000E+00 0. -1.
     999902    2    1    2    0    0  0.33427206075E-02 -0.22310857085E-01  0.44545949783E-02  0.10209345322E+01  0.10206755250E+01 0.  0.
     999903    2    3    3    0    0 -0.36745170611E-01  0.28099035231E-01  0.12078651759E+00  0.13094503082E+00  0.20431713614E-01 0.  0.
         14    1    1    2    0    0 -0.33427206075E-02  0.22310857085E-01 -0.44545949783E-02  0.22995467844E-01  0.00000000000E+00 0. -1.
     999901    1    3    3    0    0  0.40087891218E-01 -0.50409892316E-01 -0.11633192261E+00  0.88998950133E+00  0.88000000000E+00 0. -1.
        -11    1    4    4    0    0 -0.23330812004E-02  0.74370402139E-02  0.77965960913E-02  0.11036342992E-01  0.51100000000E-03 0. -1.
         11    1    4    4    0    0 -0.34412089410E-01  0.20661995017E-01  0.11298992150E+00  0.11990868783E+00  0.51100000000E-03 0.  1.
</event>
<event>
 8    1  0.1061721E+005  0.1043930E+01  0.7957747E-01            NaN
         13   -1    0    0    0    0  0.00000000000E+00  0.00000000000E+00  0.74505805969E-08  0.10566000000E+00  0.10566000000E+00 0.  1.
     999900   -1    0    0    0    0 -0.00000000000E+00 -0.00000000000E+00 -0.74505805969E-08  0.93827000000E+00  0.93827000000E+00 0.  1.
     999902    2    1    2    0    0  0.16341993564E-01  0.14421278581E-01  0.92337004381E-02  0.10202594433E+01  0.10199848217E+01 0.  0.
     999903    2    3    3    0    0  0.11608182925E+00  0.35569294424E-01  0.51446497539E-01  0.13336757075E+00  0.20000025747E-01 0.  0.
         14    1    1    2    0    0 -0.16341993564E-01 -0.14421278581E-01 -0.92337004381E-02  0.23670556676E-01  0.00000000000E+00 0. -1.
     999901    1    3    3    0    0 -0.99739835691E-01 -0.21148015844E-01 -0.42212797101E-01  0.88689187257E+00  0.88000000000E+00 0. -1.
        -11    1    4    4    0    0  0.47087910571E-01  0.18720313506E-01  0.31219785493E-01  0.59520228385E-01  0.51100000000E-03 0.  1.
         11    1    4    4    0    0  0.68993918684E-01  0.16848980918E-01  0.20226712046E-01  0.73847342366E-01  0.51100000000E-03 0. -1.
</event>
<event>
 8    1  0.1061721E+005  0.1043930E+01  0.7957747E-01            NaN
         13   -1    0    0    0    0  0.00000000000E+00  0.00000000000E+00  0.74505805969E-08  0.10566000000E+00  0.10566000000E+00 0. -1.
     999900   -1    0    0    0    0 -0.00000000000E+00 -0.00000000000E+00 -0.74505805969E-08  0.93827000000E+00  0.93827000000E+00 0. -1.
     999902    2    1    2    0    0 -0.74141903731E-02  0.19549609129E-01 -0.95058147435E-02  0.10209622411E+01  0.10207038649E+01 0.  0.
     999903    2    3    3    0    0  0.68804305269E-01  0.23138158170E-03 -0.11045972843E+00  0.13170741501E+00  0.20283135932E-01 0.  0.
         14    1    1    2    0    0  0.74141903731E-02 -0.19549609129E-01  0.95058147435E-02  0.22967758923E-01  0.00000000000E+00 0. -1.
     999901    1    3    3    0    0 -0.76218495642E-01  0.19318227548E-01  0.10095391369E+00  0.88925482607E+00  0.88000000000E+00 0.  1.
        -11    1    4    4    0    0  0.46331687360E-01 -0.84766499234E-02 -0.80321799123E-01  0.93114614228E-01  0.51100000000E-03 0. -1.
         11    1    4    4    0    0  0.22472617909E-01  0.87080315051E-02 -0.30137929306E-01  0.38592800783E-01  0.51100000000E-03 0.  1.
</event>
<event>
 8    1  0.1061721E+005  0.1043930E+01  0.7957747E-01            NaN
         13   -1    0    0    0    0  0.00000000000E+00  0.00000000000E+00  0.74505805969E-08  0.10566000000E+00  0.10566000000E+00 0. -1.
     999900   -1    0    0    0    0 -0.00000000000E+00 -0.00000000000E+00 -0.74505805969E-08  0.93827000000E+00  0.93827000000E+00 0. -1.
     999902    2    1    2    0    0  0.81671296041E-02  0.20742303561E-01  0.61606199472E-02  0.10208021293E+01  0.10205400966E+01 0.  0.
     999903    2    3    3    0    0  0.44354838981E-02 -0.59702769546E-01 -0.11244041172E+00  0.12920157995E+00  0.21589531398E-01 0.  0.
         14    1    1    2    0    0 -0.81671296041E-02 -0.20742303561E-01 -0.61606199472E-02  0.23127870657E-01  0.00000000000E+00 0.  1.
     999901    1    3    3    0    0  0.37316457060E-02  0.80445073107E-01  0.11860103166E+00  0.89160054939E+00  0.88000000000E+00 0. -1.
        -11    1    4    4    0    0 -0.71331582914E-02 -0.11723279235E-01 -0.32055589892E-01  0.34873187230E-01  0.51100000000E-03 0.  1.
         11    1    4    4    0    0  0.11568642190E-01 -0.47979490311E-01 -0.80384821823E-01  0.94328392720E-01  0.51100000000E-03 0. -1.
</event>
<event>
 8    1  0.1061721E+005  0.1043930E+01  0.7957747E-01            NaN
         13   -1    0    0    0    0  0.00000000000E+00  0.00000000000E+00  0.74505805969E-08  0.10566000000E+00  0.10566000000E+00 0.  1.
     999900   -1    0    0    0    0 -0.00000000000E+00 -0.00000000000E+00 -0.74505805969E-08  0.93827000000E+00  0.93827000000E+00 0. -1.
     999902    2    1    2    0    0 -0.12206653112E-01  0.33142055509E-02 -0.20813384609E-01  0.10195746450E+01  0.10192837060E+01 0.  0.
     999903    2    3    3    0    0  0.71844763014E-01 -0.94390727331E-01  0.43190470371E-01  0.12788670187E+00  0.20452686991E-01 0.  0.
         14    1    1    2    0    0  0.12206653112E-01 -0.33142055509E-02  0.20813384609E-01  0.24355355007E-01  0.00000000000E+00 0.  1.
     999901    1    3    3    0    0 -0.84051416127E-01  0.97704932882E-01 -0.64003854980E-01  0.89168794313E+00  0.88000000000E+00 0. -1.
        -11    1    4    4    0    0  0.66279185556E-02 -0.17397203419E-01  0.14161615035E-02  0.18677757510E-01  0.51100000000E-03 0. -1.
         11    1    4    4    0    0  0.65216844459E-01 -0.76993523912E-01  0.41774308868E-01  0.10920894436E+00  0.51100000000E-03 0.  1.
</event>
<event>
 8    1  0.1061721E+005  0.1043930E+01  0.7957747E-01            NaN
         13   -1    0    0    0    0  0.00000000000E+00  0.00000000000E+00  0.74505805969E-08  0.10566000000E+00  0.10566000000E+00 0. -1.
     999900   -1    0    0    0    0 -0.00000000000E+00 -0.00000000000E+00 -0.74505805969E-08  0.93827000000E+00  0.93827000000E+00 0.  1.
     999902    2    1    2    0    0 -0.14192591627E-01 -0.81953535713E-02  0.17482382385E-01  0.10199669624E+01  0.10196854305E+01 0.  0.
     999903    2    3    3    0    0 -0.51627601932E-01 -0.87399352510E-01 -0.79332736730E-01  0.13033343069E+00  0.19724703765E-01 0.  0.
         14    1    1    2    0    0  0.14192591627E-01  0.81953535713E-02 -0.17482382385E-01  0.23963037602E-01  0.00000000000E+00 0.  1.
     999901    1    3    3    0    0  0.37435010305E-01  0.79203998939E-01  0.96815119115E-01  0.88963353170E+00  0.88000000000E+00 0. -1.
        -11    1    4    4    0    0 -0.43865538184E-01 -0.82105196033E-01 -0.66420511820E-01  0.11435643474E+00  0.51100000000E-03 0. -1.
         11    1    4    4    0    0 -0.77620637483E-02 -0.52941564770E-02 -0.12912224910E-01  0.15976995949E-01  0.51100000000E-03 0.  1.
</event>
<event>
 8    1  0.1061721E+005  0.1043930E+01  0.7957747E-01            NaN
         13   -1    0    0    0    0  0.00000000000E+00  0.00000000000E+00  0.74505805969E-08  0.10566000000E+00  0.10566000000E+00 0.  1.
     999900   -1    0    0    0    0 -0.00000000000E+00 -0.00000000000E+00 -0.74505805969E-08  0.93827000000E+00  0.93827000000E+00 0.  1.
     999902    2    1    2    0    0 -0.63846919779E-02  0.27637370017E-01 -0.25299025653E-02  0.10154521328E+01  0.10150527302E+01 0.  0.
     999903    2    3    3    0    0 -0.11559608203E+00 -0.40078584156E-01 -0.22823629546E-01  0.12588796226E+00  0.18923897225E-01 0.  0.
         14    1    1    2    0    0  0.63846919779E-02 -0.27637370017E-01  0.25299025653E-02  0.28477867197E-01  0.00000000000E+00 0. -1.
     999901    1    3    3    0    0  0.10921139005E+00  0.67715954173E-01  0.20293726981E-01  0.88956417055E+00  0.88000000000E+00 0.  1.
        -11    1    4    4    0    0 -0.85893240403E-01 -0.37230010734E-01 -0.13266335426E-01  0.94551463356E-01  0.51100000000E-03 0. -1.
         11    1    4    4    0    0 -0.29702841629E-01 -0.28485734216E-02 -0.95572941200E-02  0.31336498899E-01  0.51100000000E-03 0.  1.
</event>
<event>
 8    1  0.1061721E+005  0.1043930E+01  0.7957747E-01            NaN
         13   -1    0    0    0    0  0.00000000000E+00  0.00000000000E+00  0.74505805969E-08  0.10566000000E+00  0.10566000000E+00 0. -1.
     999900   -1    0    0    0    0 -0.00000000000E+00 -0.00000000000E+00 -0.74505805969E-08  0.93827000000E+00  0.93827000000E+00 0. -1.
     999902    2    1    2    0    0  0.16687316189E-01 -0.55875942674E-02  0.16509436259E-01  0.10198001592E+01  0.10195146470E+01 0.  0.
     999903    2    3    3    0    0 -0.25329669868E-01  0.14596630316E-01 -0.12276412461E+00  0.12762867636E+00  0.19062920742E-01 0.  0.
         14    1    1    2    0    0 -0.16687316189E-01  0.55875942674E-02 -0.16509436259E-01  0.24129840796E-01  0.00000000000E+00 0.  1.
     999901    1    3    3    0    0  0.42016986057E-01 -0.20184224583E-01  0.13927356087E+00  0.89217148284E+00  0.88000000000E+00 0.  1.
        -11    1    4    4    0    0  0.96947175351E-03 -0.16250215026E-02 -0.25449961274E-01  0.25525325076E-01  0.51100000000E-03 0. -1.
         11    1    4    4    0    0 -0.26299141621E-01  0.16221651819E-01 -0.97314163333E-01  0.10210335129E+00  0.51100000000E-03 0.  1.
</event>
<event>
 8    1  0.1061721E+005  0.1043930E+01  0.7957747E-01            NaN
         13   -1    0    0    0    0  0.00000000000E+00  0.00000000000E+00  0.74505805969E-08  0.10566000000E+00  0.10566000000E+00 0.  1.
     999900   -1    0    0    0    0 -0.00000000000E+00 -0.00000000000E+00 -0.74505805969E-08  0.93827000000E+00  0.93827000000E+00 0. -1.
     999902    2    1    2    0    0  0.28529026643E-01 -0.18606609966E-01  0.38386654321E-02  0.10096539639E+01  0.10090719896E+01 0.  0.
     999903    2    3    3    0    0  0.90059245463E-01 -0.84196029996E-01  0.46169171110E-02  0.12507013777E+00  0.20532517566E-01 0.  0.
         14    1    1    2    0    0 -0.28529026643E-01  0.18606609966E-01 -0.38386654321E-02  0.34276036060E-01  0.00000000000E+00 0.  1.
     999901    1    3    3    0    0 -0.61530218820E-01  0.65589420029E-01 -0.77825167896E-03  0.88458382617E+00  0.88000000000E+00 0.  1.
        -11    1    4    4    0    0  0.66904005242E-01 -0.50126738167E-01  0.63130420156E-02  0.83838841936E-01  0.51100000000E-03 0. -1.
         11    1    4    4    0    0  0.23155240221E-01 -0.34069291828E-01 -0.16961249046E-02  0.41231295833E-01  0.51100000000E-03 0.  1.
</event>
<event>
 8    1  0.1061721E+005  0.1043930E+01  0.7957747E-01            NaN
         13   -1    0    0    0    0  0.00000000000E+00  0.00000000000E+00  0.74505805969E-08  0.10566000000E+00  0.10566000000E+00 0. -1.
     999900   -1    0    0    0    0 -0.00000000000E+00 -0.00000000000E+00 -0.74505805969E-08  0.93827000000E+00  0.93827000000E+00 0. -1.
     999902    2    1    2    0    0  0.60695255846E-02 -0.20886685905E-01 -0.82486940867E-02  0.10206677184E+01  0.10204025959E+01 0.  0.
     999903    2    3    3    0    0 -0.32318782524E-01 -0.47297975198E-01  0.11565835085E+00  0.13076650248E+00  0.21010042550E-01 0.  0.
         14    1    1    2    0    0 -0.60695255846E-02  0.20886685905E-01  0.82486940867E-02  0.23262281553E-01  0.00000000000E+00 0. -1.
     999901    1    3    3    0    0  0.38388308108E-01  0.26411289293E-01 -0.12390704493E+00  0.88990121597E+00  0.88000000000E+00 0. -1.
        -11    1    4    4    0    0 -0.97191749825E-02 -0.30262123421E-01  0.49775074011E-01  0.59059949120E-01  0.51100000000E-03 0. -1.
         11    1    4    4    0    0 -0.22599607541E-01 -0.17035851778E-01  0.65883276834E-01  0.71706553356E-01  0.51100000000E-03 0.  1.
</event>
<event>
 8    1  0.1061721E+005  0.1043930E+01  0.7957747E-01            NaN
         13   -1    0    0    0    0  0.00000000000E+00  0.00000000000E+00  0.74505805969E-08  0.10566000000E+00  0.10566000000E+00 0.  1.
     999900   -1    0    0    0    0 -0.00000000000E+00 -0.00000000000E+00 -0.74505805969E-08  0.93827000000E+00  0.93827000000E+00 0. -1.
     999902    2    1    2    0    0 -0.23633907614E-01 -0.26358304923E-02  0.48215911069E-02  0.10196656860E+01  0.10193769442E+01 0.  0.
     999903    2    3    3    0    0 -0.16525340188E-01  0.36904299188E-01 -0.12162318356E+00  0.12972061209E+00  0.20005605611E-01 0.  0.
         14    1    1    2    0    0  0.23633907614E-01  0.26358304923E-02 -0.48215911069E-02  0.24264313967E-01  0.00000000000E+00 0. -1.
     999901    1    3    3    0    0 -0.71085674260E-02 -0.39540129680E-01  0.12644477467E+00  0.88994507394E+00  0.88000000000E+00 0.  1.
        -11    1    4    4    0    0 -0.33134003352E-02  0.84261950466E-02 -0.88998354482E-02  0.12706202295E-01  0.51100000000E-03 0. -1.
         11    1    4    4    0    0 -0.13211939853E-01  0.28478104141E-01 -0.11272334811E+00  0.11701440980E+00  0.51100000000E-03 0.  1.
</event>
<event>
 8    1  0.1061721E+005  0.1043930E+01  0.7957747E-01            NaN
         13   -1    0    0    0    0  0.00000000000E+00  0.00000000000E+00  0.74505805969E-08  0.10566000000E+00  0.10566000000E+00 0.  1.
     999900   -1    0    0    0    0 -0.00000000000E+00 -0.00000000000E+00 -0.74505805969E-08  0.93827000000E+00  0.93827000000E+00 0.  1.
     999902    2    1    2    0    0 -0.86782657404E-02  0.20725146967E-01 -0.11511025687E-01  0.10186842533E+01  0.10183713764E+01 0.  0.
     999903    2    3    3    0    0  0.69686987274E-01 -0.71750125423E-01 -0.77949969948E-01  0.12789419826E+00  0.16624422987E-01 0.  0.
         14    1    1    2    0    0  0.86782657404E-02 -0.20725146967E-01  0.11511025687E-01  0.25245746679E-01  0.00000000000E+00 0.  1.
     999901    1    3    3    0    0 -0.78365253014E-01  0.92475272390E-01  0.66438944262E-01  0.89079005506E+00  0.88000000000E+00 0. -1.
        -11    1    4    4    0    0  0.25015774893E-02  0.30580500292E-03 -0.37987155093E-02  0.45872396008E-02  0.51100000000E-03 0. -1.
         11    1    4    4    0    0  0.67185409784E-01 -0.72055930426E-01 -0.74151254439E-01  0.12330695866E+00  0.51100000000E-03 0.  1.
</event>
<event>
 8    1  0.1061721E+005  0.1043930E+01  0.7957747E-01            NaN
         13   -1    0    0    0    0  0.00000000000E+00  0.00000000000E+00  0.74505805969E-08  0.10566000000E+00  0.10566000000E+00 0. -1.
     999900   -1    0    0    0    0 -0.00000000000E+00 -0.00000000000E+00 -0.74505805969E-08  0.93827000000E+00  0.93827000000E+00 0. -1.
     999902    2    1    2    0    0 -0.14422468890E-01 -0.81117990372E-02 -0.16687539427E-01  0.10204293008E+01  0.10201586519E+01 0.  0.
     999903    2    3    3    0    0 -0.11655140761E+00 -0.49125366661E-01 -0.36845760831E-01  0.13334487031E+00  0.20632791445E-01 0.  0.
         14    1    1    2    0    0  0.14422468890E-01  0.81117990372E-02  0.16687539427E-01  0.23500699237E-01  0.00000000000E+00 0. -1.
     999901    1    3    3    0    0  0.10212893872E+00  0.41013567624E-01  0.20158221404E-01  0.88708443045E+00  0.88000000000E+00 0.  1.
        -11    1    4    4    0    0 -0.67456326412E-01 -0.17303449436E-01 -0.19587210468E-01  0.72344213800E-01  0.51100000000E-03 0.  1.
         11    1    4    4    0    0 -0.49095081197E-01 -0.31821917225E-01 -0.17258550363E-01  0.61000656515E-01  0.51100000000E-03 0. -1.
</event>
<event>
 8    1  0.1061721E+005  0.1043930E+01  0.7957747E-01            NaN
         13   -1    0    0    0    0  0.00000000000E+00  0.00000000000E+00  0.74505805969E-08  0.10566000000E+00  0.10566000000E+00 0.  1.
     999900   -1    0    0    0    0 -0.00000000000E+00 -0.00000000000E+00 -0.74505805969E-08  0.93827000000E+00  0.93827000000E+00 0.  1.
     999902    2    1    2    0    0 -0.62133116041E-02  0.16908874625E-01  0.15069340245E-01  0.10204438275E+01  0.10201735170E+01 0.  0.
     999903    2    3    3    0    0  0.10590326440E-01 -0.84137481517E-01 -0.93585704606E-01  0.12786405680E+00  0.19991550805E-01 0.  0.
         14    1    1    2    0    0  0.62133116041E-02 -0.16908874625E-01 -0.15069340245E-01  0.23486172476E-01  0.00000000000E+00 0. -1.
     999901    1    3    3    0    0 -0.16803638044E-01  0.10104635614E+00  0.10865504485E+00  0.89257977073E+00  0.88000000000E+00 0. -1.
        -11    1    4    4    0    0 -0.30525306414E-02 -0.39092560658E-01 -0.51449949934E-01  0.64690839470E-01  0.51100000000E-03 0. -1.
         11    1    4    4    0    0  0.13642857081E-01 -0.45044920860E-01 -0.42135754672E-01  0.63173217326E-01  0.51100000000E-03 0.  1.
</event>
<event>
 8    1  0.1061721E+005  0.1043930E+01  0.7957747E-01            NaN
         13   -1    0    0    0    0  0.00000000000E+00  0.00000000000E+00  0.74505805969E-08  0.10566000000E+00  0.10566000000E+00 0. -1.
     999900   -1    0    0    0    0 -0.00000000000E+00 -0.00000000000E+00 -0.74505805969E-08  0.93827000000E+00  0.93827000000E+00 0. -1.
     999902    2    1    2    0    0 -0.41909199482E-02 -0.64438809077E-02 -0.22539934736E-01  0.10201153812E+01  0.10198373669E+01 0.  0.
     999903    2    3    3    0    0 -0.92486213747E-01 -0.27275914538E-01  0.83532215995E-01  0.12911519393E+00  0.19885345054E-01 0.  0.
         14    1    1    2    0    0  0.41909199482E-02  0.64438809077E-02  0.22539934736E-01  0.23814618811E-01  0.00000000000E+00 0. -1.
     999901    1    3    3    0    0  0.88295293799E-01  0.20832033631E-01 -0.10607215073E+00  0.89100018726E+00  0.88000000000E+00 0.  1.
        -11    1    4    4    0    0 -0.18330309764E-01  0.12580585482E-02  0.21669158554E-01  0.28414723663E-01  0.51100000000E-03 0. -1.
         11    1    4    4    0    0 -0.74155903983E-01 -0.28533973087E-01  0.61863057440E-01  0.10070047027E+00  0.51100000000E-03 0.  1.
</event>
<event>
 8    1  0.1061721E+005  0.1043930E+01  0.7957747E-01            NaN
         13   -1    0    0    0    0  0.00000000000E+00  0.00000000000E+00  0.74505805969E-08  0.10566000000E+00  0.10566000000E+00 0.  1.
     999900   -1    0    0    0    0 -0.00000000000E+00 -0.00000000000E+00 -0.74505805969E-08  0.93827000000E+00  0.93827000000E+00 0.  1.
     999902    2    1    2    0    0  0.10190747601E-01  0.12831452628E-01  0.16739084217E-01  0.10205057721E+01  0.10202369021E+01 0.  0.
     999903    2    3    3    0    0  0.91198131682E-01  0.58552882269E-01 -0.71809443580E-01  0.13118384658E+00  0.17523303666E-01 0.  0.
         14    1    1    2    0    0 -0.10190747601E-01 -0.12831452628E-01 -0.16739084217E-01  0.23424227920E-01  0.00000000000E+00 0. -1.
     999901    1    3    3    0    0 -0.81007384081E-01 -0.45721429640E-01  0.88548527797E-01  0.88932192550E+00  0.88000000000E+00 0.  1.
        -11    1    4    4    0    0  0.23036395311E-01  0.23233082507E-01 -0.25913700794E-01  0.41740060392E-01  0.51100000000E-03 0. -1.
         11    1    4    4    0    0  0.68161736371E-01  0.35319799762E-01 -0.45895742786E-01  0.89443786186E-01  0.51100000000E-03 0.  1.
</event>
<event>
 8    1  0.1061721E+005  0.1043930E+01  0.7957747E-01            NaN
         13   -1    0    0    0    0  0.00000000000E+00  0.00000000000E+00  0.74505805969E-08  0.10566000000E+00  0.10566000000E+00 0.  1.
     999900   -1    0    0    0    0 -0.00000000000E+00 -0.00000000000E+00 -0.74505805969E-08  0.93827000000E+00  0.93827000000E+00 0.  1.
     999902    2    1    2    0    0 -0.19006887165E-01  0.55097212177E-02 -0.22891558999E-01  0.10136704187E+01  0.10132186711E+01 0.  0.
     999903    2    3    3    0    0 -0.11704309990E+00 -0.26763047006E-01 -0.37923067870E-01  0.12751096530E+00  0.20138005731E-01 0.  0.
         14    1    1    2    0    0  0.19006887165E-01 -0.55097212177E-02  0.22891558999E-01  0.30259581309E-01  0.00000000000E+00 0.  1.
     999901    1    3    3    0    0  0.98036212739E-01  0.32272768224E-01  0.15031508871E-01  0.88615945339E+00  0.88000000000E+00 0. -1.
        -11    1    4    4    0    0 -0.24785407143E-02 -0.42772266710E-02 -0.20091398874E-02  0.53605593136E-02  0.51100000000E-03 0.  1.
         11    1    4    4    0    0 -0.11456455919E+00 -0.22485820335E-01 -0.35913927982E-01  0.12215040599E+00  0.51100000000E-03 0. -1.
</event>
<event>
 8    1  0.1061721E+005  0.1043930E+01  0.7957747E-01            NaN
         13   -1    0    0    0    0  0.00000000000E+00  0.00000000000E+00  0.74505805969E-08  0.10566000000E+00  0.10566000000E+00 0.  1.
     999900   -1    0    0    0    0 -0.00000000000E+00 -0.00000000000E+00 -0.74505805969E-08  0.93827000000E+00  0.93827000000E+00 0.  1.
     999902    2    1    2    0    0  0.18277653255E-01  0.12660830343E-01  0.40429486787E-02  0.10213310030E+01  0.10210809483E+01 0.  0.
     999903    2    3    3    0    0  0.25532980941E-01  0.82074963767E-01  0.10048728433E+00  0.13331497180E+00  0.16939734395E-01 0.  0.
         14    1    1    2    0    0 -0.18277653255E-01 -0.12660830343E-01 -0.40429486787E-02  0.22598997046E-01  0.00000000000E+00 0. -1.
     999901    1    3    3    0    0 -0.72553276858E-02 -0.69414133424E-01 -0.96444335655E-01  0.88801603115E+00  0.88000000000E+00 0.  1.
        -11    1    4    4    0    0  0.41496467448E-02  0.30133794374E-01  0.45306317364E-01  0.54572783011E-01  0.51100000000E-03 0.  1.
         11    1    4    4    0    0  0.21383334196E-01  0.51941169393E-01  0.55180966969E-01  0.78742188793E-01  0.51100000000E-03 0. -1.
</event>
<event>
 8    1  0.1061721E+005  0.1043930E+01  0.7957747E-01            NaN
         13   -1    0    0    0    0  0.00000000000E+00  0.00000000000E+00  0.74505805969E-08  0.10566000000E+00  0.10566000000E+00 0.  1.
     999900   -1    0    0    0    0 -0.00000000000E+00 -0.00000000000E+00 -0.74505805969E-08  0.93827000000E+00  0.93827000000E+00 0. -1.
     999902    2    1    2    0    0 -0.74072161566E-03  0.23493089288E-01 -0.70461887773E-02  0.10193918116E+01  0.10190964345E+01 0.  0.
     999903    2    3    3    0    0 -0.42609293522E-01  0.41907333618E-01  0.11376119789E+00  0.12996138355E+00  0.19405529169E-01 0.  0.
         14    1    1    2    0    0  0.74072161566E-03 -0.23493089288E-01  0.70461887773E-02  0.24538188382E-01  0.00000000000E+00 0.  1.
     999901    1    3    3    0    0  0.41868571906E-01 -0.18414244330E-01 -0.12080738667E+00  0.88943042807E+00  0.88000000000E+00 0. -1.
        -11    1    4    4    0    0 -0.16087713397E-01  0.29230947273E-01  0.57484450139E-01  0.66467931588E-01  0.51100000000E-03 0.  1.
         11    1    4    4    0    0 -0.26521580125E-01  0.12676386346E-01  0.56276747750E-01  0.63493451957E-01  0.51100000000E-03 0. -1.
</event>
<event>
 8    1  0.1061721E+005  0.1043930E+01  0.7957747E-01            NaN
         13   -1    0    0    0    0  0.00000000000E+00  0.00000000000E+00  0.74505805969E-08  0.10566000000E+00  0.10566000000E+00 0. -1.
     999900   -1    0    0    0    0 -0.00000000000E+00 -0.00000000000E+00 -0.74505805969E-08  0.93827000000E+00  0.93827000000E+00 0. -1.
     999902    2    1    2    0    0  0.23708070698E-01 -0.92557282946E-03 -0.38399071450E-02  0.10198951464E+01  0.10196119043E+01 0.  0.
     999903    2    3    3    0    0 -0.98684701143E-01 -0.70875962910E-01 -0.35817820185E-01  0.12810165314E+00  0.19106149193E-01 0.  0.
         14    1    1    2    0    0 -0.23708070698E-01  0.92557282946E-03  0.38399071450E-02  0.24034853612E-01  0.00000000000E+00 0. -1.
     999901    1    3    3    0    0  0.12239277184E+00  0.69950390080E-01  0.31977913040E-01  0.89179349324E+00  0.88000000000E+00 0.  1.
        -11    1    4    4    0    0 -0.66593582742E-01 -0.56937868379E-01 -0.20980067577E-01  0.90094675062E-01  0.51100000000E-03 0.  1.
         11    1    4    4    0    0 -0.32091118401E-01 -0.13938094531E-01 -0.14837752608E-01  0.38006978081E-01  0.51100000000E-03 0. -1.
</event>
<event>
 8    1  0.1061721E+005  0.1043930E+01  0.7957747E-01            NaN
         13   -1    0    0    0    0  0.00000000000E+00  0.00000000000E+00  0.74505805969E-08  0.10566000000E+00  0.10566000000E+00 0. -1.
     999900   -1    0    0    0    0 -0.00000000000E+00 -0.00000000000E+00 -0.74505805969E-08  0.93827000000E+00  0.93827000000E+00 0. -1.
     999902    2    1    2    0    0 -0.10687704818E-01 -0.19462703355E-01  0.80952397269E-02  0.10202961945E+01  0.10200224349E+01 0.  0.
     999903    2    3    3    0    0  0.16474903919E-01 -0.51454091980E-01  0.11907910878E+00  0.13233297710E+00  0.20328222767E-01 0.  0.
         14    1    1    2    0    0  0.10687704818E-01  0.19462703355E-01 -0.80952397269E-02  0.23633805499E-01  0.00000000000E+00 0. -1.
     999901    1    3    3    0    0 -0.27162608737E-01  0.31991388625E-01 -0.11098386905E+00  0.88796321740E+00  0.88000000000E+00 0. -1.
        -11    1    4    4    0    0  0.20921169396E-02 -0.15660131899E-01  0.17033225193E-01  0.23238084384E-01  0.51100000000E-03 0.  1.
         11    1    4    4    0    0  0.14382786980E-01 -0.35793960081E-01  0.10204588359E+00  0.10909489272E+00  0.51100000000E-03 0. -1.
</event>
<event>
 8    1  0.1061721E+005  0.1043930E+01  0.7957747E-01            NaN
         13   -1    0    0    0    0  0.00000000000E+00  0.00000000000E+00  0.74505805969E-08  0.10566000000E+00  0.10566000000E+00 0. -1.
     999900   -1    0    0    0    0 -0.00000000000E+00 -0.00000000000E+00 -0.74505805969E-08  0.93827000000E+00  0.93827000000E+00 0.  1.
     999902    2    1    2    0    0 -0.13040154041E-01 -0.18903734305E-01 -0.22415481042E-02  0.10208557432E+01  0.10205949378E+01 0.  0.
     999903    2    3    3    0    0 -0.12565891859E+00  0.31778375701E-01 -0.15814798121E-01  0.13212862226E+00  0.20194949842E-01 0.  0.
         14    1    1    2    0    0  0.13040154041E-01  0.18903734305E-01  0.22415481042E-02  0.23074256781E-01  0.00000000000E+00 0. -1.
     999901    1    3    3    0    0  0.11261876455E+00 -0.50682110006E-01  0.13573250017E-01  0.88872712095E+00  0.88000000000E+00 0.  1.
        -11    1    4    4    0    0 -0.20388498760E-01  0.98850685896E-02 -0.90096729204E-02  0.24389358127E-01  0.51100000000E-03 0.  1.
         11    1    4    4    0    0 -0.10527041983E+00  0.21893307111E-01 -0.68051252009E-02  0.10773926414E+00  0.51100000000E-03 0. -1.
</event>
<event>
 8    1  0.1061721E+005  0.1043930E+01  0.7957747E-01            NaN
         13   -1    0    0    0    0  0.00000000000E+00  0.00000000000E+00  0.74505805969E-08  0.10566000000E+00  0.10566000000E+00 0.  1.
     999900   -1    0    0    0    0 -0.00000000000E+00 -0.00000000000E+00 -0.74505805969E-08  0.93827000000E+00  0.93827000000E+00 0.  1.
     999902    2    1    2    0    0 -0.13638779149E-02  0.23573885312E-01  0.37162299219E-02  0.10200260548E+01  0.10197459261E+01 0.  0.
     999903    2    3    3    0    0  0.75536344747E-01 -0.87445101605E-01  0.52288018719E-01  0.12839940738E+00  0.19999643561E-01 0.  0.
         14    1    1    2    0    0  0.13638779149E-02 -0.23573885312E-01 -0.37162299219E-02  0.23903945208E-01  0.00000000000E+00 0. -1.
     999901    1    3    3    0    0 -0.76900222661E-01  0.11101898692E+00 -0.48571788797E-01  0.89162664741E+00  0.88000000000E+00 0.  1.
        -11    1    4    4    0    0  0.45137577720E-01 -0.59979899011E-01  0.24790719287E-01  0.79055866901E-01  0.51100000000E-03 0.  1.
         11    1    4    4    0    0  0.30398767027E-01 -0.27465202594E-01  0.27497299432E-01  0.49343540483E-01  0.51100000000E-03 0. -1.
</event>
<event>
 8    1  0.1061721E+005  0.1043930E+01  0.7957747E-01            NaN
         13   -1    0    0    0    0  0.00000000000E+00  0.00000000000E+00  0.74505805969E-08  0.10566000000E+00  0.10566000000E+00 0.  1.
     999900   -1    0    0    0    0 -0.00000000000E+00 -0.00000000000E+00 -0.74505805969E-08  0.93827000000E+00  0.93827000000E+00 0. -1.
     999902    2    1    2    0    0 -0.46397353607E-02 -0.19108465971E-01  0.19727474564E-01  0.10160762055E+01  0.10156943544E+01 0.  0.
     999903    2    3    3    0    0  0.82879868847E-01  0.90863104107E-01  0.69698542502E-02  0.12483202782E+00  0.20230668658E-01 0.  0.
         14    1    1    2    0    0  0.46397353607E-02  0.19108465971E-01 -0.19727474564E-01  0.27853794511E-01  0.00000000000E+00 0.  1.
     999901    1    3    3    0    0 -0.87519604208E-01 -0.10997157008E+00  0.12757620314E-01  0.89124417767E+00  0.88000000000E+00 0. -1.
        -11    1    4    4    0    0  0.36300200124E-01  0.38259600177E-01 -0.69621330063E-02  0.53199943156E-01  0.51100000000E-03 0. -1.
         11    1    4    4    0    0  0.46579668723E-01  0.52603503930E-01  0.13931987256E-01  0.71632084668E-01  0.51100000000E-03 0.  1.
</event>
<event>
 7    1  0.1061721E+005  0.1043930E+01  0.7957747E-01            NaN
         13   -1    0    0    0    0  0.00000000000E+00  0.00000000000E+00  0.74505805969E-08  0.10566000000E+00  0.10566000000E+00 0. -1.
     999900   -1    0    0    0    0 -0.00000000000E+00 -0.00000000000E+00 -0.74505805969E-08  0.93827000000E+00  0.93827000000E+00 0. -1.
     999903    2    1    2    0    0 -0.17899256453E-01  0.74120698357E-01  0.56162754757E-01  0.96702882693E-01  0.19568627768E-01 0.  0.
         14    1    1    2    0    0 -0.50923906940E-01  0.25851329339E-01 -0.70003670925E-02  0.57537298043E-01  0.00000000000E+00 0. -1.
     999901    1    1    2    0    0  0.68823163393E-01 -0.99972027697E-01 -0.49162387664E-01  0.88968981926E+00  0.88000000000E+00 0. -1.
        -11    1    3    3    0    0 -0.54483649413E-02  0.14767614301E-01  0.22122371831E-01  0.27155617634E-01  0.51100000000E-03 0.  1.
         11    1    3    3    0    0 -0.12450891512E-01  0.59353084056E-01  0.34040382926E-01  0.69547265059E-01  0.51100000000E-03 0. -1.
</event>
<event>
 8    1  0.1061721E+005  0.1043930E+01  0.7957747E-01            NaN
         13   -1    0    0    0    0  0.00000000000E+00  0.00000000000E+00  0.74505805969E-08  0.10566000000E+00  0.10566000000E+00 0. -1.
     999900   -1    0    0    0    0 -0.00000000000E+00 -0.00000000000E+00 -0.74505805969E-08  0.93827000000E+00  0.93827000000E+00 0.  1.
     999902    2    1    2    0    0  0.10116235747E-02 -0.23358434064E-01  0.21702888555E-02  0.10204491572E+01  0.10201789708E+01 0.  0.
     999903    2    3    3    0    0 -0.43486789096E-01  0.89272355511E-01 -0.79050179907E-01  0.12844995989E+00  0.19743529751E-01 0.  0.
         14    1    1    2    0    0 -0.10116235747E-02  0.23358434064E-01 -0.21702888555E-02  0.23480842785E-01  0.00000000000E+00 0.  1.
     999901    1    3    3    0    0  0.44498412671E-01 -0.11263078957E+00  0.81220468762E-01  0.89199919733E+00  0.88000000000E+00 0. -1.
        -11    1    4    4    0    0  0.14139355004E-02  0.88221649557E-02 -0.91713852824E-02  0.12814259132E-01  0.51100000000E-03 0.  1.
         11    1    4    4    0    0 -0.44900724597E-01  0.80450190555E-01 -0.69878794624E-01  0.11563570075E+00  0.51100000000E-03 0. -1.
</event>
<event>
 8    1  0.1061721E+005  0.1043930E+01  0.7957747E-01            NaN
         13   -1    0    0    0    0  0.00000000000E+00  0.00000000000E+00  0.74505805969E-08  0.10566000000E+00  0.10566000000E+00 0.  1.
     999900   -1    0    0    0    0 -0.00000000000E+00 -0.00000000000E+00 -0.74505805969E-08  0.93827000000E+00  0.93827000000E+00 0.  1.
     999902    2    1    2    0    0  0.29214964785E-02 -0.18253411358E-02  0.24638806388E-01  0.10190515396E+01  0.10187478111E+01 0.  0.
     999903    2    3    3    0    0  0.86987254653E-01  0.94001587818E-01 -0.29171387492E-02  0.12943972418E+00  0.18521649852E-01 0.  0.
         14    1    1    2    0    0 -0.29214964785E-02  0.18253411358E-02 -0.24638806388E-01  0.24878460406E-01  0.00000000000E+00 0. -1.
     999901    1    3    3    0    0 -0.84065758174E-01 -0.95826928954E-01  0.27555945138E-01  0.88961181541E+00  0.88000000000E+00 0.  1.
        -11    1    4    4    0    0  0.26365327343E-01  0.33909446225E-01 -0.89060322312E-02  0.43869802374E-01  0.51100000000E-03 0.  1.
         11    1    4    4    0    0  0.60621927310E-01  0.60092141593E-01  0.59888934820E-02  0.85569921807E-01  0.51100000000E-03 0. -1.
</event>
<event>
 8    1  0.1061721E+005  0.1043930E+01  0.7957747E-01            NaN
         13   -1    0    0    0    0  0.00000000000E+00  0.00000000000E+00  0.74505805969E-08  0.10566000000E+00  0.10566000000E+00 0.  1.
     999900   -1    0    0    0    0 -0.00000000000E+00 -0.00000000000E+00 -0.74505805969E-08  0.93827000000E+00  0.93827000000E+00 0.  1.
     999902    2    1    2    0    0  0.11901972314E-01 -0.17074150790E-01 -0.11537375537E-01  0.10201330547E+01  0.10198554578E+01 0.  0.
     999903    2    3    3    0    0  0.41456915445E-01 -0.99723134347E-01 -0.76022615533E-01  0.13341850352E+00  0.18912420415E-01 0.  0.
         14    1    1    2    0    0 -0.11901972314E-01  0.17074150790E-01  0.11537375537E-01  0.23796945275E-01  0.00000000000E+00 0.  1.
     999901    1    3    3    0    0 -0.29554943131E-01  0.82648983558E-01  0.64485239997E-01  0.88671455121E+00  0.88000000000E+00 0. -1.
        -11    1    4    4    0    0  0.23651819047E-01 -0.76787099295E-01 -0.51768542336E-01  0.95581955718E-01  0.51100000000E-03 0. -1.
         11    1    4    4    0    0  0.17805096398E-01 -0.22936035053E-01 -0.24254073197E-01  0.37836547799E-01  0.51100000000E-03 0.  1.
</event>
<event>
 8    1  0.1061721E+005  0.1043930E+01  0.7957747E-01            NaN
         13   -1    0    0    0    0  0.00000000000E+00  0.00000000000E+00  0.74505805969E-08  0.10566000000E+00  0.10566000000E+00 0. -1.
     999900   -1    0    0    0    0 -0.00000000000E+00 -0.00000000000E+00 -0.74505805969E-08  0.93827000000E+00  0.93827000000E+00 0.  1.
     999902    2    1    2    0    0 -0.23113075656E-01  0.94504580835E-02  0.18182176484E-02  0.10188934000E+01  0.10185857496E+01 0.  0.
     999903    2    3    3    0    0 -0.54435240639E-01  0.79152472042E-01  0.87256101291E-01  0.13145941331E+00  0.20967615054E-01 0.  0.
         14    1    1    2    0    0  0.23113075656E-01 -0.94504580835E-02 -0.18182176484E-02  0.25036600002E-01  0.00000000000E+00 0. -1.
     999901    1    3    3    0    0  0.31322164983E-01 -0.69702013959E-01 -0.85437883643E-01  0.88743398669E+00  0.88000000000E+00 0. -1.
        -11    1    4    4    0    0 -0.24215151596E-01  0.27548744589E-01  0.21258513455E-01  0.42396844347E-01  0.51100000000E-03 0. -1.
         11    1    4    4    0    0 -0.30220089042E-01  0.51603727454E-01  0.65997587837E-01  0.89062568962E-01  0.51100000000E-03 0.  1.
</event>
<event>
 8    1  0.1061721E+005  0.1043930E+01  0.7957747E-01            NaN
         13   -1    0    0    0    0  0.00000000000E+00  0.00000000000E+00  0.74505805969E-08  0.10566000000E+00  0.10566000000E+00 0.  1.
     999900   -1    0    0    0    0 -0.00000000000E+00 -0.00000000000E+00 -0.74505805969E-08  0.93827000000E+00  0.93827000000E+00 0. -1.
     999902    2    1    2    0    0 -0.11484923126E-01  0.11924818193E-01  0.16446376051E-01  0.10205935900E+01  0.10203267554E+01 0.  0.
     999903    2    3    3    0    0 -0.20177523852E-01 -0.54553116355E-01 -0.11276552494E+00  0.12863473865E+00  0.21157915756E-01 0.  0.
         14    1    1    2    0    0  0.11484923126E-01 -0.11924818193E-01 -0.16446376051E-01  0.23336410035E-01  0.00000000000E+00 0. -1.
     999901    1    3    3    0    0  0.86926007256E-02  0.66477934547E-01  0.12921190099E+00  0.89195885132E+00  0.88000000000E+00 0.  1.
        -11    1    4    4    0    0 -0.50656367969E-03 -0.11817915659E-01 -0.42152091231E-01  0.43783326203E-01  0.51100000000E-03 0.  1.
         11    1    4    4    0    0 -0.19670960172E-01 -0.42735200695E-01 -0.70613433707E-01  0.84851412442E-01  0.51100000000E-03 0. -1.
</event>
<event>
 8    1  0.1061721E+005  0.1043930E+01  0.7957747E-01            NaN
         13   -1    0    0    0    0  0.00000000000E+00  0.00000000000E+00  0.74505805969E-08  0.10566000000E+00  0.10566000000E+00 0. -1.
     999900   -1    0    0    0    0 -0.00000000000E+00 -0.00000000000E+00 -0.74505805969E-08  0.93827000000E+00  0.93827000000E+00 0.  1.
     999902    2    1    2    0    0  0.17436677445E-01 -0.15251655941E-01  0.33699507061E-02  0.10205204443E+01  0.10202519150E+01 0.  0.
     999903    2    3    3    0    0 -0.67406958459E-01  0.22116375917E-01  0.10659349297E+00  0.12965013275E+00  0.20350725927E-01 0.  0.
         14    1    1    2    0    0 -0.17436677445E-01  0.15251655941E-01 -0.33699507061E-02  0.23409555678E-01  0.00000000000E+00 0.  1.
     999901    1    3    3    0    0  0.84843635904E-01 -0.37368031858E-01 -0.10322354227E+00  0.89087031157E+00  0.88000000000E+00 0.  1.
        -11    1    4    4    0    0 -0.38184155461E-01  0.18968454041E-01  0.48754588816E-01  0.64769615011E-01  0.51100000000E-03 0. -1.
         11    1    4    4    0    0 -0.29222802998E-01  0.31479218758E-02  0.57838904158E-01  0.64880517742E-01  0.51100000000E-03 0.  1.
</event>
<event>
 8    1  0.1061721E+005  0.1043930E+01  0.7957747E-01            NaN
         13   -1    0    0    0    0  0.00000000000E+00  0.00000000000E+00  0.74505805969E-08  0.10566000000E+00  0.10566000000E+00 0.  1.
     999900   -1    0    0    0    0 -0.00000000000E+00 -0.00000000000E+00 -0.74505805969E-08  0.93827000000E+00  0.93827000000E+00 0.  1.
     999902    2    1    2    0    0  0.13777826005E-01 -0.12785007306E-02 -0.18778991712E-01  0.10206037576E+01  0.10203371582E+01 0.  0.
     999903    2    3    3    0    0 -0.63093846339E-01  0.14369903037E-01  0.10846128067E+00  0.12799846218E+00  0.20794935808E-01 0.  0.
         14    1    1    2    0    0 -0.13777826005E-01  0.12785007306E-02  0.18778991712E-01  0.23326242374E-01  0.00000000000E+00 0.  1.
     999901    1    3    3    0    0  0.76871672344E-01 -0.15648403767E-01 -0.12724027238E+00  0.89260529545E+00  0.88000000000E+00 0.  1.
        -11    1    4    4    0    0 -0.20894529485E-01 -0.32519113243E-03  0.51636602747E-01  0.55707153723E-01  0.51100000000E-03 0. -1.
         11    1    4    4    0    0 -0.42199316853E-01  0.14695094169E-01  0.56824677926E-01  0.72291308453E-01  0.51100000000E-03 0.  1.
</event>
<event>
 8    1  0.1061721E+005  0.1043930E+01  0.7957747E-01            NaN
         13   -1    0    0    0    0  0.00000000000E+00  0.00000000000E+00  0.74505805969E-08  0.10566000000E+00  0.10566000000E+00 0. -1.
     999900   -1    0    0    0    0 -0.00000000000E+00 -0.00000000000E+00 -0.74505805969E-08  0.93827000000E+00  0.93827000000E+00 0. -1.
     999902    2    1    2    0    0 -0.43668927650E-02 -0.23552536905E-01 -0.36026601592E-02  0.10197066454E+01  0.10194188893E+01 0.  0.
     999903    2    3    3    0    0  0.75109610809E-01  0.38160711389E-01 -0.95927645194E-01  0.12917369123E+00  0.19647795377E-01 0.  0.
         14    1    1    2    0    0  0.43668927650E-02  0.23552536905E-01  0.36026601592E-02  0.24223354584E-01  0.00000000000E+00 0.  1.
     999901    1    3    3    0    0 -0.79476503574E-01 -0.61713248294E-01  0.92324985035E-01  0.89053295419E+00  0.88000000000E+00 0.  1.
        -11    1    4    4    0    0  0.56885907821E-01  0.20146539952E-01 -0.73627216400E-01  0.95200408069E-01  0.51100000000E-03 0. -1.
         11    1    4    4    0    0  0.18223702988E-01  0.18014171437E-01 -0.22300428794E-01  0.33973283158E-01  0.51100000000E-03 0.  1.
</event>
<event>
 8    1  0.1061721E+005  0.1043930E+01  0.7957747E-01            NaN
         13   -1    0    0    0    0  0.00000000000E+00  0.00000000000E+00  0.74505805969E-08  0.10566000000E+00  0.10566000000E+00 0. -1.
     999900   -1    0    0    0    0 -0.00000000000E+00 -0.00000000000E+00 -0.74505805969E-08  0.93827000000E+00  0.93827000000E+00 0.  1.
     999902    2    1    2    0    0 -0.20381296553E-01 -0.75748669957E-02  0.32568286428E-02  0.10219440319E+01  0.10217075030E+01 0.  0.
     999903    2    3    3    0    0 -0.73571458715E-01  0.16799883878E-01 -0.10768468531E+00  0.13305070799E+00  0.20285556674E-01 0.  0.
         14    1    1    2    0    0  0.20381296553E-01  0.75748669957E-02 -0.32568286428E-02  0.21985968070E-01  0.00000000000E+00 0. -1.
     999901    1    3    3    0    0  0.53190162163E-01 -0.24374750874E-01  0.11094151395E+00  0.88889332394E+00  0.88000000000E+00 0. -1.
        -11    1    4    4    0    0 -0.33383118458E-01  0.12851450540E-01 -0.35877267651E-01  0.50665884321E-01  0.51100000000E-03 0. -1.
         11    1    4    4    0    0 -0.40188340257E-01  0.39484333381E-02 -0.71807417661E-01  0.82384823667E-01  0.51100000000E-03 0.  1.
</event>
<event>
 8    1  0.1061721E+005  0.1043930E+01  0.7957747E-01            NaN
         13   -1    0    0    0    0  0.00000000000E+00  0.00000000000E+00  0.74505805969E-08  0.10566000000E+00  0.10566000000E+00 0. -1.
     999900   -1    0    0    0    0 -0.00000000000E+00 -0.00000000000E+00 -0.74505805969E-08  0.93827000000E+00  0.93827000000E+00 0.  1.
     999902    2    1    2    0    0 -0.20493242189E-01 -0.25385306123E-02 -0.11271626284E-01  0.10204041276E+01  0.10201328918E+01 0.  0.
     999903    2    3    3    0    0  0.23784640968E-01 -0.10304559899E+00  0.72514434600E-01  0.12962788986E+00  0.18998473265E-01 0.  0.
         14    1    1    2    0    0  0.20493242189E-01  0.25385306123E-02  0.11271626284E-01  0.23525872400E-01  0.00000000000E+00 0.  1.
     999901    1    3    3    0    0 -0.44277883157E-01  0.10050706838E+00 -0.83786060884E-01  0.89077623774E+00  0.88000000000E+00 0.  1.
        -11    1    4    4    0    0  0.15961334220E-01 -0.87398833037E-01  0.53165003394E-01  0.10353791051E+00  0.51100000000E-03 0.  1.
         11    1    4    4    0    0  0.78233067475E-02 -0.15646765952E-01  0.19349431205E-01  0.26089979345E-01  0.51100000000E-03 0. -1.
</event>
<event>
 8    1  0.1061721E+005  0.1043930E+01  0.7957747E-01            NaN
         13   -1    0    0    0    0  0.00000000000E+00  0.00000000000E+00  0.74505805969E-08  0.10566000000E+00  0.10566000000E+00 0.  1.
     999900   -1    0    0    0    0 -0.00000000000E+00 -0.00000000000E+00 -0.74505805969E-08  0.93827000000E+00  0.93827000000E+00 0.  1.
     999902    2    1    2    0    0 -0.15355155317E-01  0.11586086471E-01 -0.13342663210E-01  0.10205196421E+01  0.10202510941E+01 0.  0.
     999903    2    3    3    0    0 -0.26976232478E-02 -0.10354752031E+00  0.73766421081E-01  0.12866542024E+00  0.19594370399E-01 0.  0.
         14    1    1    2    0    0  0.15355155317E-01 -0.11586086471E-01  0.13342663210E-01  0.23410357879E-01  0.00000000000E+00 0.  1.
     999901    1    3    3    0    0 -0.12657532069E-01  0.11513360678E+00 -0.87109084291E-01  0.89185422189E+00  0.88000000000E+00 0.  1.
        -11    1    4    4    0    0  0.78632715651E-02 -0.57279541542E-01  0.37204827788E-01  0.68754907103E-01  0.51100000000E-03 0.  1.
         11    1    4    4    0    0 -0.10560894813E-01 -0.46267978769E-01  0.36561593293E-01  0.59910513133E-01  0.51100000000E-03 0. -1.
</event>
<event>
 8    1  0.1061721E+005  0.1043930E+01  0.7957747E-01            NaN
         13   -1    0    0    0    0  0.00000000000E+00  0.00000000000E+00  0.74505805969E-08  0.10566000000E+00  0.10566000000E+00 0. -1.
     999900   -1    0    0    0    0 -0.00000000000E+00 -0.00000000000E+00 -0.74505805969E-08  0.93827000000E+00  0.93827000000E+00 0. -1.
     999902    2    1    2    0    0  0.18035136219E-01  0.43360984959E-02 -0.26299739752E-01  0.10117470200E+01  0.10112350312E+01 0.  0.
     999903    2    3    3    0    0 -0.20289400169E-01 -0.56267440447E-01 -0.10791807224E+00  0.12506606771E+00  0.20433461824E-01 0.  0.
         14    1    1    2    0    0 -0.18035136219E-01 -0.43360984959E-02  0.26299739752E-01  0.32182979968E-01  0.00000000000E+00 0. -1.
     999901    1    3    3    0    0  0.38324536388E-01  0.60603538943E-01  0.81618332486E-01  0.88668095233E+00  0.88000000000E+00 0.  1.
        -11    1    4    4    0    0 -0.32814379573E-02 -0.36576779961E-01 -0.55637759027E-01  0.66666708468E-01  0.51100000000E-03 0. -1.
         11    1    4    4    0    0 -0.17007962212E-01 -0.19690660486E-01 -0.52280313210E-01  0.58399359237E-01  0.51100000000E-03 0.  1.
</event>
<event>
 8    1  0.1061721E+005  0.1043930E+01  0.7957747E-01            NaN
         13   -1    0    0    0    0  0.00000000000E+00  0.00000000000E+00  0.74505805969E-08  0.10566000000E+00  0.10566000000E+00 0.  1.
     999900   -1    0    0    0    0 -0.00000000000E+00 -0.00000000000E+00 -0.74505805969E-08  0.93827000000E+00  0.93827000000E+00 0. -1.
     999902    2    1    2    0    0  0.14138725028E-01  0.10937362723E-01 -0.13954244361E-01  0.10212529106E+01  0.10210011053E+01 0.  0.
     999903    2    3    3    0    0 -0.13978541911E-01 -0.89921442683E-01  0.89256733025E-01  0.12905585545E+00  0.20183754563E-01 0.  0.
         14    1    1    2    0    0 -0.14138725028E-01 -0.10937362723E-01  0.13954244361E-01  0.22677089418E-01  0.00000000000E+00 0.  1.
     999901    1    3    3    0    0  0.28117266939E-01  0.10085880541E+00 -0.10321097739E+00  0.89219705513E+00  0.88000000000E+00 0.  1.
        -11    1    4    4    0    0  0.52227554489E-02 -0.21172719708E-01  0.21972724956E-01  0.30961637510E-01  0.51100000000E-03 0.  1.
         11    1    4    4    0    0 -0.19201297360E-01 -0.68748722975E-01  0.67284008069E-01  0.98094217943E-01  0.51100000000E-03 0. -1.
</event>
<event>
 8    1  0.1061721E+005  0.1043930E+01  0.7957747E-01            NaN
         13   -1    0    0    0    0  0.00000000000E+00  0.00000000000E+00  0.74505805969E-08  0.10566000000E+00  0.10566000000E+00 0.  1.
     999900   -1    0    0    0    0 -0.00000000000E+00 -0.00000000000E+00 -0.74505805969E-08  0.93827000000E+00  0.93827000000E+00 0. -1.
     999902    2    1    2    0    0 -0.25484353324E-02  0.15228349786E-01 -0.13235366092E-01  0.10235935284E+01  0.10233914888E+01 0.  0.
     999903    2    3    3    0    0 -0.74085599169E-01  0.10969844707E+00 -0.20975264093E-01  0.13561713736E+00  0.20727299638E-01 0.  0.
         14    1    1    2    0    0  0.25484353324E-02 -0.15228349786E-01  0.13235366092E-01  0.20336471558E-01  0.00000000000E+00 0.  1.
     999901    1    3    3    0    0  0.71537163836E-01 -0.94470097280E-01  0.77398980014E-02  0.88797639108E+00  0.88000000000E+00 0. -1.
        -11    1    4    4    0    0 -0.65920387752E-01  0.93307406565E-01 -0.24791705278E-01  0.11690448842E+00  0.51100000000E-03 0. -1.
         11    1    4    4    0    0 -0.81652114171E-02  0.16391040501E-01  0.38164411849E-02  0.18712648944E-01  0.51100000000E-03 0.  1.
</event>
<event>
 8    1  0.1061721E+005  0.1043930E+01  0.7957747E-01            NaN
         13   -1    0    0    0    0  0.00000000000E+00  0.00000000000E+00  0.74505805969E-08  0.10566000000E+00  0.10566000000E+00 0. -1.
     999900   -1    0    0    0    0 -0.00000000000E+00 -0.00000000000E+00 -0.74505805969E-08  0.93827000000E+00  0.93827000000E+00 0. -1.
     999902    2    1    2    0    0  0.76786804666E-02 -0.20846591953E-01  0.83841522916E-02  0.10201847575E+01  0.10199083797E+01 0.  0.
     999903    2    3    3    0    0  0.26262241010E-01  0.11626206642E+00  0.41433359730E-01  0.12876096212E+00  0.25614228037E-01 0.  0.
         14    1    1    2    0    0 -0.76786804666E-02  0.20846591953E-01 -0.83841522916E-02  0.23745242458E-01  0.00000000000E+00 0.  1.
     999901    1    3    3    0    0 -0.18583560543E-01 -0.13710865837E+00 -0.33049207438E-01  0.89142379542E+00  0.88000000000E+00 0. -1.
        -11    1    4    4    0    0  0.23095152184E-01  0.77692644559E-01  0.39088864479E-01  0.89987407564E-01  0.51100000000E-03 0. -1.
         11    1    4    4    0    0  0.31670888259E-02  0.38569421861E-01  0.23444952510E-02  0.38773554561E-01  0.51100000000E-03 0.  1.
</event>
<event>
 8    1  0.1061721E+005  0.1043930E+01  0.7957747E-01            NaN
         13   -1    0    0    0    0  0.00000000000E+00  0.00000000000E+00  0.74505805969E-08  0.10566000000E+00  0.10566000000E+00 0.  1.
     999900   -1    0    0    0    0 -0.00000000000E+00 -0.00000000000E+00 -0.74505805969E-08  0.93827000000E+00  0.93827000000E+00 0. -1.
     999902    2    1    2    0    0 -0.84843180111E-02  0.64216595881E-02 -0.23028069811E-01  0.10185624348E+01  0.10182464929E+01 0.  0.
     999903    2    3    3    0    0 -0.98371621416E-01 -0.66694330240E-01 -0.51043619503E-01  0.13052496584E+00  0.17498743669E-01 0.  0.
         14    1    1    2    0    0  0.84843180111E-02 -0.64216595881E-02  0.23028069811E-01  0.25367565181E-01  0.00000000000E+00 0.  1.
     999901    1    3    3    0    0  0.89887303405E-01  0.73115989828E-01  0.28015549692E-01  0.88803746898E+00  0.88000000000E+00 0. -1.
        -11    1    4    4    0    0 -0.45282376924E-01 -0.30277425774E-01 -0.32889602214E-01  0.63633349953E-01  0.51100000000E-03 0. -1.
         11    1    4    4    0    0 -0.53089244492E-01 -0.36416904466E-01 -0.18154017289E-01  0.66891615890E-01  0.51100000000E-03 0.  1.
</event>
<event>
 8    1  0.1211699E+005  0.1043930E+01  0.7957747E-01            NaN
         13   -1    0    0    0    0  0.00000000000E+00  0.00000000000E+00  0.74505805969E-08  0.10566000000E+00  0.10566000000E+00 0. -1.
     999900   -1    0    0    0    0 -0.00000000000E+00 -0.00000000000E+00 -0.74505805969E-08  0.93827000000E+00  0.93827000000E+00 0. -1.
     999902    2    1    2    0    0  0.42341332535E-02  0.24231041497E-01 -0.82094438063E-03  0.10193181084E+01  0.10190209326E+01 0.  0.
     999903    2    3    3    0    0  0.12687521726E+00  0.35638882758E-02 -0.21756376577E-01  0.13032639924E+00  0.20040168744E-01 0.  0.
         14    1    1    2    0    0 -0.42341332535E-02 -0.24231041497E-01  0.82094438063E-03  0.24611891559E-01  0.00000000000E+00 0.  1.
     999901    1    3    3    0    0 -0.12264108400E+00  0.20667153221E-01  0.20935432196E-01  0.88899170920E+00  0.88000000000E+00 0. -1.
        -11    1    4    4    0    0  0.38824233320E-01  0.32857718884E-02  0.23380142866E-02  0.39036455033E-01  0.51100000000E-03 0. -1.
         11    1    4    4    0    0  0.88050983937E-01  0.27811638742E-03 -0.24094390863E-01  0.91289944206E-01  0.51100000000E-03 0.  1.
</event>
<event>
 8    1  0.1061721E+005  0.1043930E+01  0.7957747E-01            NaN
         13   -1    0    0    0    0  0.00000000000E+00  0.00000000000E+00  0.74505805969E-08  0.10566000000E+00  0.10566000000E+00 0.  1.
     999900   -1    0    0    0    0 -0.00000000000E+00 -0.00000000000E+00 -0.74505805969E-08  0.93827000000E+00  0.93827000000E+00 0. -1.
     999902    2    1    2    0    0 -0.21015549864E-01  0.10398796313E-01  0.25366914656E-02  0.10203456174E+01  0.10200730149E+01 0.  0.
     999903    2    3    3    0    0 -0.93941486916E-01  0.89342448212E-01 -0.23806669940E-01  0.13341593291E+00  0.20639224897E-01 0.  0.
         14    1    1    2    0    0  0.21015549864E-01 -0.10398796313E-01 -0.25366914656E-02  0.23584382639E-01  0.00000000000E+00 0.  1.
     999901    1    3    3    0    0  0.72925937051E-01 -0.78943651898E-01  0.26343361406E-01  0.88692968445E+00  0.88000000000E+00 0. -1.
        -11    1    4    4    0    0 -0.56646313464E-01  0.61514299885E-01 -0.69185326665E-02  0.83910316021E-01  0.51100000000E-03 0. -1.
         11    1    4    4    0    0 -0.37295173451E-01  0.27828148326E-01 -0.16888137274E-01  0.49505616890E-01  0.51100000000E-03 0.  1.
</event>
<event>
 8    1  0.1061721E+005  0.1043930E+01  0.7957747E-01            NaN
         13   -1    0    0    0    0  0.00000000000E+00  0.00000000000E+00  0.74505805969E-08  0.10566000000E+00  0.10566000000E+00 0.  1.
     999900   -1    0    0    0    0 -0.00000000000E+00 -0.00000000000E+00 -0.74505805969E-08  0.93827000000E+00  0.93827000000E+00 0. -1.
     999902    2    1    2    0    0  0.35040169003E-02 -0.26353339505E-02 -0.22678420588E-01  0.10208316477E+01  0.10205702911E+01 0.  0.
     999903    2    3    3    0    0  0.13429624117E-01 -0.30588400921E-01 -0.12842664858E+00  0.13400439316E+00  0.18648545417E-01 0.  0.
         14    1    1    2    0    0 -0.35040169003E-02  0.26353339505E-02  0.22678420588E-01  0.23098352318E-01  0.00000000000E+00 0.  1.
     999901    1    3    3    0    0 -0.99256072170E-02  0.27953066971E-01  0.10574822800E+00  0.88682725452E+00  0.88000000000E+00 0.  1.
        -11    1    4    4    0    0  0.10915930930E-01 -0.27109928348E-01 -0.76431918623E-01  0.81830343202E-01  0.51100000000E-03 0.  1.
         11    1    4    4    0    0  0.25136931875E-02 -0.34784725737E-02 -0.51994729960E-01  0.52174049962E-01  0.51100000000E-03 0. -1.
</event>
<event>
 8    1  0.1061721E+005  0.1043930E+01  0.7957747E-01            NaN
         13   -1    0    0    0    0  0.00000000000E+00  0.00000000000E+00  0.74505805969E-08  0.10566000000E+00  0.10566000000E+00 0.  1.
     999900   -1    0    0    0    0 -0.00000000000E+00 -0.00000000000E+00 -0.74505805969E-08  0.93827000000E+00  0.93827000000E+00 0. -1.
     999902    2    1    2    0    0  0.20513544694E-01  0.15118512057E-01  0.87286373417E-02  0.10169937042E+01  0.10166369216E+01 0.  0.
     999903    2    3    3    0    0  0.12336070711E+00 -0.86069490532E-02 -0.33713529164E-01  0.12967089155E+00  0.19646741063E-01 0.  0.
         14    1    1    2    0    0 -0.20513544694E-01 -0.15118512057E-01 -0.87286373417E-02  0.26936295821E-01  0.00000000000E+00 0.  1.
     999901    1    3    3    0    0 -0.10284716242E+00  0.23725461111E-01  0.42442166506E-01  0.88732281263E+00  0.88000000000E+00 0.  1.
        -11    1    4    4    0    0  0.82124540419E-01 -0.14695177657E-03 -0.29902078959E-01  0.87400555953E-01  0.51100000000E-03 0. -1.
         11    1    4    4    0    0  0.41236166692E-01 -0.84599972766E-02 -0.38114502052E-02  0.42270335592E-01  0.51100000000E-03 0.  1.
</event>
<event>
 8    1  0.1061721E+005  0.1043930E+01  0.7957747E-01            NaN
         13   -1    0    0    0    0  0.00000000000E+00  0.00000000000E+00  0.74505805969E-08  0.10566000000E+00  0.10566000000E+00 0. -1.
     999900   -1    0    0    0    0 -0.00000000000E+00 -0.00000000000E+00 -0.74505805969E-08  0.93827000000E+00  0.93827000000E+00 0.  1.
     999902    2    1    2    0    0  0.97191682368E-02  0.21264246758E-01  0.62871713242E-02  0.10197192804E+01  0.10194318279E+01 0.  0.
     999903    2    3    3    0    0  0.69632524325E-01  0.11124446810E+00  0.10085890128E-01  0.13309620334E+00  0.19719382259E-01 0.  0.
         14    1    1    2    0    0 -0.97191682368E-02 -0.21264246758E-01 -0.62871713242E-02  0.24210719623E-01  0.00000000000E+00 0. -1.
     999901    1    3    3    0    0 -0.59913356089E-01 -0.89980221344E-01 -0.37987188040E-02  0.88662307704E+00  0.88000000000E+00 0.  1.
        -11    1    4    4    0    0  0.27233259707E-01  0.42769556656E-01 -0.56915338026E-02  0.51024896755E-01  0.51100000000E-03 0.  1.
         11    1    4    4    0    0  0.42399264618E-01  0.68474911445E-01  0.15777423931E-01  0.82071306585E-01  0.51100000000E-03 0. -1.
</event>
<event>
 8    1  0.1061721E+005  0.1043930E+01  0.7957747E-01            NaN
         13   -1    0    0    0    0  0.00000000000E+00  0.00000000000E+00  0.74505805969E-08  0.10566000000E+00  0.10566000000E+00 0.  1.
     999900   -1    0    0    0    0 -0.00000000000E+00 -0.00000000000E+00 -0.74505805969E-08  0.93827000000E+00  0.93827000000E+00 0.  1.
     999902    2    1    2    0    0 -0.17847014630E-01 -0.41361526311E-02  0.16758933747E-01  0.10191008729E+01  0.10187983626E+01 0.  0.
     999903    2    3    3    0    0  0.10286520456E+00  0.71491567706E-01  0.14150612855E-01  0.12764263204E+00  0.20002677498E-01 0.  0.
         14    1    1    2    0    0  0.17847014630E-01  0.41361526311E-02 -0.16758933747E-01  0.24829127051E-01  0.00000000000E+00 0. -1.
     999901    1    3    3    0    0 -0.12071221919E+00 -0.75627720337E-01  0.26083208918E-02  0.89145824091E+00  0.88000000000E+00 0.  1.
        -11    1    4    4    0    0  0.73615138773E-01  0.59458575282E-01  0.52198445211E-02  0.94773512803E-01  0.51100000000E-03 0. -1.
         11    1    4    4    0    0  0.29250065791E-01  0.12032992423E-01  0.89307683337E-02  0.32869119237E-01  0.51100000000E-03 0.  1.
</event>
<event>
 8    1  0.1061721E+005  0.1043930E+01  0.7957747E-01            NaN
         13   -1    0    0    0    0  0.00000000000E+00  0.00000000000E+00  0.74505805969E-08  0.10566000000E+00  0.10566000000E+00 0.  1.
     999900   -1    0    0    0    0 -0.00000000000E+00 -0.00000000000E+00 -0.74505805969E-08  0.93827000000E+00  0.93827000000E+00 0.  1.
     999902    2    1    2    0    0  0.39764859761E-02  0.18544988635E-01  0.14222031441E-01  0.10202235616E+01  0.10199480969E+01 0.  0.
     999903    2    3    3    0    0  0.31489667016E-01 -0.94503448263E-01  0.81544623744E-01  0.13001613876E+00  0.18225526430E-01 0.  0.
         14    1    1    2    0    0 -0.39764859761E-02 -0.18544988635E-01 -0.14222031441E-01  0.23706438418E-01  0.00000000000E+00 0. -1.
     999901    1    3    3    0    0 -0.27513181040E-01  0.11304843690E+00 -0.67322592303E-01  0.89020742282E+00  0.88000000000E+00 0.  1.
        -11    1    4    4    0    0  0.12678441071E-01 -0.62449653344E-01  0.56784696755E-01  0.85354935284E-01  0.51100000000E-03 0.  1.
         11    1    4    4    0    0  0.18811225945E-01 -0.32053794919E-01  0.24759926988E-01  0.44661203474E-01  0.51100000000E-03 0. -1.
</event>
<event>
 8    1  0.1061721E+005  0.1043930E+01  0.7957747E-01            NaN
         13   -1    0    0    0    0  0.00000000000E+00  0.00000000000E+00  0.74505805969E-08  0.10566000000E+00  0.10566000000E+00 0. -1.
     999900   -1    0    0    0    0 -0.00000000000E+00 -0.00000000000E+00 -0.74505805969E-08  0.93827000000E+00  0.93827000000E+00 0. -1.
     999902    2    1    2    0    0  0.12589871772E-01  0.13030172467E-02 -0.19156435670E-01  0.10209697789E+01  0.10207115742E+01 0.  0.
     999903    2    3    3    0    0  0.12432824314E+00  0.39150877066E-01  0.12594943806E-01  0.13252953093E+00  0.20375002820E-01 0.  0.
         14    1    1    2    0    0 -0.12589871772E-01 -0.13030172467E-02  0.19156435670E-01  0.22960221096E-01  0.00000000000E+00 0. -1.
     999901    1    3    3    0    0 -0.11173837137E+00 -0.37847859819E-01 -0.31751379476E-01  0.88844024798E+00  0.88000000000E+00 0.  1.
        -11    1    4    4    0    0  0.57287009403E-01  0.23568231336E-01  0.14696453698E-01  0.63667180297E-01  0.51100000000E-03 0.  1.
         11    1    4    4    0    0  0.67041233740E-01  0.15582645730E-01 -0.21015098926E-02  0.68862350629E-01  0.51100000000E-03 0. -1.
</event>
<event>
 8    1  0.1061721E+005  0.1043930E+01  0.7957747E-01            NaN
         13   -1    0    0    0    0  0.00000000000E+00  0.00000000000E+00  0.74505805969E-08  0.10566000000E+00  0.10566000000E+00 0. -1.
     999900   -1    0    0    0    0 -0.00000000000E+00 -0.00000000000E+00 -0.74505805969E-08  0.93827000000E+00  0.93827000000E+00 0.  1.
     999902    2    1    2    0    0 -0.32730933400E-02 -0.18916406008E-01 -0.13856007187E-01  0.10202544326E+01  0.10199796933E+01 0.  0.
     999903    2    3    3    0    0 -0.22040155307E-01  0.62763485779E-01 -0.11101805381E+00  0.13094893356E+00  0.19939692432E-01 0.  0.
         14    1    1    2    0    0  0.32730933400E-02  0.18916406008E-01  0.13856007187E-01  0.23675567394E-01  0.00000000000E+00 0. -1.
     999901    1    3    3    0    0  0.18767061967E-01 -0.81679891786E-01  0.97162046624E-01  0.88930549905E+00  0.88000000000E+00 0. -1.
        -11    1    4    4    0    0 -0.22753037699E-01  0.37982907105E-01 -0.64524600650E-01  0.78256547117E-01  0.51100000000E-03 0. -1.
         11    1    4    4    0    0  0.71288239197E-03  0.24780578673E-01 -0.46493453161E-01  0.52692386438E-01  0.51100000000E-03 0.  1.
</event>
<event>
 8    1  0.1061721E+005  0.1043930E+01  0.7957747E-01            NaN
         13   -1    0    0    0    0  0.00000000000E+00  0.00000000000E+00  0.74505805969E-08  0.10566000000E+00  0.10566000000E+00 0.  1.
     999900   -1    0    0    0    0 -0.00000000000E+00 -0.00000000000E+00 -0.74505805969E-08  0.93827000000E+00  0.93827000000E+00 0. -1.
     999902    2    1    2    0    0  0.15886267062E-02  0.17962094105E-01 -0.15336691617E-01  0.10202577659E+01  0.10199831048E+01 0.  0.
     999903    2    3    3    0    0  0.67107723480E-02 -0.60015636669E-01 -0.11481616687E+00  0.13121168782E+00  0.19668343501E-01 0.  0.
         14    1    1    2    0    0 -0.15886267062E-02 -0.17962094105E-01  0.15336691617E-01  0.23672234141E-01  0.00000000000E+00 0.  1.
     999901    1    3    3    0    0 -0.51221456418E-02  0.77977730774E-01  0.99479475255E-01  0.88904607804E+00  0.88000000000E+00 0. -1.
        -11    1    4    4    0    0 -0.28323711856E-02 -0.30124411542E-01 -0.72219067421E-01  0.78302984091E-01  0.51100000000E-03 0. -1.
         11    1    4    4    0    0  0.95431435335E-02 -0.29891225127E-01 -0.42597099451E-01  0.52908703733E-01  0.51100000000E-03 0.  1.
</event>
<event>
 8    1  0.1061721E+005  0.1043930E+01  0.7957747E-01            NaN
         13   -1    0    0    0    0  0.00000000000E+00  0.00000000000E+00  0.74505805969E-08  0.10566000000E+00  0.10566000000E+00 0.  1.
     999900   -1    0    0    0    0 -0.00000000000E+00 -0.00000000000E+00 -0.74505805969E-08  0.93827000000E+00  0.93827000000E+00 0.  1.
     999902    2    1    2    0    0  0.59563789426E-02  0.14629123589E-02  0.22923490950E-01  0.10202001665E+01  0.10199241514E+01 0.  0.
     999903    2    3    3    0    0 -0.94907252070E-01  0.83273986107E-01 -0.22191542809E-01  0.12952520323E+00  0.18503254895E-01 0.  0.
         14    1    1    2    0    0 -0.59563789426E-02 -0.14629123589E-02 -0.22923490950E-01  0.23729833544E-01  0.00000000000E+00 0. -1.
     999901    1    3    3    0    0  0.10086363101E+00 -0.81811073748E-01  0.45115033758E-01  0.89067496323E+00  0.88000000000E+00 0. -1.
        -11    1    4    4    0    0 -0.62211074415E-01  0.65695495987E-01 -0.15169747452E-01  0.91741475526E-01  0.51100000000E-03 0. -1.
         11    1    4    4    0    0 -0.32696177655E-01  0.17578490119E-01 -0.70217953570E-02  0.37783727703E-01  0.51100000000E-03 0.  1.
</event>
<event>
 8    1  0.1061721E+005  0.1043930E+01  0.7957747E-01            NaN
         13   -1    0    0    0    0  0.00000000000E+00  0.00000000000E+00  0.74505805969E-08  0.10566000000E+00  0.10566000000E+00 0. -1.
     999900   -1    0    0    0    0 -0.00000000000E+00 -0.00000000000E+00 -0.74505805969E-08  0.93827000000E+00  0.93827000000E+00 0.  1.
     999902    2    1    2    0    0  0.18206644850E-01  0.53790096740E-02  0.14277077669E-01  0.10201760402E+01  0.10198994570E+01 0.  0.
     999903    2    3    3    0    0 -0.51170822562E-02  0.12953159172E+00 -0.28882552195E-02  0.13098960946E+00  0.18582733468E-01 0.  0.
         14    1    1    2    0    0 -0.18206644850E-01 -0.53790096740E-02 -0.14277077669E-01  0.23753959849E-01  0.00000000000E+00 0.  1.
     999901    1    3    3    0    0  0.23323727106E-01 -0.12415258205E+00  0.17165332888E-01  0.88918643069E+00  0.88000000000E+00 0. -1.
        -11    1    4    4    0    0  0.10625570736E-02  0.10518272479E+00  0.28047373556E-02  0.10522671854E+00  0.51100000000E-03 0.  1.
         11    1    4    4    0    0 -0.61796393297E-02  0.24348866934E-01 -0.56929925751E-02  0.25762890922E-01  0.51100000000E-03 0. -1.
</event>
<event>
 8    1  0.1061721E+005  0.1043930E+01  0.7957747E-01            NaN
         13   -1    0    0    0    0  0.00000000000E+00  0.00000000000E+00  0.74505805969E-08  0.10566000000E+00  0.10566000000E+00 0.  1.
     999900   -1    0    0    0    0 -0.00000000000E+00 -0.00000000000E+00 -0.74505805969E-08  0.93827000000E+00  0.93827000000E+00 0. -1.
     999902    2    1    2    0    0  0.11034565584E-01  0.87216136965E-02 -0.20871026030E-01  0.10187620062E+01  0.10184510776E+01 0.  0.
     999903    2    3    3    0    0 -0.99406238398E-01 -0.75586308502E-01  0.13694738854E-01  0.12719047851E+00  0.19874146173E-01 0.  0.
         14    1    1    2    0    0 -0.11034565584E-01 -0.87216136965E-02  0.20871026030E-01  0.25167993774E-01  0.00000000000E+00 0.  1.
     999901    1    3    3    0    0  0.11044080398E+00  0.84307922198E-01 -0.34565764883E-01  0.89157152771E+00  0.88000000000E+00 0. -1.
        -11    1    4    4    0    0 -0.24763962683E-01 -0.10582405728E-01  0.77647303947E-02  0.28032005242E-01  0.51100000000E-03 0.  1.
         11    1    4    4    0    0 -0.74642275715E-01 -0.65003902773E-01  0.59300084590E-02  0.99158473269E-01  0.51100000000E-03 0. -1.
</event>
<event>
 8    1  0.1061721E+005  0.1043930E+01  0.7957747E-01            NaN
         13   -1    0    0    0    0  0.00000000000E+00  0.00000000000E+00  0.74505805969E-08  0.10566000000E+00  0.10566000000E+00 0.  1.
     999900   -1    0    0    0    0 -0.00000000000E+00 -0.00000000000E+00 -0.74505805969E-08  0.93827000000E+00  0.93827000000E+00 0.  1.
     999902    2    1    2    0    0  0.15522144785E-01 -0.22007428457E-01  0.16496794801E-01  0.10123482311E+01  0.10118554902E+01 0.  0.
     999903    2    3    3    0    0 -0.59384622149E-01  0.95061654410E-01  0.41760419519E-01  0.12108258912E+00  0.18809818267E-01 0.  0.
         14    1    1    2    0    0 -0.15522144785E-01  0.22007428457E-01 -0.16496794801E-01  0.31581768866E-01  0.00000000000E+00 0.  1.
     999901    1    3    3    0    0  0.74906766934E-01 -0.11706908287E+00 -0.25263624718E-01  0.89126564201E+00  0.88000000000E+00 0.  1.
        -11    1    4    4    0    0 -0.21227194228E-01  0.22959141649E-01  0.52642353020E-02  0.31712604030E-01  0.51100000000E-03 0. -1.
         11    1    4    4    0    0 -0.38157427921E-01  0.72102512761E-01  0.36496184217E-01  0.89369985092E-01  0.51100000000E-03 0.  1.
</event>
<event>
 8    1  0.1061721E+005  0.1043930E+01  0.7957747E-01            NaN
         13   -1    0    0    0    0  0.00000000000E+00  0.00000000000E+00  0.74505805969E-08  0.10566000000E+00  0.10566000000E+00 0.  1.
     999900   -1    0    0    0    0 -0.00000000000E+00 -0.00000000000E+00 -0.74505805969E-08  0.93827000000E+00  0.93827000000E+00 0. -1.
     999902    2    1    2    0    0 -0.11063146859E-01  0.47950136277E-02  0.16737119342E-01  0.10233019478E+01  0.10230940132E+01 0.  0.
     999903    2    3    3    0    0 -0.74781905023E-01  0.27484975224E-01 -0.10405327407E+00  0.13247916315E+00  0.19387822008E-01 0.  0.
         14    1    1    2    0    0  0.11063146859E-01 -0.47950136277E-02 -0.16737119342E-01  0.20628052211E-01  0.00000000000E+00 0. -1.
     999901    1    3    3    0    0  0.63718758164E-01 -0.22689961597E-01  0.12079039341E+00  0.89082278464E+00  0.88000000000E+00 0.  1.
        -11    1    4    4    0    0 -0.24085450537E-01  0.57698110431E-02 -0.46980094428E-01  0.53111110330E-01  0.51100000000E-03 0. -1.
         11    1    4    4    0    0 -0.50696454486E-01  0.21715164181E-01 -0.57073179638E-01  0.79368052817E-01  0.51100000000E-03 0.  1.
</event>
<event>
 8    1  0.1061721E+005  0.1043930E+01  0.7957747E-01            NaN
         13   -1    0    0    0    0  0.00000000000E+00  0.00000000000E+00  0.74505805969E-08  0.10566000000E+00  0.10566000000E+00 0.  1.
     999900   -1    0    0    0    0 -0.00000000000E+00 -0.00000000000E+00 -0.74505805969E-08  0.93827000000E+00  0.93827000000E+00 0.  1.
     999902    2    1    2    0    0 -0.21654986664E-01 -0.22843614602E-03 -0.86971185116E-02  0.10205926801E+01  0.10203258245E+01 0.  0.
     999903    2    3    3    0    0  0.11691066776E+00  0.46496289163E-01  0.14478245697E-01  0.12822462931E+00  0.20048112655E-01 0.  0.
         14    1    1    2    0    0  0.21654986664E-01  0.22843614602E-03  0.86971185116E-02  0.23337319917E-01  0.00000000000E+00 0.  1.
     999901    1    3    3    0    0 -0.13856565442E+00 -0.46724725309E-01 -0.23175364208E-01  0.89236805078E+00  0.88000000000E+00 0.  1.
        -11    1    4    4    0    0  0.52669935625E-01  0.13039880533E-01  0.12900606576E-01  0.55774970857E-01  0.51100000000E-03 0. -1.
         11    1    4    4    0    0  0.64240732132E-01  0.33456408630E-01  0.15776391208E-02  0.72449658450E-01  0.51100000000E-03 0.  1.
</event>
<event>
 8    1  0.1061721E+005  0.1043930E+01  0.7957747E-01            NaN
         13   -1    0    0    0    0  0.00000000000E+00  0.00000000000E+00  0.74505805969E-08  0.10566000000E+00  0.10566000000E+00 0.  1.
     999900   -1    0    0    0    0 -0.00000000000E+00 -0.00000000000E+00 -0.74505805969E-08  0.93827000000E+00  0.93827000000E+00 0.  1.
     999902    2    1    2    0    0  0.21747973292E-01 -0.92973465823E-02 -0.11906772088E-01  0.10174500790E+01  0.10171054405E+01 0.  0.
     999903    2    3    3    0    0  0.24862092035E-01 -0.59351519908E-01  0.10858734784E+00  0.12782434254E+00  0.20177311443E-01 0.  0.
         14    1    1    2    0    0 -0.21747973292E-01  0.92973465823E-02  0.11906772088E-01  0.26479921022E-01  0.00000000000E+00 0.  1.
     999901    1    3    3    0    0 -0.31141187425E-02  0.50054173326E-01 -0.12049411993E+00  0.88962573644E+00  0.88000000000E+00 0.  1.
        -11    1    4    4    0    0  0.80053126412E-02 -0.31680250222E-01  0.37774223536E-01  0.49948737415E-01  0.51100000000E-03 0. -1.
         11    1    4    4    0    0  0.16856779394E-01 -0.27671269686E-01  0.70813124308E-01  0.77875605120E-01  0.51100000000E-03 0.  1.
</event>
<event>
 8    1  0.1061721E+005  0.1043930E+01  0.7957747E-01            NaN
         13   -1    0    0    0    0  0.00000000000E+00  0.00000000000E+00  0.74505805969E-08  0.10566000000E+00  0.10566000000E+00 0.  1.
     999900   -1    0    0    0    0 -0.00000000000E+00 -0.00000000000E+00 -0.74505805969E-08  0.93827000000E+00  0.93827000000E+00 0. -1.
     999902    2    1    2    0    0 -0.20009415827E-01 -0.98923557240E-02 -0.14548496298E-01  0.10172861608E+01  0.10169371853E+01 0.  0.
     999903    2    3    3    0    0  0.41312581758E-01  0.51649237698E-01  0.10393025860E+00  0.12510626274E+00  0.21810666164E-01 0.  0.
         14    1    1    2    0    0  0.20009415827E-01  0.98923557240E-02  0.14548496298E-01  0.26643839214E-01  0.00000000000E+00 0.  1.
     999901    1    3    3    0    0 -0.61321997585E-01 -0.61541593422E-01 -0.11847875490E+00  0.89217989804E+00  0.88000000000E+00 0. -1.
        -11    1    4    4    0    0  0.15564950213E-01  0.35337370027E-01  0.65719277961E-01  0.76225205885E-01  0.51100000000E-03 0. -1.
         11    1    4    4    0    0  0.25747631545E-01  0.16311867671E-01  0.38210980640E-01  0.48881056858E-01  0.51100000000E-03 0.  1.
</event>
<event>
 8    1  0.1061721E+005  0.1043930E+01  0.7957747E-01            NaN
         13   -1    0    0    0    0  0.00000000000E+00  0.00000000000E+00  0.74505805969E-08  0.10566000000E+00  0.10566000000E+00 0. -1.
     999900   -1    0    0    0    0 -0.00000000000E+00 -0.00000000000E+00 -0.74505805969E-08  0.93827000000E+00  0.93827000000E+00 0.  1.
     999902    2    1    2    0    0 -0.40822391055E-02  0.12058945170E-01 -0.22727313587E-01  0.10178797866E+01  0.10175463854E+01 0.  0.
     999903    2    3    3    0    0 -0.11696739384E+00  0.45560500483E-01  0.21955589483E-01  0.12891298510E+00  0.19477663902E-01 0.  0.
         14    1    1    2    0    0  0.40822391055E-02 -0.12058945170E-01  0.22727313587E-01  0.26050213389E-01  0.00000000000E+00 0. -1.
     999901    1    3    3    0    0  0.11288515473E+00 -0.33501555314E-01 -0.44682903069E-01  0.88896680151E+00  0.88000000000E+00 0. -1.
        -11    1    4    4    0    0 -0.27313166506E-01  0.19565932724E-01  0.78297733666E-02  0.34502192103E-01  0.51100000000E-03 0.  1.
         11    1    4    4    0    0 -0.89654227334E-01  0.25994567760E-01  0.14125816116E-01  0.94410792994E-01  0.51100000000E-03 0. -1.
</event>
<event>
 8    1  0.1061721E+005  0.1043930E+01  0.7957747E-01            NaN
         13   -1    0    0    0    0  0.00000000000E+00  0.00000000000E+00  0.74505805969E-08  0.10566000000E+00  0.10566000000E+00 0. -1.
     999900   -1    0    0    0    0 -0.00000000000E+00 -0.00000000000E+00 -0.74505805969E-08  0.93827000000E+00  0.93827000000E+00 0. -1.
     999902    2    1    2    0    0  0.14941982672E-01 -0.13986102207E-01  0.11525478065E-02  0.10234311642E+01  0.10232258527E+01 0.  0.
     999903    2    3    3    0    0 -0.78684202521E-01 -0.38384053454E-01 -0.97545022944E-01  0.13264368507E+00  0.20366060024E-01 0.  0.
         14    1    1    2    0    0 -0.14941982672E-01  0.13986102207E-01 -0.11525478065E-02  0.20498835761E-01  0.00000000000E+00 0.  1.
     999901    1    3    3    0    0  0.93626185192E-01  0.24397951247E-01  0.98697570751E-01  0.89078747917E+00  0.88000000000E+00 0.  1.
        -11    1    4    4    0    0 -0.59780872532E-01 -0.27416889628E-01 -0.59120713230E-01  0.88436182705E-01  0.51100000000E-03 0. -1.
         11    1    4    4    0    0 -0.18903329989E-01 -0.10967163827E-01 -0.38424309714E-01  0.44207502362E-01  0.51100000000E-03 0.  1.
</event>
<event>
 8    1  0.1061721E+005  0.1043930E+01  0.7957747E-01            NaN
         13   -1    0    0    0    0  0.00000000000E+00  0.00000000000E+00  0.74505805969E-08  0.10566000000E+00  0.10566000000E+00 0.  1.
     999900   -1    0    0    0    0 -0.00000000000E+00 -0.00000000000E+00 -0.74505805969E-08  0.93827000000E+00  0.93827000000E+00 0.  1.
     999902    2    1    2    0    0  0.15426725504E-01  0.98358005933E-02 -0.12961107269E-01  0.10215086456E+01  0.10212625499E+01 0.  0.
     999903    2    3    3    0    0  0.49909165182E-01  0.85038477646E-01 -0.89040152726E-01  0.13436012224E+00  0.20050591036E-01 0.  0.
         14    1    1    2    0    0 -0.15426725504E-01 -0.98358005933E-02  0.12961107269E-01  0.22421354436E-01  0.00000000000E+00 0.  1.
     999901    1    3    3    0    0 -0.34482439678E-01 -0.75202677052E-01  0.76079045457E-01  0.88714852333E+00  0.88000000000E+00 0. -1.
        -11    1    4    4    0    0  0.22152727611E-01  0.43499439985E-01 -0.31232898071E-01  0.57954289423E-01  0.51100000000E-03 0.  1.
         11    1    4    4    0    0  0.27756437571E-01  0.41539037661E-01 -0.57807254655E-01  0.76405832815E-01  0.51100000000E-03 0. -1.
</event>
<event>
 8    1  0.1061721E+005  0.1043930E+01  0.7957747E-01            NaN
         13   -1    0    0    0    0  0.00000000000E+00  0.00000000000E+00  0.74505805969E-08  0.10566000000E+00  0.10566000000E+00 0. -1.
     999900   -1    0    0    0    0 -0.00000000000E+00 -0.00000000000E+00 -0.74505805969E-08  0.93827000000E+00  0.93827000000E+00 0.  1.
     999902    2    1    2    0    0 -0.15531611453E-01 -0.17888257990E-01 -0.21429503413E-02  0.10201431767E+01  0.10198658186E+01 0.  0.
     999903    2    3    3    0    0  0.50981127105E-01 -0.33314720933E-01  0.11304515213E+00  0.13001384949E+00  0.20382558370E-01 0.  0.
         14    1    1    2    0    0  0.15531611453E-01  0.17888257990E-01  0.21429503413E-02  0.23786823336E-01  0.00000000000E+00 0. -1.
     999901    1    3    3    0    0 -0.66512738558E-01  0.15426462943E-01 -0.11518810247E+00  0.89012932718E+00  0.88000000000E+00 0.  1.
        -11    1    4    4    0    0  0.15038342623E-01 -0.88486150816E-02  0.16029174259E-01  0.23699056651E-01  0.51100000000E-03 0. -1.
         11    1    4    4    0    0  0.35942784482E-01 -0.24466105852E-01  0.97015977874E-01  0.10631479284E+00  0.51100000000E-03 0.  1.
</event>
<event>
 8    1  0.1061721E+005  0.1043930E+01  0.7957747E-01            NaN
         13   -1    0    0    0    0  0.00000000000E+00  0.00000000000E+00  0.74505805969E-08  0.10566000000E+00  0.10566000000E+00 0.  1.
     999900   -1    0    0    0    0 -0.00000000000E+00 -0.00000000000E+00 -0.74505805969E-08  0.93827000000E+00  0.93827000000E+00 0.  1.
     999902    2    1    2    0    0 -0.15718769179E-01  0.95165308535E-03 -0.13780032612E-01  0.10230045455E+01  0.10227905091E+01 0.  0.
     999903    2    3    3    0    0  0.87361913549E-01  0.95182404787E-01  0.14370911701E-01  0.13154644922E+00  0.20153190308E-01 0.  0.
         14    1    1    2    0    0  0.15718769179E-01 -0.95165308535E-03  0.13780032612E-01  0.20925454521E-01  0.00000000000E+00 0. -1.
     999901    1    3    3    0    0 -0.10308068273E+00 -0.94230751701E-01 -0.28150944313E-01  0.89145809626E+00  0.88000000000E+00 0. -1.
        -11    1    4    4    0    0  0.33811916454E-01  0.51668116312E-01  0.74272377887E-02  0.62195376996E-01  0.51100000000E-03 0. -1.
         11    1    4    4    0    0  0.53549997096E-01  0.43514288475E-01  0.69436739125E-02  0.69351072226E-01  0.51100000000E-03 0.  1.
</event>
<event>
 8    1  0.1061721E+005  0.1043930E+01  0.7957747E-01            NaN
         13   -1    0    0    0    0  0.00000000000E+00  0.00000000000E+00  0.74505805969E-08  0.10566000000E+00  0.10566000000E+00 0. -1.
     999900   -1    0    0    0    0 -0.00000000000E+00 -0.00000000000E+00 -0.74505805969E-08  0.93827000000E+00  0.93827000000E+00 0. -1.
     999902    2    1    2    0    0 -0.49094887749E-03 -0.11296641093E-01  0.21040198204E-01  0.10200439147E+01  0.10197642094E+01 0.  0.
     999903    2    3    3    0    0 -0.26910927111E-02 -0.75578352308E-01 -0.10255407768E+00  0.12908234198E+00  0.20629659341E-01 0.  0.
         14    1    1    2    0    0  0.49094887749E-03  0.11296641093E-01 -0.21040198204E-01  0.23886085306E-01  0.00000000000E+00 0.  1.
     999901    1    3    3    0    0  0.22001438337E-02  0.64281711215E-01  0.12359427588E+00  0.89096157272E+00  0.88000000000E+00 0.  1.
        -11    1    4    4    0    0  0.53129530437E-03 -0.85384317898E-02 -0.31309397391E-02  0.91241984184E-02  0.51100000000E-03 0.  1.
         11    1    4    4    0    0 -0.32223880155E-02 -0.67039920518E-01 -0.99423137937E-01  0.11995814356E+00  0.51100000000E-03 0. -1.
</event>
<event>
 8    1  0.1061721E+005  0.1043930E+01  0.7957747E-01            NaN
         13   -1    0    0    0    0  0.00000000000E+00  0.00000000000E+00  0.74505805969E-08  0.10566000000E+00  0.10566000000E+00 0. -1.
     999900   -1    0    0    0    0 -0.00000000000E+00 -0.00000000000E+00 -0.74505805969E-08  0.93827000000E+00  0.93827000000E+00 0.  1.
     999902    2    1    2    0    0  0.81551801659E-02  0.14479975902E-02 -0.23196004333E-01  0.10192995660E+01  0.10190019367E+01 0.  0.
     999903    2    3    3    0    0  0.10624329991E+00 -0.29820408940E-01 -0.69827828095E-01  0.13207156857E+00  0.19750394516E-01 0.  0.
         14    1    1    2    0    0 -0.81551801659E-02 -0.14479975902E-02  0.23196004333E-01  0.24630433970E-01  0.00000000000E+00 0. -1.
     999901    1    3    3    0    0 -0.98088119746E-01  0.31268406530E-01  0.46631823762E-01  0.88722799746E+00  0.88000000000E+00 0. -1.
        -11    1    4    4    0    0  0.76692790280E-01 -0.27577810022E-01 -0.58575434190E-01  0.10036763571E+00  0.51100000000E-03 0.  1.
         11    1    4    4    0    0  0.29550509632E-01 -0.22425989184E-02 -0.11252393905E-01  0.31703932864E-01  0.51100000000E-03 0. -1.
</event>
<event>
 8    1  0.1061721E+005  0.1043930E+01  0.7957747E-01            NaN
         13   -1    0    0    0    0  0.00000000000E+00  0.00000000000E+00  0.74505805969E-08  0.10566000000E+00  0.10566000000E+00 0.  1.
     999900   -1    0    0    0    0 -0.00000000000E+00 -0.00000000000E+00 -0.74505805969E-08  0.93827000000E+00  0.93827000000E+00 0.  1.
     999902    2    1    2    0    0  0.47645788935E-02 -0.15417659751E-01  0.21450984568E-01  0.10170869342E+01  0.10167326500E+01 0.  0.
     999903    2    3    3    0    0 -0.61800516638E-01  0.85887082311E-01  0.68593685499E-01  0.12752749436E+00  0.19033480035E-01 0.  0.
         14    1    1    2    0    0 -0.47645788935E-02  0.15417659751E-01 -0.21450984568E-01  0.26843065830E-01  0.00000000000E+00 0. -1.
     999901    1    3    3    0    0  0.66565095531E-01 -0.10130474206E+00 -0.47142700932E-01  0.88955943981E+00  0.88000000000E+00 0. -1.
        -11    1    4    4    0    0 -0.44006602563E-01  0.69375242741E-01  0.45007475837E-01  0.93677315166E-01  0.51100000000E-03 0. -1.
         11    1    4    4    0    0 -0.17793914075E-01  0.16511839570E-01  0.23586209662E-01  0.33850179192E-01  0.51100000000E-03 0.  1.
</event>
<event>
 8    1  0.1061721E+005  0.1043930E+01  0.7957747E-01            NaN
         13   -1    0    0    0    0  0.00000000000E+00  0.00000000000E+00  0.74505805969E-08  0.10566000000E+00  0.10566000000E+00 0.  1.
     999900   -1    0    0    0    0 -0.00000000000E+00 -0.00000000000E+00 -0.74505805969E-08  0.93827000000E+00  0.93827000000E+00 0.  1.
     999902    2    1    2    0    0 -0.37004432234E-02  0.11344112522E-01 -0.19225030901E-01  0.10213029370E+01  0.10210522538E+01 0.  0.
     999903    2    3    3    0    0  0.10145093526E+00  0.59890118370E-01  0.52972801677E-01  0.13078283381E+00  0.20467373000E-01 0.  0.
         14    1    1    2    0    0  0.37004432234E-02 -0.11344112522E-01  0.19225030901E-01  0.22627063047E-01  0.00000000000E+00 0.  1.
     999901    1    3    3    0    0 -0.10515137848E+00 -0.48546005848E-01 -0.72197832578E-01  0.89052010315E+00  0.88000000000E+00 0.  1.
        -11    1    4    4    0    0  0.74532661215E-01  0.53623104207E-01  0.43076082793E-01  0.10142171820E+00  0.51100000000E-03 0.  1.
         11    1    4    4    0    0  0.26918274045E-01  0.62670141625E-02  0.98967188842E-02  0.29361115608E-01  0.51100000000E-03 0. -1.
</event>
<event>
 8    1  0.1061721E+005  0.1043930E+01  0.7957747E-01            NaN
         13   -1    0    0    0    0  0.00000000000E+00  0.00000000000E+00  0.74505805969E-08  0.10566000000E+00  0.10566000000E+00 0. -1.
     999900   -1    0    0    0    0 -0.00000000000E+00 -0.00000000000E+00 -0.74505805969E-08  0.93827000000E+00  0.93827000000E+00 0. -1.
     999902    2    1    2    0    0  0.16805871191E-01 -0.12012032075E-01 -0.11037220563E-01  0.10205089313E+01  0.10202401347E+01 0.  0.
     999903    2    3    3    0    0 -0.57104448392E-01  0.76943238256E-01  0.82433807366E-01  0.12803338065E+00  0.20396912110E-01 0.  0.
         14    1    1    2    0    0 -0.16805871191E-01  0.12012032075E-01  0.11037220563E-01  0.23421068695E-01  0.00000000000E+00 0.  1.
     999901    1    3    3    0    0  0.73910319583E-01 -0.88955270331E-01 -0.93471027929E-01  0.89247555066E+00  0.88000000000E+00 0.  1.
        -11    1    4    4    0    0 -0.18003879165E-01  0.24140998551E-01  0.38971782901E-01  0.49254324272E-01  0.51100000000E-03 0.  1.
         11    1    4    4    0    0 -0.39100569227E-01  0.52802239705E-01  0.43462024465E-01  0.78779056375E-01  0.51100000000E-03 0. -1.
</event>
<event>
 8    1  0.1061721E+005  0.1043930E+01  0.7957747E-01            NaN
         13   -1    0    0    0    0  0.00000000000E+00  0.00000000000E+00  0.74505805969E-08  0.10566000000E+00  0.10566000000E+00 0.  1.
     999900   -1    0    0    0    0 -0.00000000000E+00 -0.00000000000E+00 -0.74505805969E-08  0.93827000000E+00  0.93827000000E+00 0.  1.
     999902    2    1    2    0    0  0.12044543234E-01  0.99413040267E-02  0.17792612653E-01  0.10202555916E+01  0.10199808795E+01 0.  0.
     999903    2    3    3    0    0  0.10692599915E+00 -0.47629860276E-01  0.58488223003E-01  0.13235184551E+00  0.19858647915E-01 0.  0.
         14    1    1    2    0    0 -0.12044543234E-01 -0.99413040267E-02 -0.17792612653E-01  0.23674408387E-01  0.00000000000E+00 0.  1.
     999901    1    3    3    0    0 -0.94881455913E-01  0.57571164303E-01 -0.40695610350E-01  0.88790374610E+00  0.88000000000E+00 0. -1.
        -11    1    4    4    0    0  0.58274686215E-01 -0.30662035198E-01  0.22859970910E-01  0.69706089023E-01  0.51100000000E-03 0.  1.
         11    1    4    4    0    0  0.48651312933E-01 -0.16967825078E-01  0.35628252093E-01  0.62645756490E-01  0.51100000000E-03 0. -1.
</event>
<event>
 8    1  0.1061721E+005  0.1043930E+01  0.7957747E-01            NaN
         13   -1    0    0    0    0  0.00000000000E+00  0.00000000000E+00  0.74505805969E-08  0.10566000000E+00  0.10566000000E+00 0.  1.
     999900   -1    0    0    0    0 -0.00000000000E+00 -0.00000000000E+00 -0.74505805969E-08  0.93827000000E+00  0.93827000000E+00 0. -1.
     999902    2    1    2    0    0 -0.21980657067E-01 -0.18376388071E-01  0.72416819050E-03  0.10152705279E+01  0.10148659416E+01 0.  0.
     999903    2    3    3    0    0 -0.81589913658E-01 -0.97102322033E-01  0.17367226130E-01  0.12959111209E+00  0.20160873835E-01 0.  0.
         14    1    1    2    0    0  0.21980657067E-01  0.18376388071E-01 -0.72416819050E-03  0.28659472138E-01  0.00000000000E+00 0. -1.
     999901    1    3    3    0    0  0.59609256591E-01  0.78725933962E-01 -0.16643057939E-01  0.88567941577E+00  0.88000000000E+00 0.  1.
        -11    1    4    4    0    0 -0.61090420770E-01 -0.83040109915E-01  0.18326467583E-01  0.10470826090E+00  0.51100000000E-03 0.  1.
         11    1    4    4    0    0 -0.20499492888E-01 -0.14062212117E-01 -0.95924145361E-03  0.24882851193E-01  0.51100000000E-03 0. -1.
</event>
<event>
 8    1  0.1061721E+005  0.1043930E+01  0.7957747E-01            NaN
         13   -1    0    0    0    0  0.00000000000E+00  0.00000000000E+00  0.74505805969E-08  0.10566000000E+00  0.10566000000E+00 0. -1.
     999900   -1    0    0    0    0 -0.00000000000E+00 -0.00000000000E+00 -0.74505805969E-08  0.93827000000E+00  0.93827000000E+00 0. -1.
     999902    2    1    2    0    0  0.82805788187E-02 -0.13409823322E-01 -0.15044466178E-02  0.10280979216E+01  0.10279760122E+01 0.  0.
     999903    2    3    3    0    0 -0.12130411451E+00  0.50047924491E-01 -0.28316898761E-01  0.13594435516E+00  0.21436837491E-01 0.  0.
         14    1    1    2    0    0 -0.82805788187E-02  0.13409823322E-01  0.15044466178E-02  0.15832078409E-01  0.00000000000E+00 0.  1.
     999901    1    3    3    0    0  0.12958469333E+00 -0.63457747813E-01  0.26812452143E-01  0.89215356643E+00  0.88000000000E+00 0. -1.
        -11    1    4    4    0    0 -0.67346579572E-02  0.44837971131E-02 -0.72163169132E-02  0.10853405233E-01  0.51100000000E-03 0.  1.
         11    1    4    4    0    0 -0.11456945655E+00  0.45564127378E-01 -0.21100581848E-01  0.12509094993E+00  0.51100000000E-03 0. -1.
</event>
<event>
 8    1  0.1061721E+005  0.1043930E+01  0.7957747E-01            NaN
         13   -1    0    0    0    0  0.00000000000E+00  0.00000000000E+00  0.74505805969E-08  0.10566000000E+00  0.10566000000E+00 0. -1.
     999900   -1    0    0    0    0 -0.00000000000E+00 -0.00000000000E+00 -0.74505805969E-08  0.93827000000E+00  0.93827000000E+00 0. -1.
     999902    2    1    2    0    0 -0.14606936129E-01 -0.12690192457E-01 -0.13909596239E-01  0.10200997580E+01  0.10198213744E+01 0.  0.
     999903    2    3    3    0    0 -0.12276990996E+00 -0.45917866274E-01  0.44527667040E-02  0.13266498088E+00  0.19981711287E-01 0.  0.
         14    1    1    2    0    0  0.14606936129E-01  0.12690192457E-01  0.13909596239E-01  0.23830242030E-01  0.00000000000E+00 0.  1.
     999901    1    3    3    0    0  0.10816297383E+00  0.33227673817E-01 -0.18362362943E-01  0.88743477709E+00  0.88000000000E+00 0. -1.
        -11    1    4    4    0    0 -0.76349519140E-01 -0.34967892725E-01 -0.46525389784E-02  0.84106538595E-01  0.51100000000E-03 0. -1.
         11    1    4    4    0    0 -0.46420390820E-01 -0.10949973549E-01  0.91053056824E-02  0.48558442285E-01  0.51100000000E-03 0.  1.
</event>
<event>
 8    1  0.1061721E+005  0.1043930E+01  0.7957747E-01            NaN
         13   -1    0    0    0    0  0.00000000000E+00  0.00000000000E+00  0.74505805969E-08  0.10566000000E+00  0.10566000000E+00 0. -1.
     999900   -1    0    0    0    0 -0.00000000000E+00 -0.00000000000E+00 -0.74505805969E-08  0.93827000000E+00  0.93827000000E+00 0. -1.
     999902    2    1    2    0    0 -0.94127715000E-02  0.93083234973E-02 -0.17902259303E-01  0.10216648694E+01  0.10214222287E+01 0.  0.
     999903    2    3    3    0    0 -0.13006930854E+00 -0.13467899404E-01  0.10555031649E-01  0.13268423198E+00  0.19856671023E-01 0.  0.
         14    1    1    2    0    0  0.94127715000E-02 -0.93083234973E-02  0.17902259303E-01  0.22265130626E-01  0.00000000000E+00 0.  1.
     999901    1    3    3    0    0  0.12065653704E+00  0.22776222901E-01 -0.28457290952E-01  0.88898063740E+00  0.88000000000E+00 0. -1.
        -11    1    4    4    0    0 -0.25552075198E-01  0.51996940753E-02  0.14165567087E-02  0.26119209776E-01  0.51100000000E-03 0.  1.
         11    1    4    4    0    0 -0.10451723334E+00 -0.18667593479E-01  0.91384749404E-02  0.10656502220E+00  0.51100000000E-03 0. -1.
</event>
<event>
 8    1  0.1061721E+005  0.1043930E+01  0.7957747E-01            NaN
         13   -1    0    0    0    0  0.00000000000E+00  0.00000000000E+00  0.74505805969E-08  0.10566000000E+00  0.10566000000E+00 0.  1.
     999900   -1    0    0    0    0 -0.00000000000E+00 -0.00000000000E+00 -0.74505805969E-08  0.93827000000E+00  0.93827000000E+00 0.  1.
     999902    2    1    2    0    0 -0.59733844246E-02 -0.11407439402E-01  0.26759938690E-01  0.10142331094E+01  0.10137982515E+01 0.  0.
     999903    2    3    3    0    0 -0.97357062368E-01  0.42902179647E-01 -0.59845912261E-01  0.12361473725E+00  0.19495523572E-01 0.  0.
         14    1    1    2    0    0  0.59733844246E-02  0.11407439402E-01 -0.26759938690E-01  0.29696890644E-01  0.00000000000E+00 0. -1.
     999901    1    3    3    0    0  0.91383677944E-01 -0.54309619049E-01  0.86605850951E-01  0.89061837211E+00  0.88000000000E+00 0. -1.
        -11    1    4    4    0    0 -0.84831462875E-01  0.43074771323E-01 -0.48908498415E-01  0.10697717213E+00  0.51100000000E-03 0.  1.
         11    1    4    4    0    0 -0.12525599493E-01 -0.17259167613E-03 -0.10937413846E-01  0.16637565122E-01  0.51100000000E-03 0. -1.
</event>
<event>
 8    1  0.1061721E+005  0.1043930E+01  0.7957747E-01            NaN
         13   -1    0    0    0    0  0.00000000000E+00  0.00000000000E+00  0.74505805969E-08  0.10566000000E+00  0.10566000000E+00 0. -1.
     999900   -1    0    0    0    0 -0.00000000000E+00 -0.00000000000E+00 -0.74505805969E-08  0.93827000000E+00  0.93827000000E+00 0.  1.
     999902    2    1    2    0    0  0.23923907615E-02  0.22644022599E-01 -0.68820900173E-02  0.10201426408E+01  0.10198652701E+01 0.  0.
     999903    2    3    3    0    0  0.27406404819E-01 -0.72139505365E-01  0.10110154993E+00  0.12813923021E+00  0.15585880175E-01 0.  0.
         14    1    1    2    0    0 -0.23923907615E-02 -0.22644022599E-01  0.68820900173E-02  0.23787359165E-01  0.00000000000E+00 0. -1.
     999901    1    3    3    0    0 -0.25014014058E-01  0.94783527965E-01 -0.10798363995E+00  0.89200341063E+00  0.88000000000E+00 0.  1.
        -11    1    4    4    0    0  0.18834136722E-01 -0.37299433653E-01  0.64727956063E-01  0.77045063917E-01  0.51100000000E-03 0. -1.
         11    1    4    4    0    0  0.85722680974E-02 -0.34840071713E-01  0.36373593866E-01  0.51094166292E-01  0.51100000000E-03 0.  1.
</event>
<event>
 8    1  0.1061721E+005  0.1043930E+01  0.7957747E-01            NaN
         13   -1    0    0    0    0  0.00000000000E+00  0.00000000000E+00  0.74505805969E-08  0.10566000000E+00  0.10566000000E+00 0. -1.
     999900   -1    0    0    0    0 -0.00000000000E+00 -0.00000000000E+00 -0.74505805969E-08  0.93827000000E+00  0.93827000000E+00 0.  1.
     999902    2    1    2    0    0 -0.10106233522E-02 -0.27916075847E-01 -0.68397301595E-02  0.10151704701E+01  0.10147630131E+01 0.  0.
     999903    2    3    3    0    0  0.38478180505E-01 -0.61247072880E-01 -0.10400645042E+00  0.12831552566E+00  0.20390146762E-01 0.  0.
         14    1    1    2    0    0  0.10106233522E-02  0.27916075847E-01  0.68397301595E-02  0.28759529880E-01  0.00000000000E+00 0. -1.
     999901    1    3    3    0    0 -0.39488803857E-01  0.33330997033E-01  0.97166720258E-01  0.88685494446E+00  0.88000000000E+00 0. -1.
        -11    1    4    4    0    0  0.38117484473E-01 -0.47996366319E-01 -0.78797856176E-01  0.99829640194E-01  0.51100000000E-03 0. -1.
         11    1    4    4    0    0  0.36069603199E-03 -0.13250706561E-01 -0.25208594242E-01  0.28485885463E-01  0.51100000000E-03 0.  1.
</event>
<event>
 8    1  0.1061721E+005  0.1043930E+01  0.7957747E-01            NaN
         13   -1    0    0    0    0  0.00000000000E+00  0.00000000000E+00  0.74505805969E-08  0.10566000000E+00  0.10566000000E+00 0.  1.
     999900   -1    0    0    0    0 -0.00000000000E+00 -0.00000000000E+00 -0.74505805969E-08  0.93827000000E+00  0.93827000000E+00 0. -1.
     999902    2    1    2    0    0  0.10221555711E-01  0.19375702247E-01  0.11033898795E-01  0.10194015479E+01  0.10191064081E+01 0.  0.
     999903    2    3    3    0    0 -0.84815918084E-01 -0.18480264604E-01  0.94277275241E-01  0.12957310638E+00  0.19123941292E-01 0.  0.
         14    1    1    2    0    0 -0.10221555711E-01 -0.19375702247E-01 -0.11033898795E-01  0.24528452077E-01  0.00000000000E+00 0.  1.
     999901    1    3    3    0    0  0.95037473795E-01  0.37855966851E-01 -0.83243376446E-01  0.88982844154E+00  0.88000000000E+00 0. -1.
        -11    1    4    4    0    0 -0.67652109582E-01 -0.14552649931E-01  0.62535739016E-01  0.93271471127E-01  0.51100000000E-03 0. -1.
         11    1    4    4    0    0 -0.17163808501E-01 -0.39276146732E-02  0.31741536225E-01  0.36301635255E-01  0.51100000000E-03 0.  1.
</event>
<event>
 8    1  0.1061721E+005  0.1043930E+01  0.7957747E-01            NaN
         13   -1    0    0    0    0  0.00000000000E+00  0.00000000000E+00  0.74505805969E-08  0.10566000000E+00  0.10566000000E+00 0. -1.
     999900   -1    0    0    0    0 -0.00000000000E+00 -0.00000000000E+00 -0.74505805969E-08  0.93827000000E+00  0.93827000000E+00 0.  1.
     999902    2    1    2    0    0  0.97782732778E-02 -0.11553586335E-01  0.20281297861E-01  0.10186232612E+01  0.10183088516E+01 0.  0.
     999903    2    3    3    0    0 -0.22203947612E-01 -0.64842799822E-01 -0.10567968560E+00  0.12748423048E+00  0.19657799822E-01 0.  0.
         14    1    1    2    0    0 -0.97782732778E-02  0.11553586335E-01 -0.20281297861E-01  0.25306738795E-01  0.00000000000E+00 0.  1.
     999901    1    3    3    0    0  0.31982220889E-01  0.53289213487E-01  0.12596098346E+00  0.89113903073E+00  0.88000000000E+00 0. -1.
        -11    1    4    4    0    0 -0.15414235970E-01 -0.21031351616E-01 -0.29801063094E-01  0.39601526535E-01  0.51100000000E-03 0.  1.
         11    1    4    4    0    0 -0.67897116420E-02 -0.43811448205E-01 -0.75878622508E-01  0.87882703945E-01  0.51100000000E-03 0. -1.
</event>
<event>
 8    1  0.1061721E+005  0.1043930E+01  0.7957747E-01            NaN
         13   -1    0    0    0    0  0.00000000000E+00  0.00000000000E+00  0.74505805969E-08  0.10566000000E+00  0.10566000000E+00 0. -1.
     999900   -1    0    0    0    0 -0.00000000000E+00 -0.00000000000E+00 -0.74505805969E-08  0.93827000000E+00  0.93827000000E+00 0. -1.
     999902    2    1    2    0    0  0.19996550908E-01 -0.96292604141E-02 -0.91864753153E-02  0.10199096746E+01  0.10196267789E+01 0.  0.
     999903    2    3    3    0    0 -0.91213416949E-02 -0.61594816670E-01 -0.11408652600E+00  0.13167981056E+00  0.21135675549E-01 0.  0.
         14    1    1    2    0    0 -0.19996550908E-01  0.96292604141E-02  0.91864753153E-02  0.24020325415E-01  0.00000000000E+00 0.  1.
     999901    1    3    3    0    0  0.29117892603E-01  0.51965556256E-01  0.10490005068E+00  0.88822986402E+00  0.88000000000E+00 0.  1.
        -11    1    4    4    0    0 -0.14076997190E-01 -0.33406229027E-01 -0.74211104028E-01  0.82593505009E-01  0.51100000000E-03 0.  1.
         11    1    4    4    0    0  0.49556554954E-02 -0.28188587643E-01 -0.39875421969E-01  0.49086305554E-01  0.51100000000E-03 0. -1.
</event>
<event>
 8    1  0.1061721E+005  0.1043930E+01  0.7957747E-01            NaN
         13   -1    0    0    0    0  0.00000000000E+00  0.00000000000E+00  0.74505805969E-08  0.10566000000E+00  0.10566000000E+00 0.  1.
     999900   -1    0    0    0    0 -0.00000000000E+00 -0.00000000000E+00 -0.74505805969E-08  0.93827000000E+00  0.93827000000E+00 0. -1.
     999902    2    1    2    0    0 -0.99332781143E-02  0.21029410709E-01  0.40802628249E-02  0.10203174043E+01  0.10200441417E+01 0.  0.
     999903    2    3    3    0    0 -0.10957366880E+00  0.70053669364E-01  0.19903198427E-01  0.13319737262E+00  0.20772512594E-01 0.  0.
         14    1    1    2    0    0  0.99332781143E-02 -0.21029410709E-01 -0.40802628249E-02  0.23612595655E-01  0.00000000000E+00 0.  1.
     999901    1    3    3    0    0  0.99640390688E-01 -0.49024258655E-01 -0.15822935602E-01  0.88712003172E+00  0.88000000000E+00 0. -1.
        -11    1    4    4    0    0 -0.79784458234E-01  0.58564288365E-01  0.86894204094E-02  0.99353423672E-01  0.51100000000E-03 0. -1.
         11    1    4    4    0    0 -0.29789210569E-01  0.11489380999E-01  0.11213778018E-01  0.33843948949E-01  0.51100000000E-03 0.  1.
</event>
<event>
 8    1  0.1061721E+005  0.1043930E+01  0.7957747E-01            NaN
         13   -1    0    0    0    0  0.00000000000E+00  0.00000000000E+00  0.74505805969E-08  0.10566000000E+00  0.10566000000E+00 0. -1.
     999900   -1    0    0    0    0 -0.00000000000E+00 -0.00000000000E+00 -0.74505805969E-08  0.93827000000E+00  0.93827000000E+00 0.  1.
     999902    2    1    2    0    0 -0.56390245196E-02 -0.82593251485E-02 -0.21515315010E-01  0.10202039841E+01  0.10199280589E+01 0.  0.
     999903    2    3    3    0    0  0.79355494060E-01 -0.76842331062E-01 -0.69901749117E-01  0.13213363562E+00  0.19261486214E-01 0.  0.
         14    1    1    2    0    0  0.56390245196E-02  0.82593251485E-02  0.21515315010E-01  0.23726015878E-01  0.00000000000E+00 0. -1.
     999901    1    3    3    0    0 -0.84994518579E-01  0.68583005914E-01  0.48386434106E-01  0.88807034851E+00  0.88000000000E+00 0. -1.
        -11    1    4    4    0    0  0.51677631811E-01 -0.42200546818E-01 -0.50758810485E-01  0.83834251617E-01  0.51100000000E-03 0. -1.
         11    1    4    4    0    0  0.27677862248E-01 -0.34641784245E-01 -0.19142938632E-01  0.48299384000E-01  0.51100000000E-03 0.  1.
</event>
<event>
 8    1  0.1061721E+005  0.1043930E+01  0.7957747E-01            NaN
         13   -1    0    0    0    0  0.00000000000E+00  0.00000000000E+00  0.74505805969E-08  0.10566000000E+00  0.10566000000E+00 0.  1.
     999900   -1    0    0    0    0 -0.00000000000E+00 -0.00000000000E+00 -0.74505805969E-08  0.93827000000E+00  0.93827000000E+00 0.  1.
     999902    2    1    2    0    0 -0.16458663906E-01 -0.15209773242E-01  0.15259383429E-02  0.10214677359E+01  0.10212207314E+01 0.  0.
     999903    2    3    3    0    0  0.66474025876E-01 -0.11110602093E+00  0.14797671439E-01  0.13228268192E+00  0.22724278935E-01 0.  0.
         14    1    1    2    0    0  0.16458663906E-01  0.15209773242E-01 -0.15259383429E-02  0.22462264077E-01  0.00000000000E+00 0.  1.
     999901    1    3    3    0    0 -0.82932689783E-01  0.95896247691E-01 -0.13271733097E-01  0.88918505400E+00  0.88000000000E+00 0. -1.
        -11    1    4    4    0    0  0.47338282080E-01 -0.71164565446E-01  0.19720793581E-01  0.87718180247E-01  0.51100000000E-03 0.  1.
         11    1    4    4    0    0  0.19135743796E-01 -0.39941455487E-01 -0.49231221414E-02  0.44564501676E-01  0.51100000000E-03 0. -1.
</event>
<event>
 8    1  0.1061721E+005  0.1043930E+01  0.7957747E-01            NaN
         13   -1    0    0    0    0  0.00000000000E+00  0.00000000000E+00  0.74505805969E-08  0.10566000000E+00  0.10566000000E+00 0.  1.
     999900   -1    0    0    0    0 -0.00000000000E+00 -0.00000000000E+00 -0.74505805969E-08  0.93827000000E+00  0.93827000000E+00 0. -1.
     999902    2    1    2    0    0  0.17549665162E-01  0.63071012455E-02 -0.12077556441E-01  0.10217120423E+01  0.10214704400E+01 0.  0.
     999903    2    3    3    0    0  0.71678423258E-01 -0.10911934399E+00 -0.12598650621E-01  0.13252507760E+00  0.18956334087E-01 0.  0.
         14    1    1    2    0    0 -0.17549665162E-01 -0.63071012455E-02  0.12077556441E-01  0.22217957669E-01  0.00000000000E+00 0. -1.
     999901    1    3    3    0    0 -0.54128758096E-01  0.11542644523E+00  0.52109418043E-03  0.88918696473E+00  0.88000000000E+00 0. -1.
        -11    1    4    4    0    0  0.42230998352E-02 -0.11135770817E-01 -0.60947954843E-02  0.13388338841E-01  0.51100000000E-03 0. -1.
         11    1    4    4    0    0  0.67455323423E-01 -0.97983573169E-01 -0.65038551369E-02  0.11913673876E+00  0.51100000000E-03 0.  1.
</event>
<event>
 8    1  0.1061721E+005  0.1043930E+01  0.7957747E-01            NaN
         13   -1    0    0    0    0  0.00000000000E+00  0.00000000000E+00  0.74505805969E-08  0.10566000000E+00  0.10566000000E+00 0.  1.
     999900   -1    0    0    0    0 -0.00000000000E+00 -0.00000000000E+00 -0.74505805969E-08  0.93827000000E+00  0.93827000000E+00 0.  1.
     999902    2    1    2    0    0 -0.22826164405E-01 -0.76125920428E-02  0.30890923574E-02  0.10196704075E+01  0.10193817793E+01 0.  0.
     999903    2    3    3    0    0  0.83336968527E-01 -0.88624897612E-02 -0.94402992189E-01  0.12794349881E+00  0.20833144419E-01 0.  0.
         14    1    1    2    0    0  0.22826164405E-01  0.76125920428E-02 -0.30890923574E-02  0.24259592549E-01  0.00000000000E+00 0. -1.
     999901    1    3    3    0    0 -0.10616313293E+00  0.12498977184E-02  0.97492084547E-01  0.89172690864E+00  0.88000000000E+00 0. -1.
        -11    1    4    4    0    0  0.73395102255E-01 -0.72944004420E-03 -0.78038309879E-01  0.10713361773E+00  0.51100000000E-03 0. -1.
         11    1    4    4    0    0  0.99418662721E-02 -0.81330497170E-02 -0.16364682311E-01  0.20809881086E-01  0.51100000000E-03 0.  1.
</event>
<event>
 8    1  0.1061721E+005  0.1043930E+01  0.7957747E-01            NaN
         13   -1    0    0    0    0  0.00000000000E+00  0.00000000000E+00  0.74505805969E-08  0.10566000000E+00  0.10566000000E+00 0.  1.
     999900   -1    0    0    0    0 -0.00000000000E+00 -0.00000000000E+00 -0.74505805969E-08  0.93827000000E+00  0.93827000000E+00 0. -1.
     999902    2    1    2    0    0  0.77286191699E-02  0.13836356332E-01 -0.18015630727E-01  0.10199354327E+01  0.10196531506E+01 0.  0.
     999903    2    3    3    0    0  0.43987097038E-01 -0.38964499144E-01 -0.11663169877E+00  0.13211352686E+00  0.19948281227E-01 0.  0.
         14    1    1    2    0    0 -0.77286191699E-02 -0.13836356332E-01  0.18015630727E-01  0.23994567329E-01  0.00000000000E+00 0.  1.
     999901    1    3    3    0    0 -0.36258477868E-01  0.52800855476E-01  0.98616068038E-01  0.88782190581E+00  0.88000000000E+00 0. -1.
        -11    1    4    4    0    0  0.29082247617E-01 -0.19748504602E-01 -0.86615468243E-01  0.93478773101E-01  0.51100000000E-03 0. -1.
         11    1    4    4    0    0  0.14904849421E-01 -0.19215994542E-01 -0.30016230522E-01  0.38634753762E-01  0.51100000000E-03 0.  1.
</event>
<event>
 8    1  0.1061721E+005  0.1043930E+01  0.7957747E-01            NaN
         13   -1    0    0    0    0  0.00000000000E+00  0.00000000000E+00  0.74505805969E-08  0.10566000000E+00  0.10566000000E+00 0.  1.
     999900   -1    0    0    0    0 -0.00000000000E+00 -0.00000000000E+00 -0.74505805969E-08  0.93827000000E+00  0.93827000000E+00 0.  1.
     999902    2    1    2    0    0 -0.22952518389E-01 -0.57114467235E-02  0.29518519592E-02  0.10200940575E+01  0.10198155392E+01 0.  0.
     999903    2    3    3    0    0  0.17405892441E-01  0.57467160103E-01 -0.11295160605E+00  0.12933373663E+00  0.19071196625E-01 0.  0.
         14    1    1    2    0    0  0.22952518389E-01  0.57114467235E-02 -0.29518519592E-02  0.23835942483E-01  0.00000000000E+00 0. -1.
     999901    1    3    3    0    0 -0.40358410830E-01 -0.63178606827E-01  0.11590345801E+00  0.89076032088E+00  0.88000000000E+00 0. -1.
        -11    1    4    4    0    0  0.20592621017E-01  0.52389503751E-01 -0.95295484365E-01  0.11068065145E+00  0.51100000000E-03 0.  1.
         11    1    4    4    0    0 -0.31867285755E-02  0.50776563522E-02 -0.17656121681E-01  0.18653085183E-01  0.51100000000E-03 0. -1.
</event>
<event>
 8    1  0.1061721E+005  0.1043930E+01  0.7957747E-01            NaN
         13   -1    0    0    0    0  0.00000000000E+00  0.00000000000E+00  0.74505805969E-08  0.10566000000E+00  0.10566000000E+00 0. -1.
     999900   -1    0    0    0    0 -0.00000000000E+00 -0.00000000000E+00 -0.74505805969E-08  0.93827000000E+00  0.93827000000E+00 0. -1.
     999902    2    1    2    0    0  0.23819853764E-01 -0.69979715865E-04 -0.42458643676E-02  0.10197345935E+01  0.10194475090E+01 0.  0.
     999903    2    3    3    0    0  0.33288441319E-01  0.71486677313E-01  0.10197095595E+00  0.13041349165E+00  0.19777198694E-01 0.  0.
         14    1    1    2    0    0 -0.23819853764E-01  0.69979715865E-04  0.42458643676E-02  0.24195406480E-01  0.00000000000E+00 0.  1.
     999901    1    3    3    0    0 -0.94685875551E-02 -0.71556657029E-01 -0.10621682032E+00  0.88932110187E+00  0.88000000000E+00 0. -1.
        -11    1    4    4    0    0  0.15732144316E-01  0.33361900468E-01  0.32083132342E-01  0.48888702882E-01  0.51100000000E-03 0. -1.
         11    1    4    4    0    0  0.17556297003E-01  0.38124776845E-01  0.69887823608E-01  0.81524788767E-01  0.51100000000E-03 0.  1.
</event>
<event>
 8    1  0.1061721E+005  0.1043930E+01  0.7957747E-01            NaN
         13   -1    0    0    0    0  0.00000000000E+00  0.00000000000E+00  0.74505805969E-08  0.10566000000E+00  0.10566000000E+00 0.  1.
     999900   -1    0    0    0    0 -0.00000000000E+00 -0.00000000000E+00 -0.74505805969E-08  0.93827000000E+00  0.93827000000E+00 0.  1.
     999902    2    1    2    0    0 -0.17310597912E-01  0.13598868765E-01 -0.90207223166E-02  0.10201400975E+01  0.10198626667E+01 0.  0.
     999903    2    3    3    0    0  0.11715828675E+00  0.99266102923E-02  0.46738095901E-01  0.12817349930E+00  0.20479125196E-01 0.  0.
         14    1    1    2    0    0  0.17310597912E-01 -0.13598868765E-01  0.90207223166E-02  0.23789902540E-01  0.00000000000E+00 0. -1.
     999901    1    3    3    0    0 -0.13446888466E+00  0.36722584724E-02 -0.55758818218E-01  0.89196659816E+00  0.88000000000E+00 0.  1.
        -11    1    4    4    0    0  0.82617425817E-01 -0.11036066958E-02  0.27238547889E-01  0.87000325335E-01  0.51100000000E-03 0.  1.
         11    1    4    4    0    0  0.34540860931E-01  0.11030216988E-01  0.19499548013E-01  0.41173173965E-01  0.51100000000E-03 0. -1.
</event>
<event>
 8    1  0.1061721E+005  0.1043930E+01  0.7957747E-01            NaN
         13   -1    0    0    0    0  0.00000000000E+00  0.00000000000E+00  0.74505805969E-08  0.10566000000E+00  0.10566000000E+00 0.  1.
     999900   -1    0    0    0    0 -0.00000000000E+00 -0.00000000000E+00 -0.74505805969E-08  0.93827000000E+00  0.93827000000E+00 0. -1.
     999902    2    1    2    0    0  0.25878858800E-02 -0.34993171767E-02  0.23438650588E-01  0.10200906897E+01  0.10198120918E+01 0.  0.
     999903    2    3    3    0    0  0.38061883592E-01  0.37319428855E-02  0.12615708236E+00  0.13337665922E+00  0.20275340078E-01 0.  0.
         14    1    1    2    0    0 -0.25878858800E-02  0.34993171767E-02 -0.23438650588E-01  0.23839310297E-01  0.00000000000E+00 0. -1.
     999901    1    3    3    0    0 -0.35473997712E-01 -0.72312600623E-02 -0.10271843177E+00  0.88671403049E+00  0.88000000000E+00 0. -1.
        -11    1    4    4    0    0  0.17532900932E-01  0.51335142300E-02  0.30721847902E-01  0.35747008867E-01  0.51100000000E-03 0. -1.
         11    1    4    4    0    0  0.20528982660E-01 -0.14015713444E-02  0.95435234454E-01  0.97629650350E-01  0.51100000000E-03 0.  1.
</event>
<event>
 7    1  0.1061721E+005  0.1043930E+01  0.7957747E-01            NaN
         13   -1    0    0    0    0  0.00000000000E+00  0.00000000000E+00  0.74505805969E-08  0.10566000000E+00  0.10566000000E+00 0.  1.
     999900   -1    0    0    0    0 -0.00000000000E+00 -0.00000000000E+00 -0.74505805969E-08  0.93827000000E+00  0.93827000000E+00 0. -1.
     999903    2    1    2    0    0  0.57636766969E-03  0.10777926866E+00  0.11506942396E-01  0.11031395343E+00  0.20495259118E-01 0.  0.
         14    1    1    2    0    0 -0.14478030454E-01 -0.46638266347E-01  0.14692379049E-01  0.50996149421E-01  0.00000000000E+00 0. -1.
     999901    1    1    2    0    0  0.13901662784E-01 -0.61141002314E-01 -0.26199321445E-01  0.88261989715E+00  0.88000000000E+00 0. -1.
        -11    1    3    3    0    0  0.20684442065E-02  0.82815515523E-01  0.15027599535E-03  0.82843055090E-01  0.51100000000E-03 0.  1.
         11    1    3    3    0    0 -0.14920765368E-02  0.24963753137E-01  0.11356666401E-01  0.27470898344E-01  0.51100000000E-03 0. -1.
</event>
<event>
 8    1  0.1061721E+005  0.1043930E+01  0.7957747E-01            NaN
         13   -1    0    0    0    0  0.00000000000E+00  0.00000000000E+00  0.74505805969E-08  0.10566000000E+00  0.10566000000E+00 0.  1.
     999900   -1    0    0    0    0 -0.00000000000E+00 -0.00000000000E+00 -0.74505805969E-08  0.93827000000E+00  0.93827000000E+00 0.  1.
     999902    2    1    2    0    0 -0.23819964591E-01 -0.39014679763E-02  0.28547216055E-02  0.10196244121E+01  0.10193346753E+01 0.  0.
     999903    2    3    3    0    0 -0.11121196632E+00  0.11321858744E-01 -0.66348051821E-01  0.13246144206E+00  0.25449630934E-01 0.  0.
         14    1    1    2    0    0  0.23819964591E-01  0.39014679763E-02 -0.28547216055E-02  0.24305587854E-01  0.00000000000E+00 0.  1.
     999901    1    3    3    0    0  0.87392001726E-01 -0.15223326720E-01  0.69202773426E-01  0.88716297009E+00  0.88000000000E+00 0. -1.
        -11    1    4    4    0    0 -0.29341996694E-01  0.49298942475E-03 -0.30817643626E-01  0.42558008509E-01  0.51100000000E-03 0.  1.
         11    1    4    4    0    0 -0.81869969623E-01  0.10828869319E-01 -0.35530408195E-01  0.89903433551E-01  0.51100000000E-03 0. -1.
</event>
<event>
 8    1  0.1061721E+005  0.1043930E+01  0.7957747E-01            NaN
         13   -1    0    0    0    0  0.00000000000E+00  0.00000000000E+00  0.74505805969E-08  0.10566000000E+00  0.10566000000E+00 0.  1.
     999900   -1    0    0    0    0 -0.00000000000E+00 -0.00000000000E+00 -0.74505805969E-08  0.93827000000E+00  0.93827000000E+00 0.  1.
     999902    2    1    2    0    0  0.15940992144E-01 -0.15193246754E-01 -0.91186332635E-02  0.10200951631E+01  0.10198166709E+01 0.  0.
     999903    2    3    3    0    0 -0.79729117371E-02  0.89268516498E-01  0.89362493192E-01  0.12814075448E+00  0.20049000247E-01 0.  0.
         14    1    1    2    0    0 -0.15940992144E-01  0.15193246754E-01  0.91186332635E-02  0.23834836901E-01  0.00000000000E+00 0. -1.
     999901    1    3    3    0    0  0.23913903881E-01 -0.10446176325E+00 -0.98481126455E-01  0.89195440862E+00  0.88000000000E+00 0.  1.
        -11    1    4    4    0    0 -0.14049504625E-01  0.56174889815E-01  0.51617819342E-01  0.77573624515E-01  0.51100000000E-03 0. -1.
         11    1    4    4    0    0  0.60765928876E-02  0.33093626684E-01  0.37744673850E-01  0.50567129968E-01  0.51100000000E-03 0.  1.
</event>
<event>
 8    1  0.1061721E+005  0.1043930E+01  0.7957747E-01            NaN
         13   -1    0    0    0    0  0.00000000000E+00  0.00000000000E+00  0.74505805969E-08  0.10566000000E+00  0.10566000000E+00 0. -1.
     999900   -1    0    0    0    0 -0.00000000000E+00 -0.00000000000E+00 -0.74505805969E-08  0.93827000000E+00  0.93827000000E+00 0.  1.
     999902    2    1    2    0    0 -0.64697342222E-02  0.21854879586E-01  0.17857261427E-02  0.10210677595E+01  0.10208117787E+01 0.  0.
     999903    2    3    3    0    0  0.32367671542E-01 -0.84889912654E-01 -0.89476285961E-01  0.12908594937E+00  0.20080167927E-01 0.  0.
         14    1    1    2    0    0  0.64697342222E-02 -0.21854879586E-01 -0.17857261427E-02  0.22862240496E-01  0.00000000000E+00 0. -1.
     999901    1    3    3    0    0 -0.38837405764E-01  0.10674479224E+00  0.91262012103E-01  0.89198181013E+00  0.88000000000E+00 0. -1.
        -11    1    4    4    0    0  0.23063668393E-01 -0.56767278221E-01 -0.46657316142E-01  0.77017030240E-01  0.51100000000E-03 0.  1.
         11    1    4    4    0    0  0.93040031488E-02 -0.28122634432E-01 -0.42818969819E-01  0.52068919130E-01  0.51100000000E-03 0. -1.
</event>
<event>
 8    1  0.1061721E+005  0.1043930E+01  0.7957747E-01            NaN
         13   -1    0    0    0    0  0.00000000000E+00  0.00000000000E+00  0.74505805969E-08  0.10566000000E+00  0.10566000000E+00 0. -1.
     999900   -1    0    0    0    0 -0.00000000000E+00 -0.00000000000E+00 -0.74505805969E-08  0.93827000000E+00  0.93827000000E+00 0.  1.
     999902    2    1    2    0    0  0.10689251928E-01  0.12770559625E-01 -0.16409609500E-01  0.10205500388E+01  0.10202821959E+01 0.  0.
     999903    2    3    3    0    0 -0.20323403640E-01  0.54512390542E-01  0.11257390644E+00  0.12962865474E+00  0.27314140328E-01 0.  0.
         14    1    1    2    0    0 -0.10689251928E-01 -0.12770559625E-01  0.16409609500E-01  0.23379961160E-01  0.00000000000E+00 0.  1.
     999901    1    3    3    0    0  0.31012655568E-01 -0.41741830917E-01 -0.12898351594E+00  0.89092138409E+00  0.88000000000E+00 0.  1.
        -11    1    4    4    0    0 -0.74689049647E-02  0.48450102161E-01  0.76593818411E-01  0.90939931166E-01  0.51100000000E-03 0.  1.
         11    1    4    4    0    0 -0.12854498675E-01  0.60622883811E-02  0.35980088028E-01  0.38688723578E-01  0.51100000000E-03 0. -1.
</event>
<event>
 8    1  0.1061721E+005  0.1043930E+01  0.7957747E-01            NaN
         13   -1    0    0    0    0  0.00000000000E+00  0.00000000000E+00  0.74505805969E-08  0.10566000000E+00  0.10566000000E+00 0.  1.
     999900   -1    0    0    0    0 -0.00000000000E+00 -0.00000000000E+00 -0.74505805969E-08  0.93827000000E+00  0.93827000000E+00 0.  1.
     999902    2    1    2    0    0 -0.16845319705E-01  0.32527736358E-02 -0.13851963413E-01  0.10218795528E+01  0.10216416192E+01 0.  0.
     999903    2    3    3    0    0  0.21032209515E-01 -0.12159793684E+00 -0.43913347702E-01  0.13175254277E+00  0.14210500968E-01 0.  0.
         14    1    1    2    0    0  0.16845319705E-01 -0.32527736358E-02  0.13851963413E-01  0.22050447222E-01  0.00000000000E+00 0.  1.
     999901    1    3    3    0    0 -0.37877529220E-01  0.12485071048E+00  0.30061384289E-01  0.89012701001E+00  0.88000000000E+00 0. -1.
        -11    1    4    4    0    0  0.90406498497E-03 -0.38991383582E-01 -0.17206807637E-01  0.42631920872E-01  0.51100000000E-03 0.  1.
         11    1    4    4    0    0  0.20128144530E-01 -0.82606553260E-01 -0.26706540065E-01  0.89120621895E-01  0.51100000000E-03 0. -1.
</event>
<event>
 8    1  0.1061721E+005  0.1043930E+01  0.7957747E-01            NaN
         13   -1    0    0    0    0  0.00000000000E+00  0.00000000000E+00  0.74505805969E-08  0.10566000000E+00  0.10566000000E+00 0.  1.
     999900   -1    0    0    0    0 -0.00000000000E+00 -0.00000000000E+00 -0.74505805969E-08  0.93827000000E+00  0.93827000000E+00 0. -1.
     999902    2    1    2    0    0 -0.16383263554E-01  0.13237819628E-02  0.17443020929E-01  0.10199628829E+01  0.10196812540E+01 0.  0.
     999903    2    3    3    0    0 -0.54544125110E-01  0.21189843064E-01 -0.11346630857E+00  0.12923948908E+00  0.20104012618E-01 0.  0.
         14    1    1    2    0    0  0.16383263554E-01 -0.13237819628E-02 -0.17443020929E-01  0.23967117109E-01  0.00000000000E+00 0. -1.
     999901    1    3    3    0    0  0.38160861556E-01 -0.19866061101E-01  0.13090932950E+00  0.89072339381E+00  0.88000000000E+00 0.  1.
        -11    1    4    4    0    0 -0.46517124016E-01  0.14604317758E-01 -0.75499499010E-01  0.89875271324E-01  0.51100000000E-03 0. -1.
         11    1    4    4    0    0 -0.80270010944E-02  0.65855253055E-02 -0.37966809560E-01  0.39364217752E-01  0.51100000000E-03 0.  1.
</event>
<event>
 8    1  0.1061721E+005  0.1043930E+01  0.7957747E-01            NaN
         13   -1    0    0    0    0  0.00000000000E+00  0.00000000000E+00  0.74505805969E-08  0.10566000000E+00  0.10566000000E+00 0. -1.
     999900   -1    0    0    0    0 -0.00000000000E+00 -0.00000000000E+00 -0.74505805969E-08  0.93827000000E+00  0.93827000000E+00 0.  1.
     999902    2    1    2    0    0  0.34118742933E-03  0.88414381995E-02 -0.22509889912E-01  0.10197435868E+01  0.10194567182E+01 0.  0.
     999903    2    3    3    0    0 -0.96820452359E-01  0.85554709461E-01 -0.91255728384E-02  0.13097789770E+00  0.19445444177E-01 0.  0.
         14    1    1    2    0    0 -0.34118742933E-03 -0.88414381995E-02  0.22509889912E-01  0.24186413172E-01  0.00000000000E+00 0. -1.
     999901    1    3    3    0    0  0.97161639789E-01 -0.76713271262E-01 -0.13384317073E-01  0.88876568913E+00  0.88000000000E+00 0. -1.
        -11    1    4    4    0    0 -0.68621829975E-01  0.48248855937E-01 -0.53209252622E-02  0.84056415668E-01  0.51100000000E-03 0. -1.
         11    1    4    4    0    0 -0.28198622384E-01  0.37305853524E-01 -0.38046475762E-02  0.46921482028E-01  0.51100000000E-03 0.  1.
</event>
<event>
 7    1  0.1061721E+005  0.1043930E+01  0.7957747E-01            NaN
         13   -1    0    0    0    0  0.00000000000E+00  0.00000000000E+00  0.74505805969E-08  0.10566000000E+00  0.10566000000E+00 0. -1.
     999900   -1    0    0    0    0 -0.00000000000E+00 -0.00000000000E+00 -0.74505805969E-08  0.93827000000E+00  0.93827000000E+00 0.  1.
     999902    2    1    2    0    0  0.20235791537E-01  0.15125541892E-02 -0.21393407133E-01  0.10144435124E+01  0.10140148850E+01 0.  0.
         14    1    1    2    0    0 -0.20235791537E-01 -0.15125541892E-02  0.21393407133E-01  0.29486487551E-01  0.00000000000E+00 0. -1.
     999901    1    3    3    0    0  0.66080613477E-01  0.10758019715E+00  0.76082478764E-02  0.88904332388E+00  0.88000000000E+00 0. -1.
        -11    1    3    3    0    0 -0.28565271588E-01 -0.98568786272E-01 -0.20167061714E-01  0.10458848822E+00  0.51100000000E-03 0. -1.
         11    1    3    3    0    0 -0.17279550353E-01 -0.74988566883E-02 -0.88345932959E-02  0.20811700356E-01  0.51100000000E-03 0.  1.
</event>
<event>
 8    1  0.1061721E+005  0.1043930E+01  0.7957747E-01            NaN
         13   -1    0    0    0    0  0.00000000000E+00  0.00000000000E+00  0.74505805969E-08  0.10566000000E+00  0.10566000000E+00 0. -1.
     999900   -1    0    0    0    0 -0.00000000000E+00 -0.00000000000E+00 -0.74505805969E-08  0.93827000000E+00  0.93827000000E+00 0.  1.
     999902    2    1    2    0    0  0.13686315299E-01  0.18643479002E-01 -0.22327086851E-02  0.10206946923E+01  0.10204301913E+01 0.  0.
     999903    2    3    3    0    0 -0.57032527246E-01 -0.10387692880E+00 -0.45845879112E-01  0.12833012910E+00  0.17990328004E-01 0.  0.
         14    1    1    2    0    0 -0.13686315299E-01 -0.18643479002E-01  0.22327086851E-02  0.23235307698E-01  0.00000000000E+00 0. -1.
     999901    1    3    3    0    0  0.70718842546E-01  0.12252040781E+00  0.43613170427E-01  0.89236456320E+00  0.88000000000E+00 0.  1.
        -11    1    4    4    0    0 -0.71670192003E-02 -0.29152319725E-01 -0.11370774452E-01  0.32105755593E-01  0.51100000000E-03 0.  1.
         11    1    4    4    0    0 -0.49865508046E-01 -0.74724609080E-01 -0.34475104660E-01  0.96224373509E-01  0.51100000000E-03 0. -1.
</event>
<event>
 8    1  0.1061721E+005  0.1043930E+01  0.7957747E-01            NaN
         13   -1    0    0    0    0  0.00000000000E+00  0.00000000000E+00  0.74505805969E-08  0.10566000000E+00  0.10566000000E+00 0.  1.
     999900   -1    0    0    0    0 -0.00000000000E+00 -0.00000000000E+00 -0.74505805969E-08  0.93827000000E+00  0.93827000000E+00 0.  1.
     999902    2    1    2    0    0  0.11573566424E-01  0.19178013501E-01  0.11596781163E-01  0.10187064203E+01  0.10183940994E+01 0.  0.
     999903    2    3    3    0    0 -0.10046490161E+00 -0.73807296023E-01  0.11966440873E-01  0.12674284323E+00  0.19489463830E-01 0.  0.
         14    1    1    2    0    0 -0.11573566424E-01 -0.19178013501E-01 -0.11596781163E-01  0.25223579741E-01  0.00000000000E+00 0.  1.
     999901    1    3    3    0    0  0.11203846803E+00  0.92985309524E-01 -0.36965970948E-03  0.89196357703E+00  0.88000000000E+00 0.  1.
        -11    1    4    4    0    0 -0.58754127131E-01 -0.31244606282E-01  0.77787278843E-02  0.67000317948E-01  0.51100000000E-03 0. -1.
         11    1    4    4    0    0 -0.41710774477E-01 -0.42562689741E-01  0.41877129883E-02  0.59742525277E-01  0.51100000000E-03 0.  1.
</event>
<event>
 8    1  0.1061721E+005  0.1043930E+01  0.7957747E-01            NaN
         13   -1    0    0    0    0  0.00000000000E+00  0.00000000000E+00  0.74505805969E-08  0.10566000000E+00  0.10566000000E+00 0.  1.
     999900   -1    0    0    0    0 -0.00000000000E+00 -0.00000000000E+00 -0.74505805969E-08  0.93827000000E+00  0.93827000000E+00 0. -1.
     999902    2    1    2    0    0 -0.11505174847E-01  0.18349670036E-01  0.91867500737E-02  0.10204039333E+01  0.10201326930E+01 0.  0.
     999903    2    3    3    0    0  0.51088207860E-01  0.85811695308E-01  0.84666615437E-01  0.13239139593E+00  0.19631452107E-01 0.  0.
         14    1    1    2    0    0  0.11505174847E-01 -0.18349670036E-01 -0.91867500737E-02  0.23526066726E-01  0.00000000000E+00 0.  1.
     999901    1    3    3    0    0 -0.62593382706E-01 -0.67462025272E-01 -0.75479865363E-01  0.88801253735E+00  0.88000000000E+00 0. -1.
        -11    1    4    4    0    0  0.21242014405E-01  0.54467333302E-01  0.47056532958E-01  0.75049929966E-01  0.51100000000E-03 0. -1.
         11    1    4    4    0    0  0.29846193455E-01  0.31344362006E-01  0.37610082479E-01  0.57341465959E-01  0.51100000000E-03 0.  1.
</event>
<event>
 8    1  0.1061721E+005  0.1043930E+01  0.7957747E-01            NaN
         13   -1    0    0    0    0  0.00000000000E+00  0.00000000000E+00  0.74505805969E-08  0.10566000000E+00  0.10566000000E+00 0. -1.
     999900   -1    0    0    0    0 -0.00000000000E+00 -0.00000000000E+00 -0.74505805969E-08  0.93827000000E+00  0.93827000000E+00 0.  1.
     999902    2    1    2    0    0 -0.40939223577E-02 -0.10274625674E-01  0.21195808254E-01  0.10200220427E+01  0.10197418189E+01 0.  0.
     999903    2    3    3    0    0 -0.70304952085E-01  0.30000742587E-01  0.10648693485E+00  0.13250833466E+00  0.19394860614E-01 0.  0.
         14    1    1    2    0    0  0.40939223577E-02  0.10274625674E-01 -0.21195808254E-01  0.23907957264E-01  0.00000000000E+00 0.  1.
     999901    1    3    3    0    0  0.66211029728E-01 -0.40275368261E-01 -0.85291126592E-01  0.88751370808E+00  0.88000000000E+00 0.  1.
        -11    1    4    4    0    0 -0.24260911998E-01  0.48093885194E-02  0.47459700170E-01  0.53520148824E-01  0.51100000000E-03 0.  1.
         11    1    4    4    0    0 -0.46044040087E-01  0.25191354068E-01  0.59027234675E-01  0.78988185836E-01  0.51100000000E-03 0. -1.
</event>
<event>
 8    1  0.1061721E+005  0.1043930E+01  0.7957747E-01            NaN
         13   -1    0    0    0    0  0.00000000000E+00  0.00000000000E+00  0.74505805969E-08  0.10566000000E+00  0.10566000000E+00 0. -1.
     999900   -1    0    0    0    0 -0.00000000000E+00 -0.00000000000E+00 -0.74505805969E-08  0.93827000000E+00  0.93827000000E+00 0.  1.
     999902    2    1    2    0    0 -0.22865850077E-01 -0.15346567448E-01  0.19278854521E-01  0.10103139553E+01  0.10097545493E+01 0.  0.
     999903    2    3    3    0    0 -0.34900723492E-01  0.84561229181E-01 -0.74000004232E-01  0.11968083692E+00  0.21882415718E-01 0.  0.
         14    1    1    2    0    0  0.22865850077E-01  0.15346567448E-01 -0.19278854521E-01  0.33616044738E-01  0.00000000000E+00 0. -1.
     999901    1    3    3    0    0  0.12034873414E-01 -0.99907796629E-01  0.93278858753E-01  0.89063311835E+00  0.88000000000E+00 0. -1.
        -11    1    4    4    0    0 -0.23579762891E-01  0.72255313161E-01 -0.67760020066E-01  0.10182591487E+00  0.51100000000E-03 0. -1.
         11    1    4    4    0    0 -0.11320960600E-01  0.12305916020E-01 -0.62399841662E-02  0.17854922049E-01  0.51100000000E-03 0.  1.
</event>
<event>
 8    1  0.1061721E+005  0.1043930E+01  0.7957747E-01            NaN
         13   -1    0    0    0    0  0.00000000000E+00  0.00000000000E+00  0.74505805969E-08  0.10566000000E+00  0.10566000000E+00 0.  1.
     999900   -1    0    0    0    0 -0.00000000000E+00 -0.00000000000E+00 -0.74505805969E-08  0.93827000000E+00  0.93827000000E+00 0.  1.
     999902    2    1    2    0    0  0.23050007079E-02 -0.10193861153E-01 -0.22226220576E-01  0.10193692037E+01  0.10190732755E+01 0.  0.
     999903    2    3    3    0    0 -0.34828361499E-01  0.79600636781E-01  0.90102267662E-01  0.12692333548E+00  0.21019950292E-01 0.  0.
         14    1    1    2    0    0 -0.23050007079E-02  0.10193861153E-01  0.22226220576E-01  0.24560796294E-01  0.00000000000E+00 0.  1.
     999901    1    3    3    0    0  0.37133362206E-01 -0.89794497934E-01 -0.11232848824E+00  0.89244586823E+00  0.88000000000E+00 0.  1.
        -11    1    4    4    0    0 -0.35476068813E-01  0.63306882012E-01  0.67995200688E-01  0.99448082968E-01  0.51100000000E-03 0.  1.
         11    1    4    4    0    0  0.64770731426E-03  0.16293754769E-01  0.22107066975E-01  0.27475252510E-01  0.51100000000E-03 0. -1.
</event>
<event>
 8    1  0.1061721E+005  0.1043930E+01  0.7957747E-01            NaN
         13   -1    0    0    0    0  0.00000000000E+00  0.00000000000E+00  0.74505805969E-08  0.10566000000E+00  0.10566000000E+00 0.  1.
     999900   -1    0    0    0    0 -0.00000000000E+00 -0.00000000000E+00 -0.74505805969E-08  0.93827000000E+00  0.93827000000E+00 0.  1.
     999902    2    1    2    0    0  0.17846311111E-01  0.11352277428E-01  0.39031437342E-02  0.10224218724E+01  0.10221956200E+01 0.  0.
     999903    2    3    3    0    0 -0.43192961574E-01  0.11107335069E+00 -0.55041277993E-01  0.13273398883E+00  0.19643022814E-01 0.  0.
         14    1    1    2    0    0 -0.17846311111E-01 -0.11352277428E-01 -0.39031437342E-02  0.21508127629E-01  0.00000000000E+00 0.  1.
     999901    1    3    3    0    0  0.61039272685E-01 -0.99721073262E-01  0.58944421727E-01  0.88968788354E+00  0.88000000000E+00 0. -1.
        -11    1    4    4    0    0 -0.35683933666E-01  0.95697033276E-01 -0.39167156207E-01  0.10938735094E+00  0.51100000000E-03 0.  1.
         11    1    4    4    0    0 -0.75090279075E-02  0.15376317415E-01 -0.15874121786E-01  0.23346637891E-01  0.51100000000E-03 0. -1.
</event>
<event>
 8    1  0.1061721E+005  0.1043930E+01  0.7957747E-01            NaN
         13   -1    0    0    0    0  0.00000000000E+00  0.00000000000E+00  0.74505805969E-08  0.10566000000E+00  0.10566000000E+00 0. -1.
     999900   -1    0    0    0    0 -0.00000000000E+00 -0.00000000000E+00 -0.74505805969E-08  0.93827000000E+00  0.93827000000E+00 0. -1.
     999902    2    1    2    0    0 -0.10865923292E-01  0.53478081515E-02 -0.20613738475E-01  0.10200219772E+01  0.10197417518E+01 0.  0.
     999903    2    3    3    0    0 -0.84904771689E-01 -0.95876483600E-01 -0.19947865202E-01  0.13113022241E+00  0.19902199407E-01 0.  0.
         14    1    1    2    0    0  0.10865923292E-01 -0.53478081515E-02  0.20613738475E-01  0.23908022815E-01  0.00000000000E+00 0. -1.
     999901    1    3    3    0    0  0.74038848397E-01  0.10122429175E+00 -0.66587327243E-03  0.88889175477E+00  0.88000000000E+00 0. -1.
        -11    1    4    4    0    0 -0.47624304534E-01 -0.68138721956E-01 -0.12700879323E-01  0.84098354733E-01  0.51100000000E-03 0. -1.
         11    1    4    4    0    0 -0.37280467154E-01 -0.27737761644E-01 -0.72469858794E-02  0.47031867681E-01  0.51100000000E-03 0.  1.
</event>
<event>
 8    1  0.1061721E+005  0.1043930E+01  0.7957747E-01            NaN
         13   -1    0    0    0    0  0.00000000000E+00  0.00000000000E+00  0.74505805969E-08  0.10566000000E+00  0.10566000000E+00 0. -1.
     999900   -1    0    0    0    0 -0.00000000000E+00 -0.00000000000E+00 -0.74505805969E-08  0.93827000000E+00  0.93827000000E+00 0.  1.
     999902    2    1    2    0    0  0.21312640944E-01 -0.29333325492E-02 -0.98697282306E-02  0.10202605125E+01  0.10199859159E+01 0.  0.
     999903    2    3    3    0    0  0.77537381135E-01  0.10056893292E+00 -0.31725499256E-01  0.13214361979E+00  0.18145886717E-01 0.  0.
         14    1    1    2    0    0 -0.21312640944E-01  0.29333325492E-02  0.98697282306E-02  0.23669487515E-01  0.00000000000E+00 0. -1.
     999901    1    3    3    0    0 -0.56224740190E-01 -0.10350226547E+00  0.21855771025E-01  0.88811689270E+00  0.88000000000E+00 0.  1.
        -11    1    4    4    0    0  0.16666871150E-01  0.26720170859E-01 -0.58584090367E-03  0.31501689720E-01  0.51100000000E-03 0. -1.
         11    1    4    4    0    0  0.60870509985E-01  0.73848762065E-01 -0.31139658352E-01  0.10064193007E+00  0.51100000000E-03 0.  1.
</event>
<event>
 8    1  0.1061721E+005  0.1043930E+01  0.7957747E-01            NaN
         13   -1    0    0    0    0  0.00000000000E+00  0.00000000000E+00  0.74505805969E-08  0.10566000000E+00  0.10566000000E+00 0. -1.
     999900   -1    0    0    0    0 -0.00000000000E+00 -0.00000000000E+00 -0.74505805969E-08  0.93827000000E+00  0.93827000000E+00 0. -1.
     999902    2    1    2    0    0 -0.21499629504E-01 -0.93033732287E-02  0.38406010830E-02  0.10201910649E+01  0.10199148356E+01 0.  0.
     999903    2    3    3    0    0 -0.17237409402E-01 -0.40511446380E-01  0.12259368710E+00  0.13165608767E+00  0.19126100849E-01 0.  0.
         14    1    1    2    0    0  0.21499629504E-01  0.93033732287E-02 -0.38406010830E-02  0.23738935084E-01  0.00000000000E+00 0. -1.
     999901    1    3    3    0    0 -0.42622201020E-02  0.31208073151E-01 -0.11875308602E+00  0.88853497725E+00  0.88000000000E+00 0. -1.
        -11    1    4    4    0    0 -0.20670107830E-01 -0.28134585023E-01  0.83593995527E-01  0.90592634586E-01  0.51100000000E-03 0.  1.
         11    1    4    4    0    0  0.34326984280E-02 -0.12376861357E-01  0.38999691572E-01  0.41063453085E-01  0.51100000000E-03 0. -1.
</event>
<event>
 8    1  0.1061721E+005  0.1043930E+01  0.7957747E-01            NaN
         13   -1    0    0    0    0  0.00000000000E+00  0.00000000000E+00  0.74505805969E-08  0.10566000000E+00  0.10566000000E+00 0.  1.
     999900   -1    0    0    0    0 -0.00000000000E+00 -0.00000000000E+00 -0.74505805969E-08  0.93827000000E+00  0.93827000000E+00 0. -1.
     999902    2    1    2    0    0 -0.44181149210E-02 -0.19867461247E-02  0.21754507259E-01  0.10216426609E+01  0.10213995306E+01 0.  0.
     999903    2    3    3    0    0 -0.12110147387E+00 -0.49808070013E-01  0.99823392609E-03  0.13241113412E+00  0.19629089575E-01 0.  0.
         14    1    1    2    0    0  0.44181149210E-02  0.19867461247E-02 -0.21754507259E-01  0.22287339134E-01  0.00000000000E+00 0. -1.
     999901    1    3    3    0    0  0.11668335894E+00  0.47821323888E-01  0.20756273332E-01  0.88923152674E+00  0.88000000000E+00 0.  1.
        -11    1    4    4    0    0 -0.74104847462E-01 -0.21234320513E-01 -0.39171417136E-02  0.77188275698E-01  0.51100000000E-03 0.  1.
         11    1    4    4    0    0 -0.46996626404E-01 -0.28573749500E-01  0.49153756397E-02  0.55222858424E-01  0.51100000000E-03 0. -1.
</event>
<event>
 8    1  0.1061721E+005  0.1043930E+01  0.7957747E-01            NaN
         13   -1    0    0    0    0  0.00000000000E+00  0.00000000000E+00  0.74505805969E-08  0.10566000000E+00  0.10566000000E+00 0. -1.
     999900   -1    0    0    0    0 -0.00000000000E+00 -0.00000000000E+00 -0.74505805969E-08  0.93827000000E+00  0.93827000000E+00 0.  1.
     999902    2    1    2    0    0 -0.12539165605E-01  0.22483688382E-01 -0.24208233724E-01  0.10085918408E+01  0.10079725769E+01 0.  0.
     999903    2    3    3    0    0  0.10976290453E+00 -0.25039207963E-01 -0.31850056389E-01  0.11883085068E+00  0.20772285260E-01 0.  0.
         14    1    1    2    0    0  0.12539165605E-01 -0.22483688382E-01  0.24208233724E-01  0.35338159225E-01  0.00000000000E+00 0. -1.
     999901    1    3    3    0    0 -0.12230207014E+00  0.47522896345E-01  0.76418226647E-02  0.88976099009E+00  0.88000000000E+00 0. -1.
        -11    1    4    4    0    0  0.51648667446E-01 -0.32864063499E-02 -0.20908815669E-01  0.55819575503E-01  0.51100000000E-03 0. -1.
         11    1    4    4    0    0  0.58114237088E-01 -0.21752801613E-01 -0.10941240720E-01  0.63011275180E-01  0.51100000000E-03 0.  1.
</event>
<event>
 8    1  0.1061721E+005  0.1043930E+01  0.7957747E-01            NaN
         13   -1    0    0    0    0  0.00000000000E+00  0.00000000000E+00  0.74505805969E-08  0.10566000000E+00  0.10566000000E+00 0.  1.
     999900   -1    0    0    0    0 -0.00000000000E+00 -0.00000000000E+00 -0.74505805969E-08  0.93827000000E+00  0.93827000000E+00 0. -1.
     999902    2    1    2    0    0 -0.19090506023E-01 -0.95973159611E-02  0.10267112726E-01  0.10202241042E+01  0.10199486522E+01 0.  0.
     999903    2    3    3    0    0  0.20600312196E-01  0.12301899967E+00 -0.24841428418E-01  0.12871131239E+00  0.19785303399E-01 0.  0.
         14    1    1    2    0    0  0.19090506023E-01  0.95973159611E-02 -0.10267112726E-01  0.23705895840E-01  0.00000000000E+00 0. -1.
     999901    1    3    3    0    0 -0.39690818218E-01 -0.13261631563E+00  0.35108541143E-01  0.89151279177E+00  0.88000000000E+00 0.  1.
        -11    1    4    4    0    0  0.18956889540E-01  0.54430843375E-01 -0.12992543915E-01  0.59085934790E-01  0.51100000000E-03 0.  1.
         11    1    4    4    0    0  0.16434226555E-02  0.68588156292E-01 -0.11848884503E-01  0.69625377604E-01  0.51100000000E-03 0. -1.
</event>
<event>
 8    1  0.1061721E+005  0.1043930E+01  0.7957747E-01            NaN
         13   -1    0    0    0    0  0.00000000000E+00  0.00000000000E+00  0.74505805969E-08  0.10566000000E+00  0.10566000000E+00 0. -1.
     999900   -1    0    0    0    0 -0.00000000000E+00 -0.00000000000E+00 -0.74505805969E-08  0.93827000000E+00  0.93827000000E+00 0.  1.
     999902    2    1    2    0    0 -0.30484681202E-02  0.94407412403E-02  0.20291033044E-01  0.10213435710E+01  0.10210937975E+01 0.  0.
     999903    2    3    3    0    0  0.12757991779E-01 -0.84680176876E-01 -0.94386949371E-01  0.12878565632E+00  0.18529715394E-01 0.  0.
         14    1    1    2    0    0  0.30484681202E-02 -0.94407412403E-02 -0.20291033044E-01  0.22586429001E-01  0.00000000000E+00 0.  1.
     999901    1    3    3    0    0 -0.15806459899E-01  0.94120918117E-01  0.11467798241E+00  0.89255791468E+00  0.88000000000E+00 0. -1.
        -11    1    4    4    0    0  0.71156213935E-02 -0.77203708995E-01 -0.78485633259E-01  0.11032361714E+00  0.51100000000E-03 0.  1.
         11    1    4    4    0    0  0.56423703856E-02 -0.74764678813E-02 -0.15901316112E-01  0.18462039179E-01  0.51100000000E-03 0. -1.
</event>
<event>
 8    1  0.1061721E+005  0.1043930E+01  0.7957747E-01            NaN
         13   -1    0    0    0    0  0.00000000000E+00  0.00000000000E+00  0.74505805969E-08  0.10566000000E+00  0.10566000000E+00 0.  1.
     999900   -1    0    0    0    0 -0.00000000000E+00 -0.00000000000E+00 -0.74505805969E-08  0.93827000000E+00  0.93827000000E+00 0.  1.
     999902    2    1    2    0    0  0.72128041630E-02  0.22303625124E-01  0.52103667891E-02  0.10199170002E+01  0.10196342791E+01 0.  0.
     999903    2    3    3    0    0  0.23034986636E-01  0.10341340713E+00  0.77985737549E-01  0.13305433169E+00  0.19918246334E-01 0.  0.
         14    1    1    2    0    0 -0.72128041630E-02 -0.22303625124E-01 -0.52103667891E-02  0.24012999805E-01  0.00000000000E+00 0.  1.
     999901    1    3    3    0    0 -0.15822182473E-01 -0.81109782007E-01 -0.72775370760E-01  0.88686266850E+00  0.88000000000E+00 0.  1.
        -11    1    4    4    0    0  0.87451528238E-02  0.57649183557E-01  0.53865594000E-01  0.79383054871E-01  0.51100000000E-03 0.  1.
         11    1    4    4    0    0  0.14289833812E-01  0.45764223574E-01  0.24120143549E-01  0.53671276821E-01  0.51100000000E-03 0. -1.
</event>
<event>
 8    1  0.1061721E+005  0.1043930E+01  0.7957747E-01            NaN
         13   -1    0    0    0    0  0.00000000000E+00  0.00000000000E+00  0.74505805969E-08  0.10566000000E+00  0.10566000000E+00 0.  1.
     999900   -1    0    0    0    0 -0.00000000000E+00 -0.00000000000E+00 -0.74505805969E-08  0.93827000000E+00  0.93827000000E+00 0.  1.
     999902    2    1    2    0    0  0.44430440212E-03 -0.14622159817E-01  0.18014292041E-01  0.10207239732E+01  0.10204601461E+01 0.  0.
     999903    2    3    3    0    0 -0.70235240999E-01  0.10284283645E+00 -0.27065176730E-01  0.12896964488E+00  0.19773907609E-01 0.  0.
         14    1    1    2    0    0 -0.44430440212E-03  0.14622159817E-01 -0.18014292041E-01  0.23206026843E-01  0.00000000000E+00 0. -1.
     999901    1    3    3    0    0  0.70679545401E-01 -0.11746499627E+00  0.45079468771E-01  0.89175432827E+00  0.88000000000E+00 0. -1.
        -11    1    4    4    0    0 -0.12932613226E-01  0.10312287295E-01 -0.83435618627E-02  0.18532994892E-01  0.51100000000E-03 0.  1.
         11    1    4    4    0    0 -0.57302627772E-01  0.92530549159E-01 -0.18721614868E-01  0.11043664999E+00  0.51100000000E-03 0. -1.
</event>
<event>
 8    1  0.1061721E+005  0.1043930E+01  0.7957747E-01            NaN
         13   -1    0    0    0    0  0.00000000000E+00  0.00000000000E+00  0.74505805969E-08  0.10566000000E+00  0.10566000000E+00 0. -1.
     999900   -1    0    0    0    0 -0.00000000000E+00 -0.00000000000E+00 -0.74505805969E-08  0.93827000000E+00  0.93827000000E+00 0. -1.
     999902    2    1    2    0    0 -0.12774538648E-01 -0.11607137430E-01  0.12497171990E-01  0.10226205236E+01  0.10223984749E+01 0.  0.
     999903    2    3    3    0    0 -0.25405431222E-01  0.11263525880E+00  0.61861818685E-01  0.13243370005E+00  0.19484938724E-01 0.  0.
         14    1    1    2    0    0  0.12774538648E-01  0.11607137430E-01 -0.12497171990E-01  0.21309476407E-01  0.00000000000E+00 0. -1.
     999901    1    3    3    0    0  0.12630892574E-01 -0.12424239623E+00 -0.49364646694E-01  0.89018682354E+00  0.88000000000E+00 0. -1.
        -11    1    4    4    0    0 -0.12665308472E-02  0.48290400164E-01  0.27663939060E-01  0.55669753850E-01  0.51100000000E-03 0. -1.
         11    1    4    4    0    0 -0.24138900375E-01  0.64344858635E-01  0.34197879625E-01  0.76763946198E-01  0.51100000000E-03 0.  1.
</event>
<event>
 8    1  0.1061721E+005  0.1043930E+01  0.7957747E-01            NaN
         13   -1    0    0    0    0  0.00000000000E+00  0.00000000000E+00  0.74505805969E-08  0.10566000000E+00  0.10566000000E+00 0. -1.
     999900   -1    0    0    0    0 -0.00000000000E+00 -0.00000000000E+00 -0.74505805969E-08  0.93827000000E+00  0.93827000000E+00 0.  1.
     999902    2    1    2    0    0 -0.13085604609E-01 -0.16436145850E-01  0.10454153028E-01  0.10204636570E+01  0.10201938081E+01 0.  0.
     999903    2    3    3    0    0 -0.12812921021E-01  0.12684700797E+00 -0.13393530351E-02  0.12879711433E+00  0.18236458479E-01 0.  0.
         14    1    1    2    0    0  0.13085604609E-01  0.16436145850E-01 -0.10454153028E-01  0.23466343003E-01  0.00000000000E+00 0.  1.
     999901    1    3    3    0    0 -0.27268358783E-03 -0.14328315382E+00  0.11793506063E-01  0.89166654267E+00  0.88000000000E+00 0. -1.
        -11    1    4    4    0    0 -0.46099252557E-02  0.94491205922E-01  0.53263472494E-02  0.94754791454E-01  0.51100000000E-03 0. -1.
         11    1    4    4    0    0 -0.82029957654E-02  0.32355802046E-01 -0.66657002845E-02  0.34042322877E-01  0.51100000000E-03 0.  1.
</event>
<event>
 7    1  0.1061721E+005  0.1043930E+01  0.7957747E-01            NaN
         13   -1    0    0    0    0  0.00000000000E+00  0.00000000000E+00  0.74505805969E-08  0.10566000000E+00  0.10566000000E+00 0.  1.
     999900   -1    0    0    0    0 -0.00000000000E+00 -0.00000000000E+00 -0.74505805969E-08  0.93827000000E+00  0.93827000000E+00 0.  1.
     999902    2    1    2    0    0 -0.12450863638E-01  0.22299966251E-01  0.82010045606E-02  0.10171052171E+01  0.10167514218E+01 0.  0.
         14    1    1    2    0    0  0.12450863638E-01 -0.22299966251E-01 -0.82010045606E-02  0.26824782869E-01  0.00000000000E+00 0. -1.
     999901    1    3    3    0    0  0.86754026030E-01  0.40609657787E-01  0.10091679390E-01  0.88525547009E+00  0.88000000000E+00 0. -1.
        -11    1    3    3    0    0 -0.16065938998E-01 -0.17650748922E-01  0.33791052862E-01  0.41373417890E-01  0.51100000000E-03 0.  1.
         11    1    3    3    0    0 -0.83138950670E-01 -0.65894261437E-03 -0.35681727691E-01  0.90476329147E-01  0.51100000000E-03 0. -1.
</event>
<event>
 8    1  0.1061721E+005  0.1043930E+01  0.7957747E-01            NaN
         13   -1    0    0    0    0  0.00000000000E+00  0.00000000000E+00  0.74505805969E-08  0.10566000000E+00  0.10566000000E+00 0.  1.
     999900   -1    0    0    0    0 -0.00000000000E+00 -0.00000000000E+00 -0.74505805969E-08  0.93827000000E+00  0.93827000000E+00 0. -1.
     999902    2    1    2    0    0  0.10399632187E-02  0.78685820118E-02  0.22518764168E-01  0.10200534247E+01  0.10197739448E+01 0.  0.
     999903    2    3    3    0    0  0.12323233486E+00  0.97466269154E-02 -0.34103293866E-01  0.12980595342E+00  0.20133201445E-01 0.  0.
         14    1    1    2    0    0 -0.10399632187E-02 -0.78685820118E-02 -0.22518764168E-01  0.23876575258E-01  0.00000000000E+00 0. -1.
     999901    1    3    3    0    0 -0.12219237164E+00 -0.18780449036E-02  0.56622058034E-01  0.89024747132E+00  0.88000000000E+00 0.  1.
        -11    1    4    4    0    0  0.81118978027E-01 -0.68345904690E-03 -0.28848135178E-01  0.86100126229E-01  0.51100000000E-03 0.  1.
         11    1    4    4    0    0  0.42113356830E-01  0.10430085962E-01 -0.52551586881E-02  0.43705827192E-01  0.51100000000E-03 0. -1.
</event>
<event>
 8    1  0.1061721E+005  0.1043930E+01  0.7957747E-01            NaN
         13   -1    0    0    0    0  0.00000000000E+00  0.00000000000E+00  0.74505805969E-08  0.10566000000E+00  0.10566000000E+00 0. -1.
     999900   -1    0    0    0    0 -0.00000000000E+00 -0.00000000000E+00 -0.74505805969E-08  0.93827000000E+00  0.93827000000E+00 0.  1.
     999902    2    1    2    0    0 -0.19468970742E-02  0.51495360520E-02 -0.23796825333E-01  0.10195046643E+01  0.10192120307E+01 0.  0.
     999903    2    3    3    0    0  0.10655811570E+00 -0.50384974783E-01 -0.52689719023E-01  0.13063334681E+00  0.19889371591E-01 0.  0.
         14    1    1    2    0    0  0.19468970742E-02 -0.51495360520E-02  0.23796825333E-01  0.24425335734E-01  0.00000000000E+00 0. -1.
     999901    1    3    3    0    0 -0.10850501278E+00  0.55534510835E-01  0.28892893690E-01  0.88887131746E+00  0.88000000000E+00 0.  1.
        -11    1    4    4    0    0  0.97387417203E-01 -0.51584987928E-01 -0.47416926150E-01  0.11997477241E+00  0.51100000000E-03 0. -1.
         11    1    4    4    0    0  0.91706984982E-02  0.12000131446E-02 -0.52727928734E-02  0.10658574397E-01  0.51100000000E-03 0.  1.
</event>
<event>
 8    1  0.1061721E+005  0.1043930E+01  0.7957747E-01            NaN
         13   -1    0    0    0    0  0.00000000000E+00  0.00000000000E+00  0.74505805969E-08  0.10566000000E+00  0.10566000000E+00 0.  1.
     999900   -1    0    0    0    0 -0.00000000000E+00 -0.00000000000E+00 -0.74505805969E-08  0.93827000000E+00  0.93827000000E+00 0. -1.
     999902    2    1    2    0    0 -0.18450728070E-01  0.11249239109E-01 -0.77312082522E-02  0.10209790452E+01  0.10207210512E+01 0.  0.
     999903    2    3    3    0    0 -0.10567192250E-01  0.34093837930E-01  0.12339630178E+00  0.13093497338E+00  0.25362662013E-01 0.  0.
         14    1    1    2    0    0  0.18450728070E-01 -0.11249239109E-01  0.77312082522E-02  0.22950954836E-01  0.00000000000E+00 0.  1.
     999901    1    3    3    0    0 -0.78835358201E-02 -0.22844598821E-01 -0.13112751003E+00  0.89004407178E+00  0.88000000000E+00 0. -1.
        -11    1    4    4    0    0  0.52818322488E-02  0.16795095060E-01  0.76417527527E-01  0.78421123458E-01  0.51100000000E-03 0.  1.
         11    1    4    4    0    0 -0.15849024499E-01  0.17298742870E-01  0.46978774251E-01  0.52513849922E-01  0.51100000000E-03 0. -1.
</event>
<event>
 8    1  0.1061721E+005  0.1043930E+01  0.7957747E-01            NaN
         13   -1    0    0    0    0  0.00000000000E+00  0.00000000000E+00  0.74505805969E-08  0.10566000000E+00  0.10566000000E+00 0. -1.
     999900   -1    0    0    0    0 -0.00000000000E+00 -0.00000000000E+00 -0.74505805969E-08  0.93827000000E+00  0.93827000000E+00 0.  1.
     999902    2    1    2    0    0 -0.14989813828E-01  0.86438713950E-02 -0.15775180811E-01  0.10205148903E+01  0.10202462321E+01 0.  0.
     999903    2    3    3    0    0  0.60393495317E-01 -0.11287027247E+00 -0.32980564595E-02  0.12888491714E+00  0.14607258634E-01 0.  0.
         14    1    1    2    0    0  0.14989813828E-01 -0.86438713950E-02  0.15775180811E-01  0.23415109671E-01  0.00000000000E+00 0. -1.
     999901    1    3    3    0    0 -0.75383309145E-01  0.12151414387E+00 -0.12477124352E-01  0.89162997319E+00  0.88000000000E+00 0.  1.
        -11    1    4    4    0    0  0.42672856314E-01 -0.66398368813E-01 -0.52830032663E-02  0.79106809388E-01  0.51100000000E-03 0. -1.
         11    1    4    4    0    0  0.17720639003E-01 -0.46471903660E-01  0.19849468068E-02  0.49778107751E-01  0.51100000000E-03 0.  1.
</event>
<event>
 7    1  0.1061721E+005  0.1043930E+01  0.7957747E-01            NaN
         13   -1    0    0    0    0  0.00000000000E+00  0.00000000000E+00  0.74505805969E-08  0.10566000000E+00  0.10566000000E+00 0. -1.
     999900   -1    0    0    0    0 -0.00000000000E+00 -0.00000000000E+00 -0.74505805969E-08  0.93827000000E+00  0.93827000000E+00 0. -1.
     999902    2    1    2    0    0  0.16936358395E-01  0.17753989822E-01 -0.52777092746E-02  0.10188322191E+01  0.10185230445E+01 0.  0.
         14    1    1    2    0    0 -0.16936358395E-01 -0.17753989822E-01  0.52777092746E-02  0.25097780887E-01  0.00000000000E+00 0. -1.
     999901    1    3    3    0    0 -0.97435030067E-01 -0.38104717789E-01 -0.32538069459E-04  0.88619724422E+00  0.88000000000E+00 0. -1.
        -11    1    3    3    0    0  0.57083845495E-01  0.12961179082E-01 -0.14928264261E-01  0.60412513394E-01  0.51100000000E-03 0. -1.
         11    1    3    3    0    0  0.57287542967E-01  0.42897528529E-01  0.96830930563E-02  0.72222461500E-01  0.51100000000E-03 0.  1.
</event>
<event>
 7    1  0.1061721E+005  0.1043930E+01  0.7957747E-01            NaN
         13   -1    0    0    0    0  0.00000000000E+00  0.00000000000E+00  0.74505805969E-08  0.10566000000E+00  0.10566000000E+00 0. -1.
     999900   -1    0    0    0    0 -0.00000000000E+00 -0.00000000000E+00 -0.74505805969E-08  0.93827000000E+00  0.93827000000E+00 0. -1.
     999903    2    1    2    0    0  0.10287362566E-01  0.32165177663E-01  0.11038008397E+00  0.11714200539E+00  0.19951391112E-01 0.  0.
         14    1    1    2    0    0  0.23734190801E-01 -0.31263482883E-01 -0.10003608381E-03  0.39252097806E-01  0.00000000000E+00 0.  1.
     999901    1    1    2    0    0 -0.34021553366E-01 -0.90169478010E-03 -0.11028004789E+00  0.88753589680E+00  0.88000000000E+00 0. -1.
        -11    1    3    3    0    0  0.89480113899E-02  0.24852257917E-01  0.10408929214E+00  0.10738968056E+00  0.51100000000E-03 0. -1.
         11    1    3    3    0    0  0.13393511756E-02  0.73129197464E-02  0.62907918298E-02  0.97523248323E-02  0.51100000000E-03 0.  1.
</event>
<event>
 8    1  0.1061721E+005  0.1043930E+01  0.7957747E-01            NaN
         13   -1    0    0    0    0  0.00000000000E+00  0.00000000000E+00  0.74505805969E-08  0.10566000000E+00  0.10566000000E+00 0.  1.
     999900   -1    0    0    0    0 -0.00000000000E+00 -0.00000000000E+00 -0.74505805969E-08  0.93827000000E+00  0.93827000000E+00 0.  1.
     999902    2    1    2    0    0 -0.18123232535E-01 -0.14107998547E-02 -0.15261408630E-01  0.10201949519E+01  0.10199188141E+01 0.  0.
     999903    2    3    3    0    0 -0.58295013030E-01  0.11330931583E+00  0.23543385678E-01  0.13099290011E+00  0.19171313782E-01 0.  0.
         14    1    1    2    0    0  0.18123232535E-01  0.14107998547E-02  0.15261408630E-01  0.23735048075E-01  0.00000000000E+00 0.  1.
     999901    1    3    3    0    0  0.40171780495E-01 -0.11472011568E+00 -0.38804794307E-01  0.88920205181E+00  0.88000000000E+00 0. -1.
        -11    1    4    4    0    0 -0.31154808281E-01  0.78129717133E-01  0.19715325470E-01  0.86393460156E-01  0.51100000000E-03 0. -1.
         11    1    4    4    0    0 -0.27140204749E-01  0.35179598696E-01  0.38280602074E-02  0.44599439954E-01  0.51100000000E-03 0.  1.
</event>
<event>
 8    1  0.1061721E+005  0.1043930E+01  0.7957747E-01            NaN
         13   -1    0    0    0    0  0.00000000000E+00  0.00000000000E+00  0.74505805969E-08  0.10566000000E+00  0.10566000000E+00 0.  1.
     999900   -1    0    0    0    0 -0.00000000000E+00 -0.00000000000E+00 -0.74505805969E-08  0.93827000000E+00  0.93827000000E+00 0. -1.
     999902    2    1    2    0    0  0.15510154864E-01  0.14255152524E-01  0.11768058828E-01  0.10197999050E+01  0.10195143867E+01 0.  0.
     999903    2    3    3    0    0  0.10052109746E+00  0.53788728553E-01  0.67653402994E-01  0.13305702472E+00  0.11378511996E-01 0.  0.
         14    1    1    2    0    0 -0.15510154864E-01 -0.14255152524E-01 -0.11768058828E-01  0.24130095026E-01  0.00000000000E+00 0. -1.
     999901    1    3    3    0    0 -0.85010942599E-01 -0.39533576029E-01 -0.55885344165E-01  0.88674288026E+00  0.88000000000E+00 0. -1.
        -11    1    4    4    0    0  0.70758592713E-01  0.43327911644E-01  0.47236596964E-01  0.95475879592E-01  0.51100000000E-03 0. -1.
         11    1    4    4    0    0  0.29762504750E-01  0.10460816909E-01  0.20416806030E-01  0.37581145124E-01  0.51100000000E-03 0.  1.
</event>
<event>
 8    1  0.1061721E+005  0.1043930E+01  0.7957747E-01            NaN
         13   -1    0    0    0    0  0.00000000000E+00  0.00000000000E+00  0.74505805969E-08  0.10566000000E+00  0.10566000000E+00 0. -1.
     999900   -1    0    0    0    0 -0.00000000000E+00 -0.00000000000E+00 -0.74505805969E-08  0.93827000000E+00  0.93827000000E+00 0. -1.
     999902    2    1    2    0    0 -0.64730290009E-02  0.21898131517E-01 -0.38018741311E-02  0.10207808636E+01  0.10205183433E+01 0.  0.
     999903    2    3    3    0    0  0.32788607172E-02  0.33568746561E-01  0.12521686990E+00  0.13124326524E+00  0.20196992120E-01 0.  0.
         14    1    1    2    0    0  0.64730290009E-02 -0.21898131517E-01  0.38018741311E-02  0.23149136384E-01  0.00000000000E+00 0. -1.
     999901    1    3    3    0    0 -0.97518897181E-02 -0.11670615044E-01 -0.12901874403E+00  0.88953759837E+00  0.88000000000E+00 0. -1.
        -11    1    4    4    0    0  0.53947192450E-02  0.31441907071E-01  0.83066093130E-01  0.88982770607E-01  0.51100000000E-03 0.  1.
         11    1    4    4    0    0 -0.21158585278E-02  0.21268394898E-02  0.42150776770E-01  0.42260494636E-01  0.51100000000E-03 0. -1.
</event>
<event>
 8    1  0.1061721E+005  0.1043930E+01  0.7957747E-01            NaN
         13   -1    0    0    0    0  0.00000000000E+00  0.00000000000E+00  0.74505805969E-08  0.10566000000E+00  0.10566000000E+00 0.  1.
     999900   -1    0    0    0    0 -0.00000000000E+00 -0.00000000000E+00 -0.74505805969E-08  0.93827000000E+00  0.93827000000E+00 0. -1.
     999902    2    1    2    0    0  0.22651419758E-01  0.45896351769E-02  0.18095195078E-02  0.10207475513E+01  0.10204842662E+01 0.  0.
     999903    2    3    3    0    0 -0.75160852492E-02  0.11984266741E+00  0.49453846730E-01  0.13144258575E+00  0.20315361703E-01 0.  0.
         14    1    1    2    0    0 -0.22651419758E-01 -0.45896351769E-02 -0.18095195078E-02  0.23182448726E-01  0.00000000000E+00 0. -1.
     999901    1    3    3    0    0  0.30167505007E-01 -0.11525303224E+00 -0.47644327222E-01  0.88930496553E+00  0.88000000000E+00 0. -1.
        -11    1    4    4    0    0 -0.10324253474E-01  0.28688111427E-01  0.10200063640E-01  0.32154321114E-01  0.51100000000E-03 0. -1.
         11    1    4    4    0    0  0.28081682250E-02  0.91154555985E-01  0.39253783089E-01  0.99288264631E-01  0.51100000000E-03 0.  1.
</event>
<event>
 8    1  0.1061721E+005  0.1043930E+01  0.7957747E-01            NaN
         13   -1    0    0    0    0  0.00000000000E+00  0.00000000000E+00  0.74505805969E-08  0.10566000000E+00  0.10566000000E+00 0. -1.
     999900   -1    0    0    0    0 -0.00000000000E+00 -0.00000000000E+00 -0.74505805969E-08  0.93827000000E+00  0.93827000000E+00 0.  1.
     999902    2    1    2    0    0  0.15119921923E-01  0.19226101489E-01 -0.16857710222E-02  0.10194127236E+01  0.10191178559E+01 0.  0.
     999903    2    3    3    0    0  0.10645447479E+00 -0.68066247039E-01 -0.22281463267E-01  0.13015115512E+00  0.21846976559E-01 0.  0.
         14    1    1    2    0    0 -0.15119921923E-01 -0.19226101489E-01  0.16857710222E-02  0.24517276386E-01  0.00000000000E+00 0.  1.
     999901    1    3    3    0    0 -0.91334552869E-01  0.87292348528E-01  0.20595692245E-01  0.88926156849E+00  0.88000000000E+00 0. -1.
        -11    1    4    4    0    0  0.49698428687E-01 -0.24642941316E-01 -0.18904105357E-01  0.58607462758E-01  0.51100000000E-03 0.  1.
         11    1    4    4    0    0  0.56756046106E-01 -0.43423305723E-01 -0.33773579104E-02  0.71543692363E-01  0.51100000000E-03 0. -1.
</event>
<event>
 8    1  0.1061721E+005  0.1043930E+01  0.7957747E-01            NaN
         13   -1    0    0    0    0  0.00000000000E+00  0.00000000000E+00  0.74505805969E-08  0.10566000000E+00  0.10566000000E+00 0. -1.
     999900   -1    0    0    0    0 -0.00000000000E+00 -0.00000000000E+00 -0.74505805969E-08  0.93827000000E+00  0.93827000000E+00 0.  1.
     999902    2    1    2    0    0  0.17674361575E-01  0.58570202433E-02  0.18163681737E-01  0.10179183281E+01  0.10175859254E+01 0.  0.
     999903    2    3    3    0    0  0.11251497539E+00 -0.61896502801E-01 -0.12899610700E-02  0.13001983941E+00  0.20314967259E-01 0.  0.
         14    1    1    2    0    0 -0.17674361575E-01 -0.58570202433E-02 -0.18163681737E-01  0.26011671947E-01  0.00000000000E+00 0. -1.
     999901    1    3    3    0    0 -0.94840613817E-01  0.67753523044E-01  0.19453642807E-01  0.88789848864E+00  0.88000000000E+00 0. -1.
        -11    1    4    4    0    0  0.85245253325E-01 -0.53075031538E-01  0.54702914925E-02  0.10056787458E+00  0.51100000000E-03 0. -1.
         11    1    4    4    0    0  0.27269722066E-01 -0.88214712627E-02 -0.67602525625E-02  0.29451964833E-01  0.51100000000E-03 0.  1.
</event>
<event>
 8    1  0.1061721E+005  0.1043930E+01  0.7957747E-01            NaN
         13   -1    0    0    0    0  0.00000000000E+00  0.00000000000E+00  0.74505805969E-08  0.10566000000E+00  0.10566000000E+00 0. -1.
     999900   -1    0    0    0    0 -0.00000000000E+00 -0.00000000000E+00 -0.74505805969E-08  0.93827000000E+00  0.93827000000E+00 0.  1.
     999902    2    1    2    0    0  0.14607001454E-01 -0.40838312298E-02  0.17843050763E-01  0.10205117031E+01  0.10202429708E+01 0.  0.
     999903    2    3    3    0    0 -0.93333901808E-02 -0.58451870017E-01  0.11729530259E+00  0.13291958034E+00  0.20141835792E-01 0.  0.
         14    1    1    2    0    0 -0.14607001454E-01  0.40838312298E-02 -0.17843050763E-01  0.23418296896E-01  0.00000000000E+00 0.  1.
     999901    1    3    3    0    0  0.23940391634E-01  0.54368038787E-01 -0.99452251824E-01  0.88759212276E+00  0.88000000000E+00 0.  1.
        -11    1    4    4    0    0 -0.83681789409E-02 -0.56002079911E-01  0.11728275970E+00  0.13023734571E+00  0.51100000000E-03 0. -1.
         11    1    4    4    0    0 -0.96521123993E-03 -0.24497901058E-02  0.12542883007E-04  0.26822346326E-02  0.51100000000E-03 0.  1.
</event>
<event>
 8    1  0.1061721E+005  0.1043930E+01  0.7957747E-01            NaN
         13   -1    0    0    0    0  0.00000000000E+00  0.00000000000E+00  0.74505805969E-08  0.10566000000E+00  0.10566000000E+00 0. -1.
     999900   -1    0    0    0    0 -0.00000000000E+00 -0.00000000000E+00 -0.74505805969E-08  0.93827000000E+00  0.93827000000E+00 0.  1.
     999902    2    1    2    0    0  0.61352222642E-03  0.73581140168E-03  0.21405065083E-01  0.10225035061E+01  0.10222789861E+01 0.  0.
     999903    2    3    3    0    0  0.11790108292E+00 -0.43980659866E-01  0.40199697161E-01  0.13339767842E+00  0.18546189885E-01 0.  0.
         14    1    1    2    0    0 -0.61352222642E-03 -0.73581140168E-03 -0.21405065083E-01  0.21426493860E-01  0.00000000000E+00 0.  1.
     999901    1    3    3    0    0 -0.11728756069E+00  0.44716471268E-01 -0.18794632078E-01  0.88910582772E+00  0.88000000000E+00 0.  1.
        -11    1    4    4    0    0  0.44207529293E-01 -0.26133357290E-01  0.17204177490E-01  0.54161820995E-01  0.51100000000E-03 0. -1.
         11    1    4    4    0    0  0.73693553627E-01 -0.17847302577E-01  0.22995519671E-01  0.79235857422E-01  0.51100000000E-03 0.  1.
</event>
<event>
 8    1  0.1061721E+005  0.1043930E+01  0.7957747E-01            NaN
         13   -1    0    0    0    0  0.00000000000E+00  0.00000000000E+00  0.74505805969E-08  0.10566000000E+00  0.10566000000E+00 0.  1.
     999900   -1    0    0    0    0 -0.00000000000E+00 -0.00000000000E+00 -0.74505805969E-08  0.93827000000E+00  0.93827000000E+00 0. -1.
     999902    2    1    2    0    0 -0.17710909081E-01 -0.34601787122E-03  0.14907316090E-01  0.10207778057E+01  0.10205152152E+01 0.  0.
     999903    2    3    3    0    0  0.94581479093E-01  0.30906257015E-01 -0.78302445245E-01  0.12821164862E+00  0.20151947778E-01 0.  0.
         14    1    1    2    0    0  0.17710909081E-01  0.34601787122E-03 -0.14907316090E-01  0.23152194321E-01  0.00000000000E+00 0. -1.
     999901    1    3    3    0    0 -0.11229238817E+00 -0.31252274886E-01  0.93209761335E-01  0.89256615706E+00  0.88000000000E+00 0. -1.
        -11    1    4    4    0    0  0.14911548004E-01  0.12394138203E-01 -0.11077743953E-01  0.22337109431E-01  0.51100000000E-03 0.  1.
         11    1    4    4    0    0  0.79669931090E-01  0.18512118812E-01 -0.67224701292E-01  0.10587453918E+00  0.51100000000E-03 0. -1.
</event>
<event>
 8    1  0.1061721E+005  0.1043930E+01  0.7957747E-01            NaN
         13   -1    0    0    0    0  0.00000000000E+00  0.00000000000E+00  0.74505805969E-08  0.10566000000E+00  0.10566000000E+00 0.  1.
     999900   -1    0    0    0    0 -0.00000000000E+00 -0.00000000000E+00 -0.74505805969E-08  0.93827000000E+00  0.93827000000E+00 0.  1.
     999902    2    1    2    0    0 -0.73343282006E-02  0.20905557495E-01 -0.78962006923E-02  0.10204101214E+01  0.10201390254E+01 0.  0.
     999903    2    3    3    0    0 -0.64883958518E-01 -0.92086749938E-01 -0.61740768000E-01  0.12969217562E+00  0.17839293634E-01 0.  0.
         14    1    1    2    0    0  0.73343282006E-02 -0.20905557495E-01  0.78962006923E-02  0.23519878607E-01  0.00000000000E+00 0.  1.
     999901    1    3    3    0    0  0.57549630318E-01  0.11299230743E+00  0.53844567308E-01  0.89071794577E+00  0.88000000000E+00 0. -1.
        -11    1    4    4    0    0 -0.72627504722E-02 -0.22707206605E-01 -0.13872577675E-01  0.27587575257E-01  0.51100000000E-03 0.  1.
         11    1    4    4    0    0 -0.57621208046E-01 -0.69379543333E-01 -0.47868190325E-01  0.10210460037E+00  0.51100000000E-03 0. -1.
</event>
<event>
 8    1  0.1061721E+005  0.1043930E+01  0.7957747E-01            NaN
         13   -1    0    0    0    0  0.00000000000E+00  0.00000000000E+00  0.74505805969E-08  0.10566000000E+00  0.10566000000E+00 0. -1.
     999900   -1    0    0    0    0 -0.00000000000E+00 -0.00000000000E+00 -0.74505805969E-08  0.93827000000E+00  0.93827000000E+00 0.  1.
     999902    2    1    2    0    0  0.31715204041E-03  0.23031810381E-01  0.60473794992E-02  0.10201153895E+01  0.10198373754E+01 0.  0.
     999903    2    3    3    0    0 -0.10392920724E+00  0.78110133395E-01  0.15144388250E-01  0.13220566398E+00  0.18614833761E-01 0.  0.
         14    1    1    2    0    0 -0.31715204041E-03 -0.23031810381E-01 -0.60473794992E-02  0.23814610509E-01  0.00000000000E+00 0.  1.
     999901    1    3    3    0    0  0.10424635928E+00 -0.55078323013E-01 -0.90970087506E-02  0.88790972551E+00  0.88000000000E+00 0. -1.
        -11    1    4    4    0    0 -0.14773979150E-01  0.45818390151E-02  0.46744817956E-02  0.16167115072E-01  0.51100000000E-03 0.  1.
         11    1    4    4    0    0 -0.89155228092E-01  0.73528294379E-01  0.10469906454E-01  0.11603854891E+00  0.51100000000E-03 0. -1.
</event>
<event>
 8    1  0.1061721E+005  0.1043930E+01  0.7957747E-01            NaN
         13   -1    0    0    0    0  0.00000000000E+00  0.00000000000E+00  0.74505805969E-08  0.10566000000E+00  0.10566000000E+00 0. -1.
     999900   -1    0    0    0    0 -0.00000000000E+00 -0.00000000000E+00 -0.74505805969E-08  0.93827000000E+00  0.93827000000E+00 0.  1.
     999902    2    1    2    0    0  0.19658034958E-01  0.97494420675E-02 -0.18515191072E-01  0.10152193354E+01  0.10148132817E+01 0.  0.
     999903    2    3    3    0    0  0.12123144003E+00 -0.79790108073E-02 -0.37877830341E-01  0.12898778192E+00  0.21033097419E-01 0.  0.
         14    1    1    2    0    0 -0.19658034958E-01 -0.97494420675E-02  0.18515191072E-01  0.28710664560E-01  0.00000000000E+00 0.  1.
     999901    1    3    3    0    0 -0.10157340507E+00  0.17728452875E-01  0.19362639269E-01  0.88623155352E+00  0.88000000000E+00 0. -1.
        -11    1    4    4    0    0  0.96950983134E-01 -0.87738130085E-02 -0.38489356124E-01  0.10468125229E+00  0.51100000000E-03 0.  1.
         11    1    4    4    0    0  0.24280456897E-01  0.79480220118E-03  0.61152578352E-03  0.24306529626E-01  0.51100000000E-03 0. -1.
</event>
<event>
 8    1  0.1061721E+005  0.1043930E+01  0.7957747E-01            NaN
         13   -1    0    0    0    0  0.00000000000E+00  0.00000000000E+00  0.74505805969E-08  0.10566000000E+00  0.10566000000E+00 0.  1.
     999900   -1    0    0    0    0 -0.00000000000E+00 -0.00000000000E+00 -0.74505805969E-08  0.93827000000E+00  0.93827000000E+00 0. -1.
     999902    2    1    2    0    0 -0.48503850523E-02 -0.75489515705E-02 -0.21313608697E-01  0.10208046282E+01  0.10205426528E+01 0.  0.
     999903    2    3    3    0    0  0.63074187492E-01  0.33843834403E-01  0.10422956116E+00  0.12834275351E+00  0.22006878573E-01 0.  0.
         14    1    1    2    0    0  0.48503850523E-02  0.75489515705E-02  0.21313608697E-01  0.23125371795E-01  0.00000000000E+00 0.  1.
     999901    1    3    3    0    0 -0.67924572545E-01 -0.41392785973E-01 -0.12554316986E+00  0.89246187469E+00  0.88000000000E+00 0.  1.
        -11    1    4    4    0    0  0.41144614669E-01  0.16239375186E-01  0.46813815934E-01  0.64408004984E-01  0.51100000000E-03 0. -1.
         11    1    4    4    0    0  0.21929572824E-01  0.17604459217E-01  0.57415745224E-01  0.63934748527E-01  0.51100000000E-03 0.  1.
</event>
<event>
 7    1  0.1061721E+005  0.1043930E+01  0.7957747E-01            NaN
         13   -1    0    0    0    0  0.00000000000E+00  0.00000000000E+00  0.74505805969E-08  0.10566000000E+00  0.10566000000E+00 0. -1.
     999900   -1    0    0    0    0 -0.00000000000E+00 -0.00000000000E+00 -0.74505805969E-08  0.93827000000E+00  0.93827000000E+00 0. -1.
     999903    2    1    2    0    0 -0.10149073050E+00 -0.32055961828E-01 -0.55827711345E-04  0.10837065761E+00  0.20402040305E-01 0.  0.
         14    1    1    2    0    0  0.48104337975E-01 -0.12998237863E-01 -0.16931538545E-01  0.52627545231E-01  0.00000000000E+00 0.  1.
     999901    1    1    2    0    0  0.53386392525E-01  0.45054199691E-01  0.16987366257E-01  0.88293179716E+00  0.88000000000E+00 0.  1.
        -11    1    3    3    0    0 -0.98534099041E-01 -0.27305636530E-01  0.23084480312E-02  0.10227490657E+00  0.51100000000E-03 0.  1.
         11    1    3    3    0    0 -0.29566314593E-02 -0.47503252979E-02 -0.23642757425E-02  0.60957510455E-02  0.51100000000E-03 0. -1.
</event>
<event>
 8    1  0.1061721E+005  0.1043930E+01  0.7957747E-01            NaN
         13   -1    0    0    0    0  0.00000000000E+00  0.00000000000E+00  0.74505805969E-08  0.10566000000E+00  0.10566000000E+00 0.  1.
     999900   -1    0    0    0    0 -0.00000000000E+00 -0.00000000000E+00 -0.74505805969E-08  0.93827000000E+00  0.93827000000E+00 0. -1.
     999902    2    1    2    0    0  0.14321672591E-01 -0.14538665429E-01 -0.11975684803E-01  0.10202677912E+01  0.10199933655E+01 0.  0.
     999903    2    3    3    0    0  0.75123735683E-01  0.34197521421E-01 -0.10154556465E+00  0.13229545484E+00  0.19430376648E-01 0.  0.
         14    1    1    2    0    0 -0.14321672591E-01  0.14538665429E-01  0.11975684803E-01  0.23662208789E-01  0.00000000000E+00 0. -1.
     999901    1    3    3    0    0 -0.60802063092E-01 -0.48736186850E-01  0.89569879847E-01  0.88797233637E+00  0.88000000000E+00 0.  1.
        -11    1    4    4    0    0  0.67103199914E-01  0.30849578144E-01 -0.98409586297E-01  0.12304163404E+00  0.51100000000E-03 0.  1.
         11    1    4    4    0    0  0.80205357692E-02  0.33479432773E-02 -0.31359783535E-02  0.92538208026E-02  0.51100000000E-03 0. -1.
</event>
<event>
 7    1  0.1166484E+005  0.1043930E+01  0.7957747E-01            NaN
         13   -1    0    0    0    0  0.00000000000E+00  0.00000000000E+00  0.74505805969E-08  0.10566000000E+00  0.10566000000E+00 0. -1.
     999900   -1    0    0    0    0 -0.00000000000E+00 -0.00000000000E+00 -0.74505805969E-08  0.93827000000E+00  0.93827000000E+00 0. -1.
     999903    2    1    2    0    0  0.27545046740E-01  0.76030215243E-01  0.79160566567E-01  0.11493236285E+00  0.20093021212E-01 0.  0.
         14    1    1    2    0    0  0.10358349860E-02  0.91365378790E-02 -0.42693844037E-01  0.43672801572E-01  0.00000000000E+00 0.  1.
     999901    1    1    2    0    0 -0.28580881726E-01 -0.85166753122E-01 -0.36466722530E-01  0.88532483558E+00  0.88000000000E+00 0.  1.
        -11    1    3    3    0    0  0.14113776562E-01  0.62910905597E-01  0.59356688982E-01  0.87638224422E-01  0.51100000000E-03 0. -1.
         11    1    3    3    0    0  0.13431270178E-01  0.13119309646E-01  0.19803877585E-01  0.27294138429E-01  0.51100000000E-03 0.  1.
</event>
<event>
 8    1  0.1061721E+005  0.1043930E+01  0.7957747E-01            NaN
         13   -1    0    0    0    0  0.00000000000E+00  0.00000000000E+00  0.74505805969E-08  0.10566000000E+00  0.10566000000E+00 0.  1.
     999900   -1    0    0    0    0 -0.00000000000E+00 -0.00000000000E+00 -0.74505805969E-08  0.93827000000E+00  0.93827000000E+00 0. -1.
     999902    2    1    2    0    0 -0.23780875104E-01  0.24635894830E-02 -0.10213291509E-02  0.10200000521E+01  0.10197193064E+01 0.  0.
     999903    2    3    3    0    0 -0.12913652587E+00  0.10953511472E-01 -0.24674430861E-01  0.13335956060E+00  0.19486486069E-01 0.  0.
         14    1    1    2    0    0  0.23780875104E-01 -0.24635894830E-02  0.10213291509E-02  0.23929947912E-01  0.00000000000E+00 0.  1.
     999901    1    3    3    0    0  0.10535565076E+00 -0.84899219885E-02  0.23653101710E-01  0.88664049149E+00  0.88000000000E+00 0.  1.
        -11    1    4    4    0    0 -0.11323681444E+00  0.13780358517E-01 -0.26466276805E-01  0.11710337038E+00  0.51100000000E-03 0. -1.
         11    1    4    4    0    0 -0.15899711429E-01 -0.28268470455E-02  0.17918459443E-02  0.16256190225E-01  0.51100000000E-03 0.  1.
</event>
<event>
 7    1  0.1061721E+005  0.1043930E+01  0.7957747E-01            NaN
         13   -1    0    0    0    0  0.00000000000E+00  0.00000000000E+00  0.74505805969E-08  0.10566000000E+00  0.10566000000E+00 0. -1.
     999900   -1    0    0    0    0 -0.00000000000E+00 -0.00000000000E+00 -0.74505805969E-08  0.93827000000E+00  0.93827000000E+00 0.  1.
     999902    2    1    2    0    0 -0.19528380734E-01  0.35738909958E-02  0.13782500969E-01  0.10197620939E+01  0.10194756694E+01 0.  0.
         14    1    1    2    0    0  0.19528380734E-01 -0.35738909958E-02 -0.13782500969E-01  0.24167906072E-01  0.00000000000E+00 0.  1.
     999901    1    3    3    0    0 -0.27158563629E-01  0.50292584014E-01  0.13263719562E+00  0.89177326560E+00  0.88000000000E+00 0. -1.
        -11    1    3    3    0    0  0.42769747245E-02 -0.17693464538E-01 -0.42782967064E-01  0.46497253596E-01  0.51100000000E-03 0. -1.
         11    1    3    3    0    0  0.33532081706E-02 -0.29025228480E-01 -0.76071727582E-01  0.81491574728E-01  0.51100000000E-03 0.  1.
</event>
<event>
 8    1  0.1061721E+005  0.1043930E+01  0.7957747E-01            NaN
         13   -1    0    0    0    0  0.00000000000E+00  0.00000000000E+00  0.74505805969E-08  0.10566000000E+00  0.10566000000E+00 0. -1.
     999900   -1    0    0    0    0 -0.00000000000E+00 -0.00000000000E+00 -0.74505805969E-08  0.93827000000E+00  0.93827000000E+00 0. -1.
     999902    2    1    2    0    0  0.90035060099E-02 -0.18609746552E-01  0.72127524088E-02  0.10220345762E+01  0.10218000124E+01 0.  0.
     999903    2    3    3    0    0 -0.96352807004E-01  0.82737808252E-01 -0.15720372856E-01  0.12967970966E+00  0.20983056091E-01 0.  0.
         14    1    1    2    0    0 -0.90035060099E-02  0.18609746552E-01 -0.72127524088E-02  0.21895423826E-01  0.00000000000E+00 0.  1.
     999901    1    3    3    0    0  0.10535631301E+00 -0.10134755480E+00  0.22933125265E-01  0.89235486651E+00  0.88000000000E+00 0.  1.
        -11    1    4    4    0    0 -0.54530623778E-01  0.33122851834E-01 -0.91201221977E-02  0.64452695778E-01  0.51100000000E-03 0. -1.
         11    1    4    4    0    0 -0.41822183226E-01  0.49614956418E-01 -0.66002506581E-02  0.65227013882E-01  0.51100000000E-03 0.  1.
</event>
<event>
 8    1  0.1061721E+005  0.1043930E+01  0.7957747E-01            NaN
         13   -1    0    0    0    0  0.00000000000E+00  0.00000000000E+00  0.74505805969E-08  0.10566000000E+00  0.10566000000E+00 0. -1.
     999900   -1    0    0    0    0 -0.00000000000E+00 -0.00000000000E+00 -0.74505805969E-08  0.93827000000E+00  0.93827000000E+00 0. -1.
     999902    2    1    2    0    0 -0.11069183362E-01  0.29048485100E-02 -0.20169223624E-01  0.10207402922E+01  0.10204768403E+01 0.  0.
     999903    2    3    3    0    0  0.12224436581E+00 -0.22791200058E-01  0.24218491302E-01  0.12922301334E+00  0.25474066908E-01 0.  0.
         14    1    1    2    0    0  0.11069183362E-01 -0.29048485100E-02  0.20169223624E-01  0.23189707777E-01  0.00000000000E+00 0. -1.
     999901    1    3    3    0    0 -0.13331354917E+00  0.25696048568E-01 -0.44387714926E-01  0.89151727888E+00  0.88000000000E+00 0. -1.
        -11    1    4    4    0    0  0.19880654616E-01 -0.78575631239E-02  0.13342124422E-01  0.25204268117E-01  0.51100000000E-03 0. -1.
         11    1    4    4    0    0  0.10236371119E+00 -0.14933636934E-01  0.10876366880E-01  0.10401874523E+00  0.51100000000E-03 0.  1.
</event>
<event>
 8    1  0.1061721E+005  0.1043930E+01  0.7957747E-01            NaN
         13   -1    0    0    0    0  0.00000000000E+00  0.00000000000E+00  0.74505805969E-08  0.10566000000E+00  0.10566000000E+00 0.  1.
     999900   -1    0    0    0    0 -0.00000000000E+00 -0.00000000000E+00 -0.74505805969E-08  0.93827000000E+00  0.93827000000E+00 0. -1.
     999902    2    1    2    0    0 -0.10505148320E-01 -0.17089571253E-01 -0.12332251681E-01  0.10203822609E+01  0.10201105147E+01 0.  0.
     999903    2    3    3    0    0  0.10489776950E+00 -0.73560758743E-01  0.17795250276E-01  0.13054267148E+00  0.17606557653E-01 0.  0.
         14    1    1    2    0    0  0.10505148320E-01  0.17089571253E-01  0.12332251681E-01  0.23547739135E-01  0.00000000000E+00 0.  1.
     999901    1    3    3    0    0 -0.11540291782E+00  0.56471187491E-01 -0.30127501957E-01  0.88983958938E+00  0.88000000000E+00 0.  1.
        -11    1    4    4    0    0  0.43328444546E-01 -0.35399362191E-01  0.10574066471E-04  0.55952928280E-01  0.51100000000E-03 0. -1.
         11    1    4    4    0    0  0.61569324955E-01 -0.38161396553E-01  0.17784676209E-01  0.74589743203E-01  0.51100000000E-03 0.  1.
</event>
<event>
 8    1  0.1061721E+005  0.1043930E+01  0.7957747E-01            NaN
         13   -1    0    0    0    0  0.00000000000E+00  0.00000000000E+00  0.74505805969E-08  0.10566000000E+00  0.10566000000E+00 0.  1.
     999900   -1    0    0    0    0 -0.00000000000E+00 -0.00000000000E+00 -0.74505805969E-08  0.93827000000E+00  0.93827000000E+00 0. -1.
     999902    2    1    2    0    0  0.17620698423E-02 -0.28860371158E-02 -0.24694906063E-01  0.10190046618E+01  0.10186997734E+01 0.  0.
     999903    2    3    3    0    0 -0.11410388545E+00  0.52141197215E-01  0.30987742235E-02  0.12927132825E+00  0.31033414001E-01 0.  0.
         14    1    1    2    0    0 -0.17620698423E-02  0.28860371158E-02  0.24694906063E-01  0.24925338229E-01  0.00000000000E+00 0.  1.
     999901    1    3    3    0    0  0.11586595529E+00 -0.55027234331E-01 -0.27793680287E-01  0.88973333352E+00  0.88000000000E+00 0. -1.
        -11    1    4    4    0    0 -0.75762034770E-01  0.40143621803E-01 -0.11528134219E-01  0.86513324312E-01  0.51100000000E-03 0.  1.
         11    1    4    4    0    0 -0.38341850679E-01  0.11997575412E-01  0.14626908443E-01  0.42758003939E-01  0.51100000000E-03 0. -1.
</event>
<event>
 7    1  0.1061721E+005  0.1043930E+01  0.7957747E-01            NaN
         13   -1    0    0    0    0  0.00000000000E+00  0.00000000000E+00  0.74505805969E-08  0.10566000000E+00  0.10566000000E+00 0. -1.
     999900   -1    0    0    0    0 -0.00000000000E+00 -0.00000000000E+00 -0.74505805969E-08  0.93827000000E+00  0.93827000000E+00 0. -1.
     999903    2    1    2    0    0  0.11792041358E-01 -0.72512590410E-01  0.66355939625E-01  0.10110060705E+00  0.20520575385E-01 0.  0.
         14    1    1    2    0    0  0.48594920294E-01  0.30277399107E-01 -0.81574717904E-02  0.57833653880E-01  0.00000000000E+00 0. -1.
     999901    1    1    2    0    0 -0.60386961652E-01  0.42235191303E-01 -0.58198467834E-01  0.88499573907E+00  0.88000000000E+00 0.  1.
        -11    1    3    3    0    0  0.17432338059E-01 -0.60564410686E-01  0.55896359726E-01  0.84241310552E-01  0.51100000000E-03 0.  1.
         11    1    3    3    0    0 -0.56402967011E-02 -0.11948179724E-01  0.10459579899E-01  0.16859296493E-01  0.51100000000E-03 0. -1.
</event>
<event>
 8    1  0.1061721E+005  0.1043930E+01  0.7957747E-01            NaN
         13   -1    0    0    0    0  0.00000000000E+00  0.00000000000E+00  0.74505805969E-08  0.10566000000E+00  0.10566000000E+00 0.  1.
     999900   -1    0    0    0    0 -0.00000000000E+00 -0.00000000000E+00 -0.74505805969E-08  0.93827000000E+00  0.93827000000E+00 0.  1.
     999902    2    1    2    0    0 -0.22559693614E-02 -0.16821056934E-01 -0.19518996704E-02  0.10268464621E+01  0.10267043438E+01 0.  0.
     999903    2    3    3    0    0 -0.68665553463E-01  0.10311276936E+00 -0.48840262156E-01  0.13499845148E+00  0.22181281689E-01 0.  0.
         14    1    1    2    0    0  0.22559693614E-02  0.16821056934E-01  0.19518996704E-02  0.17083537879E-01  0.00000000000E+00 0.  1.
     999901    1    3    3    0    0  0.66409584101E-01 -0.11993382629E+00  0.46888362486E-01  0.89184801064E+00  0.88000000000E+00 0. -1.
        -11    1    4    4    0    0 -0.57527596536E-01  0.91705925701E-01 -0.34701067222E-01  0.11368300823E+00  0.51100000000E-03 0. -1.
         11    1    4    4    0    0 -0.11137956927E-01  0.11406843656E-01 -0.14139194934E-01  0.21315443253E-01  0.51100000000E-03 0.  1.
</event>
<event>
 8    1  0.1061721E+005  0.1043930E+01  0.7957747E-01            NaN
         13   -1    0    0    0    0  0.00000000000E+00  0.00000000000E+00  0.74505805969E-08  0.10566000000E+00  0.10566000000E+00 0. -1.
     999900   -1    0    0    0    0 -0.00000000000E+00 -0.00000000000E+00 -0.74505805969E-08  0.93827000000E+00  0.93827000000E+00 0.  1.
     999902    2    1    2    0    0 -0.24948439496E-02  0.22424854409E-01  0.59742846936E-02  0.10205892541E+01  0.10203223193E+01 0.  0.
     999903    2    3    3    0    0  0.38023760841E-01  0.10762244348E+00  0.66279010818E-01  0.13349453170E+00  0.19987145584E-01 0.  0.
         14    1    1    2    0    0  0.24948439496E-02 -0.22424854409E-01 -0.59742846936E-02  0.23340745901E-01  0.00000000000E+00 0.  1.
     999901    1    3    3    0    0 -0.40518604791E-01 -0.85197589075E-01 -0.60304726124E-01  0.88709472240E+00  0.88000000000E+00 0. -1.
        -11    1    4    4    0    0  0.32319010330E-01  0.62818945411E-01  0.38264719549E-01  0.80344185941E-01  0.51100000000E-03 0. -1.
         11    1    4    4    0    0  0.57047505111E-02  0.44803498072E-01  0.28014291269E-01  0.53150345758E-01  0.51100000000E-03 0.  1.
</event>
<event>
 8    1  0.1061721E+005  0.1043930E+01  0.7957747E-01            NaN
         13   -1    0    0    0    0  0.00000000000E+00  0.00000000000E+00  0.74505805969E-08  0.10566000000E+00  0.10566000000E+00 0.  1.
     999900   -1    0    0    0    0 -0.00000000000E+00 -0.00000000000E+00 -0.74505805969E-08  0.93827000000E+00  0.93827000000E+00 0. -1.
     999902    2    1    2    0    0 -0.12953592379E-01  0.76523815855E-02 -0.16922006292E-01  0.10212869261E+01  0.10210358841E+01 0.  0.
     999903    2    3    3    0    0 -0.32919185252E-01 -0.45661549545E-01 -0.11935642128E+00  0.13351791923E+00  0.20308362558E-01 0.  0.
         14    1    1    2    0    0  0.12953592379E-01 -0.76523815855E-02  0.16922006292E-01  0.22643073916E-01  0.00000000000E+00 0.  1.
     999901    1    3    3    0    0  0.19965592873E-01  0.53313931130E-01  0.10243441499E+00  0.88776900685E+00  0.88000000000E+00 0.  1.
        -11    1    4    4    0    0 -0.23631567541E-01 -0.44429026753E-01 -0.10367023695E+00  0.11523961365E+00  0.51100000000E-03 0. -1.
         11    1    4    4    0    0 -0.92876177116E-02 -0.12325227921E-02 -0.15686184331E-01  0.18278305585E-01  0.51100000000E-03 0.  1.
</event>
<event>
 8    1  0.1061721E+005  0.1043930E+01  0.7957747E-01            NaN
         13   -1    0    0    0    0  0.00000000000E+00  0.00000000000E+00  0.74505805969E-08  0.10566000000E+00  0.10566000000E+00 0.  1.
     999900   -1    0    0    0    0 -0.00000000000E+00 -0.00000000000E+00 -0.74505805969E-08  0.93827000000E+00  0.93827000000E+00 0. -1.
     999902    2    1    2    0    0 -0.20564117395E-02 -0.23368182874E-01 -0.15453715185E-02  0.10204206620E+01  0.10201498118E+01 0.  0.
     999903    2    3    3    0    0 -0.15635346252E-01  0.83474517536E-01  0.94170401359E-01  0.12870251187E+00  0.21995748204E-01 0.  0.
         14    1    1    2    0    0  0.20564117395E-02  0.23368182874E-01  0.15453715185E-02  0.23509338000E-01  0.00000000000E+00 0. -1.
     999901    1    3    3    0    0  0.13578934512E-01 -0.10684270041E+00 -0.95715772878E-01  0.89171815013E+00  0.88000000000E+00 0. -1.
        -11    1    4    4    0    0 -0.15768606818E-01  0.62632973302E-01  0.82612705184E-01  0.10486495356E+00  0.51100000000E-03 0.  1.
         11    1    4    4    0    0  0.13326056644E-03  0.20841544234E-01  0.11557696176E-01  0.23837558313E-01  0.51100000000E-03 0. -1.
</event>
<event>
 8    1  0.1061721E+005  0.1043930E+01  0.7957747E-01            NaN
         13   -1    0    0    0    0  0.00000000000E+00  0.00000000000E+00  0.74505805969E-08  0.10566000000E+00  0.10566000000E+00 0.  1.
     999900   -1    0    0    0    0 -0.00000000000E+00 -0.00000000000E+00 -0.74505805969E-08  0.93827000000E+00  0.93827000000E+00 0. -1.
     999902    2    1    2    0    0  0.16922243406E-01  0.44802463429E-02  0.16540763514E-01  0.10198461509E+01  0.10195617391E+01 0.  0.
     999903    2    3    3    0    0  0.11406287587E+00  0.53706401550E-01  0.36986916247E-01  0.13289769582E+00  0.19976194901E-01 0.  0.
         14    1    1    2    0    0 -0.16922243406E-01 -0.44802463429E-02 -0.16540763514E-01  0.24083849086E-01  0.00000000000E+00 0. -1.
     999901    1    3    3    0    0 -0.97140632460E-01 -0.49226155207E-01 -0.20446152733E-01  0.88694845509E+00  0.88000000000E+00 0. -1.
        -11    1    4    4    0    0  0.43324949489E-01  0.11492344805E-01  0.77864790390E-02  0.45497424259E-01  0.51100000000E-03 0. -1.
         11    1    4    4    0    0  0.70737926376E-01  0.42214056745E-01  0.29200437208E-01  0.87400271562E-01  0.51100000000E-03 0.  1.
</event>
<event>
 8    1  0.1061721E+005  0.1043930E+01  0.7957747E-01            NaN
         13   -1    0    0    0    0  0.00000000000E+00  0.00000000000E+00  0.74505805969E-08  0.10566000000E+00  0.10566000000E+00 0.  1.
     999900   -1    0    0    0    0 -0.00000000000E+00 -0.00000000000E+00 -0.74505805969E-08  0.93827000000E+00  0.93827000000E+00 0.  1.
     999902    2    1    2    0    0 -0.55140419458E-02 -0.14129454173E-01  0.17912803836E-01  0.10204584284E+01  0.10201884578E+01 0.  0.
     999903    2    3    3    0    0  0.11856704841E-02  0.11596320880E+00 -0.50697889432E-01  0.12822728436E+00  0.20569123711E-01 0.  0.
         14    1    1    2    0    0  0.55140419458E-02  0.14129454173E-01 -0.17912803836E-01  0.23471571636E-01  0.00000000000E+00 0. -1.
     999901    1    3    3    0    0 -0.66997124299E-02 -0.13009266298E+00  0.68610693267E-01  0.89223114401E+00  0.88000000000E+00 0.  1.
        -11    1    4    4    0    0 -0.90763561510E-02  0.46565126501E-01 -0.23950298270E-01  0.53146675862E-01  0.51100000000E-03 0. -1.
         11    1    4    4    0    0  0.10262026635E-01  0.69398082302E-01 -0.26747591162E-01  0.75080608494E-01  0.51100000000E-03 0.  1.
</event>
<event>
 8    1  0.1061721E+005  0.1043930E+01  0.7957747E-01            NaN
         13   -1    0    0    0    0  0.00000000000E+00  0.00000000000E+00  0.74505805969E-08  0.10566000000E+00  0.10566000000E+00 0. -1.
     999900   -1    0    0    0    0 -0.00000000000E+00 -0.00000000000E+00 -0.74505805969E-08  0.93827000000E+00  0.93827000000E+00 0. -1.
     999902    2    1    2    0    0  0.23385746186E-01  0.91982594083E-03  0.18278453344E-02  0.10204549021E+01  0.10201848494E+01 0.  0.
     999903    2    3    3    0    0 -0.91079484289E-01 -0.51423883122E-01  0.72394858837E-01  0.12870277492E+00  0.19583168121E-01 0.  0.
         14    1    1    2    0    0 -0.23385746186E-01 -0.91982594083E-03 -0.18278453344E-02  0.23475097934E-01  0.00000000000E+00 0. -1.
     999901    1    3    3    0    0  0.11446523047E+00  0.52343709063E-01 -0.70567013503E-01  0.89175212714E+00  0.88000000000E+00 0.  1.
        -11    1    4    4    0    0 -0.67030333960E-01 -0.27404543668E-01  0.49145101059E-01  0.87519008012E-01  0.51100000000E-03 0. -1.
         11    1    4    4    0    0 -0.24049150329E-01 -0.24019339454E-01  0.23249757778E-01  0.41183766913E-01  0.51100000000E-03 0.  1.
</event>
<event>
 8    1  0.1061721E+005  0.1043930E+01  0.7957747E-01            NaN
         13   -1    0    0    0    0  0.00000000000E+00  0.00000000000E+00  0.74505805969E-08  0.10566000000E+00  0.10566000000E+00 0. -1.
     999900   -1    0    0    0    0 -0.00000000000E+00 -0.00000000000E+00 -0.74505805969E-08  0.93827000000E+00  0.93827000000E+00 0. -1.
     999902    2    1    2    0    0  0.19664665074E-01 -0.10094948556E-01  0.82537443896E-02  0.10203348451E+01  0.10200619906E+01 0.  0.
     999903    2    3    3    0    0  0.56424763149E-01  0.10893586758E+00 -0.39209955922E-01  0.13029414779E+00  0.19707033356E-01 0.  0.
         14    1    1    2    0    0 -0.19664665074E-01  0.10094948556E-01 -0.82537443896E-02  0.23595154911E-01  0.00000000000E+00 0. -1.
     999901    1    3    3    0    0 -0.36760098075E-01 -0.11903081613E+00  0.47463700312E-01  0.89004069730E+00  0.88000000000E+00 0.  1.
        -11    1    4    4    0    0  0.23556461234E-01  0.36285517516E-01 -0.51004113037E-02  0.43563987004E-01  0.51100000000E-03 0.  1.
         11    1    4    4    0    0  0.32868301915E-01  0.72650350062E-01 -0.34109544619E-01  0.86730160786E-01  0.51100000000E-03 0. -1.
</event>
<event>
 8    1  0.1061721E+005  0.1043930E+01  0.7957747E-01            NaN
         13   -1    0    0    0    0  0.00000000000E+00  0.00000000000E+00  0.74505805969E-08  0.10566000000E+00  0.10566000000E+00 0.  1.
     999900   -1    0    0    0    0 -0.00000000000E+00 -0.00000000000E+00 -0.74505805969E-08  0.93827000000E+00  0.93827000000E+00 0. -1.
     999902    2    1    2    0    0  0.10259386071E-01  0.11771950582E-01  0.17947963698E-01  0.10201400184E+01  0.10198625858E+01 0.  0.
     999903    2    3    3    0    0 -0.39666023104E-01 -0.42088198043E-01 -0.11193715907E+00  0.12757987634E+00  0.20047131040E-01 0.  0.
         14    1    1    2    0    0 -0.10259386071E-01 -0.11771950582E-01 -0.17947963698E-01  0.23789981588E-01  0.00000000000E+00 0. -1.
     999901    1    3    3    0    0  0.49925409174E-01  0.53860148625E-01  0.12988512277E+00  0.89256014207E+00  0.88000000000E+00 0.  1.
        -11    1    4    4    0    0 -0.13924397256E-01 -0.74569255806E-02 -0.16540166852E-01  0.22876468665E-01  0.51100000000E-03 0. -1.
         11    1    4    4    0    0 -0.25741625847E-01 -0.34631272462E-01 -0.95396992222E-01  0.10470340768E+00  0.51100000000E-03 0.  1.
</event>
<event>
 8    1  0.1061721E+005  0.1043930E+01  0.7957747E-01            NaN
         13   -1    0    0    0    0  0.00000000000E+00  0.00000000000E+00  0.74505805969E-08  0.10566000000E+00  0.10566000000E+00 0.  1.
     999900   -1    0    0    0    0 -0.00000000000E+00 -0.00000000000E+00 -0.74505805969E-08  0.93827000000E+00  0.93827000000E+00 0.  1.
     999902    2    1    2    0    0  0.83097513096E-02  0.25162816795E-01  0.17420414803E-01  0.10122173816E+01  0.10117204838E+01 0.  0.
     999903    2    3    3    0    0  0.51388654295E-01 -0.98498980544E-01  0.46245494128E-01  0.12206070030E+00  0.20428555328E-01 0.  0.
         14    1    1    2    0    0 -0.83097513096E-02 -0.25162816795E-01 -0.17420414803E-01  0.31712618432E-01  0.00000000000E+00 0. -1.
     999901    1    3    3    0    0 -0.43078902985E-01  0.12366179734E+00 -0.28825079325E-01  0.89015668127E+00  0.88000000000E+00 0.  1.
        -11    1    4    4    0    0  0.43983894146E-01 -0.86617833656E-01  0.32511955808E-01  0.10244276667E+00  0.51100000000E-03 0. -1.
         11    1    4    4    0    0  0.74047601488E-02 -0.11881146888E-01  0.13733538320E-01  0.19617933632E-01  0.51100000000E-03 0.  1.
</event>
<event>
 8    1  0.1061721E+005  0.1043930E+01  0.7957747E-01            NaN
         13   -1    0    0    0    0  0.00000000000E+00  0.00000000000E+00  0.74505805969E-08  0.10566000000E+00  0.10566000000E+00 0. -1.
     999900   -1    0    0    0    0 -0.00000000000E+00 -0.00000000000E+00 -0.74505805969E-08  0.93827000000E+00  0.93827000000E+00 0.  1.
     999902    2    1    2    0    0  0.19290812024E-01  0.81687527871E-02 -0.11205721439E-01  0.10201722193E+01  0.10198955461E+01 0.  0.
     999903    2    3    3    0    0 -0.37651889329E-02  0.10189294192E+00  0.79526896154E-01  0.13025749828E+00  0.15688861795E-01 0.  0.
         14    1    1    2    0    0 -0.19290812024E-01 -0.81687527871E-02  0.11205721439E-01  0.23757780696E-01  0.00000000000E+00 0.  1.
     999901    1    3    3    0    0  0.23056000957E-01 -0.93724189132E-01 -0.90732617593E-01  0.88991472103E+00  0.88000000000E+00 0.  1.
        -11    1    4    4    0    0 -0.41127576480E-02  0.23012833991E-01  0.11333859938E-01  0.25985049661E-01  0.51100000000E-03 0. -1.
         11    1    4    4    0    0  0.34756871508E-03  0.78880107928E-01  0.68193036216E-01  0.10427244861E+00  0.51100000000E-03 0.  1.
</event>
<event>
 8    1  0.1061721E+005  0.1043930E+01  0.7957747E-01            NaN
         13   -1    0    0    0    0  0.00000000000E+00  0.00000000000E+00  0.74505805969E-08  0.10566000000E+00  0.10566000000E+00 0.  1.
     999900   -1    0    0    0    0 -0.00000000000E+00 -0.00000000000E+00 -0.74505805969E-08  0.93827000000E+00  0.93827000000E+00 0.  1.
     999902    2    1    2    0    0 -0.18469836976E-01  0.14499720470E-01 -0.21354498129E-02  0.10203516854E+01  0.10200792249E+01 0.  0.
     999903    2    3    3    0    0 -0.50289060607E-01  0.11570544448E+00 -0.37794532488E-01  0.13326283321E+00  0.20342480942E-01 0.  0.
         14    1    1    2    0    0  0.18469836976E-01 -0.14499720470E-01  0.21354498129E-02  0.23578314561E-01  0.00000000000E+00 0.  1.
     999901    1    3    3    0    0  0.31819223631E-01 -0.10120572401E+00  0.35659082675E-01  0.88708885223E+00  0.88000000000E+00 0. -1.
        -11    1    4    4    0    0 -0.45476417010E-01  0.83332568937E-01 -0.25530686295E-01  0.98308181823E-01  0.51100000000E-03 0.  1.
         11    1    4    4    0    0 -0.48126435970E-02  0.32372875544E-01 -0.12263846193E-01  0.34954651390E-01  0.51100000000E-03 0. -1.
</event>
<event>
 8    1  0.1061721E+005  0.1043930E+01  0.7957747E-01            NaN
         13   -1    0    0    0    0  0.00000000000E+00  0.00000000000E+00  0.74505805969E-08  0.10566000000E+00  0.10566000000E+00 0.  1.
     999900   -1    0    0    0    0 -0.00000000000E+00 -0.00000000000E+00 -0.74505805969E-08  0.93827000000E+00  0.93827000000E+00 0. -1.
     999902    2    1    2    0    0 -0.30194101537E-01 -0.94206246334E-02  0.11820656632E-01  0.10101637467E+01  0.10095992449E+01 0.  0.
     999903    2    3    3    0    0 -0.10341705965E+00  0.28575707250E-01  0.61000689437E-01  0.12493835258E+00  0.19412587758E-01 0.  0.
         14    1    1    2    0    0  0.30194101537E-01  0.94206246334E-02 -0.11820656632E-01  0.33766253262E-01  0.00000000000E+00 0. -1.
     999901    1    3    3    0    0  0.73222958109E-01 -0.37996331883E-01 -0.49180032805E-01  0.88522539416E+00  0.88000000000E+00 0. -1.
        -11    1    4    4    0    0 -0.31109682707E-01 -0.22790936376E-03  0.15215020929E-01  0.34635563857E-01  0.51100000000E-03 0.  1.
         11    1    4    4    0    0 -0.72307376940E-01  0.28803616614E-01  0.45785668508E-01  0.90302788726E-01  0.51100000000E-03 0. -1.
</event>
<event>
 8    1  0.1061721E+005  0.1043930E+01  0.7957747E-01            NaN
         13   -1    0    0    0    0  0.00000000000E+00  0.00000000000E+00  0.74505805969E-08  0.10566000000E+00  0.10566000000E+00 0. -1.
     999900   -1    0    0    0    0 -0.00000000000E+00 -0.00000000000E+00 -0.74505805969E-08  0.93827000000E+00  0.93827000000E+00 0. -1.
     999902    2    1    2    0    0  0.72553599058E-02  0.48159042059E-02  0.22069341956E-01  0.10202047174E+01  0.10199288094E+01 0.  0.
     999903    2    3    3    0    0 -0.11160075903E+00  0.43813355165E-01  0.48645754394E-01  0.13096128396E+00  0.20251147365E-01 0.  0.
         14    1    1    2    0    0 -0.72553599058E-02 -0.48159042059E-02 -0.22069341956E-01  0.23725282613E-01  0.00000000000E+00 0.  1.
     999901    1    3    3    0    0  0.11885611894E+00 -0.38997450960E-01 -0.26576412437E-01  0.88924343342E+00  0.88000000000E+00 0. -1.
        -11    1    4    4    0    0 -0.71707527912E-01  0.23361645190E-01  0.20992865789E-01  0.78285998494E-01  0.51100000000E-03 0.  1.
         11    1    4    4    0    0 -0.39893231119E-01  0.20451709975E-01  0.27652888605E-01  0.52675285468E-01  0.51100000000E-03 0. -1.
</event>
<event>
 8    1  0.1061721E+005  0.1043930E+01  0.7957747E-01            NaN
         13   -1    0    0    0    0  0.00000000000E+00  0.00000000000E+00  0.74505805969E-08  0.10566000000E+00  0.10566000000E+00 0.  1.
     999900   -1    0    0    0    0 -0.00000000000E+00 -0.00000000000E+00 -0.74505805969E-08  0.93827000000E+00  0.93827000000E+00 0. -1.
     999902    2    1    2    0    0 -0.22047970119E-01  0.40534468566E-02  0.93876677744E-02  0.10196262611E+01  0.10193365689E+01 0.  0.
     999903    2    3    3    0    0  0.86365149983E-01  0.79600615767E-01 -0.46369729342E-01  0.12801554635E+00  0.21038800970E-01 0.  0.
         14    1    1    2    0    0  0.22047970119E-01 -0.40534468566E-02 -0.93876677744E-02  0.24303738890E-01  0.00000000000E+00 0. -1.
     999901    1    3    3    0    0 -0.10841312010E+00 -0.75547168910E-01  0.55757397116E-01  0.89161071476E+00  0.88000000000E+00 0.  1.
        -11    1    4    4    0    0  0.13204087889E-01  0.11845642300E-01 -0.15683846185E-01  0.23683566679E-01  0.51100000000E-03 0. -1.
         11    1    4    4    0    0  0.73161062093E-01  0.67754973467E-01 -0.30685883157E-01  0.10433197967E+00  0.51100000000E-03 0.  1.
</event>
<event>
 8    1  0.1061721E+005  0.1043930E+01  0.7957747E-01            NaN
         13   -1    0    0    0    0  0.00000000000E+00  0.00000000000E+00  0.74505805969E-08  0.10566000000E+00  0.10566000000E+00 0.  1.
     999900   -1    0    0    0    0 -0.00000000000E+00 -0.00000000000E+00 -0.74505805969E-08  0.93827000000E+00  0.93827000000E+00 0.  1.
     999902    2    1    2    0    0  0.23864056004E-01  0.97213572422E-03 -0.11779923435E-02  0.10200171189E+01  0.10197367783E+01 0.  0.
     999903    2    3    3    0    0  0.76765970869E-01  0.36044660508E-01  0.99229993405E-01  0.13203600525E+00  0.19866636754E-01 0.  0.
         14    1    1    2    0    0 -0.23864056004E-01 -0.97213572422E-03  0.11779923435E-02  0.23912881106E-01  0.00000000000E+00 0. -1.
     999901    1    3    3    0    0 -0.52901914865E-01 -0.35072524784E-01 -0.10040798575E+00  0.88798111365E+00  0.88000000000E+00 0.  1.
        -11    1    4    4    0    0  0.33277504510E-01  0.15908333802E-01  0.58403286142E-01  0.69077292535E-01  0.51100000000E-03 0. -1.
         11    1    4    4    0    0  0.43488466359E-01  0.20136326706E-01  0.40826707263E-01  0.62958712712E-01  0.51100000000E-03 0.  1.
</event>
<event>
 8    1  0.1061721E+005  0.1043930E+01  0.7957747E-01            NaN
         13   -1    0    0    0    0  0.00000000000E+00  0.00000000000E+00  0.74505805969E-08  0.10566000000E+00  0.10566000000E+00 0.  1.
     999900   -1    0    0    0    0 -0.00000000000E+00 -0.00000000000E+00 -0.74505805969E-08  0.93827000000E+00  0.93827000000E+00 0.  1.
     999902    2    1    2    0    0  0.19387114841E-02  0.18701379316E-01  0.14795365441E-01  0.10200050543E+01  0.10197244273E+01 0.  0.
     999903    2    3    3    0    0  0.29300893296E-01 -0.78767213736E-01  0.97483060990E-01  0.13035002525E+00  0.20624393227E-01 0.  0.
         14    1    1    2    0    0 -0.19387114841E-02 -0.18701379316E-01 -0.14795365441E-01  0.23924945749E-01  0.00000000000E+00 0. -1.
     999901    1    3    3    0    0 -0.27362181812E-01  0.97468593052E-01 -0.82687695549E-01  0.88965502900E+00  0.88000000000E+00 0.  1.
        -11    1    4    4    0    0  0.17875509398E-02 -0.13395445596E-01  0.65503524620E-02  0.15026694229E-01  0.51100000000E-03 0.  1.
         11    1    4    4    0    0  0.27513342357E-01 -0.65371768140E-01  0.90932708529E-01  0.11532333102E+00  0.51100000000E-03 0. -1.
</event>
<event>
 8    1  0.1061721E+005  0.1043930E+01  0.7957747E-01            NaN
         13   -1    0    0    0    0  0.00000000000E+00  0.00000000000E+00  0.74505805969E-08  0.10566000000E+00  0.10566000000E+00 0.  1.
     999900   -1    0    0    0    0 -0.00000000000E+00 -0.00000000000E+00 -0.74505805969E-08  0.93827000000E+00  0.93827000000E+00 0.  1.
     999902    2    1    2    0    0 -0.14443426042E-01 -0.43509835938E-02  0.25600212389E-01  0.10142161230E+01  0.10137807601E+01 0.  0.
     999903    2    3    3    0    0  0.11409574578E+00  0.83436202591E-02 -0.39042060684E-01  0.12244143442E+00  0.19497875664E-01 0.  0.
         14    1    1    2    0    0  0.14443426042E-01  0.43509835938E-02 -0.25600212389E-01  0.29713877034E-01  0.00000000000E+00 0. -1.
     999901    1    3    3    0    0 -0.12853917183E+00 -0.12694603853E-01  0.64642273073E-01  0.89177468854E+00  0.88000000000E+00 0. -1.
        -11    1    4    4    0    0  0.71680989274E-01  0.12160322266E-02 -0.33293203139E-01  0.79046451242E-01  0.51100000000E-03 0.  1.
         11    1    4    4    0    0  0.42414756510E-01  0.71275880325E-02 -0.57488575443E-02  0.43394983179E-01  0.51100000000E-03 0. -1.
</event>
<event>
 8    1  0.1061721E+005  0.1043930E+01  0.7957747E-01            NaN
         13   -1    0    0    0    0  0.00000000000E+00  0.00000000000E+00  0.74505805969E-08  0.10566000000E+00  0.10566000000E+00 0. -1.
     999900   -1    0    0    0    0 -0.00000000000E+00 -0.00000000000E+00 -0.74505805969E-08  0.93827000000E+00  0.93827000000E+00 0.  1.
     999902    2    1    2    0    0 -0.13577373137E-02  0.21106661157E-01 -0.12350742916E-01  0.10194376451E+01  0.10191433839E+01 0.  0.
     999903    2    3    3    0    0 -0.96623052576E-01  0.48272985207E-01 -0.72588128813E-01  0.13183298533E+00  0.21085639373E-01 0.  0.
         14    1    1    2    0    0  0.13577373137E-02 -0.21106661157E-01  0.12350742916E-01  0.24492354856E-01  0.00000000000E+00 0.  1.
     999901    1    3    3    0    0  0.95265315263E-01 -0.27166324050E-01  0.60237385897E-01  0.88760465981E+00  0.88000000000E+00 0. -1.
        -11    1    4    4    0    0 -0.10203738401E-01 -0.33682653023E-03 -0.28545547237E-02  0.10613167912E-01  0.51100000000E-03 0. -1.
         11    1    4    4    0    0 -0.86419314175E-01  0.48609811737E-01 -0.69733574089E-01  0.12121981742E+00  0.51100000000E-03 0.  1.
</event>
<event>
 8    1  0.1061721E+005  0.1043930E+01  0.7957747E-01            NaN
         13   -1    0    0    0    0  0.00000000000E+00  0.00000000000E+00  0.74505805969E-08  0.10566000000E+00  0.10566000000E+00 0. -1.
     999900   -1    0    0    0    0 -0.00000000000E+00 -0.00000000000E+00 -0.74505805969E-08  0.93827000000E+00  0.93827000000E+00 0.  1.
     999902    2    1    2    0    0  0.19079982001E-01 -0.10233705446E-01  0.85386451533E-02  0.10206559178E+01  0.10203905231E+01 0.  0.
     999903    2    3    3    0    0  0.86039578428E-01  0.86631870728E-01 -0.43782294587E-01  0.13127185672E+00  0.20187148528E-01 0.  0.
         14    1    1    2    0    0 -0.19079982001E-01  0.10233705446E-01 -0.85386451533E-02  0.23274082181E-01  0.00000000000E+00 0.  1.
     999901    1    3    3    0    0 -0.66959596427E-01 -0.96865576174E-01  0.52320939740E-01  0.88938406110E+00  0.88000000000E+00 0.  1.
        -11    1    4    4    0    0  0.63204629631E-01  0.63731207671E-01 -0.41380557023E-01  0.98838776088E-01  0.51100000000E-03 0.  1.
         11    1    4    4    0    0  0.22834948797E-01  0.22900663057E-01 -0.24017375638E-02  0.32433080633E-01  0.51100000000E-03 0. -1.
</event>
<event>
 8    1  0.1061721E+005  0.1043930E+01  0.7957747E-01            NaN
         13   -1    0    0    0    0  0.00000000000E+00  0.00000000000E+00  0.74505805969E-08  0.10566000000E+00  0.10566000000E+00 0.  1.
     999900   -1    0    0    0    0 -0.00000000000E+00 -0.00000000000E+00 -0.74505805969E-08  0.93827000000E+00  0.93827000000E+00 0. -1.
     999902    2    1    2    0    0 -0.17130183582E-01 -0.13099729510E-01  0.91248127891E-02  0.10205140159E+01  0.10202453373E+01 0.  0.
     999903    2    3    3    0    0  0.11707144473E+00  0.20965297462E-01 -0.43363138654E-01  0.12814330361E+00  0.19876559005E-01 0.  0.
         14    1    1    2    0    0  0.17130183582E-01  0.13099729510E-01 -0.91248127891E-02  0.23415984097E-01  0.00000000000E+00 0. -1.
     999901    1    3    3    0    0 -0.13420162831E+00 -0.34065026972E-01  0.52487951443E-01  0.89237071229E+00  0.88000000000E+00 0. -1.
        -11    1    4    4    0    0  0.10530177485E-01 -0.17742533209E-02 -0.88090733462E-02  0.13852563190E-01  0.51100000000E-03 0.  1.
         11    1    4    4    0    0  0.10654126725E+00  0.22739550782E-01 -0.34554065307E-01  0.11429074042E+00  0.51100000000E-03 0. -1.
</event>
<event>
 8    1  0.1061721E+005  0.1043930E+01  0.7957747E-01            NaN
         13   -1    0    0    0    0  0.00000000000E+00  0.00000000000E+00  0.74505805969E-08  0.10566000000E+00  0.10566000000E+00 0. -1.
     999900   -1    0    0    0    0 -0.00000000000E+00 -0.00000000000E+00 -0.74505805969E-08  0.93827000000E+00  0.93827000000E+00 0. -1.
     999902    2    1    2    0    0  0.25720363957E-02 -0.16972851264E-01 -0.71206212434E-02  0.10253451595E+01  0.10251767163E+01 0.  0.
     999903    2    3    3    0    0 -0.17408437028E-01 -0.13387750953E+00  0.13415739485E-01  0.13715167797E+00  0.20108691304E-01 0.  0.
         14    1    1    2    0    0 -0.25720363957E-02  0.16972851264E-01  0.71206212434E-02  0.18584840547E-01  0.00000000000E+00 0. -1.
     999901    1    3    3    0    0  0.19980473424E-01  0.11690465826E+00 -0.20536360729E-01  0.88819348149E+00  0.88000000000E+00 0. -1.
        -11    1    4    4    0    0 -0.44923418844E-02 -0.36639168087E-01 -0.52783688023E-02  0.37292520322E-01  0.51100000000E-03 0. -1.
         11    1    4    4    0    0 -0.12916095144E-01 -0.97238341441E-01  0.18694108288E-01  0.99859157646E-01  0.51100000000E-03 0.  1.
</event>
<event>
 8    1  0.1061721E+005  0.1043930E+01  0.7957747E-01            NaN
         13   -1    0    0    0    0  0.00000000000E+00  0.00000000000E+00  0.74505805969E-08  0.10566000000E+00  0.10566000000E+00 0.  1.
     999900   -1    0    0    0    0 -0.00000000000E+00 -0.00000000000E+00 -0.74505805969E-08  0.93827000000E+00  0.93827000000E+00 0.  1.
     999902    2    1    2    0    0  0.56160265796E-02 -0.91847248695E-02  0.22076355211E-01  0.10193685590E+01  0.10190726150E+01 0.  0.
     999903    2    3    3    0    0  0.10826367697E+00 -0.24682073434E-01 -0.62430632706E-01  0.12924601745E+00  0.21833932917E-01 0.  0.
         14    1    1    2    0    0 -0.56160265796E-02  0.91847248695E-02 -0.22076355211E-01  0.24561441018E-01  0.00000000000E+00 0. -1.
     999901    1    3    3    0    0 -0.10264765039E+00  0.15497348564E-01  0.84506987917E-01  0.89012254154E+00  0.88000000000E+00 0. -1.
        -11    1    4    4    0    0  0.47353897806E-01 -0.21571451625E-01 -0.25565646109E-01  0.57979156122E-01  0.51100000000E-03 0.  1.
         11    1    4    4    0    0  0.60909779160E-01 -0.31106218090E-02 -0.36864986596E-01  0.71266861325E-01  0.51100000000E-03 0. -1.
</event>
<event>
 8    1  0.1061721E+005  0.1043930E+01  0.7957747E-01            NaN
         13   -1    0    0    0    0  0.00000000000E+00  0.00000000000E+00  0.74505805969E-08  0.10566000000E+00  0.10566000000E+00 0. -1.
     999900   -1    0    0    0    0 -0.00000000000E+00 -0.00000000000E+00 -0.74505805969E-08  0.93827000000E+00  0.93827000000E+00 0. -1.
     999902    2    1    2    0    0  0.22609367670E-01 -0.84274556042E-03 -0.68877747455E-02  0.10202797322E+01  0.10200055866E+01 0.  0.
     999903    2    3    3    0    0 -0.10972544322E+00  0.49494183912E-01  0.38066551746E-01  0.12782962148E+00  0.20050003326E-01 0.  0.
         14    1    1    2    0    0 -0.22609367670E-01  0.84274556042E-03  0.68877747455E-02  0.23650267809E-01  0.00000000000E+00 0. -1.
     999901    1    3    3    0    0  0.13233481089E+00 -0.50336929472E-01 -0.44954326491E-01  0.89245011071E+00  0.88000000000E+00 0.  1.
        -11    1    4    4    0    0 -0.34379622496E-01  0.13673675846E-01  0.21423663906E-01  0.42757015217E-01  0.51100000000E-03 0.  1.
         11    1    4    4    0    0 -0.75345820728E-01  0.35820508065E-01  0.16642887840E-01  0.85072606260E-01  0.51100000000E-03 0. -1.
</event>
<event>
 8    1  0.1061721E+005  0.1043930E+01  0.7957747E-01            NaN
         13   -1    0    0    0    0  0.00000000000E+00  0.00000000000E+00  0.74505805969E-08  0.10566000000E+00  0.10566000000E+00 0.  1.
     999900   -1    0    0    0    0 -0.00000000000E+00 -0.00000000000E+00 -0.74505805969E-08  0.93827000000E+00  0.93827000000E+00 0. -1.
     999902    2    1    2    0    0 -0.12983395782E-01 -0.82348457741E-02 -0.19435356661E-01  0.10191486695E+01  0.10188473371E+01 0.  0.
     999903    2    3    3    0    0 -0.11640450971E+00  0.54703870317E-01  0.11982628591E-01  0.13030430825E+00  0.17120340324E-01 0.  0.
         14    1    1    2    0    0  0.12983395782E-01  0.82348457741E-02  0.19435356661E-01  0.24781330463E-01  0.00000000000E+00 0. -1.
     999901    1    3    3    0    0  0.10342111393E+00 -0.62938716091E-01 -0.31417985253E-01  0.88884436128E+00  0.88000000000E+00 0. -1.
        -11    1    4    4    0    0 -0.59669254362E-01  0.18872621589E-01  0.78079202184E-02  0.63069965125E-01  0.51100000000E-03 0.  1.
         11    1    4    4    0    0 -0.56735255348E-01  0.35831248728E-01  0.41747083730E-02  0.67234343128E-01  0.51100000000E-03 0. -1.
</event>
<event>
 8    1  0.1061721E+005  0.1043930E+01  0.7957747E-01            NaN
         13   -1    0    0    0    0  0.00000000000E+00  0.00000000000E+00  0.74505805969E-08  0.10566000000E+00  0.10566000000E+00 0. -1.
     999900   -1    0    0    0    0 -0.00000000000E+00 -0.00000000000E+00 -0.74505805969E-08  0.93827000000E+00  0.93827000000E+00 0. -1.
     999902    2    1    2    0    0  0.12520238104E-01 -0.17468064232E-01  0.85723436276E-02  0.10207918344E+01  0.10205295657E+01 0.  0.
     999903    2    3    3    0    0 -0.39480632233E-01  0.94678366134E-02 -0.12113770113E+00  0.12935797319E+00  0.20267766050E-01 0.  0.
         14    1    1    2    0    0 -0.12520238104E-01  0.17468064232E-01 -0.85723436276E-02  0.23138165560E-01  0.00000000000E+00 0.  1.
     999901    1    3    3    0    0  0.52000870337E-01 -0.26935900846E-01  0.12971004476E+00  0.89143386125E+00  0.88000000000E+00 0.  1.
        -11    1    4    4    0    0 -0.23886645097E-01 -0.23695011753E-02 -0.48371516224E-01  0.54002324511E-01  0.51100000000E-03 0. -1.
         11    1    4    4    0    0 -0.15593987136E-01  0.11837337789E-01 -0.72766184909E-01  0.75355648680E-01  0.51100000000E-03 0.  1.
</event>
<event>
 8    1  0.1061721E+005  0.1043930E+01  0.7957747E-01            NaN
         13   -1    0    0    0    0  0.00000000000E+00  0.00000000000E+00  0.74505805969E-08  0.10566000000E+00  0.10566000000E+00 0.  1.
     999900   -1    0    0    0    0 -0.00000000000E+00 -0.00000000000E+00 -0.74505805969E-08  0.93827000000E+00  0.93827000000E+00 0. -1.
     999902    2    1    2    0    0 -0.69322601475E-02 -0.16151789646E-01  0.14077557351E-01  0.10214108046E+01  0.10211625324E+01 0.  0.
     999903    2    3    3    0    0 -0.10053904750E+00 -0.83049179178E-01  0.23044346645E-01  0.13387607591E+00  0.19659490168E-01 0.  0.
         14    1    1    2    0    0  0.69322601475E-02  0.16151789646E-01 -0.14077557351E-01  0.22519195378E-01  0.00000000000E+00 0. -1.
     999901    1    3    3    0    0  0.93606787352E-01  0.66897389532E-01 -0.89667892948E-02  0.88753472871E+00  0.88000000000E+00 0.  1.
        -11    1    4    4    0    0 -0.85544171377E-01 -0.75171041094E-01  0.25643031105E-01  0.11673181589E+00  0.51100000000E-03 0.  1.
         11    1    4    4    0    0 -0.14994876123E-01 -0.78781380841E-02 -0.25986844599E-02  0.17144260017E-01  0.51100000000E-03 0. -1.
</event>
<event>
 8    1  0.1061721E+005  0.1043930E+01  0.7957747E-01            NaN
         13   -1    0    0    0    0  0.00000000000E+00  0.00000000000E+00  0.74505805969E-08  0.10566000000E+00  0.10566000000E+00 0. -1.
     999900   -1    0    0    0    0 -0.00000000000E+00 -0.00000000000E+00 -0.74505805969E-08  0.93827000000E+00  0.93827000000E+00 0. -1.
     999902    2    1    2    0    0  0.38865937297E-02  0.11183114907E-02  0.23617491943E-01  0.10199687363E+01  0.10196872466E+01 0.  0.
     999903    2    3    3    0    0 -0.70509008941E-01 -0.86588697191E-01  0.66214388150E-01  0.13146340677E+00  0.20716160336E-01 0.  0.
         14    1    1    2    0    0 -0.38865937297E-02 -0.11183114907E-02 -0.23617491943E-01  0.23961263679E-01  0.00000000000E+00 0.  1.
     999901    1    3    3    0    0  0.74395602670E-01  0.87707008682E-01 -0.42596896207E-01  0.88850532955E+00  0.88000000000E+00 0. -1.
        -11    1    4    4    0    0 -0.42707114031E-01 -0.66965875100E-01  0.43666775316E-01  0.90638702574E-01  0.51100000000E-03 0. -1.
         11    1    4    4    0    0 -0.27801894909E-01 -0.19622822091E-01  0.22547612834E-01  0.40824704199E-01  0.51100000000E-03 0.  1.
</event>
<event>
 8    1  0.1061721E+005  0.1043930E+01  0.7957747E-01            NaN
         13   -1    0    0    0    0  0.00000000000E+00  0.00000000000E+00  0.74505805969E-08  0.10566000000E+00  0.10566000000E+00 0. -1.
     999900   -1    0    0    0    0 -0.00000000000E+00 -0.00000000000E+00 -0.74505805969E-08  0.93827000000E+00  0.93827000000E+00 0. -1.
     999902    2    1    2    0    0  0.30014899935E-02  0.20923049292E-01  0.13475855232E-01  0.10188624591E+01  0.10185540383E+01 0.  0.
     999903    2    3    3    0    0 -0.61078231343E-01 -0.10930544096E+00 -0.24942137295E-02  0.12683066958E+00  0.20039158616E-01 0.  0.
         14    1    1    2    0    0 -0.30014899935E-02 -0.20923049292E-01 -0.13475855232E-01  0.25067540927E-01  0.00000000000E+00 0. -1.
     999901    1    3    3    0    0  0.64079721336E-01  0.13022849025E+00  0.15970068962E-01  0.89203178949E+00  0.88000000000E+00 0.  1.
        -11    1    4    4    0    0 -0.21719787697E-01 -0.26973411045E-01  0.61057339987E-02  0.35168952070E-01  0.51100000000E-03 0.  1.
         11    1    4    4    0    0 -0.39358443646E-01 -0.82332029911E-01 -0.85999477283E-02  0.91661717513E-01  0.51100000000E-03 0. -1.
</event>
<event>
 8    1  0.1061721E+005  0.1043930E+01  0.7957747E-01            NaN
         13   -1    0    0    0    0  0.00000000000E+00  0.00000000000E+00  0.74505805969E-08  0.10566000000E+00  0.10566000000E+00 0.  1.
     999900   -1    0    0    0    0 -0.00000000000E+00 -0.00000000000E+00 -0.74505805969E-08  0.93827000000E+00  0.93827000000E+00 0. -1.
     999902    2    1    2    0    0 -0.43919254678E-02 -0.23346817602E-01 -0.18247699536E-01  0.10139743421E+01  0.10135317583E+01 0.  0.
     999903    2    3    3    0    0 -0.26904064097E-01 -0.80807371298E-01 -0.94096525762E-01  0.12855830653E+00  0.20479797279E-01 0.  0.
         14    1    1    2    0    0  0.43919254678E-02  0.23346817602E-01  0.18247699536E-01  0.29955657893E-01  0.00000000000E+00 0.  1.
     999901    1    3    3    0    0  0.22512138629E-01  0.57460553696E-01  0.75848826225E-01  0.88541603558E+00  0.88000000000E+00 0.  1.
        -11    1    4    4    0    0  0.22789813453E-02 -0.19390924873E-01 -0.18959562604E-01  0.27219990054E-01  0.51100000000E-03 0.  1.
         11    1    4    4    0    0 -0.29183045442E-01 -0.61416446425E-01 -0.75136963158E-01  0.10133831648E+00  0.51100000000E-03 0. -1.
</event>
<event>
 8    1  0.1061721E+005  0.1043930E+01  0.7957747E-01            NaN
         13   -1    0    0    0    0  0.00000000000E+00  0.00000000000E+00  0.74505805969E-08  0.10566000000E+00  0.10566000000E+00 0.  1.
     999900   -1    0    0    0    0 -0.00000000000E+00 -0.00000000000E+00 -0.74505805969E-08  0.93827000000E+00  0.93827000000E+00 0.  1.
     999902    2    1    2    0    0 -0.51554770272E-02  0.13692865785E-01 -0.18416552324E-01  0.10204088836E+01  0.10201377588E+01 0.  0.
     999903    2    3    3    0    0  0.49835113319E-01  0.28318286444E-01  0.11354493303E+00  0.12875216627E+00  0.19980106038E-01 0.  0.
         14    1    1    2    0    0  0.51554770272E-02 -0.13692865785E-01  0.18416552324E-01  0.23521116391E-01  0.00000000000E+00 0.  1.
     999901    1    3    3    0    0 -0.54990590347E-01 -0.14625420659E-01 -0.13196148535E+00  0.89165671734E+00  0.88000000000E+00 0.  1.
        -11    1    4    4    0    0  0.44249207162E-01  0.18323647738E-01  0.79316771348E-01  0.92656137082E-01  0.51100000000E-03 0.  1.
         11    1    4    4    0    0  0.55859061573E-02  0.99946387061E-02  0.34228161677E-01  0.36096029190E-01  0.51100000000E-03 0. -1.
</event>
<event>
 8    1  0.1061721E+005  0.1043930E+01  0.7957747E-01            NaN
         13   -1    0    0    0    0  0.00000000000E+00  0.00000000000E+00  0.74505805969E-08  0.10566000000E+00  0.10566000000E+00 0.  1.
     999900   -1    0    0    0    0 -0.00000000000E+00 -0.00000000000E+00 -0.74505805969E-08  0.93827000000E+00  0.93827000000E+00 0.  1.
     999902    2    1    2    0    0 -0.12018657365E-01 -0.22259525794E-01 -0.11136669428E-02  0.10186085690E+01  0.10182937896E+01 0.  0.
     999903    2    3    3    0    0 -0.11794559472E+00 -0.41683782354E-01  0.34879128897E-01  0.13131307192E+00  0.19438832250E-01 0.  0.
         14    1    1    2    0    0  0.12018657365E-01  0.22259525794E-01  0.11136669428E-02  0.25321430992E-01  0.00000000000E+00 0. -1.
     999901    1    3    3    0    0  0.10592693735E+00  0.19424256560E-01 -0.35992795840E-01  0.88729549709E+00  0.88000000000E+00 0.  1.
        -11    1    4    4    0    0 -0.27994015197E-01 -0.40301706158E-02  0.14105536829E-01  0.31609088128E-01  0.51100000000E-03 0. -1.
         11    1    4    4    0    0 -0.89951579523E-01 -0.37653611739E-01  0.20773592069E-01  0.99703983792E-01  0.51100000000E-03 0.  1.
</event>
<event>
 8    1  0.1157352E+005  0.1043930E+01  0.7957747E-01            NaN
         13   -1    0    0    0    0  0.00000000000E+00  0.00000000000E+00  0.74505805969E-08  0.10566000000E+00  0.10566000000E+00 0.  1.
     999900   -1    0    0    0    0 -0.00000000000E+00 -0.00000000000E+00 -0.74505805969E-08  0.93827000000E+00  0.93827000000E+00 0.  1.
     999902    2    1    2    0    0 -0.15303111501E-01 -0.20801617776E-02  0.19188587120E-01  0.10192984314E+01  0.10190007744E+01 0.  0.
     999903    2    3    3    0    0  0.58492635853E-01  0.29522532269E-01 -0.10662476864E+00  0.12673272343E+00  0.19984332368E-01 0.  0.
         14    1    1    2    0    0  0.15303111501E-01  0.20801617776E-02 -0.19188587120E-01  0.24631568571E-01  0.00000000000E+00 0. -1.
     999901    1    3    3    0    0 -0.73795747354E-01 -0.31602694047E-01  0.12581335576E+00  0.89256570799E+00  0.88000000000E+00 0. -1.
        -11    1    4    4    0    0  0.37711642379E-01  0.85306215795E-02 -0.54610025744E-01  0.66913791615E-01  0.51100000000E-03 0.  1.
         11    1    4    4    0    0  0.20780993473E-01  0.20991910689E-01 -0.52014742900E-01  0.59818931820E-01  0.51100000000E-03 0. -1.
</event>
<event>
 8    1  0.1061721E+005  0.1043930E+01  0.7957747E-01            NaN
         13   -1    0    0    0    0  0.00000000000E+00  0.00000000000E+00  0.74505805969E-08  0.10566000000E+00  0.10566000000E+00 0. -1.
     999900   -1    0    0    0    0 -0.00000000000E+00 -0.00000000000E+00 -0.74505805969E-08  0.93827000000E+00  0.93827000000E+00 0. -1.
     999902    2    1    2    0    0 -0.19468237956E-01  0.15388186988E-01 -0.63910530151E-02  0.10183047362E+01  0.10179822599E+01 0.  0.
     999903    2    3    3    0    0 -0.17514117650E-03 -0.12465192706E+00  0.14616175458E-01  0.12677528585E+00  0.17894326627E-01 0.  0.
         14    1    1    2    0    0  0.19468237956E-01 -0.15388186988E-01  0.63910530151E-02  0.25625263833E-01  0.00000000000E+00 0. -1.
     999901    1    3    3    0    0 -0.19293096780E-01  0.14004011404E+00 -0.21007228473E-01  0.89152945031E+00  0.88000000000E+00 0. -1.
        -11    1    4    4    0    0 -0.37527882424E-02 -0.11970593439E+00  0.14575603652E-01  0.12064950680E+00  0.51100000000E-03 0. -1.
         11    1    4    4    0    0  0.35776470659E-02 -0.49459926634E-02  0.40571805530E-04  0.61257790546E-02  0.51100000000E-03 0.  1.
</event>
<event>
 7    1  0.1061721E+005  0.1043930E+01  0.7957747E-01            NaN
         13   -1    0    0    0    0  0.00000000000E+00  0.00000000000E+00  0.74505805969E-08  0.10566000000E+00  0.10566000000E+00 0. -1.
     999900   -1    0    0    0    0 -0.00000000000E+00 -0.00000000000E+00 -0.74505805969E-08  0.93827000000E+00  0.93827000000E+00 0.  1.
     999902    2    1    2    0    0 -0.16428277713E-01  0.78361200324E-02  0.14786435076E-01  0.10204793764E+01  0.10202098930E+01 0.  0.
         14    1    1    2    0    0  0.16428277713E-01 -0.78361200324E-02 -0.14786435076E-01  0.23450623617E-01  0.00000000000E+00 0.  1.
     999901    1    3    3    0    0  0.10104919966E+00  0.52295429305E-01  0.34297933698E-01  0.88798766936E+00  0.88000000000E+00 0. -1.
        -11    1    3    3    0    0 -0.52534150552E-01 -0.33035669978E-01  0.47172441633E-02  0.62239103292E-01  0.51100000000E-03 0. -1.
         11    1    3    3    0    0 -0.64943326819E-01 -0.11423639295E-01 -0.24228742785E-01  0.70252603731E-01  0.51100000000E-03 0.  1.
</event>
<event>
 8    1  0.1061721E+005  0.1043930E+01  0.7957747E-01            NaN
         13   -1    0    0    0    0  0.00000000000E+00  0.00000000000E+00  0.74505805969E-08  0.10566000000E+00  0.10566000000E+00 0.  1.
     999900   -1    0    0    0    0 -0.00000000000E+00 -0.00000000000E+00 -0.74505805969E-08  0.93827000000E+00  0.93827000000E+00 0. -1.
     999902    2    1    2    0    0 -0.88827696559E-02 -0.82342710110E-02 -0.21609047303E-01  0.10191578838E+01  0.10188567781E+01 0.  0.
     999903    2    3    3    0    0  0.38816514799E-01  0.12069111087E+00 -0.68296731842E-02  0.12836306694E+00  0.18904138551E-01 0.  0.
         14    1    1    2    0    0  0.88827696559E-02  0.82342710110E-02  0.21609047303E-01  0.24772116203E-01  0.00000000000E+00 0.  1.
     999901    1    3    3    0    0 -0.47699284455E-01 -0.12892538189E+00 -0.14779374119E-01  0.89079481685E+00  0.88000000000E+00 0.  1.
        -11    1    4    4    0    0  0.82531662512E-02  0.85281543419E-02  0.39304569515E-03  0.11885275578E-01  0.51100000000E-03 0. -1.
         11    1    4    4    0    0  0.30563348548E-01  0.11216295653E+00 -0.72227188794E-02  0.11647779137E+00  0.51100000000E-03 0.  1.
</event>
<event>
 8    1  0.1061721E+005  0.1043930E+01  0.7957747E-01            NaN
         13   -1    0    0    0    0  0.00000000000E+00  0.00000000000E+00  0.74505805969E-08  0.10566000000E+00  0.10566000000E+00 0.  1.
     999900   -1    0    0    0    0 -0.00000000000E+00 -0.00000000000E+00 -0.74505805969E-08  0.93827000000E+00  0.93827000000E+00 0.  1.
     999902    2    1    2    0    0  0.18156056467E-02  0.22442446600E-01  0.76315680721E-02  0.10201560507E+01  0.10198789963E+01 0.  0.
     999903    2    3    3    0    0  0.56348740410E-01  0.11344824573E+00 -0.34570989936E-01  0.13277959500E+00  0.19737844314E-01 0.  0.
         14    1    1    2    0    0 -0.18156056467E-02 -0.22442446600E-01 -0.76315680721E-02  0.23773949283E-01  0.00000000000E+00 0. -1.
     999901    1    3    3    0    0 -0.54533134763E-01 -0.91005799128E-01  0.42202558008E-01  0.88737645572E+00  0.88000000000E+00 0.  1.
        -11    1    4    4    0    0  0.25493554646E-02  0.20705630277E-01 -0.77152932490E-02  0.22248802426E-01  0.51100000000E-03 0.  1.
         11    1    4    4    0    0  0.53799384945E-01  0.92742615451E-01 -0.26855696687E-01  0.11053079257E+00  0.51100000000E-03 0. -1.
</event>
<event>
 8    1  0.1061721E+005  0.1043930E+01  0.7957747E-01            NaN
         13   -1    0    0    0    0  0.00000000000E+00  0.00000000000E+00  0.74505805969E-08  0.10566000000E+00  0.10566000000E+00 0. -1.
     999900   -1    0    0    0    0 -0.00000000000E+00 -0.00000000000E+00 -0.74505805969E-08  0.93827000000E+00  0.93827000000E+00 0. -1.
     999902    2    1    2    0    0  0.18074403866E-01 -0.80459512184E-03 -0.13615368629E-01  0.10212869059E+01  0.10210358634E+01 0.  0.
     999903    2    3    3    0    0 -0.76257002979E-01 -0.97329433481E-01  0.33717585502E-01  0.12974001015E+00  0.20185280199E-01 0.  0.
         14    1    1    2    0    0 -0.18074403866E-01  0.80459512184E-03  0.13615368629E-01  0.22643094120E-01  0.00000000000E+00 0. -1.
     999901    1    3    3    0    0  0.94331406845E-01  0.96524838360E-01 -0.47332954131E-01  0.89154689573E+00  0.88000000000E+00 0. -1.
        -11    1    4    4    0    0 -0.38729460625E-01 -0.65338017139E-01  0.19617763755E-01  0.78448361230E-01  0.51100000000E-03 0. -1.
         11    1    4    4    0    0 -0.37527542353E-01 -0.31991416343E-01  0.14099821746E-01  0.51291648920E-01  0.51100000000E-03 0.  1.
</event>
<event>
 8    1  0.1061721E+005  0.1043930E+01  0.7957747E-01            NaN
         13   -1    0    0    0    0  0.00000000000E+00  0.00000000000E+00  0.74505805969E-08  0.10566000000E+00  0.10566000000E+00 0. -1.
     999900   -1    0    0    0    0 -0.00000000000E+00 -0.00000000000E+00 -0.74505805969E-08  0.93827000000E+00  0.93827000000E+00 0.  1.
     999902    2    1    2    0    0 -0.13192907089E-01  0.13831832756E-01 -0.15684526470E-01  0.10192039658E+01  0.10189039931E+01 0.  0.
     999903    2    3    3    0    0 -0.82890360788E-01  0.95927971184E-01 -0.23767612555E-01  0.13260211197E+00  0.30747896281E-01 0.  0.
         14    1    1    2    0    0  0.13192907089E-01 -0.13831832756E-01  0.15684526470E-01  0.24726034163E-01  0.00000000000E+00 0. -1.
     999901    1    3    3    0    0  0.69697453699E-01 -0.82096138428E-01  0.80830860849E-02  0.88660185387E+00  0.88000000000E+00 0. -1.
        -11    1    4    4    0    0 -0.65605950555E-01  0.55695379894E-01 -0.21740956866E-01  0.88763992791E-01  0.51100000000E-03 0. -1.
         11    1    4    4    0    0 -0.17284410233E-01  0.40232591290E-01 -0.20266556895E-02  0.43838119181E-01  0.51100000000E-03 0.  1.
</event>
<event>
 8    1  0.1061721E+005  0.1043930E+01  0.7957747E-01            NaN
         13   -1    0    0    0    0  0.00000000000E+00  0.00000000000E+00  0.74505805969E-08  0.10566000000E+00  0.10566000000E+00 0. -1.
     999900   -1    0    0    0    0 -0.00000000000E+00 -0.00000000000E+00 -0.74505805969E-08  0.93827000000E+00  0.93827000000E+00 0.  1.
     999902    2    1    2    0    0 -0.71625821824E-02 -0.16647078463E-01  0.16268673440E-01  0.10195764060E+01  0.10192855096E+01 0.  0.
     999903    2    3    3    0    0 -0.56250605144E-02 -0.91344057521E-01 -0.90170056023E-01  0.13001965920E+00  0.19977352832E-01 0.  0.
         14    1    1    2    0    0  0.71625821824E-02  0.16647078463E-01 -0.16268673440E-01  0.24353593993E-01  0.00000000000E+00 0.  1.
     999901    1    3    3    0    0 -0.15375216680E-02  0.74696979058E-01  0.10643872946E+00  0.88955674680E+00  0.88000000000E+00 0. -1.
        -11    1    4    4    0    0  0.49316255226E-02 -0.29761391821E-01 -0.38671984642E-01  0.49049412744E-01  0.51100000000E-03 0.  1.
         11    1    4    4    0    0 -0.10556686037E-01 -0.61582665700E-01 -0.51498071381E-01  0.80970246460E-01  0.51100000000E-03 0. -1.
</event>
<event>
 8    1  0.1061721E+005  0.1043930E+01  0.7957747E-01            NaN
         13   -1    0    0    0    0  0.00000000000E+00  0.00000000000E+00  0.74505805969E-08  0.10566000000E+00  0.10566000000E+00 0. -1.
     999900   -1    0    0    0    0 -0.00000000000E+00 -0.00000000000E+00 -0.74505805969E-08  0.93827000000E+00  0.93827000000E+00 0.  1.
     999902    2    1    2    0    0  0.20355512031E-01 -0.12062124213E-01  0.16504382279E-02  0.10202115334E+01  0.10199357859E+01 0.  0.
     999903    2    3    3    0    0 -0.33236312879E-01 -0.12546006927E+00  0.15236763244E-02  0.13131829253E+00  0.19932157122E-01 0.  0.
         14    1    1    2    0    0 -0.20355512031E-01  0.12062124213E-01 -0.16504382279E-02  0.23718466580E-01  0.00000000000E+00 0. -1.
     999901    1    3    3    0    0  0.53591824909E-01  0.11339794506E+00  0.12676190342E-03  0.88889324089E+00  0.88000000000E+00 0. -1.
        -11    1    4    4    0    0 -0.25535997394E-01 -0.94389550104E-01  0.97347615717E-02  0.98267497351E-01  0.51100000000E-03 0. -1.
         11    1    4    4    0    0 -0.77003154848E-02 -0.31070519165E-01 -0.82110852473E-02  0.33050795175E-01  0.51100000000E-03 0.  1.
</event>
<event>
 8    1  0.1061721E+005  0.1043930E+01  0.7957747E-01            NaN
         13   -1    0    0    0    0  0.00000000000E+00  0.00000000000E+00  0.74505805969E-08  0.10566000000E+00  0.10566000000E+00 0.  1.
     999900   -1    0    0    0    0 -0.00000000000E+00 -0.00000000000E+00 -0.74505805969E-08  0.93827000000E+00  0.93827000000E+00 0. -1.
     999902    2    1    2    0    0  0.19795975244E-01  0.94495816721E-02 -0.83160714836E-02  0.10204708382E+01  0.10202011563E+01 0.  0.
     999903    2    3    3    0    0  0.21164190554E-01  0.64737251219E-01  0.10990902381E+00  0.13084407845E+00  0.20033589121E-01 0.  0.
         14    1    1    2    0    0 -0.19795975244E-01 -0.94495816721E-02  0.83160714836E-02  0.23459161847E-01  0.00000000000E+00 0.  1.
     999901    1    3    3    0    0 -0.13682153107E-02 -0.55287669547E-01 -0.11822509530E+00  0.88962675970E+00  0.88000000000E+00 0. -1.
        -11    1    4    4    0    0  0.18883996280E-01  0.29003650058E-01  0.62315479899E-01  0.71283218139E-01  0.51100000000E-03 0.  1.
         11    1    4    4    0    0  0.22801942739E-02  0.35733601162E-01  0.47593543915E-01  0.59560860314E-01  0.51100000000E-03 0. -1.
</event>
<event>
 8    1  0.1061721E+005  0.1043930E+01  0.7957747E-01            NaN
         13   -1    0    0    0    0  0.00000000000E+00  0.00000000000E+00  0.74505805969E-08  0.10566000000E+00  0.10566000000E+00 0. -1.
     999900   -1    0    0    0    0 -0.00000000000E+00 -0.00000000000E+00 -0.74505805969E-08  0.93827000000E+00  0.93827000000E+00 0. -1.
     999902    2    1    2    0    0  0.18682682115E-01  0.90441948226E-02 -0.12345862043E-01  0.10197792157E+01  0.10194932018E+01 0.  0.
     999903    2    3    3    0    0 -0.42617747345E-01  0.10662665560E-01  0.11837814398E+00  0.12801179771E+00  0.21063488675E-01 0.  0.
         14    1    1    2    0    0 -0.18682682115E-01 -0.90441948226E-02  0.12345862043E-01  0.24150784264E-01  0.00000000000E+00 0. -1.
     999901    1    3    3    0    0  0.61300429460E-01 -0.16184707371E-02 -0.13072400602E+00  0.89176741802E+00  0.88000000000E+00 0. -1.
        -11    1    4    4    0    0 -0.12302277179E-01  0.12091566419E-01  0.30560358746E-01  0.35096276868E-01  0.51100000000E-03 0.  1.
         11    1    4    4    0    0 -0.30315470166E-01 -0.14289008596E-02  0.87817785235E-01  0.92915520843E-01  0.51100000000E-03 0. -1.
</event>
<event>
 8    1  0.1061721E+005  0.1043930E+01  0.7957747E-01            NaN
         13   -1    0    0    0    0  0.00000000000E+00  0.00000000000E+00  0.74505805969E-08  0.10566000000E+00  0.10566000000E+00 0.  1.
     999900   -1    0    0    0    0 -0.00000000000E+00 -0.00000000000E+00 -0.74505805969E-08  0.93827000000E+00  0.93827000000E+00 0. -1.
     999902    2    1    2    0    0 -0.90822748656E-02 -0.51920496504E-02 -0.20874331565E-01  0.10205808498E+01  0.10203137205E+01 0.  0.
     999903    2    3    3    0    0 -0.44263934501E-01  0.86494586892E-01  0.82529490482E-01  0.12910087869E+00  0.20379171232E-01 0.  0.
         14    1    1    2    0    0  0.90822748656E-02  0.51920496504E-02  0.20874331565E-01  0.23349150190E-01  0.00000000000E+00 0. -1.
     999901    1    3    3    0    0  0.35181659636E-01 -0.91686636542E-01 -0.10340382205E+00  0.89147997112E+00  0.88000000000E+00 0. -1.
        -11    1    4    4    0    0 -0.25083519273E-01  0.62079526727E-01  0.65582983617E-01  0.93725340431E-01  0.51100000000E-03 0.  1.
         11    1    4    4    0    0 -0.19180415228E-01  0.24415060164E-01  0.16946506865E-01  0.35375538258E-01  0.51100000000E-03 0. -1.
</event>
<event>
 8    1  0.1061721E+005  0.1043930E+01  0.7957747E-01            NaN
         13   -1    0    0    0    0  0.00000000000E+00  0.00000000000E+00  0.74505805969E-08  0.10566000000E+00  0.10566000000E+00 0.  1.
     999900   -1    0    0    0    0 -0.00000000000E+00 -0.00000000000E+00 -0.74505805969E-08  0.93827000000E+00  0.93827000000E+00 0. -1.
     999902    2    1    2    0    0  0.20861310325E-01  0.13552372672E-01  0.15550152830E-01  0.10145928507E+01  0.10141686174E+01 0.  0.
     999903    2    3    3    0    0  0.79133962654E-01 -0.59982863770E-01  0.77222952493E-01  0.12745888835E+00  0.20548864611E-01 0.  0.
         14    1    1    2    0    0 -0.20861310325E-01 -0.13552372672E-01 -0.15550152830E-01  0.29337149257E-01  0.00000000000E+00 0.  1.
     999901    1    3    3    0    0 -0.58272652329E-01  0.73535236442E-01 -0.61672799663E-01  0.88713396239E+00  0.88000000000E+00 0. -1.
        -11    1    4    4    0    0  0.25339080273E-01 -0.29486503696E-01  0.37107500339E-01  0.53747098450E-01  0.51100000000E-03 0. -1.
         11    1    4    4    0    0  0.53794882381E-01 -0.30496360074E-01  0.40115452154E-01  0.73711789903E-01  0.51100000000E-03 0.  1.
</event>
<event>
 8    1  0.1061721E+005  0.1043930E+01  0.7957747E-01            NaN
         13   -1    0    0    0    0  0.00000000000E+00  0.00000000000E+00  0.74505805969E-08  0.10566000000E+00  0.10566000000E+00 0.  1.
     999900   -1    0    0    0    0 -0.00000000000E+00 -0.00000000000E+00 -0.74505805969E-08  0.93827000000E+00  0.93827000000E+00 0.  1.
     999902    2    1    2    0    0 -0.21860639933E-01 -0.11518392174E-01  0.29217281612E-02  0.10190483314E+01  0.10187445236E+01 0.  0.
     999903    2    3    3    0    0 -0.80907440605E-01  0.96776665643E-01 -0.23833037744E-01  0.13004317860E+00  0.20772040201E-01 0.  0.
         14    1    1    2    0    0  0.21860639933E-01  0.11518392174E-01 -0.29217281612E-02  0.24881668594E-01  0.00000000000E+00 0.  1.
     999901    1    3    3    0    0  0.59046800672E-01 -0.10829505782E+00  0.26754765905E-01  0.88900515281E+00  0.88000000000E+00 0.  1.
        -11    1    4    4    0    0 -0.27161531878E-01  0.22121750208E-01 -0.13208466729E-01  0.37441225415E-01  0.51100000000E-03 0. -1.
         11    1    4    4    0    0 -0.53745908727E-01  0.74654915435E-01 -0.10624571014E-01  0.92601953185E-01  0.51100000000E-03 0.  1.
</event>
<event>
 8    1  0.1061721E+005  0.1043930E+01  0.7957747E-01            NaN
         13   -1    0    0    0    0  0.00000000000E+00  0.00000000000E+00  0.74505805969E-08  0.10566000000E+00  0.10566000000E+00 0.  1.
     999900   -1    0    0    0    0 -0.00000000000E+00 -0.00000000000E+00 -0.74505805969E-08  0.93827000000E+00  0.93827000000E+00 0.  1.
     999902    2    1    2    0    0 -0.21753346380E-01  0.67609645766E-02  0.32396068187E-02  0.10209210067E+01  0.10206616913E+01 0.  0.
     999903    2    3    3    0    0 -0.29711568257E-01 -0.79462433188E-01 -0.97522784789E-01  0.13094860983E+00  0.20971153672E-01 0.  0.
         14    1    1    2    0    0  0.21753346380E-01 -0.67609645766E-02 -0.32396068187E-02  0.23008993308E-01  0.00000000000E+00 0.  1.
     999901    1    3    3    0    0  0.79582218775E-02  0.86223397765E-01  0.10076239161E+00  0.88997239686E+00  0.88000000000E+00 0. -1.
        -11    1    4    4    0    0 -0.13615495926E-01 -0.42617745387E-01 -0.66550266155E-01  0.80192599393E-01  0.51100000000E-03 0. -1.
         11    1    4    4    0    0 -0.16096072332E-01 -0.36844687802E-01 -0.30972518634E-01  0.50756010434E-01  0.51100000000E-03 0.  1.
</event>
<event>
 8    1  0.1061721E+005  0.1043930E+01  0.7957747E-01            NaN
         13   -1    0    0    0    0  0.00000000000E+00  0.00000000000E+00  0.74505805969E-08  0.10566000000E+00  0.10566000000E+00 0. -1.
     999900   -1    0    0    0    0 -0.00000000000E+00 -0.00000000000E+00 -0.74505805969E-08  0.93827000000E+00  0.93827000000E+00 0. -1.
     999902    2    1    2    0    0  0.12080563116E-01  0.10384808451E-01  0.14449734320E-01  0.10224223485E+01  0.10221961062E+01 0.  0.
     999903    2    3    3    0    0  0.25212684091E-01 -0.94393637071E-01  0.88245603533E-01  0.13304233659E+00  0.19160861760E-01 0.  0.
         14    1    1    2    0    0 -0.12080563116E-01 -0.10384808451E-01 -0.14449734320E-01  0.21507651515E-01  0.00000000000E+00 0.  1.
     999901    1    3    3    0    0 -0.13132120976E-01  0.10477844552E+00 -0.73795869213E-01  0.88938001190E+00  0.88000000000E+00 0. -1.
        -11    1    4    4    0    0  0.22314862564E-01 -0.59987746389E-01  0.47948896873E-01  0.79973999778E-01  0.51100000000E-03 0. -1.
         11    1    4    4    0    0  0.28978215278E-02 -0.34405890682E-01  0.40296706660E-01  0.53068336811E-01  0.51100000000E-03 0.  1.
</event>
<event>
 8    1  0.1061721E+005  0.1043930E+01  0.7957747E-01            NaN
         13   -1    0    0    0    0  0.00000000000E+00  0.00000000000E+00  0.74505805969E-08  0.10566000000E+00  0.10566000000E+00 0. -1.
     999900   -1    0    0    0    0 -0.00000000000E+00 -0.00000000000E+00 -0.74505805969E-08  0.93827000000E+00  0.93827000000E+00 0.  1.
     999902    2    1    2    0    0  0.11668513265E-01 -0.15497265789E-01 -0.13063483360E-01  0.10205425237E+01  0.10202745065E+01 0.  0.
     999903    2    3    3    0    0 -0.75485551837E-01  0.28769504965E-01  0.97267695311E-01  0.12828227748E+00  0.21669914897E-01 0.  0.
         14    1    1    2    0    0 -0.11668513265E-01  0.15497265789E-01  0.13063483360E-01  0.23387476269E-01  0.00000000000E+00 0. -1.
     999901    1    3    3    0    0  0.87154065102E-01 -0.44266770754E-01 -0.11033117867E+00  0.89226024625E+00  0.88000000000E+00 0.  1.
        -11    1    4    4    0    0 -0.28377077399E-01  0.16379970077E-02  0.42345139875E-01  0.51003073907E-01  0.51100000000E-03 0.  1.
         11    1    4    4    0    0 -0.47108474438E-01  0.27131507957E-01  0.54922555436E-01  0.77279203571E-01  0.51100000000E-03 0. -1.
</event>
<event>
 8    1  0.1061721E+005  0.1043930E+01  0.7957747E-01            NaN
         13   -1    0    0    0    0  0.00000000000E+00  0.00000000000E+00  0.74505805969E-08  0.10566000000E+00  0.10566000000E+00 0.  1.
     999900   -1    0    0    0    0 -0.00000000000E+00 -0.00000000000E+00 -0.74505805969E-08  0.93827000000E+00  0.93827000000E+00 0. -1.
     999902    2    1    2    0    0  0.66912788710E-02  0.20250555675E-01  0.83475090566E-02  0.10210271808E+01  0.10207702802E+01 0.  0.
     999903    2    3    3    0    0 -0.10868555419E+00 -0.14439674371E-01 -0.65170252082E-01  0.12978081374E+00  0.23975904005E-01 0.  0.
         14    1    1    2    0    0 -0.66912788710E-02 -0.20250555675E-01 -0.83475090566E-02  0.22902819161E-01  0.00000000000E+00 0.  1.
     999901    1    3    3    0    0  0.11537683306E+00  0.34690230046E-01  0.73517761139E-01  0.89124636710E+00  0.88000000000E+00 0. -1.
        -11    1    4    4    0    0 -0.72671647520E-01 -0.10862292617E-01 -0.30176454062E-01  0.79435742930E-01  0.51100000000E-03 0.  1.
         11    1    4    4    0    0 -0.36013906669E-01 -0.35773817535E-02 -0.34993798020E-01  0.50345070808E-01  0.51100000000E-03 0. -1.
</event>
<event>
 8    1  0.1061721E+005  0.1043930E+01  0.7957747E-01            NaN
         13   -1    0    0    0    0  0.00000000000E+00  0.00000000000E+00  0.74505805969E-08  0.10566000000E+00  0.10566000000E+00 0. -1.
     999900   -1    0    0    0    0 -0.00000000000E+00 -0.00000000000E+00 -0.74505805969E-08  0.93827000000E+00  0.93827000000E+00 0.  1.
     999902    2    1    2    0    0 -0.16296457790E-01 -0.68601655312E-02  0.15182210774E-01  0.10206247231E+01  0.10203586083E+01 0.  0.
     999903    2    3    3    0    0 -0.63649935161E-01 -0.10799138256E+00  0.40182184302E-01  0.13321564406E+00  0.20453531086E-01 0.  0.
         14    1    1    2    0    0  0.16296457790E-01  0.68601655312E-02 -0.15182210774E-01  0.23305276905E-01  0.00000000000E+00 0. -1.
     999901    1    3    3    0    0  0.47353477371E-01  0.10113121703E+00 -0.24999973528E-01  0.88740907903E+00  0.88000000000E+00 0. -1.
        -11    1    4    4    0    0 -0.43903372923E-01 -0.59383443303E-01  0.16618493428E-01  0.75698975801E-01  0.51100000000E-03 0.  1.
         11    1    4    4    0    0 -0.19746562238E-01 -0.48607939257E-01  0.23563690874E-01  0.57516668259E-01  0.51100000000E-03 0. -1.
</event>
<event>
 8    1  0.1061721E+005  0.1043930E+01  0.7957747E-01            NaN
         13   -1    0    0    0    0  0.00000000000E+00  0.00000000000E+00  0.74505805969E-08  0.10566000000E+00  0.10566000000E+00 0.  1.
     999900   -1    0    0    0    0 -0.00000000000E+00 -0.00000000000E+00 -0.74505805969E-08  0.93827000000E+00  0.93827000000E+00 0. -1.
     999902    2    1    2    0    0  0.14076979444E-01 -0.92739951360E-02  0.16559233369E-01  0.10203000075E+01  0.10200263373E+01 0.  0.
     999903    2    3    3    0    0  0.68452967361E-01  0.98643848783E-01 -0.44697184256E-01  0.12993190508E+00  0.21634325358E-01 0.  0.
         14    1    1    2    0    0 -0.14076979444E-01  0.92739951360E-02 -0.16559233369E-01  0.23629992506E-01  0.00000000000E+00 0. -1.
     999901    1    3    3    0    0 -0.54375987917E-01 -0.10791784392E+00  0.61256417626E-01  0.89036810242E+00  0.88000000000E+00 0.  1.
        -11    1    4    4    0    0  0.35811650297E-01  0.53486535912E-01 -0.12486627351E-01  0.65570273787E-01  0.51100000000E-03 0.  1.
         11    1    4    4    0    0  0.32641317063E-01  0.45157312871E-01 -0.32210556906E-01  0.64361631292E-01  0.51100000000E-03 0. -1.
</event>
<event>
 8    1  0.1061721E+005  0.1043930E+01  0.7957747E-01            NaN
         13   -1    0    0    0    0  0.00000000000E+00  0.00000000000E+00  0.74505805969E-08  0.10566000000E+00  0.10566000000E+00 0. -1.
     999900   -1    0    0    0    0 -0.00000000000E+00 -0.00000000000E+00 -0.74505805969E-08  0.93827000000E+00  0.93827000000E+00 0.  1.
     999902    2    1    2    0    0  0.23185572829E-01 -0.21339664446E-02 -0.51970844508E-02  0.10200734645E+01  0.10197944590E+01 0.  0.
     999903    2    3    3    0    0 -0.65083796312E-01 -0.10655234845E+00  0.25116596984E-01  0.12899905720E+00  0.20508773997E-01 0.  0.
         14    1    1    2    0    0 -0.23185572829E-01  0.21339664446E-02  0.51970844508E-02  0.23856535519E-01  0.00000000000E+00 0. -1.
     999901    1    3    3    0    0  0.88269369141E-01  0.10441838201E+00 -0.30313681435E-01  0.89107440728E+00  0.88000000000E+00 0. -1.
        -11    1    4    4    0    0 -0.31876073328E-01 -0.37857426020E-01  0.16699558170E-01  0.52234137494E-01  0.51100000000E-03 0. -1.
         11    1    4    4    0    0 -0.33207722984E-01 -0.68694922433E-01  0.84170388139E-02  0.76764919705E-01  0.51100000000E-03 0.  1.
</event>
<event>
 8    1  0.1234335E+005  0.1043930E+01  0.7957747E-01            NaN
         13   -1    0    0    0    0  0.00000000000E+00  0.00000000000E+00  0.74505805969E-08  0.10566000000E+00  0.10566000000E+00 0.  1.
     999900   -1    0    0    0    0 -0.00000000000E+00 -0.00000000000E+00 -0.74505805969E-08  0.93827000000E+00  0.93827000000E+00 0. -1.
     999902    2    1    2    0    0  0.98202569434E-02 -0.15413288906E-01  0.16809479835E-01  0.10190992623E+01  0.10187967123E+01 0.  0.
     999903    2    3    3    0    0 -0.90457670262E-02 -0.55122512634E-01  0.11812239706E+00  0.13219619180E+00  0.20065271914E-01 0.  0.
         14    1    1    2    0    0 -0.98202569434E-02  0.15413288906E-01 -0.16809479835E-01  0.24830737678E-01  0.00000000000E+00 0. -1.
     999901    1    3    3    0    0  0.18866023970E-01  0.39709223728E-01 -0.10131291723E+00  0.88690307053E+00  0.88000000000E+00 0. -1.
        -11    1    4    4    0    0  0.44193165287E-02 -0.13980047785E-01  0.43708656252E-01  0.46105095673E-01  0.51100000000E-03 0.  1.
         11    1    4    4    0    0 -0.13465083555E-01 -0.41142464849E-01  0.74413740813E-01  0.86091096124E-01  0.51100000000E-03 0. -1.
</event>
<event>
 8    1  0.1061721E+005  0.1043930E+01  0.7957747E-01            NaN
         13   -1    0    0    0    0  0.00000000000E+00  0.00000000000E+00  0.74505805969E-08  0.10566000000E+00  0.10566000000E+00 0. -1.
     999900   -1    0    0    0    0 -0.00000000000E+00 -0.00000000000E+00 -0.74505805969E-08  0.93827000000E+00  0.93827000000E+00 0.  1.
     999902    2    1    2    0    0  0.20790189144E-01  0.85378952540E-02  0.13142884669E-01  0.10178941970E+01  0.10175611693E+01 0.  0.
     999903    2    3    3    0    0 -0.10832213087E+00 -0.14623515362E-01 -0.60098214386E-01  0.12516204193E+00  0.10305829848E-01 0.  0.
         14    1    1    2    0    0 -0.20790189144E-01 -0.85378952540E-02 -0.13142884669E-01  0.26035802991E-01  0.00000000000E+00 0.  1.
     999901    1    3    3    0    0  0.12911232002E+00  0.23161410616E-01  0.73241099055E-01  0.89273215508E+00  0.88000000000E+00 0. -1.
        -11    1    4    4    0    0 -0.62657183681E-01 -0.12771555647E-01 -0.31958513645E-01  0.71488761465E-01  0.51100000000E-03 0.  1.
         11    1    4    4    0    0 -0.45664947193E-01 -0.18519597148E-02 -0.28139700742E-01  0.53673280464E-01  0.51100000000E-03 0. -1.
</event>
<event>
 8    1  0.1061721E+005  0.1043930E+01  0.7957747E-01            NaN
         13   -1    0    0    0    0  0.00000000000E+00  0.00000000000E+00  0.74505805969E-08  0.10566000000E+00  0.10566000000E+00 0. -1.
     999900   -1    0    0    0    0 -0.00000000000E+00 -0.00000000000E+00 -0.74505805969E-08  0.93827000000E+00  0.93827000000E+00 0.  1.
     999902    2    1    2    0    0 -0.21188714157E-01 -0.30536156243E-02 -0.10086483997E-01  0.10202651878E+01  0.10199907010E+01 0.  0.
     999903    2    3    3    0    0 -0.12963781723E+00  0.20026566413E-01 -0.12921448871E-01  0.13330299033E+00  0.19892118288E-01 0.  0.
         14    1    1    2    0    0  0.21188714157E-01  0.30536156243E-02  0.10086483997E-01  0.23664812179E-01  0.00000000000E+00 0. -1.
     999901    1    3    3    0    0  0.10844910307E+00 -0.23080182037E-01  0.28349648738E-02  0.88696219750E+00  0.88000000000E+00 0.  1.
        -11    1    4    4    0    0 -0.26271500033E-01  0.11189639092E-01 -0.69129356135E-02  0.29384511852E-01  0.51100000000E-03 0.  1.
         11    1    4    4    0    0 -0.10336631720E+00  0.88369273208E-02 -0.60085132572E-02  0.10391847847E+00  0.51100000000E-03 0. -1.
</event>
<event>
 8    1  0.1061721E+005  0.1043930E+01  0.7957747E-01            NaN
         13   -1    0    0    0    0  0.00000000000E+00  0.00000000000E+00  0.74505805969E-08  0.10566000000E+00  0.10566000000E+00 0. -1.
     999900   -1    0    0    0    0 -0.00000000000E+00 -0.00000000000E+00 -0.74505805969E-08  0.93827000000E+00  0.93827000000E+00 0.  1.
     999902    2    1    2    0    0 -0.14324840857E-01  0.18746676053E-01 -0.46901131657E-02  0.10198751441E+01  0.10195914248E+01 0.  0.
     999903    2    3    3    0    0  0.12053902615E+00 -0.37174959191E-01 -0.46984845942E-02  0.12784628139E+00  0.20272185190E-01 0.  0.
         14    1    1    2    0    0  0.14324840857E-01 -0.18746676053E-01  0.46901131657E-02  0.24054855853E-01  0.00000000000E+00 0. -1.
     999901    1    3    3    0    0 -0.13486386701E+00  0.55921635244E-01  0.83714284790E-05  0.89202886275E+00  0.88000000000E+00 0.  1.
        -11    1    4    4    0    0  0.74293467124E-01 -0.23445976331E-01 -0.12727070519E-01  0.78939676389E-01  0.51100000000E-03 0. -1.
         11    1    4    4    0    0  0.46245559028E-01 -0.13728982859E-01  0.80285859252E-02  0.48906605005E-01  0.51100000000E-03 0.  1.
</event>
<event>
 8    1  0.1061721E+005  0.1043930E+01  0.7957747E-01            NaN
         13   -1    0    0    0    0  0.00000000000E+00  0.00000000000E+00  0.74505805969E-08  0.10566000000E+00  0.10566000000E+00 0.  1.
     999900   -1    0    0    0    0 -0.00000000000E+00 -0.00000000000E+00 -0.74505805969E-08  0.93827000000E+00  0.93827000000E+00 0. -1.
     999902    2    1    2    0    0 -0.52543901451E-02 -0.19656564097E-01 -0.11377088129E-01  0.10206184736E+01  0.10203522144E+01 0.  0.
     999903    2    3    3    0    0  0.88080573306E-01 -0.36209646293E-01 -0.89562231445E-01  0.13208128443E+00  0.18834715751E-01 0.  0.
         14    1    1    2    0    0  0.52543901451E-02  0.19656564097E-01  0.11377088129E-01  0.23311526380E-01  0.00000000000E+00 0.  1.
     999901    1    3    3    0    0 -0.93334963451E-01  0.16553082197E-01  0.78185143317E-01  0.88853718919E+00  0.88000000000E+00 0.  1.
        -11    1    4    4    0    0  0.53779666794E-01 -0.23471879657E-01 -0.42442073915E-01  0.72420801255E-01  0.51100000000E-03 0.  1.
         11    1    4    4    0    0  0.34300906511E-01 -0.12737766636E-01 -0.47120157530E-01  0.59660483178E-01  0.51100000000E-03 0. -1.
</event>
<event>
 8    1  0.1061721E+005  0.1043930E+01  0.7957747E-01            NaN
         13   -1    0    0    0    0  0.00000000000E+00  0.00000000000E+00  0.74505805969E-08  0.10566000000E+00  0.10566000000E+00 0. -1.
     999900   -1    0    0    0    0 -0.00000000000E+00 -0.00000000000E+00 -0.74505805969E-08  0.93827000000E+00  0.93827000000E+00 0.  1.
     999902    2    1    2    0    0 -0.12846821598E-02  0.19617932575E-01 -0.91773968334E-02  0.10222334957E+01  0.10220032199E+01 0.  0.
     999903    2    3    3    0    0  0.57741687269E-01 -0.90238975501E-01 -0.73107969829E-01  0.13114440323E+00  0.19414018049E-01 0.  0.
         14    1    1    2    0    0  0.12846821598E-02 -0.19617932575E-01  0.91773968334E-02  0.21696504313E-01  0.00000000000E+00 0. -1.
     999901    1    3    3    0    0 -0.59026369429E-01  0.10985690808E+00  0.63930572996E-01  0.89108909246E+00  0.88000000000E+00 0. -1.
        -11    1    4    4    0    0  0.29065043156E-01 -0.35509771285E-01 -0.21685044685E-01  0.50756505734E-01  0.51100000000E-03 0.  1.
         11    1    4    4    0    0  0.28676644113E-01 -0.54729204216E-01 -0.51422925144E-01  0.80387897491E-01  0.51100000000E-03 0. -1.
</event>
<event>
 8    1  0.1061721E+005  0.1043930E+01  0.7957747E-01            NaN
         13   -1    0    0    0    0  0.00000000000E+00  0.00000000000E+00  0.74505805969E-08  0.10566000000E+00  0.10566000000E+00 0.  1.
     999900   -1    0    0    0    0 -0.00000000000E+00 -0.00000000000E+00 -0.74505805969E-08  0.93827000000E+00  0.93827000000E+00 0. -1.
     999902    2    1    2    0    0 -0.19759736905E-02  0.16409571706E-02 -0.23325610211E-01  0.10204634002E+01  0.10201935453E+01 0.  0.
     999903    2    3    3    0    0 -0.12954009932E+00  0.47709053435E-02  0.10775330955E-02  0.13092536501E+00  0.18354597662E-01 0.  0.
         14    1    1    2    0    0  0.19759736905E-02 -0.16409571706E-02  0.23325610211E-01  0.23466599758E-01  0.00000000000E+00 0.  1.
     999901    1    3    3    0    0  0.12756412563E+00 -0.31299481729E-02 -0.24403143307E-01  0.88953803523E+00  0.88000000000E+00 0.  1.
        -11    1    4    4    0    0 -0.81073224090E-01  0.63663728986E-02 -0.75274398593E-02  0.81672038300E-01  0.51100000000E-03 0. -1.
         11    1    4    4    0    0 -0.48466875230E-01 -0.15954675551E-02  0.86049729548E-02  0.49253326709E-01  0.51100000000E-03 0.  1.
</event>
<event>
 8    1  0.1061721E+005  0.1043930E+01  0.7957747E-01            NaN
         13   -1    0    0    0    0  0.00000000000E+00  0.00000000000E+00  0.74505805969E-08  0.10566000000E+00  0.10566000000E+00 0. -1.
     999900   -1    0    0    0    0 -0.00000000000E+00 -0.00000000000E+00 -0.74505805969E-08  0.93827000000E+00  0.93827000000E+00 0. -1.
     999902    2    1    2    0    0 -0.20903627080E-01 -0.10549930538E-01  0.31983218572E-02  0.10202975663E+01  0.10200238389E+01 0.  0.
     999903    2    3    3    0    0 -0.16723165820E-01 -0.31620416261E-02 -0.12789426272E+00  0.13054629607E+00  0.19892968576E-01 0.  0.
         14    1    1    2    0    0  0.20903627080E-01  0.10549930538E-01 -0.31983218572E-02  0.23632433691E-01  0.00000000000E+00 0.  1.
     999901    1    3    3    0    0 -0.41804612601E-02 -0.73878889120E-02  0.13109258458E+00  0.88975127024E+00  0.88000000000E+00 0.  1.
        -11    1    4    4    0    0 -0.17656034490E-01 -0.68974755444E-02 -0.70030901486E-01  0.72552732593E-01  0.51100000000E-03 0. -1.
         11    1    4    4    0    0  0.93286866981E-03  0.37354339184E-02 -0.57863361234E-01  0.57993563478E-01  0.51100000000E-03 0.  1.
</event>
<event>
 8    1  0.1061721E+005  0.1043930E+01  0.7957747E-01            NaN
         13   -1    0    0    0    0  0.00000000000E+00  0.00000000000E+00  0.74505805969E-08  0.10566000000E+00  0.10566000000E+00 0.  1.
     999900   -1    0    0    0    0 -0.00000000000E+00 -0.00000000000E+00 -0.74505805969E-08  0.93827000000E+00  0.93827000000E+00 0.  1.
     999902    2    1    2    0    0  0.67508237239E-02 -0.18337901448E-01  0.15775462206E-01  0.10188159112E+01  0.10185063296E+01 0.  0.
     999903    2    3    3    0    0  0.85590084082E-01  0.38539711298E-01  0.90065063124E-01  0.13035114731E+00  0.82906072197E-02 0.  0.
         14    1    1    2    0    0 -0.67508237239E-02  0.18337901448E-01 -0.15775462206E-01  0.25114088841E-01  0.00000000000E+00 0. -1.
     999901    1    3    3    0    0 -0.78839260358E-01 -0.56877612746E-01 -0.74289600918E-01  0.88846476385E+00  0.88000000000E+00 0.  1.
        -11    1    4    4    0    0  0.42539047371E-01  0.15700705534E-01  0.47070206905E-01  0.65360142324E-01  0.51100000000E-03 0.  1.
         11    1    4    4    0    0  0.43051036711E-01  0.22839005763E-01  0.42994856220E-01  0.64991004982E-01  0.51100000000E-03 0. -1.
</event>
<event>
 8    1  0.1061721E+005  0.1043930E+01  0.7957747E-01            NaN
         13   -1    0    0    0    0  0.00000000000E+00  0.00000000000E+00  0.74505805969E-08  0.10566000000E+00  0.10566000000E+00 0.  1.
     999900   -1    0    0    0    0 -0.00000000000E+00 -0.00000000000E+00 -0.74505805969E-08  0.93827000000E+00  0.93827000000E+00 0.  1.
     999902    2    1    2    0    0 -0.18220730321E-01 -0.55742168342E-02 -0.13317717329E-01  0.10206828819E+01  0.10204181088E+01 0.  0.
     999903    2    3    3    0    0  0.11940367750E+00  0.11602931760E-02 -0.45587572672E-01  0.12937643915E+00  0.20036260746E-01 0.  0.
         14    1    1    2    0    0  0.18220730321E-01  0.55742168342E-02  0.13317717329E-01  0.23247118135E-01  0.00000000000E+00 0.  1.
     999901    1    3    3    0    0 -0.13762440782E+00 -0.67345100102E-02  0.32269855342E-01  0.89130644271E+00  0.88000000000E+00 0.  1.
        -11    1    4    4    0    0  0.43656800110E-01  0.66340704700E-02 -0.24749705573E-01  0.50623474138E-01  0.51100000000E-03 0.  1.
         11    1    4    4    0    0  0.75746877393E-01 -0.54737772940E-02 -0.20837867099E-01  0.78752965016E-01  0.51100000000E-03 0. -1.
</event>
<event>
 8    1  0.1061721E+005  0.1043930E+01  0.7957747E-01            NaN
         13   -1    0    0    0    0  0.00000000000E+00  0.00000000000E+00  0.74505805969E-08  0.10566000000E+00  0.10566000000E+00 0.  1.
     999900   -1    0    0    0    0 -0.00000000000E+00 -0.00000000000E+00 -0.74505805969E-08  0.93827000000E+00  0.93827000000E+00 0.  1.
     999902    2    1    2    0    0 -0.17854447791E-01 -0.84674572495E-02 -0.12118400841E-01  0.10207495173E+01  0.10204862774E+01 0.  0.
     999903    2    3    3    0    0 -0.21228747162E-01 -0.52719500304E-02 -0.12956857400E+00  0.13293414218E+00  0.20125049693E-01 0.  0.
         14    1    1    2    0    0  0.17854447791E-01  0.84674572495E-02  0.12118400841E-01  0.23180482677E-01  0.00000000000E+00 0.  1.
     999901    1    3    3    0    0  0.33742993714E-02 -0.31955072190E-02  0.11745017316E+00  0.88781537514E+00  0.88000000000E+00 0. -1.
        -11    1    4    4    0    0 -0.12004378144E-01 -0.12944376726E-01 -0.80973001311E-01  0.82876715944E-01  0.51100000000E-03 0. -1.
         11    1    4    4    0    0 -0.92243690178E-02  0.76724266960E-02 -0.48595572692E-01  0.50057426237E-01  0.51100000000E-03 0.  1.
</event>
<event>
 8    1  0.1061721E+005  0.1043930E+01  0.7957747E-01            NaN
         13   -1    0    0    0    0  0.00000000000E+00  0.00000000000E+00  0.74505805969E-08  0.10566000000E+00  0.10566000000E+00 0.  1.
     999900   -1    0    0    0    0 -0.00000000000E+00 -0.00000000000E+00 -0.74505805969E-08  0.93827000000E+00  0.93827000000E+00 0. -1.
     999902    2    1    2    0    0 -0.66938414530E-02  0.22831401033E-01 -0.19450863825E-02  0.10200581809E+01  0.10197788136E+01 0.  0.
     999903    2    3    3    0    0 -0.11644445155E+00  0.15003970582E-01 -0.56282548330E-01  0.13154311357E+00  0.18746627725E-01 0.  0.
         14    1    1    2    0    0  0.66938414530E-02 -0.22831401033E-01  0.19450863825E-02  0.23871819109E-01  0.00000000000E+00 0. -1.
     999901    1    3    3    0    0  0.10975061010E+00  0.78274304509E-02  0.54337461948E-01  0.88851506732E+00  0.88000000000E+00 0.  1.
        -11    1    4    4    0    0 -0.41030592791E-01  0.13602405484E-01 -0.16546596097E-01  0.46288075604E-01  0.51100000000E-03 0.  1.
         11    1    4    4    0    0 -0.75413858760E-01  0.14015650984E-02 -0.39735952234E-01  0.85255037967E-01  0.51100000000E-03 0. -1.
</event>
<event>
 8    1  0.1061721E+005  0.1043930E+01  0.7957747E-01            NaN
         13   -1    0    0    0    0  0.00000000000E+00  0.00000000000E+00  0.74505805969E-08  0.10566000000E+00  0.10566000000E+00 0.  1.
     999900   -1    0    0    0    0 -0.00000000000E+00 -0.00000000000E+00 -0.74505805969E-08  0.93827000000E+00  0.93827000000E+00 0. -1.
     999902    2    1    2    0    0  0.17679870254E-01 -0.48299042529E-02  0.13967568896E-01  0.10208865895E+01  0.10206264889E+01 0.  0.
     999903    2    3    3    0    0 -0.80732826387E-01 -0.53866342256E-01  0.85598356620E-01  0.13115595561E+00  0.21340898539E-01 0.  0.
         14    1    1    2    0    0 -0.17679870254E-01  0.48299042529E-02 -0.13967568896E-01  0.23043410515E-01  0.00000000000E+00 0. -1.
     999901    1    3    3    0    0  0.98412696641E-01  0.49036438003E-01 -0.71630787724E-01  0.88973063388E+00  0.88000000000E+00 0. -1.
        -11    1    4    4    0    0 -0.34258918930E-01 -0.18461786601E-01  0.47488458166E-01  0.61399722074E-01  0.51100000000E-03 0.  1.
         11    1    4    4    0    0 -0.46473907457E-01 -0.35404555655E-01  0.38109898454E-01  0.69756233532E-01  0.51100000000E-03 0. -1.
</event>
<event>
 8    1  0.1061721E+005  0.1043930E+01  0.7957747E-01            NaN
         13   -1    0    0    0    0  0.00000000000E+00  0.00000000000E+00  0.74505805969E-08  0.10566000000E+00  0.10566000000E+00 0. -1.
     999900   -1    0    0    0    0 -0.00000000000E+00 -0.00000000000E+00 -0.74505805969E-08  0.93827000000E+00  0.93827000000E+00 0.  1.
     999902    2    1    2    0    0  0.95125272562E-02 -0.83534354423E-03 -0.22172553507E-01  0.10197885812E+01  0.10195027917E+01 0.  0.
     999903    2    3    3    0    0  0.12165005321E-01  0.71190965383E-01  0.10369967817E+00  0.12791491102E+00  0.19810610863E-01 0.  0.
         14    1    1    2    0    0 -0.95125272562E-02  0.83534354423E-03  0.22172553507E-01  0.24141418820E-01  0.00000000000E+00 0. -1.
     999901    1    3    3    0    0 -0.26524780646E-02 -0.72026308927E-01 -0.12587223167E+00  0.89187367016E+00  0.88000000000E+00 0.  1.
        -11    1    4    4    0    0 -0.53725003214E-02  0.22005885058E-01  0.30335518082E-01  0.37863273963E-01  0.51100000000E-03 0. -1.
         11    1    4    4    0    0  0.17537505642E-01  0.49185080324E-01  0.73364160085E-01  0.90051637057E-01  0.51100000000E-03 0.  1.
</event>
<event>
 8    1  0.1061721E+005  0.1043930E+01  0.7957747E-01            NaN
         13   -1    0    0    0    0  0.00000000000E+00  0.00000000000E+00  0.74505805969E-08  0.10566000000E+00  0.10566000000E+00 0.  1.
     999900   -1    0    0    0    0 -0.00000000000E+00 -0.00000000000E+00 -0.74505805969E-08  0.93827000000E+00  0.93827000000E+00 0.  1.
     999902    2    1    2    0    0  0.18312279487E-01 -0.16894714120E-01 -0.31414310156E-02  0.10188174626E+01  0.10185079197E+01 0.  0.
     999903    2    3    3    0    0  0.12559461213E-01  0.69840250949E-01 -0.10461095854E+00  0.12873200936E+00  0.24353169539E-01 0.  0.
         14    1    1    2    0    0 -0.18312279487E-01  0.16894714120E-01  0.31414310156E-02  0.25112537387E-01  0.00000000000E+00 0.  1.
     999901    1    3    3    0    0  0.57528182744E-02 -0.86734965069E-01  0.10146952753E+00  0.89008545326E+00  0.88000000000E+00 0. -1.
        -11    1    4    4    0    0 -0.17926833504E-02  0.36865951098E-01 -0.37669692440E-01  0.52740676081E-01  0.51100000000E-03 0. -1.
         11    1    4    4    0    0  0.14352144563E-01  0.32974299851E-01 -0.66941266104E-01  0.75991333274E-01  0.51100000000E-03 0.  1.
</event>
<event>
 8    1  0.1061721E+005  0.1043930E+01  0.7957747E-01            NaN
         13   -1    0    0    0    0  0.00000000000E+00  0.00000000000E+00  0.74505805969E-08  0.10566000000E+00  0.10566000000E+00 0.  1.
     999900   -1    0    0    0    0 -0.00000000000E+00 -0.00000000000E+00 -0.74505805969E-08  0.93827000000E+00  0.93827000000E+00 0. -1.
     999902    2    1    2    0    0  0.18659831940E-02 -0.20426675821E-01  0.10454627354E-01  0.10209076150E+01  0.10206479942E+01 0.  0.
     999903    2    3    3    0    0  0.48869136389E-01 -0.32639252189E-01 -0.11505897493E+00  0.13067612387E+00  0.19600213300E-01 0.  0.
         14    1    1    2    0    0 -0.18659831940E-02  0.20426675821E-01 -0.10454627354E-01  0.23022385009E-01  0.00000000000E+00 0.  1.
     999901    1    3    3    0    0 -0.47003153195E-01  0.12212576368E-01  0.12551360229E+00  0.89023149112E+00  0.88000000000E+00 0.  1.
        -11    1    4    4    0    0  0.12424758841E-01 -0.32413832828E-02 -0.12474182804E-01  0.17909426441E-01  0.51100000000E-03 0. -1.
         11    1    4    4    0    0  0.36444377549E-01 -0.29397868906E-01 -0.10258479213E+00  0.11276669742E+00  0.51100000000E-03 0.  1.
</event>
<event>
 8    1  0.1061721E+005  0.1043930E+01  0.7957747E-01            NaN
         13   -1    0    0    0    0  0.00000000000E+00  0.00000000000E+00  0.74505805969E-08  0.10566000000E+00  0.10566000000E+00 0. -1.
     999900   -1    0    0    0    0 -0.00000000000E+00 -0.00000000000E+00 -0.74505805969E-08  0.93827000000E+00  0.93827000000E+00 0. -1.
     999902    2    1    2    0    0  0.16949584813E-01 -0.68055416410E-02  0.19234411437E-01  0.10174051738E+01  0.10170593499E+01 0.  0.
     999903    2    3    3    0    0 -0.52425320471E-01  0.94461416878E-01 -0.60314963185E-01  0.12533119850E+00  0.19965996830E-01 0.  0.
         14    1    1    2    0    0 -0.16949584813E-01  0.68055416410E-02 -0.19234411437E-01  0.26524826214E-01  0.00000000000E+00 0. -1.
     999901    1    3    3    0    0  0.69374905285E-01 -0.10126695852E+00  0.79549374622E-01  0.89207397528E+00  0.88000000000E+00 0.  1.
        -11    1    4    4    0    0 -0.40597339069E-01  0.71410480081E-01 -0.35621591111E-01  0.89536358421E-01  0.51100000000E-03 0.  1.
         11    1    4    4    0    0 -0.11827981402E-01  0.23050936797E-01 -0.24693372074E-01  0.35794840084E-01  0.51100000000E-03 0. -1.
</event>
<event>
 8    1  0.1061721E+005  0.1043930E+01  0.7957747E-01            NaN
         13   -1    0    0    0    0  0.00000000000E+00  0.00000000000E+00  0.74505805969E-08  0.10566000000E+00  0.10566000000E+00 0.  1.
     999900   -1    0    0    0    0 -0.00000000000E+00 -0.00000000000E+00 -0.74505805969E-08  0.93827000000E+00  0.93827000000E+00 0.  1.
     999902    2    1    2    0    0 -0.20139118510E-01  0.45192441046E-03  0.13192875513E-01  0.10198501268E+01  0.10195658099E+01 0.  0.
     999903    2    3    3    0    0 -0.57154498879E-01 -0.93280094526E-01  0.71756180396E-01  0.13216465859E+00  0.18727914401E-01 0.  0.
         14    1    1    2    0    0  0.20139118510E-01 -0.45192441046E-03 -0.13192875513E-01  0.24079873221E-01  0.00000000000E+00 0. -1.
     999901    1    3    3    0    0  0.37015380368E-01  0.93732018937E-01 -0.58563304882E-01  0.88768546819E+00  0.88000000000E+00 0. -1.
        -11    1    4    4    0    0 -0.26605066465E-01 -0.28538721464E-01  0.30610177232E-01  0.49593671528E-01  0.51100000000E-03 0.  1.
         11    1    4    4    0    0 -0.30549432413E-01 -0.64741373062E-01  0.41146003164E-01  0.82570987060E-01  0.51100000000E-03 0. -1.
</event>
<event>
 8    1  0.1061721E+005  0.1043930E+01  0.7957747E-01            NaN
         13   -1    0    0    0    0  0.00000000000E+00  0.00000000000E+00  0.74505805969E-08  0.10566000000E+00  0.10566000000E+00 0. -1.
     999900   -1    0    0    0    0 -0.00000000000E+00 -0.00000000000E+00 -0.74505805969E-08  0.93827000000E+00  0.93827000000E+00 0. -1.
     999902    2    1    2    0    0  0.21705447880E-01  0.72873599895E-02  0.55037567334E-02  0.10203816790E+01  0.10201099193E+01 0.  0.
     999903    2    3    3    0    0 -0.10380703989E+00  0.71829530617E-01 -0.17236315103E-01  0.12884582037E+00  0.19203433804E-01 0.  0.
         14    1    1    2    0    0 -0.21705447880E-01 -0.72873599895E-02 -0.55037567334E-02  0.23548320990E-01  0.00000000000E+00 0.  1.
     999901    1    3    3    0    0  0.12551248777E+00 -0.64542170627E-01  0.22740071836E-01  0.89153585864E+00  0.88000000000E+00 0.  1.
        -11    1    4    4    0    0 -0.66394980298E-01  0.40215052077E-01 -0.23943106678E-02  0.77662974878E-01  0.51100000000E-03 0.  1.
         11    1    4    4    0    0 -0.37412059588E-01  0.31614478540E-01 -0.14842004435E-01  0.51182845491E-01  0.51100000000E-03 0. -1.
</event>
<event>
 8    1  0.1061721E+005  0.1043930E+01  0.7957747E-01            NaN
         13   -1    0    0    0    0  0.00000000000E+00  0.00000000000E+00  0.74505805969E-08  0.10566000000E+00  0.10566000000E+00 0.  1.
     999900   -1    0    0    0    0 -0.00000000000E+00 -0.00000000000E+00 -0.74505805969E-08  0.93827000000E+00  0.93827000000E+00 0.  1.
     999902    2    1    2    0    0 -0.74460769923E-02  0.68853623215E-02 -0.22200187554E-01  0.10195230214E+01  0.10192308328E+01 0.  0.
     999903    2    3    3    0    0 -0.73298521274E-01 -0.90906297561E-02  0.10278469744E+00  0.12811234264E+00  0.19818313171E-01 0.  0.
         14    1    1    2    0    0  0.74460769923E-02 -0.68853623215E-02  0.22200187554E-01  0.24406978599E-01  0.00000000000E+00 0.  1.
     999901    1    3    3    0    0  0.65852444282E-01  0.15975992078E-01 -0.12498488500E+00  0.89141067877E+00  0.88000000000E+00 0.  1.
        -11    1    4    4    0    0 -0.58873743013E-01 -0.61819541350E-02  0.66943336847E-01  0.89364454021E-01  0.51100000000E-03 0.  1.
         11    1    4    4    0    0 -0.14424778261E-01 -0.29086756211E-02  0.35841360595E-01  0.38747888614E-01  0.51100000000E-03 0. -1.
</event>
<event>
 8    1  0.1061721E+005  0.1043930E+01  0.7957747E-01            NaN
         13   -1    0    0    0    0  0.00000000000E+00  0.00000000000E+00  0.74505805969E-08  0.10566000000E+00  0.10566000000E+00 0. -1.
     999900   -1    0    0    0    0 -0.00000000000E+00 -0.00000000000E+00 -0.74505805969E-08  0.93827000000E+00  0.93827000000E+00 0.  1.
     999902    2    1    2    0    0 -0.20467228399E-01 -0.99380925888E-02 -0.66749964334E-02  0.10202186377E+01  0.10199430573E+01 0.  0.
     999903    2    3    3    0    0 -0.69011984889E-01  0.10951327330E+00 -0.12717676049E-02  0.13080623785E+00  0.18784125802E-01 0.  0.
         14    1    1    2    0    0  0.20467228399E-01  0.99380925888E-02  0.66749964334E-02  0.23711362256E-01  0.00000000000E+00 0. -1.
     999901    1    3    3    0    0  0.48544756490E-01 -0.11945136589E+00 -0.54032288285E-02  0.88941239989E+00  0.88000000000E+00 0. -1.
        -11    1    4    4    0    0 -0.50202912776E-01  0.63857036228E-01  0.26141226655E-02  0.81272063375E-01  0.51100000000E-03 0.  1.
         11    1    4    4    0    0 -0.18809072113E-01  0.45656237070E-01 -0.38858902703E-02  0.49534174480E-01  0.51100000000E-03 0. -1.
</event>
<event>
 8    1  0.1061721E+005  0.1043930E+01  0.7957747E-01            NaN
         13   -1    0    0    0    0  0.00000000000E+00  0.00000000000E+00  0.74505805969E-08  0.10566000000E+00  0.10566000000E+00 0. -1.
     999900   -1    0    0    0    0 -0.00000000000E+00 -0.00000000000E+00 -0.74505805969E-08  0.93827000000E+00  0.93827000000E+00 0.  1.
     999902    2    1    2    0    0  0.20659214767E-01 -0.10005050424E-01 -0.10659302208E-01  0.10186214064E+01  0.10183069501E+01 0.  0.
     999903    2    3    3    0    0  0.44231811726E-01  0.49073220510E-01  0.10819244418E+00  0.12835647554E+00  0.20128231317E-01 0.  0.
         14    1    1    2    0    0 -0.20659214767E-01  0.10005050424E-01  0.10659302208E-01  0.25308593646E-01  0.00000000000E+00 0.  1.
     999901    1    3    3    0    0 -0.23572596959E-01 -0.59078270934E-01 -0.11885174638E+00  0.89026493082E+00  0.88000000000E+00 0. -1.
        -11    1    4    4    0    0  0.42226896722E-01  0.35028019861E-01  0.85797921662E-01  0.10184113837E+00  0.51100000000E-03 0. -1.
         11    1    4    4    0    0  0.20049150038E-02  0.14045200649E-01  0.22394522513E-01  0.26515337166E-01  0.51100000000E-03 0.  1.
</event>
<event>
 8    1  0.1061721E+005  0.1043930E+01  0.7957747E-01            NaN
         13   -1    0    0    0    0  0.00000000000E+00  0.00000000000E+00  0.74505805969E-08  0.10566000000E+00  0.10566000000E+00 0.  1.
     999900   -1    0    0    0    0 -0.00000000000E+00 -0.00000000000E+00 -0.74505805969E-08  0.93827000000E+00  0.93827000000E+00 0. -1.
     999902    2    1    2    0    0  0.75051602091E-02  0.17166267299E-01 -0.14629174116E-01  0.10201598318E+01  0.10198828665E+01 0.  0.
     999903    2    3    3    0    0 -0.11386257510E+00 -0.23657025828E-01  0.51216289603E-01  0.12845792331E+00  0.18814591709E-01 0.  0.
         14    1    1    2    0    0 -0.75051602091E-02 -0.17166267299E-01  0.14629174116E-01  0.23770168238E-01  0.00000000000E+00 0.  1.
     999901    1    3    3    0    0  0.12136773531E+00  0.40823293127E-01 -0.65845463719E-01  0.89170190845E+00  0.88000000000E+00 0.  1.
        -11    1    4    4    0    0 -0.40116840238E-01  0.74333156821E-03  0.17387101872E-01  0.43731977374E-01  0.51100000000E-03 0.  1.
         11    1    4    4    0    0 -0.73745734867E-01 -0.24400357396E-01  0.33829187731E-01  0.84725945941E-01  0.51100000000E-03 0. -1.
</event>
<event>
 8    1  0.1061721E+005  0.1043930E+01  0.7957747E-01            NaN
         13   -1    0    0    0    0  0.00000000000E+00  0.00000000000E+00  0.74505805969E-08  0.10566000000E+00  0.10566000000E+00 0. -1.
     999900   -1    0    0    0    0 -0.00000000000E+00 -0.00000000000E+00 -0.74505805969E-08  0.93827000000E+00  0.93827000000E+00 0.  1.
     999902    2    1    2    0    0  0.53991047468E-02 -0.14018663616E-01  0.17442644252E-01  0.10209100282E+01  0.10206504625E+01 0.  0.
     999903    2    3    3    0    0 -0.39971656197E-01 -0.53243926651E-01 -0.10956203110E+00  0.12977181518E+00  0.20105629343E-01 0.  0.
         14    1    1    2    0    0 -0.53991047468E-02  0.14018663616E-01 -0.17442644252E-01  0.23019971767E-01  0.00000000000E+00 0. -1.
     999901    1    3    3    0    0  0.45370760944E-01  0.39225263034E-01  0.12700467535E+00  0.89113821306E+00  0.88000000000E+00 0. -1.
        -11    1    4    4    0    0 -0.13535942212E-01 -0.22283496125E-01 -0.26029283749E-01  0.36845090102E-01  0.51100000000E-03 0. -1.
         11    1    4    4    0    0 -0.26435713984E-01 -0.30960430526E-01 -0.83532747350E-01  0.92926725074E-01  0.51100000000E-03 0.  1.
</event>
<event>
 8    1  0.1061721E+005  0.1043930E+01  0.7957747E-01            NaN
         13   -1    0    0    0    0  0.00000000000E+00  0.00000000000E+00  0.74505805969E-08  0.10566000000E+00  0.10566000000E+00 0.  1.
     999900   -1    0    0    0    0 -0.00000000000E+00 -0.00000000000E+00 -0.74505805969E-08  0.93827000000E+00  0.93827000000E+00 0. -1.
     999902    2    1    2    0    0  0.39319733865E-02 -0.12465767806E-01 -0.19865322889E-01  0.10201500329E+01  0.10198728366E+01 0.  0.
     999903    2    3    3    0    0 -0.17708779562E-01 -0.12517376891E+00 -0.34604244266E-01  0.13257544364E+00  0.19917862281E-01 0.  0.
         14    1    1    2    0    0 -0.39319733865E-02  0.12465767806E-01  0.19865322889E-01  0.23779967098E-01  0.00000000000E+00 0.  1.
     999901    1    3    3    0    0  0.21640752948E-01  0.11270800111E+00  0.14738921378E-01  0.88757458926E+00  0.88000000000E+00 0.  1.
        -11    1    4    4    0    0 -0.12106945697E-01 -0.51476564057E-01 -0.23361084706E-01  0.57813633175E-01  0.51100000000E-03 0. -1.
         11    1    4    4    0    0 -0.56018338647E-02 -0.73697204855E-01 -0.11243159560E-01  0.74761810465E-01  0.51100000000E-03 0.  1.
</event>
<event>
 8    1  0.1061721E+005  0.1043930E+01  0.7957747E-01            NaN
         13   -1    0    0    0    0  0.00000000000E+00  0.00000000000E+00  0.74505805969E-08  0.10566000000E+00  0.10566000000E+00 0. -1.
     999900   -1    0    0    0    0 -0.00000000000E+00 -0.00000000000E+00 -0.74505805969E-08  0.93827000000E+00  0.93827000000E+00 0.  1.
     999902    2    1    2    0    0 -0.96222097207E-02  0.79480985099E-02  0.19070300011E-01  0.10211388716E+01  0.10208844987E+01 0.  0.
     999903    2    3    3    0    0 -0.13730677534E-01 -0.71295168795E-01 -0.10461462101E+00  0.12895372571E+00  0.20330072447E-01 0.  0.
         14    1    1    2    0    0  0.96222097207E-02 -0.79480985099E-02 -0.19070300011E-01  0.22791128370E-01  0.00000000000E+00 0.  1.
     999901    1    3    3    0    0  0.41084678135E-02  0.79243267305E-01  0.12368492102E+00  0.89218514592E+00  0.88000000000E+00 0. -1.
        -11    1    4    4    0    0 -0.13406956946E-01 -0.54075336513E-01 -0.64110937555E-01  0.84937400176E-01  0.51100000000E-03 0.  1.
         11    1    4    4    0    0 -0.32372058820E-03 -0.17219832282E-01 -0.40503683454E-01  0.44016325530E-01  0.51100000000E-03 0. -1.
</event>
<event>
 8    1  0.1061721E+005  0.1043930E+01  0.7957747E-01            NaN
         13   -1    0    0    0    0  0.00000000000E+00  0.00000000000E+00  0.74505805969E-08  0.10566000000E+00  0.10566000000E+00 0. -1.
     999900   -1    0    0    0    0 -0.00000000000E+00 -0.00000000000E+00 -0.74505805969E-08  0.93827000000E+00  0.93827000000E+00 0. -1.
     999902    2    1    2    0    0 -0.59613380755E-02  0.21853952198E-01 -0.69531507087E-02  0.10202344501E+01  0.10199592414E+01 0.  0.
     999903    2    3    3    0    0 -0.11000670929E+00 -0.23948778776E-01  0.62805772429E-01  0.13018409382E+00  0.18119413295E-01 0.  0.
         14    1    1    2    0    0  0.59613380755E-02 -0.21853952198E-01  0.69531507087E-02  0.23695549859E-01  0.00000000000E+00 0.  1.
     999901    1    3    3    0    0  0.10404537122E+00  0.45802730974E-01 -0.69758923138E-01  0.89005035632E+00  0.88000000000E+00 0. -1.
        -11    1    4    4    0    0 -0.29954953953E-01 -0.75467364064E-02  0.26750683155E-01  0.40867011965E-01  0.51100000000E-03 0.  1.
         11    1    4    4    0    0 -0.80051755340E-01 -0.16402042369E-01  0.36055089275E-01  0.89317081851E-01  0.51100000000E-03 0. -1.
</event>
<event>
 8    1  0.1061721E+005  0.1043930E+01  0.7957747E-01            NaN
         13   -1    0    0    0    0  0.00000000000E+00  0.00000000000E+00  0.74505805969E-08  0.10566000000E+00  0.10566000000E+00 0. -1.
     999900   -1    0    0    0    0 -0.00000000000E+00 -0.00000000000E+00 -0.74505805969E-08  0.93827000000E+00  0.93827000000E+00 0. -1.
     999902    2    1    2    0    0 -0.56142483067E-02  0.18463133246E-01  0.15057221910E-01  0.10194529290E+01  0.10191590393E+01 0.  0.
     999903    2    3    3    0    0 -0.12395192765E+00  0.30296287745E-01 -0.20294521164E-01  0.13074961763E+00  0.20041195131E-01 0.  0.
         14    1    1    2    0    0  0.56142483067E-02 -0.18463133246E-01 -0.15057221910E-01  0.24477071004E-01  0.00000000000E+00 0.  1.
     999901    1    3    3    0    0  0.11833767934E+00 -0.11833154500E-01  0.35351743075E-01  0.88870331137E+00  0.88000000000E+00 0.  1.
        -11    1    4    4    0    0 -0.10576228784E+00  0.22699567631E-01 -0.23702418018E-01  0.11073841990E+00  0.51100000000E-03 0.  1.
         11    1    4    4    0    0 -0.18189639803E-01  0.75967201145E-02  0.34078968538E-02  0.20011197731E-01  0.51100000000E-03 0. -1.
</event>
<event>
 8    1  0.1061721E+005  0.1043930E+01  0.7957747E-01            NaN
         13   -1    0    0    0    0  0.00000000000E+00  0.00000000000E+00  0.74505805969E-08  0.10566000000E+00  0.10566000000E+00 0. -1.
     999900   -1    0    0    0    0 -0.00000000000E+00 -0.00000000000E+00 -0.74505805969E-08  0.93827000000E+00  0.93827000000E+00 0.  1.
     999902    2    1    2    0    0  0.21518487091E-01  0.57487224210E-02 -0.86982681509E-02  0.10200186436E+01  0.10197383391E+01 0.  0.
     999903    2    3    3    0    0 -0.34755455422E-01 -0.87527855925E-01  0.84893586673E-01  0.12837593939E+00  0.20109537841E-01 0.  0.
         14    1    1    2    0    0 -0.21518487091E-01 -0.57487224210E-02  0.86982681509E-02  0.23911356402E-01  0.00000000000E+00 0.  1.
     999901    1    3    3    0    0  0.56273942513E-01  0.93276578346E-01 -0.93591854823E-01  0.89164270421E+00  0.88000000000E+00 0.  1.
        -11    1    4    4    0    0 -0.12574972464E-01 -0.52216987364E-01  0.56302159619E-01  0.77813482126E-01  0.51100000000E-03 0.  1.
         11    1    4    4    0    0 -0.22180482958E-01 -0.35310868562E-01  0.28591427053E-01  0.50562457266E-01  0.51100000000E-03 0. -1.
</event>
<event>
 8    1  0.1061721E+005  0.1043930E+01  0.7957747E-01            NaN
         13   -1    0    0    0    0  0.00000000000E+00  0.00000000000E+00  0.74505805969E-08  0.10566000000E+00  0.10566000000E+00 0.  1.
     999900   -1    0    0    0    0 -0.00000000000E+00 -0.00000000000E+00 -0.74505805969E-08  0.93827000000E+00  0.93827000000E+00 0.  1.
     999902    2    1    2    0    0  0.57595260805E-02 -0.23238679605E-01  0.30458391556E-02  0.10197952635E+01  0.10195096341E+01 0.  0.
     999903    2    3    3    0    0 -0.80930945910E-02  0.22686530121E-01  0.12606426672E+00  0.12994440322E+00  0.20326626801E-01 0.  0.
         14    1    1    2    0    0 -0.57595260805E-02  0.23238679605E-01 -0.30458391556E-02  0.24134736514E-01  0.00000000000E+00 0. -1.
     999901    1    3    3    0    0  0.13852620671E-01 -0.45925209726E-01 -0.12301842756E+00  0.88985086026E+00  0.88000000000E+00 0.  1.
        -11    1    4    4    0    0  0.38453315227E-03  0.14003115056E-01  0.29977837745E-01  0.33093307086E-01  0.51100000000E-03 0.  1.
         11    1    4    4    0    0 -0.84776277432E-02  0.86834150651E-02  0.96086428974E-01  0.96851096139E-01  0.51100000000E-03 0. -1.
</event>
<event>
 8    1  0.1061721E+005  0.1043930E+01  0.7957747E-01            NaN
         13   -1    0    0    0    0  0.00000000000E+00  0.00000000000E+00  0.74505805969E-08  0.10566000000E+00  0.10566000000E+00 0.  1.
     999900   -1    0    0    0    0 -0.00000000000E+00 -0.00000000000E+00 -0.74505805969E-08  0.93827000000E+00  0.93827000000E+00 0.  1.
     999902    2    1    2    0    0  0.14029982157E-01  0.51120301766E-03 -0.19244689694E-01  0.10201085851E+01  0.10198304102E+01 0.  0.
     999903    2    3    3    0    0  0.12750669937E+00 -0.28155316640E-01  0.12157802995E-02  0.13212358208E+00  0.20111752326E-01 0.  0.
         14    1    1    2    0    0 -0.14029982157E-01 -0.51120301766E-03  0.19244689694E-01  0.23821414930E-01  0.00000000000E+00 0.  1.
     999901    1    3    3    0    0 -0.11347671721E+00  0.28666519658E-01 -0.20460469994E-01  0.88798500299E+00  0.88000000000E+00 0. -1.
        -11    1    4    4    0    0  0.23403612487E-01 -0.43244687498E-02 -0.75329844931E-02  0.24968722109E-01  0.51100000000E-03 0.  1.
         11    1    4    4    0    0  0.10410308688E+00 -0.23830847890E-01  0.87487647926E-02  0.10715485997E+00  0.51100000000E-03 0. -1.
</event>
<event>
 8    1  0.1061721E+005  0.1043930E+01  0.7957747E-01            NaN
         13   -1    0    0    0    0  0.00000000000E+00  0.00000000000E+00  0.74505805969E-08  0.10566000000E+00  0.10566000000E+00 0.  1.
     999900   -1    0    0    0    0 -0.00000000000E+00 -0.00000000000E+00 -0.74505805969E-08  0.93827000000E+00  0.93827000000E+00 0. -1.
     999902    2    1    2    0    0 -0.72525449373E-02  0.21403334626E-01  0.90757731038E-02  0.10195769345E+01  0.10192860509E+01 0.  0.
     999903    2    3    3    0    0  0.10527777682E+00 -0.67434223490E-01 -0.16030972128E-01  0.12762091895E+00  0.19983045221E-01 0.  0.
         14    1    1    2    0    0  0.72525449373E-02 -0.21403334626E-01 -0.90757731038E-02  0.24353065487E-01  0.00000000000E+00 0.  1.
     999901    1    3    3    0    0 -0.11253032176E+00  0.88837558116E-01  0.25106745231E-01  0.89195601556E+00  0.88000000000E+00 0.  1.
        -11    1    4    4    0    0  0.23272673713E-01 -0.20593773051E-01  0.31905132775E-02  0.31243580560E-01  0.51100000000E-03 0.  1.
         11    1    4    4    0    0  0.82005103106E-01 -0.46840450440E-01 -0.19221485405E-01  0.96377338389E-01  0.51100000000E-03 0. -1.
</event>
<event>
 8    1  0.1061721E+005  0.1043930E+01  0.7957747E-01            NaN
         13   -1    0    0    0    0  0.00000000000E+00  0.00000000000E+00  0.74505805969E-08  0.10566000000E+00  0.10566000000E+00 0. -1.
     999900   -1    0    0    0    0 -0.00000000000E+00 -0.00000000000E+00 -0.74505805969E-08  0.93827000000E+00  0.93827000000E+00 0.  1.
     999902    2    1    2    0    0  0.97751728015E-02 -0.20437614388E-01 -0.81737385343E-02  0.10198455634E+01  0.10195611375E+01 0.  0.
     999903    2    3    3    0    0 -0.36192911011E-01 -0.12413497791E+00 -0.22322021869E-01  0.13245253781E+00  0.18054987230E-01 0.  0.
         14    1    1    2    0    0 -0.97751728015E-02  0.20437614388E-01  0.81737385343E-02  0.24084436610E-01  0.00000000000E+00 0. -1.
     999901    1    3    3    0    0  0.45968083813E-01  0.10369736352E+00  0.14148283335E-01  0.88739302558E+00  0.88000000000E+00 0.  1.
        -11    1    4    4    0    0 -0.14534276614E-01 -0.29505161888E-01 -0.24434266363E-03  0.32895601516E-01  0.51100000000E-03 0.  1.
         11    1    4    4    0    0 -0.21658634397E-01 -0.94629816019E-01 -0.22077679206E-01  0.99556936292E-01  0.51100000000E-03 0. -1.
</event>
<event>
 8    1  0.1061721E+005  0.1043930E+01  0.7957747E-01            NaN
         13   -1    0    0    0    0  0.00000000000E+00  0.00000000000E+00  0.74505805969E-08  0.10566000000E+00  0.10566000000E+00 0. -1.
     999900   -1    0    0    0    0 -0.00000000000E+00 -0.00000000000E+00 -0.74505805969E-08  0.93827000000E+00  0.93827000000E+00 0.  1.
     999902    2    1    2    0    0 -0.41389241374E-02  0.13276185414E-01 -0.16462228885E-01  0.10223802257E+01  0.10221530869E+01 0.  0.
     999903    2    3    3    0    0 -0.48332385351E-01 -0.10249239071E+00 -0.65393699089E-01  0.13235229693E+00  0.20002124731E-01 0.  0.
         14    1    1    2    0    0  0.41389241374E-02 -0.13276185414E-01  0.16462228885E-01  0.21549774292E-01  0.00000000000E+00 0. -1.
     999901    1    3    3    0    0  0.44193461213E-01  0.11576857613E+00  0.48931470204E-01  0.89002792878E+00  0.88000000000E+00 0. -1.
        -11    1    4    4    0    0 -0.16148846716E-01 -0.30593030715E-01 -0.30780724323E-01  0.46308021870E-01  0.51100000000E-03 0. -1.
         11    1    4    4    0    0 -0.32183538635E-01 -0.71899359998E-01 -0.34612974765E-01  0.86044275059E-01  0.51100000000E-03 0.  1.
</event>
<event>
 8    1  0.1061721E+005  0.1043930E+01  0.7957747E-01            NaN
         13   -1    0    0    0    0  0.00000000000E+00  0.00000000000E+00  0.74505805969E-08  0.10566000000E+00  0.10566000000E+00 0. -1.
     999900   -1    0    0    0    0 -0.00000000000E+00 -0.00000000000E+00 -0.74505805969E-08  0.93827000000E+00  0.93827000000E+00 0.  1.
     999902    2    1    2    0    0  0.12358552051E-02 -0.23855180750E-01  0.15334136505E-02  0.10199936606E+01  0.10197127631E+01 0.  0.
     999903    2    3    3    0    0  0.49330891525E-01 -0.53523312593E-01  0.10802747451E+00  0.13177391551E+00  0.19903459704E-01 0.  0.
         14    1    1    2    0    0 -0.12358552051E-02  0.23855180750E-01 -0.15334136505E-02  0.23936339405E-01  0.00000000000E+00 0.  1.
     999901    1    3    3    0    0 -0.48095036320E-01  0.29668131843E-01 -0.10649406086E+00  0.88821974509E+00  0.88000000000E+00 0.  1.
        -11    1    4    4    0    0  0.16212692195E-01 -0.17911397874E-01  0.20706710557E-01  0.31822924836E-01  0.51100000000E-03 0.  1.
         11    1    4    4    0    0  0.33118199330E-01 -0.35611914719E-01  0.87320763958E-01  0.99950990670E-01  0.51100000000E-03 0. -1.
</event>
<event>
 7    1  0.1061721E+005  0.1043930E+01  0.7957747E-01            NaN
         13   -1    0    0    0    0  0.00000000000E+00  0.00000000000E+00  0.74505805969E-08  0.10566000000E+00  0.10566000000E+00 0. -1.
     999900   -1    0    0    0    0 -0.00000000000E+00 -0.00000000000E+00 -0.74505805969E-08  0.93827000000E+00  0.93827000000E+00 0.  1.
     999903    2    1    2    0    0 -0.73700422423E-01 -0.63683305410E-01 -0.20081715213E-01  0.10144583400E+00  0.20016650490E-01 0.  0.
         14    1    1    2    0    0  0.12068851840E-01 -0.24942738079E-01  0.48027404563E-01  0.55447533368E-01  0.00000000000E+00 0. -1.
     999901    1    1    2    0    0  0.61631570583E-01  0.88626043489E-01 -0.27945689349E-01  0.88703663263E+00  0.88000000000E+00 0.  1.
        -11    1    3    3    0    0 -0.37530084030E-01 -0.43878232738E-01 -0.16485460002E-01  0.60048630525E-01  0.51100000000E-03 0.  1.
         11    1    3    3    0    0 -0.36170338393E-01 -0.19805072672E-01 -0.35962552112E-02  0.41397203475E-01  0.51100000000E-03 0. -1.
</event>
<event>
 8    1  0.1061721E+005  0.1043930E+01  0.7957747E-01            NaN
         13   -1    0    0    0    0  0.00000000000E+00  0.00000000000E+00  0.74505805969E-08  0.10566000000E+00  0.10566000000E+00 0. -1.
     999900   -1    0    0    0    0 -0.00000000000E+00 -0.00000000000E+00 -0.74505805969E-08  0.93827000000E+00  0.93827000000E+00 0. -1.
     999902    2    1    2    0    0 -0.43181427600E-02 -0.22553322448E-01  0.66323287037E-02  0.10200283998E+01  0.10197483267E+01 0.  0.
     999903    2    3    3    0    0 -0.92592427818E-01 -0.19004335831E-01 -0.87751464403E-01  0.13058292919E+00  0.20422032724E-01 0.  0.
         14    1    1    2    0    0  0.43181427600E-02  0.22553322448E-01 -0.66323287037E-02  0.23901600247E-01  0.00000000000E+00 0.  1.
     999901    1    3    3    0    0  0.88274285058E-01 -0.35489866175E-02  0.94383793107E-01  0.88944547057E+00  0.88000000000E+00 0.  1.
        -11    1    4    4    0    0 -0.48399418048E-01  0.43425221707E-03 -0.42685059611E-01  0.64536560780E-01  0.51100000000E-03 0. -1.
         11    1    4    4    0    0 -0.44193009770E-01 -0.19438588048E-01 -0.45066404792E-01  0.66046368407E-01  0.51100000000E-03 0.  1.
</event>
<event>
 8    1  0.1360628E+005  0.1043930E+01  0.7957747E-01            NaN
         13   -1    0    0    0    0  0.00000000000E+00  0.00000000000E+00  0.74505805969E-08  0.10566000000E+00  0.10566000000E+00 0. -1.
     999900   -1    0    0    0    0 -0.00000000000E+00 -0.00000000000E+00 -0.74505805969E-08  0.93827000000E+00  0.93827000000E+00 0. -1.
     999902    2    1    2    0    0 -0.16605929552E-01 -0.22021979079E-01 -0.79629981376E-02  0.10152222694E+01  0.10148162998E+01 0.  0.
     999903    2    3    3    0    0 -0.31941031796E-01  0.66400585888E-01  0.98088454242E-01  0.12432349514E+00  0.20142474302E-01 0.  0.
         14    1    1    2    0    0  0.16605929552E-01  0.22021979079E-01  0.79629981376E-02  0.28707730635E-01  0.00000000000E+00 0. -1.
     999901    1    3    3    0    0  0.15335102245E-01 -0.88422564967E-01 -0.10605145238E+00  0.89089877422E+00  0.88000000000E+00 0. -1.
        -11    1    4    4    0    0 -0.78617310206E-02  0.39337511339E-01  0.53554446778E-01  0.66914770445E-01  0.51100000000E-03 0.  1.
         11    1    4    4    0    0 -0.24079300776E-01  0.27063074549E-01  0.44534007463E-01  0.57408724699E-01  0.51100000000E-03 0. -1.
</event>
<event>
 8    1  0.1061721E+005  0.1043930E+01  0.7957747E-01            NaN
         13   -1    0    0    0    0  0.00000000000E+00  0.00000000000E+00  0.74505805969E-08  0.10566000000E+00  0.10566000000E+00 0.  1.
     999900   -1    0    0    0    0 -0.00000000000E+00 -0.00000000000E+00 -0.74505805969E-08  0.93827000000E+00  0.93827000000E+00 0. -1.
     999902    2    1    2    0    0 -0.16664447582E-01 -0.12105993512E-01 -0.11201623111E-01  0.10204835663E+01  0.10202141804E+01 0.  0.
     999903    2    3    3    0    0  0.11660475743E+00  0.45647846536E-02 -0.52101554533E-01  0.12935428263E+00  0.20011290205E-01 0.  0.
         14    1    1    2    0    0  0.16664447582E-01  0.12105993512E-01  0.11201623111E-01  0.23446433683E-01  0.00000000000E+00 0. -1.
     999901    1    3    3    0    0 -0.13326920502E+00 -0.16670778165E-01  0.40899931422E-01  0.89112928368E+00  0.88000000000E+00 0.  1.
        -11    1    4    4    0    0  0.92936694145E-01 -0.32142730161E-02 -0.45752064221E-01  0.10363914883E+00  0.51100000000E-03 0.  1.
         11    1    4    4    0    0  0.23668063288E-01  0.77790576696E-02 -0.63494903117E-02  0.25715133798E-01  0.51100000000E-03 0. -1.
</event>
<event>
 8    1  0.1061721E+005  0.1043930E+01  0.7957747E-01            NaN
         13   -1    0    0    0    0  0.00000000000E+00  0.00000000000E+00  0.74505805969E-08  0.10566000000E+00  0.10566000000E+00 0. -1.
     999900   -1    0    0    0    0 -0.00000000000E+00 -0.00000000000E+00 -0.74505805969E-08  0.93827000000E+00  0.93827000000E+00 0. -1.
     999902    2    1    2    0    0  0.32666776799E-02 -0.14160512861E-02 -0.23481455320E-01  0.10201801552E+01  0.10199036689E+01 0.  0.
     999903    2    3    3    0    0 -0.32416207134E-01 -0.19816914868E-02 -0.12777585810E+00  0.13330310020E+00  0.19705558237E-01 0.  0.
         14    1    1    2    0    0 -0.32666776799E-02  0.14160512861E-02  0.23481455320E-01  0.23749844805E-01  0.00000000000E+00 0. -1.
     999901    1    3    3    0    0  0.35682884813E-01  0.56564020069E-03  0.10429440278E+00  0.88687705499E+00  0.88000000000E+00 0.  1.
        -11    1    4    4    0    0 -0.15585980077E-01  0.27022864445E-05 -0.27584682913E-01  0.31687515438E-01  0.51100000000E-03 0.  1.
         11    1    4    4    0    0 -0.16830227057E-01 -0.19843937732E-02 -0.10019117519E+00  0.10161558477E+00  0.51100000000E-03 0. -1.
</event>
<event>
 8    1  0.1061721E+005  0.1043930E+01  0.7957747E-01            NaN
         13   -1    0    0    0    0  0.00000000000E+00  0.00000000000E+00  0.74505805969E-08  0.10566000000E+00  0.10566000000E+00 0. -1.
     999900   -1    0    0    0    0 -0.00000000000E+00 -0.00000000000E+00 -0.74505805969E-08  0.93827000000E+00  0.93827000000E+00 0.  1.
     999902    2    1    2    0    0  0.23186250526E-01  0.32705776857E-02 -0.36065867051E-02  0.10202380951E+01  0.10199629720E+01 0.  0.
     999903    2    3    3    0    0 -0.15907182625E-02  0.54283672512E-01  0.11673435208E+00  0.13023912002E+00  0.19648713490E-01 0.  0.
         14    1    1    2    0    0 -0.23186250526E-01 -0.32705776857E-02  0.36065867051E-02  0.23691904936E-01  0.00000000000E+00 0.  1.
     999901    1    3    3    0    0  0.24776968788E-01 -0.51013094826E-01 -0.12034093879E+00  0.88999897504E+00  0.88000000000E+00 0.  1.
        -11    1    4    4    0    0 -0.33381341884E-02  0.26963726457E-01  0.36803737204E-01  0.45748900287E-01  0.51100000000E-03 0.  1.
         11    1    4    4    0    0  0.17474159259E-02  0.27319946055E-01  0.79930614880E-01  0.84490219735E-01  0.51100000000E-03 0. -1.
</event>
<event>
 8    1  0.1061721E+005  0.1043930E+01  0.7957747E-01            NaN
         13   -1    0    0    0    0  0.00000000000E+00  0.00000000000E+00  0.74505805969E-08  0.10566000000E+00  0.10566000000E+00 0.  1.
     999900   -1    0    0    0    0 -0.00000000000E+00 -0.00000000000E+00 -0.74505805969E-08  0.93827000000E+00  0.93827000000E+00 0. -1.
     999902    2    1    2    0    0 -0.42940216022E-02 -0.10093505696E-01 -0.24094182704E-01  0.10174564827E+01  0.10171120130E+01 0.  0.
     999903    2    3    3    0    0  0.14712989057E-01  0.80556102065E-01  0.93911359978E-01  0.12476172750E+00  0.63551150992E-02 0.  0.
         14    1    1    2    0    0  0.42940216022E-02  0.10093505696E-01  0.24094182704E-01  0.26473517314E-01  0.00000000000E+00 0.  1.
     999901    1    3    3    0    0 -0.19007010659E-01 -0.90649607761E-01 -0.11800554268E+00  0.89269475519E+00  0.88000000000E+00 0.  1.
        -11    1    4    4    0    0  0.38104041400E-02  0.33791838355E-01  0.42048121725E-01  0.54080617421E-01  0.51100000000E-03 0.  1.
         11    1    4    4    0    0  0.10902584917E-01  0.46764263710E-01  0.51863238253E-01  0.70681110074E-01  0.51100000000E-03 0. -1.
</event>
<event>
 8    1  0.1061721E+005  0.1043930E+01  0.7957747E-01            NaN
         13   -1    0    0    0    0  0.00000000000E+00  0.00000000000E+00  0.74505805969E-08  0.10566000000E+00  0.10566000000E+00 0.  1.
     999900   -1    0    0    0    0 -0.00000000000E+00 -0.00000000000E+00 -0.74505805969E-08  0.93827000000E+00  0.93827000000E+00 0. -1.
     999902    2    1    2    0    0 -0.11059263890E-01  0.71570974940E-02 -0.19195915395E-01  0.10206487945E+01  0.10203832354E+01 0.  0.
     999903    2    3    3    0    0 -0.55119345168E-01 -0.91934469614E-01  0.70150383712E-01  0.12950167386E+00  0.18960967353E-01 0.  0.
         14    1    1    2    0    0  0.11059263890E-01 -0.71570974940E-02  0.19195915395E-01  0.23281205514E-01  0.00000000000E+00 0.  1.
     999901    1    3    3    0    0  0.44060081278E-01  0.99091567108E-01 -0.89346299107E-01  0.89114712062E+00  0.88000000000E+00 0. -1.
        -11    1    4    4    0    0 -0.43383958577E-01 -0.55106693181E-01  0.47327021934E-01  0.84611013594E-01  0.51100000000E-03 0. -1.
         11    1    4    4    0    0 -0.11735386591E-01 -0.36827776432E-01  0.22823361778E-01  0.44890660267E-01  0.51100000000E-03 0.  1.
</event>
<event>
 8    1  0.1061721E+005  0.1043930E+01  0.7957747E-01            NaN
         13   -1    0    0    0    0  0.00000000000E+00  0.00000000000E+00  0.74505805969E-08  0.10566000000E+00  0.10566000000E+00 0. -1.
     999900   -1    0    0    0    0 -0.00000000000E+00 -0.00000000000E+00 -0.74505805969E-08  0.93827000000E+00  0.93827000000E+00 0.  1.
     999902    2    1    2    0    0 -0.17810183750E-01  0.16202659246E-01 -0.92355289641E-02  0.10181419445E+01  0.10178153051E+01 0.  0.
     999903    2    3    3    0    0 -0.50945137328E-01 -0.86185394184E-01 -0.78553712700E-01  0.12888031300E+00  0.20399022348E-01 0.  0.
         14    1    1    2    0    0  0.17810183750E-01 -0.16202659246E-01  0.92355289641E-02  0.25788055512E-01  0.00000000000E+00 0. -1.
     999901    1    3    3    0    0  0.33134953578E-01  0.10238805343E+00  0.69318183736E-01  0.88926163148E+00  0.88000000000E+00 0.  1.
        -11    1    4    4    0    0 -0.24749052595E-01 -0.51691880652E-01 -0.55631212843E-01  0.79872768157E-01  0.51100000000E-03 0.  1.
         11    1    4    4    0    0 -0.26196084733E-01 -0.34493513533E-01 -0.22922499857E-01  0.49007544846E-01  0.51100000000E-03 0. -1.
</event>
<event>
 8    1  0.1061721E+005  0.1043930E+01  0.7957747E-01            NaN
         13   -1    0    0    0    0  0.00000000000E+00  0.00000000000E+00  0.74505805969E-08  0.10566000000E+00  0.10566000000E+00 0. -1.
     999900   -1    0    0    0    0 -0.00000000000E+00 -0.00000000000E+00 -0.74505805969E-08  0.93827000000E+00  0.93827000000E+00 0. -1.
     999902    2    1    2    0    0  0.19450680962E-01  0.10766589003E-02 -0.14101808551E-01  0.10198811084E+01  0.10195975314E+01 0.  0.
     999903    2    3    3    0    0 -0.12385050417E+00  0.11910551661E-01  0.19604554914E-01  0.12758703026E+00  0.20329857207E-01 0.  0.
         14    1    1    2    0    0 -0.19450680962E-01 -0.10766589003E-02  0.14101808551E-01  0.24048891631E-01  0.00000000000E+00 0. -1.
     999901    1    3    3    0    0  0.14330118513E+00 -0.10833892761E-01 -0.33706363465E-01  0.89229407811E+00  0.88000000000E+00 0. -1.
        -11    1    4    4    0    0 -0.10982400745E+00  0.44260054319E-02  0.14416923751E-01  0.11085581153E+00  0.51100000000E-03 0. -1.
         11    1    4    4    0    0 -0.14026496711E-01  0.74845462294E-02  0.51876311633E-02  0.16731218734E-01  0.51100000000E-03 0.  1.
</event>
<event>
 8    1  0.1061721E+005  0.1043930E+01  0.7957747E-01            NaN
         13   -1    0    0    0    0  0.00000000000E+00  0.00000000000E+00  0.74505805969E-08  0.10566000000E+00  0.10566000000E+00 0.  1.
     999900   -1    0    0    0    0 -0.00000000000E+00 -0.00000000000E+00 -0.74505805969E-08  0.93827000000E+00  0.93827000000E+00 0.  1.
     999902    2    1    2    0    0  0.64287349962E-02 -0.10655774558E-02 -0.22884643361E-01  0.10201356521E+01  0.10198581165E+01 0.  0.
     999903    2    3    3    0    0 -0.50059063691E-01 -0.66140280761E-01 -0.10123570674E+00  0.13246201979E+00  0.20422335116E-01 0.  0.
         14    1    1    2    0    0 -0.64287349962E-02  0.10655774558E-02  0.22884643361E-01  0.23794347874E-01  0.00000000000E+00 0.  1.
     999901    1    3    3    0    0  0.56487798687E-01  0.65074703306E-01  0.78351063377E-01  0.88767363234E+00  0.88000000000E+00 0.  1.
        -11    1    4    4    0    0 -0.32658410265E-01 -0.31921194400E-01 -0.43122853166E-01  0.62812228102E-01  0.51100000000E-03 0.  1.
         11    1    4    4    0    0 -0.17400653426E-01 -0.34219086362E-01 -0.58112853572E-01  0.69649791689E-01  0.51100000000E-03 0. -1.
</event>
<event>
 8    1  0.1061721E+005  0.1043930E+01  0.7957747E-01            NaN
         13   -1    0    0    0    0  0.00000000000E+00  0.00000000000E+00  0.74505805969E-08  0.10566000000E+00  0.10566000000E+00 0. -1.
     999900   -1    0    0    0    0 -0.00000000000E+00 -0.00000000000E+00 -0.74505805969E-08  0.93827000000E+00  0.93827000000E+00 0.  1.
     999902    2    1    2    0    0 -0.24564139264E-01  0.43054022917E-03 -0.75960933239E-02  0.10182145778E+01  0.10178897993E+01 0.  0.
     999903    2    3    3    0    0  0.10501942260E+00 -0.59849798707E-01 -0.30159872792E-01  0.12639915809E+00  0.21355367261E-01 0.  0.
         14    1    1    2    0    0  0.24564139264E-01 -0.43054022917E-03  0.75960933239E-02  0.25715422152E-01  0.00000000000E+00 0.  1.
     999901    1    3    3    0    0 -0.12958356187E+00  0.60280338936E-01  0.22563779468E-01  0.89181541975E+00  0.88000000000E+00 0. -1.
        -11    1    4    4    0    0  0.75099367547E-01 -0.47469274561E-01 -0.13131128568E-01  0.89810548889E-01  0.51100000000E-03 0. -1.
         11    1    4    4    0    0  0.29920055056E-01 -0.12380524146E-01 -0.17028744224E-01  0.36588609204E-01  0.51100000000E-03 0.  1.
</event>
<event>
 8    1  0.1061721E+005  0.1043930E+01  0.7957747E-01            NaN
         13   -1    0    0    0    0  0.00000000000E+00  0.00000000000E+00  0.74505805969E-08  0.10566000000E+00  0.10566000000E+00 0.  1.
     999900   -1    0    0    0    0 -0.00000000000E+00 -0.00000000000E+00 -0.74505805969E-08  0.93827000000E+00  0.93827000000E+00 0. -1.
     999902    2    1    2    0    0 -0.11651504048E-01  0.13527245896E-01 -0.15472766542E-01  0.10203047924E+01  0.10200312343E+01 0.  0.
     999903    2    3    3    0    0 -0.10000840967E+00  0.85190557448E-01 -0.54002579560E-02  0.13292436194E+00  0.19509231849E-01 0.  0.
         14    1    1    2    0    0  0.11651504048E-01 -0.13527245896E-01  0.15472766542E-01  0.23625207567E-01  0.00000000000E+00 0.  1.
     999901    1    3    3    0    0  0.88356905625E-01 -0.71663311551E-01 -0.10072508586E-01  0.88738043049E+00  0.88000000000E+00 0. -1.
        -11    1    4    4    0    0 -0.38822869931E-01  0.44831774681E-01  0.12823780915E-02  0.59321234523E-01  0.51100000000E-03 0. -1.
         11    1    4    4    0    0 -0.61185539741E-01  0.40358782767E-01 -0.66826360475E-02  0.73603127416E-01  0.51100000000E-03 0.  1.
</event>
<event>
 8    1  0.1061721E+005  0.1043930E+01  0.7957747E-01            NaN
         13   -1    0    0    0    0  0.00000000000E+00  0.00000000000E+00  0.74505805969E-08  0.10566000000E+00  0.10566000000E+00 0.  1.
     999900   -1    0    0    0    0 -0.00000000000E+00 -0.00000000000E+00 -0.74505805969E-08  0.93827000000E+00  0.93827000000E+00 0.  1.
     999902    2    1    2    0    0  0.15765849282E-01 -0.49635174101E-02 -0.16942431263E-01  0.10202605157E+01  0.10199859192E+01 0.  0.
     999903    2    3    3    0    0  0.10654300365E+00  0.75421929305E-01 -0.99620906269E-02  0.13191878140E+00  0.16230914583E-01 0.  0.
         14    1    1    2    0    0 -0.15765849282E-01  0.49635174101E-02  0.16942431263E-01  0.23669484273E-01  0.00000000000E+00 0.  1.
     999901    1    3    3    0    0 -0.90777154370E-01 -0.80385446715E-01 -0.69803406358E-02  0.88834173433E+00  0.88000000000E+00 0.  1.
        -11    1    4    4    0    0  0.47298635665E-01  0.30508151225E-01 -0.11969826191E-01  0.57545165627E-01  0.51100000000E-03 0. -1.
         11    1    4    4    0    0  0.59244367987E-01  0.44913778079E-01  0.20077355645E-02  0.74373615769E-01  0.51100000000E-03 0.  1.
</event>
<event>
 8    1  0.1061721E+005  0.1043930E+01  0.7957747E-01            NaN
         13   -1    0    0    0    0  0.00000000000E+00  0.00000000000E+00  0.74505805969E-08  0.10566000000E+00  0.10566000000E+00 0. -1.
     999900   -1    0    0    0    0 -0.00000000000E+00 -0.00000000000E+00 -0.74505805969E-08  0.93827000000E+00  0.93827000000E+00 0. -1.
     999902    2    1    2    0    0  0.11051224839E-01  0.14766312488E-01  0.11029414264E-01  0.10224399666E+01  0.10222140988E+01 0.  0.
     999903    2    3    3    0    0 -0.11157260288E+00 -0.59624839333E-01 -0.23143070295E-01  0.13017408401E+00  0.20152500270E-01 0.  0.
         14    1    1    2    0    0 -0.11051224839E-01 -0.14766312488E-01 -0.11029414264E-01  0.21490033363E-01  0.00000000000E+00 0.  1.
     999901    1    3    3    0    0  0.12262382772E+00  0.74391151821E-01  0.34172484559E-01  0.89226588262E+00  0.88000000000E+00 0. -1.
        -11    1    4    4    0    0 -0.60732192596E-01 -0.31804356513E-01 -0.22691592983E-01  0.72215551122E-01  0.51100000000E-03 0. -1.
         11    1    4    4    0    0 -0.50840410284E-01 -0.27820482820E-01 -0.45147731245E-03  0.57958532891E-01  0.51100000000E-03 0.  1.
</event>
<event>
 8    1  0.1061721E+005  0.1043930E+01  0.7957747E-01            NaN
         13   -1    0    0    0    0  0.00000000000E+00  0.00000000000E+00  0.74505805969E-08  0.10566000000E+00  0.10566000000E+00 0. -1.
     999900   -1    0    0    0    0 -0.00000000000E+00 -0.00000000000E+00 -0.74505805969E-08  0.93827000000E+00  0.93827000000E+00 0.  1.
     999902    2    1    2    0    0 -0.20678986101E-01 -0.99518853044E-02 -0.79890332561E-03  0.10209670138E+01  0.10207087462E+01 0.  0.
     999903    2    3    3    0    0 -0.80660613739E-01 -0.84405814385E-01 -0.61732251524E-01  0.13369363086E+00  0.20799998629E-01 0.  0.
         14    1    1    2    0    0  0.20678986101E-01  0.99518853044E-02  0.79890332561E-03  0.22962986169E-01  0.00000000000E+00 0. -1.
     999901    1    3    3    0    0  0.59981627637E-01  0.74453929081E-01  0.60933348199E-01  0.88727338297E+00  0.88000000000E+00 0.  1.
        -11    1    4    4    0    0 -0.59066806717E-01 -0.70578949706E-01 -0.41179678528E-01  0.10082808558E+00  0.51100000000E-03 0. -1.
         11    1    4    4    0    0 -0.21593807022E-01 -0.13826864679E-01 -0.20552572996E-01  0.32865545276E-01  0.51100000000E-03 0.  1.
</event>
<event>
 7    1  0.1061721E+005  0.1043930E+01  0.7957747E-01            NaN
         13   -1    0    0    0    0  0.00000000000E+00  0.00000000000E+00  0.74505805969E-08  0.10566000000E+00  0.10566000000E+00 0. -1.
     999900   -1    0    0    0    0 -0.00000000000E+00 -0.00000000000E+00 -0.74505805969E-08  0.93827000000E+00  0.93827000000E+00 0.  1.
     999903    2    1    2    0    0 -0.96326593704E-01 -0.18592410313E-01 -0.43646226285E-01  0.10940338885E+00  0.20967070534E-01 0.  0.
         14    1    1    2    0    0 -0.32964660975E-01  0.93516717287E-02  0.29032983014E-01  0.44911432175E-01  0.00000000000E+00 0. -1.
     999901    1    1    2    0    0  0.12929125468E+00  0.92407385840E-02  0.14613243271E-01  0.88961517898E+00  0.88000000000E+00 0. -1.
        -11    1    3    3    0    0 -0.33192057588E-01 -0.87124526063E-02 -0.26147486254E-01  0.43145934638E-01  0.51100000000E-03 0.  1.
         11    1    3    3    0    0 -0.63134536115E-01 -0.98799577064E-02 -0.17498740031E-01  0.66257454210E-01  0.51100000000E-03 0. -1.
</event>
<event>
 8    1  0.1061721E+005  0.1043930E+01  0.7957747E-01            NaN
         13   -1    0    0    0    0  0.00000000000E+00  0.00000000000E+00  0.74505805969E-08  0.10566000000E+00  0.10566000000E+00 0.  1.
     999900   -1    0    0    0    0 -0.00000000000E+00 -0.00000000000E+00 -0.74505805969E-08  0.93827000000E+00  0.93827000000E+00 0. -1.
     999902    2    1    2    0    0  0.23130299043E-01  0.16608876881E-02  0.27142258329E-02  0.10205818458E+01  0.10203147395E+01 0.  0.
     999903    2    3    3    0    0  0.78608191027E-02  0.12714553941E+00  0.23712611443E-01  0.13130096385E+00  0.21210245159E-01 0.  0.
         14    1    1    2    0    0 -0.23130299043E-01 -0.16608876881E-02 -0.27142258329E-02  0.23348154180E-01  0.00000000000E+00 0.  1.
     999901    1    3    3    0    0  0.15269479940E-01 -0.12548465172E+00 -0.20998385610E-01  0.88928088197E+00  0.88000000000E+00 0.  1.
        -11    1    4    4    0    0  0.13570450155E-01  0.52605427206E-01  0.81458828528E-02  0.54937278941E-01  0.51100000000E-03 0.  1.
         11    1    4    4    0    0 -0.57096310526E-02  0.74540112199E-01  0.15566728590E-01  0.76363684912E-01  0.51100000000E-03 0. -1.
</event>
<event>
 7    1  0.1061721E+005  0.1043930E+01  0.7957747E-01            NaN
         13   -1    0    0    0    0  0.00000000000E+00  0.00000000000E+00  0.74505805969E-08  0.10566000000E+00  0.10566000000E+00 0. -1.
     999900   -1    0    0    0    0 -0.00000000000E+00 -0.00000000000E+00 -0.74505805969E-08  0.93827000000E+00  0.93827000000E+00 0. -1.
     999903    2    1    2    0    0 -0.83437788068E-01  0.15904647735E-01 -0.29638758465E-01  0.92236958402E-01  0.20356281454E-01 0.  0.
         14    1    1    2    0    0 -0.56578175093E-01  0.41692508735E-03  0.21238877185E-01  0.60434705489E-01  0.00000000000E+00 0.  1.
     999901    1    1    2    0    0  0.14001596316E+00 -0.16321572822E-01  0.83998812798E-02  0.89125833611E+00  0.88000000000E+00 0. -1.
        -11    1    3    3    0    0 -0.65872730110E-01  0.92852851794E-02 -0.31031699309E-01  0.73407496728E-01  0.51100000000E-03 0.  1.
         11    1    3    3    0    0 -0.17565057958E-01  0.66193625552E-02  0.13929408438E-02  0.18829461673E-01  0.51100000000E-03 0. -1.
</event>
<event>
 8    1  0.1061721E+005  0.1043930E+01  0.7957747E-01            NaN
         13   -1    0    0    0    0  0.00000000000E+00  0.00000000000E+00  0.74505805969E-08  0.10566000000E+00  0.10566000000E+00 0.  1.
     999900   -1    0    0    0    0 -0.00000000000E+00 -0.00000000000E+00 -0.74505805969E-08  0.93827000000E+00  0.93827000000E+00 0.  1.
     999902    2    1    2    0    0  0.19617777732E-01  0.66909797005E-02 -0.11978683388E-01  0.10199901740E+01  0.10197091937E+01 0.  0.
     999903    2    3    3    0    0 -0.31022710300E-01 -0.10065579759E+00 -0.73206522386E-01  0.12991341446E+00  0.20598596932E-01 0.  0.
         14    1    1    2    0    0 -0.19617777732E-01 -0.66909797005E-02  0.11978683388E-01  0.23939825985E-01  0.00000000000E+00 0. -1.
     999901    1    3    3    0    0  0.50640488032E-01  0.10734677729E+00  0.61227838998E-01  0.89007675955E+00  0.88000000000E+00 0.  1.
        -11    1    4    4    0    0 -0.24917258620E-01 -0.52554698976E-01 -0.32670588075E-01  0.66712027460E-01  0.51100000000E-03 0. -1.
         11    1    4    4    0    0 -0.61054516798E-02 -0.48101098612E-01 -0.40535934311E-01  0.63201387005E-01  0.51100000000E-03 0.  1.
</event>
<event>
 8    1  0.1061721E+005  0.1043930E+01  0.7957747E-01            NaN
         13   -1    0    0    0    0  0.00000000000E+00  0.00000000000E+00  0.74505805969E-08  0.10566000000E+00  0.10566000000E+00 0.  1.
     999900   -1    0    0    0    0 -0.00000000000E+00 -0.00000000000E+00 -0.74505805969E-08  0.93827000000E+00  0.93827000000E+00 0.  1.
     999902    2    1    2    0    0 -0.16644503162E-01 -0.74429167041E-02  0.16499357089E-01  0.10193400574E+01  0.10190434178E+01 0.  0.
     999903    2    3    3    0    0  0.10136987371E+00 -0.68030709075E-01 -0.31204354798E-01  0.12811959201E+00  0.23170874527E-01 0.  0.
         14    1    1    2    0    0  0.16644503162E-01  0.74429167041E-02 -0.16499357089E-01  0.24589942638E-01  0.00000000000E+00 0.  1.
     999901    1    3    3    0    0 -0.11801437687E+00  0.60587792371E-01  0.47703711887E-01  0.89122046535E+00  0.88000000000E+00 0. -1.
        -11    1    4    4    0    0  0.40929750734E-01 -0.28526104154E-01 -0.24553196909E-01  0.55606687662E-01  0.51100000000E-03 0.  1.
         11    1    4    4    0    0  0.60440122972E-01 -0.39504604921E-01 -0.66511578894E-02  0.72512904349E-01  0.51100000000E-03 0. -1.
</event>
<event>
 8    1  0.1061721E+005  0.1043930E+01  0.7957747E-01            NaN
         13   -1    0    0    0    0  0.00000000000E+00  0.00000000000E+00  0.74505805969E-08  0.10566000000E+00  0.10566000000E+00 0.  1.
     999900   -1    0    0    0    0 -0.00000000000E+00 -0.00000000000E+00 -0.74505805969E-08  0.93827000000E+00  0.93827000000E+00 0.  1.
     999902    2    1    2    0    0 -0.21761626969E-01  0.90778085667E-02  0.13202063043E-02  0.10203139470E+01  0.10200406033E+01 0.  0.
     999903    2    3    3    0    0  0.74429117040E-01  0.37037074063E-01  0.96459050083E-01  0.12953575944E+00  0.23742921302E-01 0.  0.
         14    1    1    2    0    0  0.21761626969E-01 -0.90778085667E-02 -0.13202063043E-02  0.23616053044E-01  0.00000000000E+00 0. -1.
     999901    1    3    3    0    0 -0.96190744009E-01 -0.27959265497E-01 -0.95138843779E-01  0.89077818752E+00  0.88000000000E+00 0.  1.
        -11    1    4    4    0    0  0.61717985149E-01  0.20086889923E-01  0.67422039807E-01  0.93587314367E-01  0.51100000000E-03 0. -1.
         11    1    4    4    0    0  0.12711131891E-01  0.16950184140E-01  0.29037010276E-01  0.35948445072E-01  0.51100000000E-03 0.  1.
</event>
<event>
 8    1  0.1061721E+005  0.1043930E+01  0.7957747E-01            NaN
         13   -1    0    0    0    0  0.00000000000E+00  0.00000000000E+00  0.74505805969E-08  0.10566000000E+00  0.10566000000E+00 0. -1.
     999900   -1    0    0    0    0 -0.00000000000E+00 -0.00000000000E+00 -0.74505805969E-08  0.93827000000E+00  0.93827000000E+00 0. -1.
     999902    2    1    2    0    0  0.12618907557E-01 -0.67777148810E-02  0.18818689324E-01  0.10202801096E+01  0.10200059729E+01 0.  0.
     999903    2    3    3    0    0  0.14257286624E-01  0.11098157625E+00  0.65830122961E-01  0.13119068227E+00  0.18899987752E-01 0.  0.
         14    1    1    2    0    0 -0.12618907557E-01  0.67777148810E-02 -0.18818689324E-01  0.23649890377E-01  0.00000000000E+00 0.  1.
     999901    1    3    3    0    0 -0.16383790663E-02 -0.11775929113E+00 -0.47011433636E-01  0.88908942735E+00  0.88000000000E+00 0. -1.
        -11    1    4    4    0    0  0.15257345679E-01  0.56552669033E-01  0.40013991997E-01  0.70939210938E-01  0.51100000000E-03 0.  1.
         11    1    4    4    0    0 -0.10000590553E-02  0.54428907218E-01  0.25816130963E-01  0.60251471334E-01  0.51100000000E-03 0. -1.
</event>
<event>
 8    1  0.1061721E+005  0.1043930E+01  0.7957747E-01            NaN
         13   -1    0    0    0    0  0.00000000000E+00  0.00000000000E+00  0.74505805969E-08  0.10566000000E+00  0.10566000000E+00 0. -1.
     999900   -1    0    0    0    0 -0.00000000000E+00 -0.00000000000E+00 -0.74505805969E-08  0.93827000000E+00  0.93827000000E+00 0. -1.
     999902    2    1    2    0    0  0.20379012887E-02  0.17505174192E-01 -0.14201536692E-01  0.10212966660E+01  0.10210458423E+01 0.  0.
     999903    2    3    3    0    0 -0.62234567392E-01  0.11614752082E+00 -0.38709112990E-02  0.13339577927E+00  0.20397597907E-01 0.  0.
         14    1    1    2    0    0 -0.20379012887E-02 -0.17505174192E-01  0.14201536692E-01  0.22633334036E-01  0.00000000000E+00 0. -1.
     999901    1    3    3    0    0  0.64272468681E-01 -0.98642346629E-01 -0.10330625393E-01  0.88790088670E+00  0.88000000000E+00 0.  1.
        -11    1    4    4    0    0 -0.44806993990E-01  0.63636362769E-01 -0.56727970928E-02  0.78036498671E-01  0.51100000000E-03 0.  1.
         11    1    4    4    0    0 -0.17427573402E-01  0.52511158052E-01  0.18018857937E-02  0.55359280595E-01  0.51100000000E-03 0. -1.
</event>
<event>
 8    1  0.1061721E+005  0.1043930E+01  0.7957747E-01            NaN
         13   -1    0    0    0    0  0.00000000000E+00  0.00000000000E+00  0.74505805969E-08  0.10566000000E+00  0.10566000000E+00 0.  1.
     999900   -1    0    0    0    0 -0.00000000000E+00 -0.00000000000E+00 -0.74505805969E-08  0.93827000000E+00  0.93827000000E+00 0. -1.
     999902    2    1    2    0    0 -0.23367710931E-01 -0.50950005798E-02 -0.48408490306E-03  0.10200083930E+01  0.10197278453E+01 0.  0.
     999903    2    3    3    0    0 -0.12354183334E+00  0.43082590890E-01  0.15044858463E-01  0.13287983227E+00  0.17663743534E-01 0.  0.
         14    1    1    2    0    0  0.23367710931E-01  0.50950005798E-02  0.48408490306E-03  0.23921607037E-01  0.00000000000E+00 0.  1.
     999901    1    3    3    0    0  0.10017412240E+00 -0.48177591470E-01 -0.15528943366E-01  0.88712856070E+00  0.88000000000E+00 0. -1.
        -11    1    4    4    0    0 -0.86003846443E-01  0.24137599562E-01  0.40727680533E-02  0.89421104199E-01  0.51100000000E-03 0. -1.
         11    1    4    4    0    0 -0.37537986892E-01  0.18944991328E-01  0.10972090410E-01  0.43458728068E-01  0.51100000000E-03 0.  1.
</event>
<event>
 8    1  0.1061721E+005  0.1043930E+01  0.7957747E-01            NaN
         13   -1    0    0    0    0  0.00000000000E+00  0.00000000000E+00  0.74505805969E-08  0.10566000000E+00  0.10566000000E+00 0. -1.
     999900   -1    0    0    0    0 -0.00000000000E+00 -0.00000000000E+00 -0.74505805969E-08  0.93827000000E+00  0.93827000000E+00 0. -1.
     999902    2    1    2    0    0 -0.22524753740E-01 -0.45486010717E-02  0.48888652815E-02  0.10204362709E+01  0.10201657844E+01 0.  0.
     999903    2    3    3    0    0  0.63353044349E-01  0.11027654064E+00  0.10299412389E-02  0.12882273318E+00  0.20486877798E-01 0.  0.
         14    1    1    2    0    0  0.22524753740E-01  0.45486010717E-02 -0.48888652815E-02  0.23493729089E-01  0.00000000000E+00 0. -1.
     999901    1    3    3    0    0 -0.85877798089E-01 -0.11482514171E+00  0.38589240427E-02  0.89161353773E+00  0.88000000000E+00 0. -1.
        -11    1    4    4    0    0  0.34108806131E-01  0.39248062341E-01  0.84059555504E-03  0.52007583823E-01  0.51100000000E-03 0.  1.
         11    1    4    4    0    0  0.29244238218E-01  0.71028478295E-01  0.18934568382E-03  0.76815149356E-01  0.51100000000E-03 0. -1.
</event>
<event>
 8    1  0.1061721E+005  0.1043930E+01  0.7957747E-01            NaN
         13   -1    0    0    0    0  0.00000000000E+00  0.00000000000E+00  0.74505805969E-08  0.10566000000E+00  0.10566000000E+00 0.  1.
     999900   -1    0    0    0    0 -0.00000000000E+00 -0.00000000000E+00 -0.74505805969E-08  0.93827000000E+00  0.93827000000E+00 0.  1.
     999902    2    1    2    0    0 -0.43755031511E-02  0.24324682190E-01 -0.22634722246E-04  0.10192149094E+01  0.10189152054E+01 0.  0.
     999903    2    3    3    0    0 -0.10877716002E-01  0.12191675632E+00 -0.46897633917E-01  0.13255614907E+00  0.19741438940E-01 0.  0.
         14    1    1    2    0    0  0.43755031511E-02 -0.24324682190E-01  0.22634722246E-04  0.24715090609E-01  0.00000000000E+00 0. -1.
     999901    1    3    3    0    0  0.65022128513E-02 -0.97592074133E-01  0.46874999195E-01  0.88665876032E+00  0.88000000000E+00 0. -1.
        -11    1    4    4    0    0 -0.38044932440E-02  0.62618330099E-02 -0.66063952658E-02  0.98787803344E-02  0.51100000000E-03 0.  1.
         11    1    4    4    0    0 -0.70732227585E-02  0.11565492331E+00 -0.40291238651E-01  0.12267736874E+00  0.51100000000E-03 0. -1.
</event>
<event>
 8    1  0.1061721E+005  0.1043930E+01  0.7957747E-01            NaN
         13   -1    0    0    0    0  0.00000000000E+00  0.00000000000E+00  0.74505805969E-08  0.10566000000E+00  0.10566000000E+00 0. -1.
     999900   -1    0    0    0    0 -0.00000000000E+00 -0.00000000000E+00 -0.74505805969E-08  0.93827000000E+00  0.93827000000E+00 0.  1.
     999902    2    1    2    0    0 -0.22143462289E-01  0.76723014562E-02  0.70652189753E-02  0.10194531854E+01  0.10191593020E+01 0.  0.
     999903    2    3    3    0    0  0.10188604174E-01 -0.66786178229E-01 -0.10717208779E+00  0.12836419439E+00  0.20671447485E-01 0.  0.
         14    1    1    2    0    0  0.22143462289E-01 -0.76723014562E-02 -0.70652189753E-02  0.24476814559E-01  0.00000000000E+00 0.  1.
     999901    1    3    3    0    0 -0.32332066463E-01  0.74458479686E-01  0.11423730677E+00  0.89108899105E+00  0.88000000000E+00 0. -1.
        -11    1    4    4    0    0  0.13995170817E-01 -0.52699048553E-01 -0.94145775230E-01  0.10879679517E+00  0.51100000000E-03 0.  1.
         11    1    4    4    0    0 -0.38065666427E-02 -0.14087129677E-01 -0.13026312564E-01  0.19567399218E-01  0.51100000000E-03 0. -1.
</event>
<event>
 8    1  0.1061721E+005  0.1043930E+01  0.7957747E-01            NaN
         13   -1    0    0    0    0  0.00000000000E+00  0.00000000000E+00  0.74505805969E-08  0.10566000000E+00  0.10566000000E+00 0. -1.
     999900   -1    0    0    0    0 -0.00000000000E+00 -0.00000000000E+00 -0.74505805969E-08  0.93827000000E+00  0.93827000000E+00 0. -1.
     999902    2    1    2    0    0 -0.20612321479E-02  0.21667482868E-01 -0.87934881777E-02  0.10204554622E+01  0.10201854225E+01 0.  0.
     999903    2    3    3    0    0  0.68804257837E-01  0.49056948597E-01  0.97822536525E-01  0.13077064314E+00  0.19776307844E-01 0.  0.
         14    1    1    2    0    0  0.20612321479E-02 -0.21667482868E-01  0.87934881777E-02  0.23474537826E-01  0.00000000000E+00 0. -1.
     999901    1    3    3    0    0 -0.70865489985E-01 -0.27389465729E-01 -0.10661602470E+00  0.88968481904E+00  0.88000000000E+00 0. -1.
        -11    1    4    4    0    0  0.22856434072E-01  0.75001027470E-02  0.35559196067E-01  0.42934667410E-01  0.51100000000E-03 0.  1.
         11    1    4    4    0    0  0.45947823765E-01  0.41556845850E-01  0.62263340458E-01  0.87835975726E-01  0.51100000000E-03 0. -1.
</event>
<event>
 8    1  0.1061721E+005  0.1043930E+01  0.7957747E-01            NaN
         13   -1    0    0    0    0  0.00000000000E+00  0.00000000000E+00  0.74505805969E-08  0.10566000000E+00  0.10566000000E+00 0. -1.
     999900   -1    0    0    0    0 -0.00000000000E+00 -0.00000000000E+00 -0.74505805969E-08  0.93827000000E+00  0.93827000000E+00 0.  1.
     999902    2    1    2    0    0 -0.18227303666E-01 -0.15038214512E-01  0.26925763470E-02  0.10201469711E+01  0.10198697026E+01 0.  0.
     999903    2    3    3    0    0 -0.98807292751E-02  0.97950253514E-01  0.81559311410E-01  0.12938548728E+00  0.19919891249E-01 0.  0.
         14    1    1    2    0    0  0.18227303666E-01  0.15038214512E-01 -0.26925763470E-02  0.23783028866E-01  0.00000000000E+00 0.  1.
     999901    1    3    3    0    0 -0.83465743912E-02 -0.11298846803E+00 -0.78866735063E-01  0.89076148385E+00  0.88000000000E+00 0.  1.
        -11    1    4    4    0    0 -0.13682888662E-01  0.84212806419E-01  0.63408107613E-01  0.10630083461E+00  0.51100000000E-03 0. -1.
         11    1    4    4    0    0  0.38021593866E-02  0.13737447096E-01  0.18151203797E-01  0.23084652672E-01  0.51100000000E-03 0.  1.
</event>
<event>
 8    1  0.1061721E+005  0.1043930E+01  0.7957747E-01            NaN
         13   -1    0    0    0    0  0.00000000000E+00  0.00000000000E+00  0.74505805969E-08  0.10566000000E+00  0.10566000000E+00 0.  1.
     999900   -1    0    0    0    0 -0.00000000000E+00 -0.00000000000E+00 -0.74505805969E-08  0.93827000000E+00  0.93827000000E+00 0. -1.
     999902    2    1    2    0    0 -0.12220988734E-01 -0.16610431886E-01  0.93882860700E-02  0.10212716918E+01  0.10210203081E+01 0.  0.
     999903    2    3    3    0    0 -0.55081905940E-01  0.70348893249E-01 -0.92489252702E-01  0.13010503215E+00  0.19750300790E-01 0.  0.
         14    1    1    2    0    0  0.12220988734E-01  0.16610431886E-01 -0.93882860700E-02  0.22658308154E-01  0.00000000000E+00 0. -1.
     999901    1    3    3    0    0  0.42860917206E-01 -0.86959325135E-01  0.10187753877E+00  0.89116665970E+00  0.88000000000E+00 0.  1.
        -11    1    4    4    0    0 -0.47625900967E-01  0.48168870034E-01 -0.63526826179E-01  0.92867568336E-01  0.51100000000E-03 0.  1.
         11    1    4    4    0    0 -0.74560049729E-02  0.22180023215E-01 -0.28962426523E-01  0.37237463811E-01  0.51100000000E-03 0. -1.
</event>
<event>
 8    1  0.1061721E+005  0.1043930E+01  0.7957747E-01            NaN
         13   -1    0    0    0    0  0.00000000000E+00  0.00000000000E+00  0.74505805969E-08  0.10566000000E+00  0.10566000000E+00 0. -1.
     999900   -1    0    0    0    0 -0.00000000000E+00 -0.00000000000E+00 -0.74505805969E-08  0.93827000000E+00  0.93827000000E+00 0.  1.
     999902    2    1    2    0    0  0.37200387011E-03  0.23045679253E-01 -0.42166573632E-02  0.10204987832E+01  0.10202297509E+01 0.  0.
     999903    2    3    3    0    0  0.91645504935E-01  0.73190184849E-01  0.57691459974E-01  0.13219819312E+00  0.19807977587E-01 0.  0.
         14    1    1    2    0    0 -0.37200387011E-03 -0.23045679253E-01  0.42166573632E-02  0.23431216751E-01  0.00000000000E+00 0. -1.
     999901    1    3    3    0    0 -0.91273501065E-01 -0.50144505596E-01 -0.61908117338E-01  0.88830059013E+00  0.88000000000E+00 0.  1.
        -11    1    4    4    0    0  0.38477255970E-01  0.40597715851E-01  0.34152744419E-01  0.65538880305E-01  0.51100000000E-03 0. -1.
         11    1    4    4    0    0  0.53168248965E-01  0.32592468999E-01  0.23538715555E-01  0.66659312811E-01  0.51100000000E-03 0.  1.
</event>
<event>
 8    1  0.1061721E+005  0.1043930E+01  0.7957747E-01            NaN
         13   -1    0    0    0    0  0.00000000000E+00  0.00000000000E+00  0.74505805969E-08  0.10566000000E+00  0.10566000000E+00 0.  1.
     999900   -1    0    0    0    0 -0.00000000000E+00 -0.00000000000E+00 -0.74505805969E-08  0.93827000000E+00  0.93827000000E+00 0.  1.
     999902    2    1    2    0    0 -0.10022690436E-01  0.21337775452E-01 -0.36530484222E-02  0.10200741884E+01  0.10197952001E+01 0.  0.
     999903    2    3    3    0    0 -0.64769173619E-01 -0.81532156686E-01 -0.74639006005E-01  0.12955837914E+00  0.19283515284E-01 0.  0.
         14    1    1    2    0    0  0.10022690436E-01 -0.21337775452E-01  0.36530484222E-02  0.23855811610E-01  0.00000000000E+00 0.  1.
     999901    1    3    3    0    0  0.54746483183E-01  0.10286993214E+00  0.70985957583E-01  0.89051580925E+00  0.88000000000E+00 0. -1.
        -11    1    4    4    0    0 -0.46317820473E-01 -0.48688381856E-01 -0.56239986821E-01  0.87630452810E-01  0.51100000000E-03 0.  1.
         11    1    4    4    0    0 -0.18451353146E-01 -0.32843774830E-01 -0.18399019183E-01  0.41927926325E-01  0.51100000000E-03 0. -1.
</event>
<event>
 8    1  0.1061721E+005  0.1043930E+01  0.7957747E-01            NaN
         13   -1    0    0    0    0  0.00000000000E+00  0.00000000000E+00  0.74505805969E-08  0.10566000000E+00  0.10566000000E+00 0. -1.
     999900   -1    0    0    0    0 -0.00000000000E+00 -0.00000000000E+00 -0.74505805969E-08  0.93827000000E+00  0.93827000000E+00 0. -1.
     999902    2    1    2    0    0 -0.16932968394E-01  0.98244317720E-02  0.13253384157E-01  0.10202889960E+01  0.10200150677E+01 0.  0.
     999903    2    3    3    0    0 -0.10823488819E+00  0.48207758281E-01  0.58391462810E-01  0.13358342680E+00  0.19904522266E-01 0.  0.
         14    1    1    2    0    0  0.16932968394E-01 -0.98244317720E-02 -0.13253384157E-01  0.23641003995E-01  0.00000000000E+00 0.  1.
     999901    1    3    3    0    0  0.91301919797E-01 -0.38383326509E-01 -0.45138078652E-01  0.88670556920E+00  0.88000000000E+00 0. -1.
        -11    1    4    4    0    0 -0.57504230403E-01  0.14742074975E-01  0.28394261909E-01  0.65806994454E-01  0.51100000000E-03 0. -1.
         11    1    4    4    0    0 -0.50730657789E-01  0.33465683305E-01  0.29997200901E-01  0.67776432347E-01  0.51100000000E-03 0.  1.
</event>
<event>
 8    1  0.1061721E+005  0.1043930E+01  0.7957747E-01            NaN
         13   -1    0    0    0    0  0.00000000000E+00  0.00000000000E+00  0.74505805969E-08  0.10566000000E+00  0.10566000000E+00 0. -1.
     999900   -1    0    0    0    0 -0.00000000000E+00 -0.00000000000E+00 -0.74505805969E-08  0.93827000000E+00  0.93827000000E+00 0.  1.
     999902    2    1    2    0    0  0.22191686996E-01 -0.53979539604E-02 -0.60158041249E-02  0.10203122360E+01  0.10200388522E+01 0.  0.
     999903    2    3    3    0    0 -0.76765060731E-01  0.99299073499E-01  0.17632692881E-01  0.12828468208E+00  0.19820879182E-01 0.  0.
         14    1    1    2    0    0 -0.22191686996E-01  0.53979539604E-02  0.60158041249E-02  0.23617764033E-01  0.00000000000E+00 0. -1.
     999901    1    3    3    0    0  0.98956747727E-01 -0.10469702746E+00 -0.23648497006E-01  0.89202755389E+00  0.88000000000E+00 0.  1.
        -11    1    4    4    0    0 -0.31827382896E-01  0.32182580642E-01  0.14193189735E-01  0.47438471251E-01  0.51100000000E-03 0.  1.
         11    1    4    4    0    0 -0.44937677835E-01  0.67116492857E-01  0.34395031463E-02  0.80846210830E-01  0.51100000000E-03 0. -1.
</event>
<event>
 8    1  0.1061721E+005  0.1043930E+01  0.7957747E-01            NaN
         13   -1    0    0    0    0  0.00000000000E+00  0.00000000000E+00  0.74505805969E-08  0.10566000000E+00  0.10566000000E+00 0.  1.
     999900   -1    0    0    0    0 -0.00000000000E+00 -0.00000000000E+00 -0.74505805969E-08  0.93827000000E+00  0.93827000000E+00 0.  1.
     999902    2    1    2    0    0 -0.21733444500E-02 -0.51760904603E-02 -0.21933770343E-01  0.10212892045E+01  0.10210382136E+01 0.  0.
     999903    2    3    3    0    0  0.33220868382E-01  0.12508258500E+00 -0.67062939992E-02  0.13086686154E+00  0.18217626166E-01 0.  0.
         14    1    1    2    0    0  0.21733444500E-02  0.51760904603E-02  0.21933770343E-01  0.22640795481E-01  0.00000000000E+00 0.  1.
     999901    1    3    3    0    0 -0.35394212832E-01 -0.13025867547E+00 -0.15227476344E-01  0.89042234298E+00  0.88000000000E+00 0. -1.
        -11    1    4    4    0    0  0.17090671494E-01  0.32660084842E-01 -0.25807346938E-02  0.36955290644E-01  0.51100000000E-03 0.  1.
         11    1    4    4    0    0  0.16130196888E-01  0.92422500163E-01 -0.41255593054E-02  0.93911570898E-01  0.51100000000E-03 0. -1.
</event>
<event>
 8    1  0.1061721E+005  0.1043930E+01  0.7957747E-01            NaN
         13   -1    0    0    0    0  0.00000000000E+00  0.00000000000E+00  0.74505805969E-08  0.10566000000E+00  0.10566000000E+00 0.  1.
     999900   -1    0    0    0    0 -0.00000000000E+00 -0.00000000000E+00 -0.74505805969E-08  0.93827000000E+00  0.93827000000E+00 0. -1.
     999902    2    1    2    0    0 -0.97408717888E-02  0.14290940100E-01  0.15944446107E-01  0.10204068005E+01  0.10201356271E+01 0.  0.
     999903    2    3    3    0    0  0.69110548558E-01 -0.10216854272E+00  0.32511215844E-01  0.12908485224E+00  0.19779809830E-01 0.  0.
         14    1    1    2    0    0  0.97408717888E-02 -0.14290940100E-01 -0.15944446107E-01  0.23523199480E-01  0.00000000000E+00 0. -1.
     999901    1    3    3    0    0 -0.78851420347E-01  0.11645948282E+00 -0.16566769737E-01  0.89132194828E+00  0.88000000000E+00 0. -1.
        -11    1    4    4    0    0  0.20385226475E-01 -0.25529786748E-01  0.17399980986E-01  0.37018210778E-01  0.51100000000E-03 0.  1.
         11    1    4    4    0    0  0.48725322083E-01 -0.76638755976E-01  0.15111234858E-01  0.92066641460E-01  0.51100000000E-03 0. -1.
</event>
<event>
 8    1  0.1061721E+005  0.1043930E+01  0.7957747E-01            NaN
         13   -1    0    0    0    0  0.00000000000E+00  0.00000000000E+00  0.74505805969E-08  0.10566000000E+00  0.10566000000E+00 0.  1.
     999900   -1    0    0    0    0 -0.00000000000E+00 -0.00000000000E+00 -0.74505805969E-08  0.93827000000E+00  0.93827000000E+00 0.  1.
     999902    2    1    2    0    0  0.16418793336E-01 -0.50218756325E-03  0.17532007522E-01  0.10199050077E+01  0.10196220008E+01 0.  0.
     999903    2    3    3    0    0 -0.31290443370E-01 -0.10878081757E+00  0.64009694368E-01  0.13077025506E+00  0.13829696988E-01 0.  0.
         14    1    1    2    0    0 -0.16418793336E-01  0.50218756325E-03 -0.17532007522E-01  0.24024992293E-01  0.00000000000E+00 0. -1.
     999901    1    3    3    0    0  0.47709236706E-01  0.10827863001E+00 -0.46477686846E-01  0.88913475264E+00  0.88000000000E+00 0. -1.
        -11    1    4    4    0    0 -0.13741273561E-01 -0.65286534611E-01  0.32087717324E-01  0.74034025452E-01  0.51100000000E-03 0.  1.
         11    1    4    4    0    0 -0.17549169809E-01 -0.43494282959E-01  0.31921977044E-01  0.56736229611E-01  0.51100000000E-03 0. -1.
</event>
<event>
 8    1  0.1061721E+005  0.1043930E+01  0.7957747E-01            NaN
         13   -1    0    0    0    0  0.00000000000E+00  0.00000000000E+00  0.74505805969E-08  0.10566000000E+00  0.10566000000E+00 0. -1.
     999900   -1    0    0    0    0 -0.00000000000E+00 -0.00000000000E+00 -0.74505805969E-08  0.93827000000E+00  0.93827000000E+00 0. -1.
     999902    2    1    2    0    0  0.20182002337E-02 -0.12319326835E-01  0.24220362737E-01  0.10166817906E+01  0.10163165837E+01 0.  0.
     999903    2    3    3    0    0  0.35157488831E-01 -0.94524269490E-01  0.80311425135E-01  0.13045265975E+00  0.19926988840E-01 0.  0.
         14    1    1    2    0    0 -0.20182002337E-02  0.12319326835E-01 -0.24220362737E-01  0.27248209426E-01  0.00000000000E+00 0.  1.
     999901    1    3    3    0    0 -0.33139288597E-01  0.82204942655E-01 -0.56091062398E-01  0.88622913083E+00  0.88000000000E+00 0.  1.
        -11    1    4    4    0    0  0.13717300203E-01 -0.48477549186E-01  0.51534641720E-01  0.72071613817E-01  0.51100000000E-03 0. -1.
         11    1    4    4    0    0  0.21440188628E-01 -0.46046720303E-01  0.28776783415E-01  0.58381045929E-01  0.51100000000E-03 0.  1.
</event>
<event>
 8    1  0.1061721E+005  0.1043930E+01  0.7957747E-01            NaN
         13   -1    0    0    0    0  0.00000000000E+00  0.00000000000E+00  0.74505805969E-08  0.10566000000E+00  0.10566000000E+00 0.  1.
     999900   -1    0    0    0    0 -0.00000000000E+00 -0.00000000000E+00 -0.74505805969E-08  0.93827000000E+00  0.93827000000E+00 0. -1.
     999902    2    1    2    0    0  0.16943194252E-01 -0.32425942797E-02  0.15947872640E-01  0.10204370034E+01  0.10201665339E+01 0.  0.
     999903    2    3    3    0    0  0.14116818323E-01 -0.93011322028E-01 -0.87961073776E-01  0.12978360163E+00  0.16007565912E-01 0.  0.
         14    1    1    2    0    0 -0.16943194252E-01  0.32425942797E-02 -0.15947872640E-01  0.23492996635E-01  0.00000000000E+00 0. -1.
     999901    1    3    3    0    0  0.28263759292E-02  0.89768727749E-01  0.10390894642E+00  0.89065340174E+00  0.88000000000E+00 0.  1.
        -11    1    4    4    0    0 -0.21591942140E-02 -0.34005084806E-01 -0.28132822042E-01  0.44189644820E-01  0.51100000000E-03 0.  1.
         11    1    4    4    0    0  0.16276012537E-01 -0.59006237223E-01 -0.59828251735E-01  0.85593956807E-01  0.51100000000E-03 0. -1.
</event>
<event>
 8    1  0.1061721E+005  0.1043930E+01  0.7957747E-01            NaN
         13   -1    0    0    0    0  0.00000000000E+00  0.00000000000E+00  0.74505805969E-08  0.10566000000E+00  0.10566000000E+00 0.  1.
     999900   -1    0    0    0    0 -0.00000000000E+00 -0.00000000000E+00 -0.74505805969E-08  0.93827000000E+00  0.93827000000E+00 0. -1.
     999902    2    1    2    0    0 -0.12128445094E-01  0.34371153446E-03 -0.17115156837E-01  0.10229503453E+01  0.10227351871E+01 0.  0.
     999903    2    3    3    0    0  0.54308770297E-01  0.11877264677E+00 -0.69598375908E-02  0.13247718635E+00  0.21104061498E-01 0.  0.
         14    1    1    2    0    0  0.12128445094E-01 -0.34371153446E-03  0.17115156837E-01  0.20979654706E-01  0.00000000000E+00 0.  1.
     999901    1    3    3    0    0 -0.66437215391E-01 -0.11842893524E+00 -0.10155319246E-01  0.89047315894E+00  0.88000000000E+00 0. -1.
        -11    1    4    4    0    0  0.32982234791E-01  0.76841299521E-01  0.55197680450E-02  0.83804188941E-01  0.51100000000E-03 0. -1.
         11    1    4    4    0    0  0.21326535506E-01  0.41931347251E-01 -0.12479605636E-01  0.48672997409E-01  0.51100000000E-03 0.  1.
</event>
<event>
 8    1  0.1061721E+005  0.1043930E+01  0.7957747E-01            NaN
         13   -1    0    0    0    0  0.00000000000E+00  0.00000000000E+00  0.74505805969E-08  0.10566000000E+00  0.10566000000E+00 0. -1.
     999900   -1    0    0    0    0 -0.00000000000E+00 -0.00000000000E+00 -0.74505805969E-08  0.93827000000E+00  0.93827000000E+00 0. -1.
     999902    2    1    2    0    0 -0.15338817707E-01 -0.14748197312E-01  0.10088133657E-01  0.10203809216E+01  0.10201091442E+01 0.  0.
     999903    2    3    3    0    0  0.86136196488E-01 -0.85616729754E-01  0.44184112129E-01  0.13106541902E+00  0.21822913142E-01 0.  0.
         14    1    1    2    0    0  0.15338817707E-01  0.14748197312E-01 -0.10088133657E-01  0.23549078395E-01  0.00000000000E+00 0.  1.
     999901    1    3    3    0    0 -0.10147501420E+00  0.70868532442E-01 -0.34095978472E-01  0.88931550259E+00  0.88000000000E+00 0. -1.
        -11    1    4    4    0    0  0.61696974569E-02 -0.15747391727E-01  0.30928220279E-02  0.17200935498E-01  0.51100000000E-03 0. -1.
         11    1    4    4    0    0  0.79966499032E-01 -0.69869338027E-01  0.41091290101E-01  0.11386448352E+00  0.51100000000E-03 0.  1.
</event>
<event>
 8    1  0.1061721E+005  0.1043930E+01  0.7957747E-01            NaN
         13   -1    0    0    0    0  0.00000000000E+00  0.00000000000E+00  0.74505805969E-08  0.10566000000E+00  0.10566000000E+00 0.  1.
     999900   -1    0    0    0    0 -0.00000000000E+00 -0.00000000000E+00 -0.74505805969E-08  0.93827000000E+00  0.93827000000E+00 0. -1.
     999902    2    1    2    0    0  0.10038569545E-01 -0.12890528496E-01 -0.16467552343E-01  0.10207326104E+01  0.10204689819E+01 0.  0.
     999903    2    3    3    0    0 -0.54267481698E-01 -0.88550077310E-01  0.76078960670E-01  0.13032568511E+00  0.20265739125E-01 0.  0.
         14    1    1    2    0    0 -0.10038569545E-01  0.12890528496E-01  0.16467552343E-01  0.23197389586E-01  0.00000000000E+00 0.  1.
     999901    1    3    3    0    0  0.64306051243E-01  0.75659548814E-01 -0.92546513013E-01  0.89040692530E+00  0.88000000000E+00 0. -1.
        -11    1    4    4    0    0  0.10458242427E-02 -0.73756496948E-02  0.38658650751E-02  0.84083286417E-02  0.51100000000E-03 0.  1.
         11    1    4    4    0    0 -0.55313305941E-01 -0.81174427615E-01  0.72213095595E-01  0.12191735647E+00  0.51100000000E-03 0. -1.
</event>
<event>
 8    1  0.1061721E+005  0.1043930E+01  0.7957747E-01            NaN
         13   -1    0    0    0    0  0.00000000000E+00  0.00000000000E+00  0.74505805969E-08  0.10566000000E+00  0.10566000000E+00 0. -1.
     999900   -1    0    0    0    0 -0.00000000000E+00 -0.00000000000E+00 -0.74505805969E-08  0.93827000000E+00  0.93827000000E+00 0.  1.
     999902    2    1    2    0    0  0.21178191583E-01 -0.96788725611E-02  0.11428579589E-02  0.10206168600E+01  0.10203505635E+01 0.  0.
     999903    2    3    3    0    0  0.19003963922E-01 -0.58004051058E-01 -0.11496490786E+00  0.13167306906E+00  0.19880807160E-01 0.  0.
         14    1    1    2    0    0 -0.21178191583E-01  0.96788725611E-02 -0.11428579589E-02  0.23313140010E-01  0.00000000000E+00 0.  1.
     999901    1    3    3    0    0  0.21742276611E-02  0.48325178497E-01  0.11610776582E+00  0.88894379093E+00  0.88000000000E+00 0. -1.
        -11    1    4    4    0    0  0.21251422716E-01 -0.43469494467E-01 -0.76842603197E-01  0.90808957177E-01  0.51100000000E-03 0. -1.
         11    1    4    4    0    0 -0.22474587936E-02 -0.14534556591E-01 -0.38122304665E-01  0.40864111887E-01  0.51100000000E-03 0.  1.
</event>
<event>
 8    1  0.1061721E+005  0.1043930E+01  0.7957747E-01            NaN
         13   -1    0    0    0    0  0.00000000000E+00  0.00000000000E+00  0.74505805969E-08  0.10566000000E+00  0.10566000000E+00 0.  1.
     999900   -1    0    0    0    0 -0.00000000000E+00 -0.00000000000E+00 -0.74505805969E-08  0.93827000000E+00  0.93827000000E+00 0.  1.
     999902    2    1    2    0    0  0.21469567162E-01  0.26765241832E-02 -0.62726401613E-02  0.10214033023E+01  0.10211548628E+01 0.  0.
     999903    2    3    3    0    0 -0.60321542320E-01  0.43640245337E-01  0.10436770777E+00  0.12977047502E+00  0.20114628556E-01 0.  0.
         14    1    1    2    0    0 -0.21469567162E-01 -0.26765241832E-02  0.62726401613E-02  0.22526697725E-01  0.00000000000E+00 0.  1.
     999901    1    3    3    0    0  0.81791109481E-01 -0.40963721154E-01 -0.11064034793E+00  0.89163282725E+00  0.88000000000E+00 0.  1.
        -11    1    4    4    0    0 -0.28033624042E-01  0.30088824870E-01  0.66511083306E-01  0.78199787612E-01  0.51100000000E-03 0.  1.
         11    1    4    4    0    0 -0.32287918278E-01  0.13551420467E-01  0.37856624464E-01  0.51570687412E-01  0.51100000000E-03 0. -1.
</event>
<event>
 8    1  0.1061721E+005  0.1043930E+01  0.7957747E-01            NaN
         13   -1    0    0    0    0  0.00000000000E+00  0.00000000000E+00  0.74505805969E-08  0.10566000000E+00  0.10566000000E+00 0. -1.
     999900   -1    0    0    0    0 -0.00000000000E+00 -0.00000000000E+00 -0.74505805969E-08  0.93827000000E+00  0.93827000000E+00 0.  1.
     999902    2    1    2    0    0  0.20114413169E-01  0.11649907194E-01 -0.75398341535E-02  0.10194931620E+01  0.10192002493E+01 0.  0.
     999903    2    3    3    0    0 -0.82563840243E-01 -0.92320406723E-02 -0.96615939895E-01  0.12881171941E+00  0.18862686060E-01 0.  0.
         14    1    1    2    0    0 -0.20114413169E-01 -0.11649907194E-01  0.75398341535E-02  0.24436838049E-01  0.00000000000E+00 0. -1.
     999901    1    3    3    0    0  0.10267825341E+00  0.20881947866E-01  0.89076105741E-01  0.89068144254E+00  0.88000000000E+00 0. -1.
        -11    1    4    4    0    0 -0.46889236820E-01 -0.26987609910E-02 -0.40636704512E-01  0.62108668598E-01  0.51100000000E-03 0. -1.
         11    1    4    4    0    0 -0.35674603423E-01 -0.65332796813E-02 -0.55979235382E-01  0.66703050813E-01  0.51100000000E-03 0.  1.
</event>
<event>
 8    1  0.1061721E+005  0.1043930E+01  0.7957747E-01            NaN
         13   -1    0    0    0    0  0.00000000000E+00  0.00000000000E+00  0.74505805969E-08  0.10566000000E+00  0.10566000000E+00 0. -1.
     999900   -1    0    0    0    0 -0.00000000000E+00 -0.00000000000E+00 -0.74505805969E-08  0.93827000000E+00  0.93827000000E+00 0. -1.
     999902    2    1    2    0    0 -0.13198568100E-01  0.20471379631E-01  0.33808459152E-02  0.10193391541E+01  0.10190424924E+01 0.  0.
     999903    2    3    3    0    0 -0.78793932169E-01  0.81587452102E-02 -0.10184279622E+00  0.13056113477E+00  0.19980137627E-01 0.  0.
         14    1    1    2    0    0  0.13198568100E-01 -0.20471379631E-01 -0.33808459152E-02  0.24590845919E-01  0.00000000000E+00 0. -1.
     999901    1    3    3    0    0  0.65595364070E-01  0.12312634421E-01  0.10522364213E+00  0.88877801932E+00  0.88000000000E+00 0.  1.
        -11    1    4    4    0    0 -0.22004151708E-01  0.77984569024E-02 -0.42027364382E-01  0.48078676150E-01  0.51100000000E-03 0.  1.
         11    1    4    4    0    0 -0.56789780461E-01  0.36028830781E-03 -0.59815431838E-01  0.82482458617E-01  0.51100000000E-03 0. -1.
</event>
<event>
 8    1  0.1061721E+005  0.1043930E+01  0.7957747E-01            NaN
         13   -1    0    0    0    0  0.00000000000E+00  0.00000000000E+00  0.74505805969E-08  0.10566000000E+00  0.10566000000E+00 0. -1.
     999900   -1    0    0    0    0 -0.00000000000E+00 -0.00000000000E+00 -0.74505805969E-08  0.93827000000E+00  0.93827000000E+00 0.  1.
     999902    2    1    2    0    0 -0.58287866111E-02 -0.22503815951E-01 -0.27291185297E-02  0.10205239202E+01  0.10202554715E+01 0.  0.
     999903    2    3    3    0    0  0.77738987983E-01 -0.30563450744E-01 -0.99080564813E-01  0.13129271745E+00  0.21055748809E-01 0.  0.
         14    1    1    2    0    0  0.58287866111E-02  0.22503815951E-01  0.27291185297E-02  0.23406079844E-01  0.00000000000E+00 0.  1.
     999901    1    3    3    0    0 -0.83567774595E-01  0.80596347929E-02  0.96351446283E-01  0.88923120271E+00  0.88000000000E+00 0. -1.
        -11    1    4    4    0    0  0.25791186777E-01 -0.19589901904E-01 -0.29874682039E-01  0.44064808180E-01  0.51100000000E-03 0. -1.
         11    1    4    4    0    0  0.51947801206E-01 -0.10973548840E-01 -0.69205882774E-01  0.87227909271E-01  0.51100000000E-03 0.  1.
</event>
<event>
 8    1  0.1061721E+005  0.1043930E+01  0.7957747E-01            NaN
         13   -1    0    0    0    0  0.00000000000E+00  0.00000000000E+00  0.74505805969E-08  0.10566000000E+00  0.10566000000E+00 0.  1.
     999900   -1    0    0    0    0 -0.00000000000E+00 -0.00000000000E+00 -0.74505805969E-08  0.93827000000E+00  0.93827000000E+00 0.  1.
     999902    2    1    2    0    0  0.23094765078E-01 -0.25032376631E-02 -0.42490151055E-03  0.10206960827E+01  0.10204316137E+01 0.  0.
     999903    2    3    3    0    0  0.76048857423E-01 -0.10492875731E+00  0.19165307333E-01  0.13295800236E+00  0.22738701789E-01 0.  0.
         14    1    1    2    0    0 -0.23094765078E-01  0.25032376631E-02  0.42490151055E-03  0.23233917321E-01  0.00000000000E+00 0. -1.
     999901    1    3    3    0    0 -0.52954092345E-01  0.10242551965E+00 -0.19590208843E-01  0.88773808032E+00  0.88000000000E+00 0.  1.
        -11    1    4    4    0    0  0.17709980314E-01 -0.14171384031E-01 -0.27794071378E-02  0.22857334777E-01  0.51100000000E-03 0. -1.
         11    1    4    4    0    0  0.58338877109E-01 -0.90757373282E-01  0.21944714470E-01  0.11010066758E+00  0.51100000000E-03 0.  1.
</event>
<event>
 8    1  0.1061721E+005  0.1043930E+01  0.7957747E-01            NaN
         13   -1    0    0    0    0  0.00000000000E+00  0.00000000000E+00  0.74505805969E-08  0.10566000000E+00  0.10566000000E+00 0. -1.
     999900   -1    0    0    0    0 -0.00000000000E+00 -0.00000000000E+00 -0.74505805969E-08  0.93827000000E+00  0.93827000000E+00 0.  1.
     999902    2    1    2    0    0 -0.10405214498E-01  0.65467674861E-02 -0.20267810686E-01  0.10202253000E+01  0.10199498762E+01 0.  0.
     999903    2    3    3    0    0  0.74609445274E-02 -0.11940831726E+00 -0.47518431152E-01  0.13065996829E+00  0.22360994891E-01 0.  0.
         14    1    1    2    0    0  0.10405214498E-01 -0.65467674861E-02  0.20267810686E-01  0.23704700025E-01  0.00000000000E+00 0. -1.
     999901    1    3    3    0    0 -0.17866159026E-01  0.12595508474E+00  0.27250620466E-01  0.88956533168E+00  0.88000000000E+00 0. -1.
        -11    1    4    4    0    0  0.59662334621E-02 -0.89432744995E-01 -0.24757879705E-01  0.92989384058E-01  0.51100000000E-03 0. -1.
         11    1    4    4    0    0  0.14947110652E-02 -0.29975572261E-01 -0.22760551447E-01  0.37670584237E-01  0.51100000000E-03 0.  1.
</event>
<event>
 8    1  0.1061721E+005  0.1043930E+01  0.7957747E-01            NaN
         13   -1    0    0    0    0  0.00000000000E+00  0.00000000000E+00  0.74505805969E-08  0.10566000000E+00  0.10566000000E+00 0.  1.
     999900   -1    0    0    0    0 -0.00000000000E+00 -0.00000000000E+00 -0.74505805969E-08  0.93827000000E+00  0.93827000000E+00 0.  1.
     999902    2    1    2    0    0  0.14209660580E-01  0.10358987292E-01 -0.15916225810E-01  0.10202118779E+01  0.10199361384E+01 0.  0.
     999903    2    3    3    0    0 -0.88428565550E-02 -0.12529181421E+00 -0.24781800697E-01  0.12947557747E+00  0.19327511393E-01 0.  0.
         14    1    1    2    0    0 -0.14209660580E-01 -0.10358987292E-01  0.15916225810E-01  0.23718122092E-01  0.00000000000E+00 0.  1.
     999901    1    3    3    0    0  0.23052517135E-01  0.13565080150E+00  0.88655748863E-02  0.89073630043E+00  0.88000000000E+00 0. -1.
        -11    1    4    4    0    0  0.55369234397E-03 -0.10134614933E+00 -0.19328321915E-01  0.10317554801E+00  0.51100000000E-03 0.  1.
         11    1    4    4    0    0 -0.93965488989E-02 -0.23945664879E-01 -0.54534787817E-02  0.26300029459E-01  0.51100000000E-03 0. -1.
</event>
<event>
 8    1  0.1061721E+005  0.1043930E+01  0.7957747E-01            NaN
         13   -1    0    0    0    0  0.00000000000E+00  0.00000000000E+00  0.74505805969E-08  0.10566000000E+00  0.10566000000E+00 0. -1.
     999900   -1    0    0    0    0 -0.00000000000E+00 -0.00000000000E+00 -0.74505805969E-08  0.93827000000E+00  0.93827000000E+00 0.  1.
     999902    2    1    2    0    0 -0.54090182948E-02 -0.20073432735E-01 -0.11725146554E-01  0.10200620457E+01  0.10197827699E+01 0.  0.
     999903    2    3    3    0    0  0.68043067233E-01  0.10239651267E+00 -0.29528140887E-01  0.12837205305E+00  0.22193875150E-01 0.  0.
         14    1    1    2    0    0  0.54090182948E-02  0.20073432735E-01  0.11725146554E-01  0.23867954299E-01  0.00000000000E+00 0. -1.
     999901    1    3    3    0    0 -0.73452085528E-01 -0.12246994540E+00  0.17802994333E-01  0.89168999266E+00  0.88000000000E+00 0.  1.
        -11    1    4    4    0    0  0.32832481029E-01  0.32344829056E-01 -0.57961189129E-02  0.46454449654E-01  0.51100000000E-03 0.  1.
         11    1    4    4    0    0  0.35210586204E-01  0.70051683610E-01 -0.23732021974E-01  0.81917603392E-01  0.51100000000E-03 0. -1.
</event>
<event>
 8    1  0.1061721E+005  0.1043930E+01  0.7957747E-01            NaN
         13   -1    0    0    0    0  0.00000000000E+00  0.00000000000E+00  0.74505805969E-08  0.10566000000E+00  0.10566000000E+00 0.  1.
     999900   -1    0    0    0    0 -0.00000000000E+00 -0.00000000000E+00 -0.74505805969E-08  0.93827000000E+00  0.93827000000E+00 0.  1.
     999902    2    1    2    0    0  0.12899668279E-01 -0.16541899844E-01 -0.94307779521E-02  0.10209305334E+01  0.10206714351E+01 0.  0.
     999903    2    3    3    0    0 -0.11263897991E+00 -0.12397231797E-01 -0.61571746703E-01  0.13048356074E+00  0.19840576551E-01 0.  0.
         14    1    1    2    0    0 -0.12899668279E-01  0.16541899844E-01  0.94307779521E-02  0.22999466623E-01  0.00000000000E+00 0.  1.
     999901    1    3    3    0    0  0.12553864819E+00 -0.41446680468E-02  0.52140968751E-01  0.89044697264E+00  0.88000000000E+00 0. -1.
        -11    1    4    4    0    0 -0.44753463544E-01 -0.11725673911E-01 -0.32978060939E-01  0.56817053357E-01  0.51100000000E-03 0. -1.
         11    1    4    4    0    0 -0.67885516370E-01 -0.67155788618E-03 -0.28593685764E-01  0.73666507378E-01  0.51100000000E-03 0.  1.
</event>
<event>
 8    1  0.1061721E+005  0.1043930E+01  0.7957747E-01            NaN
         13   -1    0    0    0    0  0.00000000000E+00  0.00000000000E+00  0.74505805969E-08  0.10566000000E+00  0.10566000000E+00 0. -1.
     999900   -1    0    0    0    0 -0.00000000000E+00 -0.00000000000E+00 -0.74505805969E-08  0.93827000000E+00  0.93827000000E+00 0.  1.
     999902    2    1    2    0    0  0.40698502737E-02 -0.17975703306E-02 -0.22918570601E-01  0.10205835695E+01  0.10203165031E+01 0.  0.
     999903    2    3    3    0    0  0.78106199342E-01 -0.49579279918E-01 -0.94061561697E-01  0.13332611081E+00  0.19224751291E-01 0.  0.
         14    1    1    2    0    0 -0.40698502737E-02  0.17975703306E-02  0.22918570601E-01  0.23346430536E-01  0.00000000000E+00 0. -1.
     999901    1    3    3    0    0 -0.74036349069E-01  0.47781709588E-01  0.71142991095E-01  0.88725745865E+00  0.88000000000E+00 0. -1.
        -11    1    4    4    0    0  0.70717914833E-01 -0.40650265230E-01 -0.88829392797E-01  0.12060012308E+00  0.51100000000E-03 0. -1.
         11    1    4    4    0    0  0.73882845090E-02 -0.89290146883E-02 -0.52321689000E-02  0.12725987729E-01  0.51100000000E-03 0.  1.
</event>
<event>
 8    1  0.1061721E+005  0.1043930E+01  0.7957747E-01            NaN
         13   -1    0    0    0    0  0.00000000000E+00  0.00000000000E+00  0.74505805969E-08  0.10566000000E+00  0.10566000000E+00 0.  1.
     999900   -1    0    0    0    0 -0.00000000000E+00 -0.00000000000E+00 -0.74505805969E-08  0.93827000000E+00  0.93827000000E+00 0. -1.
     999902    2    1    2    0    0 -0.20906970103E-01 -0.79716691868E-02  0.11133301293E-01  0.10189380152E+01  0.10186314738E+01 0.  0.
     999903    2    3    3    0    0 -0.23566550789E-01 -0.86306417011E-01 -0.91504967987E-01  0.12951234631E+00  0.19902480939E-01 0.  0.
         14    1    1    2    0    0  0.20906970103E-01  0.79716691868E-02 -0.11133301293E-01  0.24991984839E-01  0.00000000000E+00 0.  1.
     999901    1    3    3    0    0  0.26595806859E-02  0.78334747824E-01  0.10263826928E+00  0.88942566885E+00  0.88000000000E+00 0.  1.
        -11    1    4    4    0    0 -0.16783216601E-01 -0.30783315881E-01 -0.42902128334E-01  0.55408867817E-01  0.51100000000E-03 0. -1.
         11    1    4    4    0    0 -0.67833341884E-02 -0.55523101130E-01 -0.48602839653E-01  0.74103478495E-01  0.51100000000E-03 0.  1.
</event>
<event>
 8    1  0.1061721E+005  0.1043930E+01  0.7957747E-01            NaN
         13   -1    0    0    0    0  0.00000000000E+00  0.00000000000E+00  0.74505805969E-08  0.10566000000E+00  0.10566000000E+00 0.  1.
     999900   -1    0    0    0    0 -0.00000000000E+00 -0.00000000000E+00 -0.74505805969E-08  0.93827000000E+00  0.93827000000E+00 0.  1.
     999902    2    1    2    0    0 -0.15542054864E-01  0.47670426138E-02  0.33864206892E-01  0.10063658592E+01  0.10056645454E+01 0.  0.
     999903    2    3    3    0    0 -0.10905677963E+00  0.41829747872E-01 -0.13792617912E-01  0.11935412264E+00  0.20299292860E-01 0.  0.
         14    1    1    2    0    0  0.15542054864E-01 -0.47670426138E-02 -0.33864206892E-01  0.37564140787E-01  0.00000000000E+00 0. -1.
     999901    1    3    3    0    0  0.93514724771E-01 -0.37062705258E-01  0.47656824804E-01  0.88701173657E+00  0.88000000000E+00 0. -1.
        -11    1    4    4    0    0 -0.59241243225E-01  0.24766844640E-01 -0.17531748193E-01  0.66562337760E-01  0.51100000000E-03 0. -1.
         11    1    4    4    0    0 -0.49815536409E-01  0.17062903232E-01  0.37391302809E-02  0.52791784879E-01  0.51100000000E-03 0.  1.
</event>
<event>
 8    1  0.1061721E+005  0.1043930E+01  0.7957747E-01            NaN
         13   -1    0    0    0    0  0.00000000000E+00  0.00000000000E+00  0.74505805969E-08  0.10566000000E+00  0.10566000000E+00 0. -1.
     999900   -1    0    0    0    0 -0.00000000000E+00 -0.00000000000E+00 -0.74505805969E-08  0.93827000000E+00  0.93827000000E+00 0.  1.
     999902    2    1    2    0    0  0.12098415910E-01 -0.15570681666E-01 -0.11562379797E-01  0.10210716006E+01  0.10208157068E+01 0.  0.
     999903    2    3    3    0    0  0.10713318811E+00  0.53581282905E-01  0.50135013148E-01  0.13111644984E+00  0.18152961239E-01 0.  0.
         14    1    1    2    0    0 -0.12098415910E-01  0.15570681666E-01  0.11562379797E-01  0.22858399367E-01  0.00000000000E+00 0.  1.
     999901    1    3    3    0    0 -0.95034772202E-01 -0.69151964570E-01 -0.61697392945E-01  0.88995515080E+00  0.88000000000E+00 0.  1.
        -11    1    4    4    0    0  0.15540972587E-01  0.15443899244E-01  0.81378881641E-02  0.23377814218E-01  0.51100000000E-03 0.  1.
         11    1    4    4    0    0  0.91592215525E-01  0.38137383660E-01  0.41997124984E-01  0.10773863562E+00  0.51100000000E-03 0. -1.
</event>
<event>
 8    1  0.1061721E+005  0.1043930E+01  0.7957747E-01            NaN
         13   -1    0    0    0    0  0.00000000000E+00  0.00000000000E+00  0.74505805969E-08  0.10566000000E+00  0.10566000000E+00 0. -1.
     999900   -1    0    0    0    0 -0.00000000000E+00 -0.00000000000E+00 -0.74505805969E-08  0.93827000000E+00  0.93827000000E+00 0. -1.
     999902    2    1    2    0    0  0.24146209720E-01 -0.26591366768E-02  0.98881578770E-03  0.10196176943E+01  0.10193277953E+01 0.  0.
     999903    2    3    3    0    0  0.10001597878E+00 -0.79977622025E-01 -0.27224213089E-01  0.13252674911E+00  0.20556396001E-01 0.  0.
         14    1    1    2    0    0 -0.24146209720E-01  0.26591366768E-02 -0.98881578770E-03  0.24312305699E-01  0.00000000000E+00 0. -1.
     999901    1    3    3    0    0 -0.75869769060E-01  0.77318485348E-01  0.28213028876E-01  0.88709094519E+00  0.88000000000E+00 0.  1.
        -11    1    4    4    0    0  0.66731236101E-01 -0.62042438998E-01 -0.12604719627E-01  0.91986206500E-01  0.51100000000E-03 0. -1.
         11    1    4    4    0    0  0.33284742679E-01 -0.17935183026E-01 -0.14619493461E-01  0.40540542614E-01  0.51100000000E-03 0.  1.
</event>
<event>
 8    1  0.1061721E+005  0.1043930E+01  0.7957747E-01            NaN
         13   -1    0    0    0    0  0.00000000000E+00  0.00000000000E+00  0.74505805969E-08  0.10566000000E+00  0.10566000000E+00 0. -1.
     999900   -1    0    0    0    0 -0.00000000000E+00 -0.00000000000E+00 -0.74505805969E-08  0.93827000000E+00  0.93827000000E+00 0. -1.
     999902    2    1    2    0    0 -0.11567888911E-01  0.15777751857E-01  0.12699050608E-01  0.10206057767E+01  0.10203392240E+01 0.  0.
     999903    2    3    3    0    0  0.97156413346E-01 -0.12299927790E-01  0.83994916019E-01  0.13061002925E+00  0.20326754462E-01 0.  0.
         14    1    1    2    0    0  0.11567888911E-01 -0.15777751857E-01 -0.12699050608E-01  0.23324223328E-01  0.00000000000E+00 0.  1.
     999901    1    3    3    0    0 -0.10872430226E+00  0.28077679648E-01 -0.71295865411E-01  0.88999574742E+00  0.88000000000E+00 0. -1.
        -11    1    4    4    0    0  0.79523759044E-01 -0.16541869238E-01  0.74076683941E-01  0.10993306106E+00  0.51100000000E-03 0.  1.
         11    1    4    4    0    0  0.17632654302E-01  0.42419414473E-02  0.99182320783E-02  0.20676968190E-01  0.51100000000E-03 0. -1.
</event>
<event>
 8    1  0.1061721E+005  0.1043930E+01  0.7957747E-01            NaN
         13   -1    0    0    0    0  0.00000000000E+00  0.00000000000E+00  0.74505805969E-08  0.10566000000E+00  0.10566000000E+00 0. -1.
     999900   -1    0    0    0    0 -0.00000000000E+00 -0.00000000000E+00 -0.74505805969E-08  0.93827000000E+00  0.93827000000E+00 0.  1.
     999902    2    1    2    0    0 -0.22834598062E-01 -0.12317140179E-01 -0.47631427507E-02  0.10175516312E+01  0.10172096656E+01 0.  0.
     999903    2    3    3    0    0  0.24004194358E-01  0.47191150454E-01  0.11435263711E+00  0.12630324937E+00  0.85310702786E-02 0.  0.
         14    1    1    2    0    0  0.22834598062E-01  0.12317140179E-01  0.47631427507E-02  0.26378368784E-01  0.00000000000E+00 0. -1.
     999901    1    3    3    0    0 -0.46838792420E-01 -0.59508290633E-01 -0.11911577986E+00  0.89124838184E+00  0.88000000000E+00 0.  1.
        -11    1    4    4    0    0  0.15242204607E-01  0.23224243511E-01  0.52681501451E-01  0.59559147107E-01  0.51100000000E-03 0.  1.
         11    1    4    4    0    0  0.87619897512E-02  0.23966906943E-01  0.61671135658E-01  0.66744102265E-01  0.51100000000E-03 0. -1.
</event>
<event>
 8    1  0.1061721E+005  0.1043930E+01  0.7957747E-01            NaN
         13   -1    0    0    0    0  0.00000000000E+00  0.00000000000E+00  0.74505805969E-08  0.10566000000E+00  0.10566000000E+00 0.  1.
     999900   -1    0    0    0    0 -0.00000000000E+00 -0.00000000000E+00 -0.74505805969E-08  0.93827000000E+00  0.93827000000E+00 0. -1.
     999902    2    1    2    0    0 -0.11933768066E-01 -0.13234633824E-01 -0.15761195137E-01  0.10201395476E+01  0.10198621039E+01 0.  0.
     999903    2    3    3    0    0 -0.91195151085E-02  0.77117752470E-01 -0.10377710613E+00  0.13114108062E+00  0.19949485369E-01 0.  0.
         14    1    1    2    0    0  0.11933768066E-01  0.13234633824E-01  0.15761195137E-01  0.23790452389E-01  0.00000000000E+00 0. -1.
     999901    1    3    3    0    0 -0.28142529580E-02 -0.90352386294E-01  0.88015910996E-01  0.88899846699E+00  0.88000000000E+00 0.  1.
        -11    1    4    4    0    0 -0.89059676009E-02  0.64379597728E-01 -0.96831511287E-01  0.11662183141E+00  0.51100000000E-03 0. -1.
         11    1    4    4    0    0 -0.21354750758E-03  0.12738154742E-01 -0.69455948454E-02  0.14519249207E-01  0.51100000000E-03 0.  1.
</event>
<event>
 8    1  0.1061721E+005  0.1043930E+01  0.7957747E-01            NaN
         13   -1    0    0    0    0  0.00000000000E+00  0.00000000000E+00  0.74505805969E-08  0.10566000000E+00  0.10566000000E+00 0. -1.
     999900   -1    0    0    0    0 -0.00000000000E+00 -0.00000000000E+00 -0.74505805969E-08  0.93827000000E+00  0.93827000000E+00 0.  1.
     999902    2    1    2    0    0 -0.20639666730E-01  0.10400196914E-01  0.54450381467E-02  0.10201853505E+01  0.10199089866E+01 0.  0.
     999903    2    3    3    0    0 -0.50271321806E-01 -0.10031956957E+00  0.64270013110E-01  0.13080507226E+00  0.19700520555E-01 0.  0.
         14    1    1    2    0    0  0.20639666730E-01 -0.10400196914E-01 -0.54450381467E-02  0.23744649482E-01  0.00000000000E+00 0.  1.
     999901    1    3    3    0    0  0.29631655076E-01  0.11071976648E+00 -0.58824974963E-01  0.88938027826E+00  0.88000000000E+00 0. -1.
        -11    1    4    4    0    0 -0.29419817184E-01 -0.39365189390E-01  0.22720516577E-01  0.54144499013E-01  0.51100000000E-03 0. -1.
         11    1    4    4    0    0 -0.20851504622E-01 -0.60954380176E-01  0.41549496533E-01  0.76660573249E-01  0.51100000000E-03 0.  1.
</event>
<event>
 8    1  0.1061721E+005  0.1043930E+01  0.7957747E-01            NaN
         13   -1    0    0    0    0  0.00000000000E+00  0.00000000000E+00  0.74505805969E-08  0.10566000000E+00  0.10566000000E+00 0. -1.
     999900   -1    0    0    0    0 -0.00000000000E+00 -0.00000000000E+00 -0.74505805969E-08  0.93827000000E+00  0.93827000000E+00 0.  1.
     999902    2    1    2    0    0  0.84924336611E-02  0.99780659843E-02 -0.21138924613E-01  0.10190595886E+01  0.10187560590E+01 0.  0.
     999903    2    3    3    0    0 -0.70486266978E-01  0.97556727577E-01  0.41929337130E-01  0.12895551447E+00  0.19642466004E-01 0.  0.
         14    1    1    2    0    0 -0.84924336611E-02 -0.99780659843E-02  0.21138924613E-01  0.24870411417E-01  0.00000000000E+00 0. -1.
     999901    1    3    3    0    0  0.78978700639E-01 -0.87578661593E-01 -0.63068261743E-01  0.89010407412E+00  0.88000000000E+00 0.  1.
        -11    1    4    4    0    0 -0.23513951003E-01  0.47639473289E-01  0.22611869345E-01  0.57740653472E-01  0.51100000000E-03 0. -1.
         11    1    4    4    0    0 -0.46972315975E-01  0.49917254288E-01  0.19317467784E-01  0.71214860993E-01  0.51100000000E-03 0.  1.
</event>
<event>
 8    1  0.1061721E+005  0.1043930E+01  0.7957747E-01            NaN
         13   -1    0    0    0    0  0.00000000000E+00  0.00000000000E+00  0.74505805969E-08  0.10566000000E+00  0.10566000000E+00 0. -1.
     999900   -1    0    0    0    0 -0.00000000000E+00 -0.00000000000E+00 -0.74505805969E-08  0.93827000000E+00  0.93827000000E+00 0. -1.
     999902    2    1    2    0    0  0.67576372001E-03  0.30304722666E-02  0.22087339474E-01  0.10216254941E+01  0.10213819850E+01 0.  0.
     999903    2    3    3    0    0 -0.39726149311E-01  0.92025463262E-01 -0.81127302437E-01  0.13021891721E+00  0.18123861943E-01 0.  0.
         14    1    1    2    0    0 -0.67576372001E-03 -0.30304722666E-02 -0.22087339474E-01  0.22304505908E-01  0.00000000000E+00 0.  1.
     999901    1    3    3    0    0  0.40401913031E-01 -0.88994990996E-01  0.10321464191E+00  0.89140657688E+00  0.88000000000E+00 0. -1.
        -11    1    4    4    0    0 -0.27799603784E-01  0.71614243459E-01 -0.70597878667E-01  0.10433474699E+00  0.51100000000E-03 0.  1.
         11    1    4    4    0    0 -0.11926545527E-01  0.20411219804E-01 -0.10529423770E-01  0.25884170220E-01  0.51100000000E-03 0. -1.
</event>
<event>
 8    1  0.1061721E+005  0.1043930E+01  0.7957747E-01            NaN
         13   -1    0    0    0    0  0.00000000000E+00  0.00000000000E+00  0.74505805969E-08  0.10566000000E+00  0.10566000000E+00 0.  1.
     999900   -1    0    0    0    0 -0.00000000000E+00 -0.00000000000E+00 -0.74505805969E-08  0.93827000000E+00  0.93827000000E+00 0. -1.
     999902    2    1    2    0    0 -0.20545882703E-01  0.70723357212E-02 -0.88094148976E-02  0.10204831021E+01  0.10202137054E+01 0.  0.
     999903    2    3    3    0    0 -0.10473655231E+00 -0.65049231293E-01 -0.44978094022E-01  0.13279072151E+00  0.20228665160E-01 0.  0.
         14    1    1    2    0    0  0.20545882703E-01 -0.70723357212E-02  0.88094148976E-02  0.23446897864E-01  0.00000000000E+00 0.  1.
     999901    1    3    3    0    0  0.84190669610E-01  0.72121567014E-01  0.36168679125E-01  0.88769238063E+00  0.88000000000E+00 0.  1.
        -11    1    4    4    0    0 -0.81632913911E-01 -0.52823647562E-01 -0.43734497964E-01  0.10661724911E+00  0.51100000000E-03 0. -1.
         11    1    4    4    0    0 -0.23103638402E-01 -0.12225583731E-01 -0.12435960588E-02  0.26173472393E-01  0.51100000000E-03 0.  1.
</event>
<event>
 8    1  0.1061721E+005  0.1043930E+01  0.7957747E-01            NaN
         13   -1    0    0    0    0  0.00000000000E+00  0.00000000000E+00  0.74505805969E-08  0.10566000000E+00  0.10566000000E+00 0. -1.
     999900   -1    0    0    0    0 -0.00000000000E+00 -0.00000000000E+00 -0.74505805969E-08  0.93827000000E+00  0.93827000000E+00 0. -1.
     999902    2    1    2    0    0  0.21602391231E-01 -0.88659168940E-02  0.48458765865E-02  0.10200815135E+01  0.10198026985E+01 0.  0.
     999903    2    3    3    0    0  0.12801034227E+00  0.21794803099E-01  0.20320587758E-01  0.13300643296E+00  0.20399111555E-01 0.  0.
         14    1    1    2    0    0 -0.21602391231E-01  0.88659168940E-02 -0.48458765865E-02  0.23848486517E-01  0.00000000000E+00 0.  1.
     999901    1    3    3    0    0 -0.10640795104E+00 -0.30660719993E-01 -0.15474711171E-01  0.88707508052E+00  0.88000000000E+00 0.  1.
        -11    1    4    4    0    0  0.74803833970E-01  0.20662422354E-01  0.18361763568E-01  0.79749387186E-01  0.51100000000E-03 0. -1.
         11    1    4    4    0    0  0.53206508300E-01  0.11323807452E-02  0.19588241900E-02  0.53257045776E-01  0.51100000000E-03 0.  1.
</event>
<event>
 8    1  0.1061721E+005  0.1043930E+01  0.7957747E-01            NaN
         13   -1    0    0    0    0  0.00000000000E+00  0.00000000000E+00  0.74505805969E-08  0.10566000000E+00  0.10566000000E+00 0.  1.
     999900   -1    0    0    0    0 -0.00000000000E+00 -0.00000000000E+00 -0.74505805969E-08  0.93827000000E+00  0.93827000000E+00 0. -1.
     999902    2    1    2    0    0 -0.22736055914E-01  0.27732446296E-02  0.25671376510E-01  0.10095259494E+01  0.10089395442E+01 0.  0.
     999903    2    3    3    0    0  0.29705642933E-01 -0.11300809679E+00 -0.14829868348E-01  0.11947212991E+00  0.20010239085E-01 0.  0.
         14    1    1    2    0    0  0.22736055914E-01 -0.27732446296E-02 -0.25671376510E-01  0.34404050578E-01  0.00000000000E+00 0. -1.
     999901    1    3    3    0    0 -0.52441698846E-01  0.11578134141E+00  0.40501244858E-01  0.89005381951E+00  0.88000000000E+00 0. -1.
        -11    1    4    4    0    0  0.14092067229E-01 -0.60119465525E-01  0.20927351959E-02  0.61786545100E-01  0.51100000000E-03 0.  1.
         11    1    4    4    0    0  0.15613575704E-01 -0.52888631260E-01 -0.16922603544E-01  0.57685584807E-01  0.51100000000E-03 0. -1.
</event>
<event>
 8    1  0.1061721E+005  0.1043930E+01  0.7957747E-01            NaN
         13   -1    0    0    0    0  0.00000000000E+00  0.00000000000E+00  0.74505805969E-08  0.10566000000E+00  0.10566000000E+00 0.  1.
     999900   -1    0    0    0    0 -0.00000000000E+00 -0.00000000000E+00 -0.74505805969E-08  0.93827000000E+00  0.93827000000E+00 0.  1.
     999902    2    1    2    0    0 -0.11811268347E-01 -0.21075221610E-01  0.25601367390E-02  0.10196354466E+01  0.10193459759E+01 0.  0.
     999903    2    3    3    0    0 -0.15459486202E-01  0.52300956980E-01  0.11557941786E+00  0.12937103025E+00  0.20096661872E-01 0.  0.
         14    1    1    2    0    0  0.11811268347E-01  0.21075221610E-01 -0.25601367390E-02  0.24294553423E-01  0.00000000000E+00 0. -1.
     999901    1    3    3    0    0  0.36482178550E-02 -0.73376178590E-01 -0.11301928113E+00  0.89026441633E+00  0.88000000000E+00 0.  1.
        -11    1    4    4    0    0 -0.44530976664E-02  0.26946860028E-01  0.78522595098E-01  0.83138573515E-01  0.51100000000E-03 0.  1.
         11    1    4    4    0    0 -0.11006388536E-01  0.25354096952E-01  0.37056822767E-01  0.46232456732E-01  0.51100000000E-03 0. -1.
</event>
<event>
 8    1  0.1061721E+005  0.1043930E+01  0.7957747E-01            NaN
         13   -1    0    0    0    0  0.00000000000E+00  0.00000000000E+00  0.74505805969E-08  0.10566000000E+00  0.10566000000E+00 0.  1.
     999900   -1    0    0    0    0 -0.00000000000E+00 -0.00000000000E+00 -0.74505805969E-08  0.93827000000E+00  0.93827000000E+00 0.  1.
     999902    2    1    2    0    0  0.17621091996E-01  0.49631436340E-02  0.13387098709E-01  0.10212507123E+01  0.10209988577E+01 0.  0.
     999903    2    3    3    0    0  0.87203567498E-01  0.65342970193E-01 -0.72574908251E-01  0.13227550963E+00  0.18855428997E-01 0.  0.
         14    1    1    2    0    0 -0.17621091996E-01 -0.49631436340E-02 -0.13387098709E-01  0.22679287681E-01  0.00000000000E+00 0. -1.
     999901    1    3    3    0    0 -0.69582475502E-01 -0.60379826558E-01  0.85962006960E-01  0.88897520269E+00  0.88000000000E+00 0. -1.
        -11    1    4    4    0    0  0.11888553274E-01  0.17861332947E-01 -0.12005284677E-01  0.24591724111E-01  0.51100000000E-03 0. -1.
         11    1    4    4    0    0  0.75315014224E-01  0.47481637246E-01 -0.60569623574E-01  0.10768378552E+00  0.51100000000E-03 0.  1.
</event>
<event>
 8    1  0.1061721E+005  0.1043930E+01  0.7957747E-01            NaN
         13   -1    0    0    0    0  0.00000000000E+00  0.00000000000E+00  0.74505805969E-08  0.10566000000E+00  0.10566000000E+00 0. -1.
     999900   -1    0    0    0    0 -0.00000000000E+00 -0.00000000000E+00 -0.74505805969E-08  0.93827000000E+00  0.93827000000E+00 0.  1.
     999902    2    1    2    0    0  0.11470234011E-01  0.25306924314E-01 -0.91421351915E-02  0.10146796099E+01  0.10142579186E+01 0.  0.
     999903    2    3    3    0    0  0.27507134769E-01  0.11878116266E+00 -0.38016441858E-01  0.12911293198E+00  0.18955006917E-01 0.  0.
         14    1    1    2    0    0 -0.11470234011E-01 -0.25306924314E-01  0.91421351915E-02  0.29250390123E-01  0.00000000000E+00 0.  1.
     999901    1    3    3    0    0 -0.16036900759E-01 -0.93474238342E-01  0.28874306667E-01  0.88556667790E+00  0.88000000000E+00 0. -1.
        -11    1    4    4    0    0  0.58649160033E-02  0.38156252765E-01 -0.20877409480E-01  0.43891049342E-01  0.51100000000E-03 0. -1.
         11    1    4    4    0    0  0.21642218766E-01  0.80624909891E-01 -0.17139032378E-01  0.85221882636E-01  0.51100000000E-03 0.  1.
</event>
<event>
 8    1  0.1061721E+005  0.1043930E+01  0.7957747E-01            NaN
         13   -1    0    0    0    0  0.00000000000E+00  0.00000000000E+00  0.74505805969E-08  0.10566000000E+00  0.10566000000E+00 0. -1.
     999900   -1    0    0    0    0 -0.00000000000E+00 -0.00000000000E+00 -0.74505805969E-08  0.93827000000E+00  0.93827000000E+00 0.  1.
     999902    2    1    2    0    0 -0.55507501376E-02  0.14363799872E-01  0.18508456625E-01  0.10198531950E+01  0.10195689514E+01 0.  0.
     999903    2    3    3    0    0 -0.12259740245E+00 -0.27429973671E-01  0.31634891732E-01  0.13102309781E+00  0.19589773892E-01 0.  0.
         14    1    1    2    0    0  0.55507501376E-02 -0.14363799872E-01 -0.18508456625E-01  0.24076805031E-01  0.00000000000E+00 0.  1.
     999901    1    3    3    0    0  0.11704665231E+00  0.41793773543E-01 -0.13126435107E-01  0.88883009716E+00  0.88000000000E+00 0.  1.
        -11    1    4    4    0    0 -0.44034304778E-01 -0.11250569560E-01  0.21135277213E-01  0.50125406498E-01  0.51100000000E-03 0. -1.
         11    1    4    4    0    0 -0.78563097671E-01 -0.16179404111E-01  0.10499614519E-01  0.80897691308E-01  0.51100000000E-03 0.  1.
</event>
<event>
 8    1  0.1061721E+005  0.1043930E+01  0.7957747E-01            NaN
         13   -1    0    0    0    0  0.00000000000E+00  0.00000000000E+00  0.74505805969E-08  0.10566000000E+00  0.10566000000E+00 0.  1.
     999900   -1    0    0    0    0 -0.00000000000E+00 -0.00000000000E+00 -0.74505805969E-08  0.93827000000E+00  0.93827000000E+00 0.  1.
     999902    2    1    2    0    0 -0.20899333426E-01 -0.77872812371E-02  0.79877288258E-02  0.10202397552E+01  0.10199646712E+01 0.  0.
     999903    2    3    3    0    0 -0.38167127745E-01  0.51054184302E-01 -0.11176609726E+00  0.13001423678E+00  0.18675703306E-01 0.  0.
         14    1    1    2    0    0  0.20899333426E-01  0.77872812371E-02 -0.79877288258E-02  0.23690244796E-01  0.00000000000E+00 0. -1.
     999901    1    3    3    0    0  0.17267794319E-01 -0.58841465539E-01  0.11975382609E+00  0.89022551842E+00  0.88000000000E+00 0. -1.
        -11    1    4    4    0    0 -0.19169294033E-01  0.31598236491E-01 -0.47173808543E-01  0.59929456168E-01  0.51100000000E-03 0. -1.
         11    1    4    4    0    0 -0.18997833712E-01  0.19455947811E-01 -0.64592288717E-01  0.70084780614E-01  0.51100000000E-03 0.  1.
</event>
<event>
 8    1  0.1061721E+005  0.1043930E+01  0.7957747E-01            NaN
         13   -1    0    0    0    0  0.00000000000E+00  0.00000000000E+00  0.74505805969E-08  0.10566000000E+00  0.10566000000E+00 0.  1.
     999900   -1    0    0    0    0 -0.00000000000E+00 -0.00000000000E+00 -0.74505805969E-08  0.93827000000E+00  0.93827000000E+00 0.  1.
     999902    2    1    2    0    0  0.22566791535E-01 -0.97959004827E-03  0.69155632718E-02  0.10203070304E+01  0.10200335247E+01 0.  0.
     999903    2    3    3    0    0  0.77124600662E-01  0.28175188396E-01 -0.10064545184E+00  0.13160239578E+00  0.21157465114E-01 0.  0.
         14    1    1    2    0    0 -0.22566791535E-01  0.97959004827E-03 -0.69155632718E-02  0.23622969589E-01  0.00000000000E+00 0.  1.
     999901    1    3    3    0    0 -0.54557809126E-01 -0.29154778444E-01  0.10756101511E+00  0.88870463463E+00  0.88000000000E+00 0. -1.
        -11    1    4    4    0    0  0.47154819433E-01  0.82001539109E-02 -0.66780001767E-01  0.82162334904E-01  0.51100000000E-03 0. -1.
         11    1    4    4    0    0  0.29969781228E-01  0.19975034485E-01 -0.33865450075E-01  0.49440060875E-01  0.51100000000E-03 0.  1.
</event>
<event>
 8    1  0.1061721E+005  0.1043930E+01  0.7957747E-01            NaN
         13   -1    0    0    0    0  0.00000000000E+00  0.00000000000E+00  0.74505805969E-08  0.10566000000E+00  0.10566000000E+00 0. -1.
     999900   -1    0    0    0    0 -0.00000000000E+00 -0.00000000000E+00 -0.74505805969E-08  0.93827000000E+00  0.93827000000E+00 0. -1.
     999902    2    1    2    0    0 -0.52446598935E-02 -0.11437665850E-01 -0.21873668928E-01  0.10186954196E+01  0.10183828228E+01 0.  0.
     999903    2    3    3    0    0  0.51393038568E-01 -0.75961295520E-01 -0.92551343506E-01  0.13169685059E+00  0.19155846121E-01 0.  0.
         14    1    1    2    0    0  0.52446598935E-02  0.11437665850E-01  0.21873668928E-01  0.25234580437E-01  0.00000000000E+00 0. -1.
     999901    1    3    3    0    0 -0.56637698462E-01  0.64523629670E-01  0.70677674579E-01  0.88699856897E+00  0.88000000000E+00 0.  1.
        -11    1    4    4    0    0  0.32876781781E-01 -0.60408593383E-01 -0.60920937901E-01  0.91878739274E-01  0.51100000000E-03 0.  1.
         11    1    4    4    0    0  0.18516256787E-01 -0.15552702137E-01 -0.31630405605E-01  0.39818111318E-01  0.51100000000E-03 0. -1.
</event>
<event>
 8    1  0.1061721E+005  0.1043930E+01  0.7957747E-01            NaN
         13   -1    0    0    0    0  0.00000000000E+00  0.00000000000E+00  0.74505805969E-08  0.10566000000E+00  0.10566000000E+00 0. -1.
     999900   -1    0    0    0    0 -0.00000000000E+00 -0.00000000000E+00 -0.74505805969E-08  0.93827000000E+00  0.93827000000E+00 0.  1.
     999902    2    1    2    0    0  0.50267160443E-02 -0.16220393687E-01 -0.16682179783E-01  0.10201252911E+01  0.10198475108E+01 0.  0.
     999903    2    3    3    0    0  0.33495359380E-01 -0.10068348081E+00  0.74157067695E-01  0.13097049822E+00  0.19872048406E-01 0.  0.
         14    1    1    2    0    0 -0.50267160443E-02  0.16220393687E-01  0.16682179783E-01  0.23804708943E-01  0.00000000000E+00 0. -1.
     999901    1    3    3    0    0 -0.28468643335E-01  0.84463087121E-01 -0.90839247478E-01  0.88915479284E+00  0.88000000000E+00 0.  1.
        -11    1    4    4    0    0  0.63735058038E-02 -0.25437846555E-01  0.29062930394E-01  0.39148699310E-01  0.51100000000E-03 0.  1.
         11    1    4    4    0    0  0.27121853576E-01 -0.75245634253E-01  0.45094137301E-01  0.91821798913E-01  0.51100000000E-03 0. -1.
</event>
<event>
 8    1  0.1061721E+005  0.1043930E+01  0.7957747E-01            NaN
         13   -1    0    0    0    0  0.00000000000E+00  0.00000000000E+00  0.74505805969E-08  0.10566000000E+00  0.10566000000E+00 0. -1.
     999900   -1    0    0    0    0 -0.00000000000E+00 -0.00000000000E+00 -0.74505805969E-08  0.93827000000E+00  0.93827000000E+00 0.  1.
     999902    2    1    2    0    0  0.13004249112E-01  0.17901990362E-02 -0.19718913380E-01  0.10202413772E+01  0.10199663312E+01 0.  0.
     999903    2    3    3    0    0  0.39619761304E-01  0.33918267351E-01 -0.12128931961E+00  0.13341718618E+00  0.19206045191E-01 0.  0.
         14    1    1    2    0    0 -0.13004249112E-01 -0.17901990362E-02  0.19718913380E-01  0.23688622848E-01  0.00000000000E+00 0. -1.
     999901    1    3    3    0    0 -0.26615512192E-01 -0.32128068315E-01  0.10157040623E+00  0.88682419097E+00  0.88000000000E+00 0. -1.
        -11    1    4    4    0    0  0.25736318157E-01  0.29128301946E-01 -0.10208301800E+00  0.10923378476E+00  0.51100000000E-03 0. -1.
         11    1    4    4    0    0  0.13883443147E-01  0.47899654049E-02 -0.19206301607E-01  0.24183401428E-01  0.51100000000E-03 0.  1.
</event>
<event>
 8    1  0.1061721E+005  0.1043930E+01  0.7957747E-01            NaN
         13   -1    0    0    0    0  0.00000000000E+00  0.00000000000E+00  0.74505805969E-08  0.10566000000E+00  0.10566000000E+00 0. -1.
     999900   -1    0    0    0    0 -0.00000000000E+00 -0.00000000000E+00 -0.74505805969E-08  0.93827000000E+00  0.93827000000E+00 0.  1.
     999902    2    1    2    0    0 -0.21552265440E-01  0.22124985640E-02  0.92070717852E-02  0.10203892807E+01  0.10201176984E+01 0.  0.
     999903    2    3    3    0    0 -0.70878045411E-01 -0.10908384774E+00  0.59743477191E-02  0.13200290090E+00  0.21589114250E-01 0.  0.
         14    1    1    2    0    0  0.21552265440E-01 -0.22124985640E-02 -0.92070717852E-02  0.23540719326E-01  0.00000000000E+00 0.  1.
     999901    1    3    3    0    0  0.49325779970E-01  0.11129634631E+00  0.32327240661E-02  0.88838637978E+00  0.88000000000E+00 0.  1.
        -11    1    4    4    0    0 -0.27302046026E-01 -0.58462550967E-01 -0.30666300783E-02  0.64598273381E-01  0.51100000000E-03 0. -1.
         11    1    4    4    0    0 -0.43575999385E-01 -0.50621296778E-01  0.90409777974E-02  0.67404627515E-01  0.51100000000E-03 0.  1.
</event>
<event>
 8    1  0.1061721E+005  0.1043930E+01  0.7957747E-01            NaN
         13   -1    0    0    0    0  0.00000000000E+00  0.00000000000E+00  0.74505805969E-08  0.10566000000E+00  0.10566000000E+00 0.  1.
     999900   -1    0    0    0    0 -0.00000000000E+00 -0.00000000000E+00 -0.74505805969E-08  0.93827000000E+00  0.93827000000E+00 0.  1.
     999902    2    1    2    0    0  0.19548810910E-01  0.90502145464E-02  0.94948719583E-02  0.10203882289E+01  0.10201166221E+01 0.  0.
     999903    2    3    3    0    0  0.78871742012E-01  0.15346564977E-01  0.10427080241E+00  0.13329109154E+00  0.20924772485E-01 0.  0.
         14    1    1    2    0    0 -0.19548810910E-01 -0.90502145464E-02 -0.94948719583E-02  0.23541771064E-01  0.00000000000E+00 0. -1.
     999901    1    3    3    0    0 -0.59322931102E-01 -0.62963504310E-02 -0.94775930453E-01  0.88709713740E+00  0.88000000000E+00 0.  1.
        -11    1    4    4    0    0  0.51937974797E-01  0.15682485280E-01  0.55754527902E-01  0.77796671350E-01  0.51100000000E-03 0. -1.
         11    1    4    4    0    0  0.26933767215E-01 -0.33592030282E-03  0.48516274510E-01  0.55494420190E-01  0.51100000000E-03 0.  1.
</event>
<event>
 7    1  0.1108917E+005  0.1043930E+01  0.7957747E-01            NaN
         13   -1    0    0    0    0  0.00000000000E+00  0.00000000000E+00  0.74505805969E-08  0.10566000000E+00  0.10566000000E+00 0.  1.
     999900   -1    0    0    0    0 -0.00000000000E+00 -0.00000000000E+00 -0.74505805969E-08  0.93827000000E+00  0.93827000000E+00 0.  1.
     999903    2    1    2    0    0  0.20132507833E-01  0.18733272691E-01  0.81819987688E-01  0.88638273888E-01  0.20148941297E-01 0.  0.
         14    1    1    2    0    0  0.53955218003E-01 -0.41252729070E-01  0.18004686680E-02  0.67942585268E-01  0.00000000000E+00 0. -1.
     999901    1    1    2    0    0 -0.74087725835E-01  0.22519456380E-01 -0.83620456356E-01  0.88734914084E+00  0.88000000000E+00 0.  1.
        -11    1    3    3    0    0  0.39744837198E-02  0.15990067036E-01  0.52712882334E-01  0.55230316400E-01  0.51100000000E-03 0. -1.
         11    1    3    3    0    0  0.16158024113E-01  0.27432056543E-02  0.29107105353E-01  0.33407957488E-01  0.51100000000E-03 0.  1.
</event>
<event>
 8    1  0.1061721E+005  0.1043930E+01  0.7957747E-01            NaN
         13   -1    0    0    0    0  0.00000000000E+00  0.00000000000E+00  0.74505805969E-08  0.10566000000E+00  0.10566000000E+00 0. -1.
     999900   -1    0    0    0    0 -0.00000000000E+00 -0.00000000000E+00 -0.74505805969E-08  0.93827000000E+00  0.93827000000E+00 0. -1.
     999902    2    1    2    0    0 -0.63389350284E-02  0.40135607789E-02  0.26430589719E-01  0.10164551599E+01  0.10160837688E+01 0.  0.
     999903    2    3    3    0    0  0.31600942711E-01  0.88442347492E-01  0.87671114257E-01  0.12948387725E+00  0.16099123628E-01 0.  0.
         14    1    1    2    0    0  0.63389350284E-02 -0.40135607789E-02 -0.26430589719E-01  0.27474840133E-01  0.00000000000E+00 0.  1.
     999901    1    3    3    0    0 -0.37939877740E-01 -0.84428786713E-01 -0.61240524538E-01  0.88697128262E+00  0.88000000000E+00 0. -1.
        -11    1    4    4    0    0  0.34813636298E-02  0.30673902089E-01  0.32046627895E-01  0.44500063399E-01  0.51100000000E-03 0.  1.
         11    1    4    4    0    0  0.28119579082E-01  0.57768445403E-01  0.55624486362E-01  0.84983813847E-01  0.51100000000E-03 0. -1.
</event>
<event>
 8    1  0.1061721E+005  0.1043930E+01  0.7957747E-01            NaN
         13   -1    0    0    0    0  0.00000000000E+00  0.00000000000E+00  0.74505805969E-08  0.10566000000E+00  0.10566000000E+00 0.  1.
     999900   -1    0    0    0    0 -0.00000000000E+00 -0.00000000000E+00 -0.74505805969E-08  0.93827000000E+00  0.93827000000E+00 0. -1.
     999902    2    1    2    0    0 -0.16729417398E-01  0.37761360687E-02  0.18139460791E-01  0.10189665738E+01  0.10186607413E+01 0.  0.
     999903    2    3    3    0    0  0.11212607120E-01 -0.12671406916E+00  0.37297255474E-02  0.12878901237E+00  0.19761603533E-01 0.  0.
         14    1    1    2    0    0  0.16729417398E-01 -0.37761360687E-02 -0.18139460791E-01  0.24963426205E-01  0.00000000000E+00 0.  1.
     999901    1    3    3    0    0 -0.27942024519E-01  0.13049020522E+00  0.14409735244E-01  0.89017756142E+00  0.88000000000E+00 0. -1.
        -11    1    4    4    0    0 -0.25897571824E-02 -0.75976434342E-01 -0.62705439104E-03  0.76024862616E-01  0.51100000000E-03 0. -1.
         11    1    4    4    0    0  0.13802364303E-01 -0.50737634815E-01  0.43567799385E-02  0.52764149755E-01  0.51100000000E-03 0.  1.
</event>
<event>
 8    1  0.1061721E+005  0.1043930E+01  0.7957747E-01            NaN
         13   -1    0    0    0    0  0.00000000000E+00  0.00000000000E+00  0.74505805969E-08  0.10566000000E+00  0.10566000000E+00 0. -1.
     999900   -1    0    0    0    0 -0.00000000000E+00 -0.00000000000E+00 -0.74505805969E-08  0.93827000000E+00  0.93827000000E+00 0.  1.
     999902    2    1    2    0    0 -0.39392529414E-02 -0.28312005721E-01 -0.84522536797E-02  0.10141218136E+01  0.10136836414E+01 0.  0.
     999903    2    3    3    0    0  0.18987132779E-01 -0.46209526881E-01  0.11343068944E+00  0.12524533614E+00  0.18001148123E-01 0.  0.
         14    1    1    2    0    0  0.39392529414E-02  0.28312005721E-01  0.84522536797E-02  0.29808186358E-01  0.00000000000E+00 0. -1.
     999901    1    3    3    0    0 -0.22926385720E-01  0.17897521160E-01 -0.12188294312E+00  0.88887647750E+00  0.88000000000E+00 0.  1.
        -11    1    4    4    0    0  0.21768202262E-01 -0.45026435237E-01  0.10768742399E+00  0.11873532291E+00  0.51100000000E-03 0.  1.
         11    1    4    4    0    0 -0.27810694831E-02 -0.11830916444E-02  0.57432654533E-02  0.65100132393E-02  0.51100000000E-03 0. -1.
</event>
<event>
 8    1  0.1061721E+005  0.1043930E+01  0.7957747E-01            NaN
         13   -1    0    0    0    0  0.00000000000E+00  0.00000000000E+00  0.74505805969E-08  0.10566000000E+00  0.10566000000E+00 0. -1.
     999900   -1    0    0    0    0 -0.00000000000E+00 -0.00000000000E+00 -0.74505805969E-08  0.93827000000E+00  0.93827000000E+00 0.  1.
     999902    2    1    2    0    0  0.10915439980E-01 -0.42691120534E-02 -0.19897817208E-01  0.10208368132E+01  0.10205755748E+01 0.  0.
     999903    2    3    3    0    0  0.10706249368E+00  0.74322607130E-01 -0.75406215020E-02  0.13203221455E+00  0.19733657145E-01 0.  0.
         14    1    1    2    0    0 -0.10915439980E-01  0.42691120534E-02  0.19897817208E-01  0.23093186816E-01  0.00000000000E+00 0. -1.
     999901    1    3    3    0    0 -0.96147053698E-01 -0.78591719184E-01 -0.12357195706E-01  0.88880459863E+00  0.88000000000E+00 0. -1.
        -11    1    4    4    0    0  0.34535731501E-01  0.26865202909E-01  0.64656804658E-02  0.44232590050E-01  0.51100000000E-03 0. -1.
         11    1    4    4    0    0  0.72526762177E-01  0.47457404221E-01 -0.14006301968E-01  0.87799624504E-01  0.51100000000E-03 0.  1.
</event>
<event>
 8    1  0.1061721E+005  0.1043930E+01  0.7957747E-01            NaN
         13   -1    0    0    0    0  0.00000000000E+00  0.00000000000E+00  0.74505805969E-08  0.10566000000E+00  0.10566000000E+00 0.  1.
     999900   -1    0    0    0    0 -0.00000000000E+00 -0.00000000000E+00 -0.74505805969E-08  0.93827000000E+00  0.93827000000E+00 0.  1.
     999902    2    1    2    0    0 -0.22907044468E-01 -0.49278541092E-03  0.53218887887E-02  0.10204077122E+01  0.10201365600E+01 0.  0.
     999903    2    3    3    0    0  0.32058734695E-02 -0.34316774516E-01  0.12501533703E+00  0.13127753709E+00  0.20421523260E-01 0.  0.
         14    1    1    2    0    0  0.22907044468E-01  0.49278541092E-03 -0.53218887887E-02  0.23522287814E-01  0.00000000000E+00 0.  1.
     999901    1    3    3    0    0 -0.26112917937E-01  0.33823989105E-01 -0.11969344824E+00  0.88913017510E+00  0.88000000000E+00 0.  1.
        -11    1    4    4    0    0 -0.79562016493E-02 -0.21799791157E-01  0.76388290986E-01  0.79837110168E-01  0.51100000000E-03 0. -1.
         11    1    4    4    0    0  0.11162075119E-01 -0.12516983359E-01  0.48627046046E-01  0.51440426918E-01  0.51100000000E-03 0.  1.
</event>
<event>
 8    1  0.1061721E+005  0.1043930E+01  0.7957747E-01            NaN
         13   -1    0    0    0    0  0.00000000000E+00  0.00000000000E+00  0.74505805969E-08  0.10566000000E+00  0.10566000000E+00 0.  1.
     999900   -1    0    0    0    0 -0.00000000000E+00 -0.00000000000E+00 -0.74505805969E-08  0.93827000000E+00  0.93827000000E+00 0. -1.
     999902    2    1    2    0    0 -0.16847790118E-01 -0.17228316304E-02  0.22591235137E-01  0.10156956223E+01  0.10153031158E+01 0.  0.
     999903    2    3    3    0    0 -0.91019215880E-01 -0.56141631181E-01 -0.64787122714E-01  0.12659619950E+00  0.19820344306E-01 0.  0.
         14    1    1    2    0    0  0.16847790118E-01  0.17228316304E-02 -0.22591235137E-01  0.28234377728E-01  0.00000000000E+00 0. -1.
     999901    1    3    3    0    0  0.74171425762E-01  0.54418799551E-01  0.87378357851E-01  0.88909942277E+00  0.88000000000E+00 0.  1.
        -11    1    4    4    0    0 -0.13112816988E-01 -0.10518403627E-02 -0.55568866936E-02  0.14289592305E-01  0.51100000000E-03 0.  1.
         11    1    4    4    0    0 -0.77906398891E-01 -0.55089790819E-01 -0.59230236020E-01  0.11230660720E+00  0.51100000000E-03 0. -1.
</event>
<event>
 8    1  0.1061721E+005  0.1043930E+01  0.7957747E-01            NaN
         13   -1    0    0    0    0  0.00000000000E+00  0.00000000000E+00  0.74505805969E-08  0.10566000000E+00  0.10566000000E+00 0.  1.
     999900   -1    0    0    0    0 -0.00000000000E+00 -0.00000000000E+00 -0.74505805969E-08  0.93827000000E+00  0.93827000000E+00 0. -1.
     999902    2    1    2    0    0 -0.91224046548E-02 -0.13400568900E-01 -0.16655667790E-01  0.10206876941E+01  0.10204230319E+01 0.  0.
     999903    2    3    3    0    0  0.28784877337E-02 -0.31869557827E-01  0.12334006100E+00  0.12934941430E+00  0.22238388563E-01 0.  0.
         14    1    1    2    0    0  0.91224046548E-02  0.13400568900E-01  0.16655667790E-01  0.23242305889E-01  0.00000000000E+00 0.  1.
     999901    1    3    3    0    0 -0.12000892388E-01  0.18468988927E-01 -0.13999572879E+00  0.89133827981E+00  0.88000000000E+00 0. -1.
        -11    1    4    4    0    0 -0.21102662701E-02 -0.48872715240E-02  0.61021505973E-01  0.61255399427E-01  0.51100000000E-03 0. -1.
         11    1    4    4    0    0  0.49887540038E-02 -0.26982286303E-01  0.62318555025E-01  0.68094014877E-01  0.51100000000E-03 0.  1.
</event>
<event>
 8    1  0.1061721E+005  0.1043930E+01  0.7957747E-01            NaN
         13   -1    0    0    0    0  0.00000000000E+00  0.00000000000E+00  0.74505805969E-08  0.10566000000E+00  0.10566000000E+00 0. -1.
     999900   -1    0    0    0    0 -0.00000000000E+00 -0.00000000000E+00 -0.74505805969E-08  0.93827000000E+00  0.93827000000E+00 0. -1.
     999902    2    1    2    0    0 -0.56182571443E-02  0.23323470399E-01 -0.28172056426E-02  0.10197745507E+01  0.10194884249E+01 0.  0.
     999903    2    3    3    0    0  0.10669252324E+00  0.48747179999E-01 -0.54231805577E-01  0.13078437216E+00  0.20096795539E-01 0.  0.
         14    1    1    2    0    0  0.56182571443E-02 -0.23323470399E-01  0.28172056426E-02  0.24155449332E-01  0.00000000000E+00 0. -1.
     999901    1    3    3    0    0 -0.11231078039E+00 -0.25423709599E-01  0.51414599934E-01  0.88899017851E+00  0.88000000000E+00 0.  1.
        -11    1    4    4    0    0  0.67904337310E-01  0.21078435247E-01 -0.36681633144E-01  0.80006892135E-01  0.51100000000E-03 0.  1.
         11    1    4    4    0    0  0.38788185932E-01  0.27668744752E-01 -0.17550172433E-01  0.50777480023E-01  0.51100000000E-03 0. -1.
</event>
<event>
 8    1  0.1061721E+005  0.1043930E+01  0.7957747E-01            NaN
         13   -1    0    0    0    0  0.00000000000E+00  0.00000000000E+00  0.74505805969E-08  0.10566000000E+00  0.10566000000E+00 0.  1.
     999900   -1    0    0    0    0 -0.00000000000E+00 -0.00000000000E+00 -0.74505805969E-08  0.93827000000E+00  0.93827000000E+00 0. -1.
     999902    2    1    2    0    0 -0.41792617441E-02  0.21356912006E-01  0.10410215577E-01  0.10198062253E+01  0.10195208583E+01 0.  0.
     999903    2    3    3    0    0  0.55143861639E-01  0.10568388983E+00  0.54630122675E-01  0.13268409594E+00  0.20265462360E-01 0.  0.
         14    1    1    2    0    0  0.41792617441E-02 -0.21356912006E-01 -0.10410215577E-01  0.24123774736E-01  0.00000000000E+00 0. -1.
     999901    1    3    3    0    0 -0.59323123383E-01 -0.84326977826E-01 -0.44219907098E-01  0.88712212933E+00  0.88000000000E+00 0. -1.
        -11    1    4    4    0    0  0.48307589463E-01  0.94926485638E-01  0.41314895524E-01  0.11424466109E+00  0.51100000000E-03 0. -1.
         11    1    4    4    0    0  0.68362721757E-02  0.10757404195E-01  0.13315227151E-01  0.18439434844E-01  0.51100000000E-03 0.  1.
</event>
<event>
 8    1  0.1061721E+005  0.1043930E+01  0.7957747E-01            NaN
         13   -1    0    0    0    0  0.00000000000E+00  0.00000000000E+00  0.74505805969E-08  0.10566000000E+00  0.10566000000E+00 0. -1.
     999900   -1    0    0    0    0 -0.00000000000E+00 -0.00000000000E+00 -0.74505805969E-08  0.93827000000E+00  0.93827000000E+00 0.  1.
     999902    2    1    2    0    0  0.11374093292E-01 -0.18775827178E-01 -0.79853686250E-02  0.10205704667E+01  0.10203030970E+01 0.  0.
     999903    2    3    3    0    0  0.12189467840E+00  0.43763023493E-01 -0.12946359399E-02  0.13143005400E+00  0.22330879154E-01 0.  0.
         14    1    1    2    0    0 -0.11374093292E-01  0.18775827178E-01  0.79853686250E-02  0.23359533311E-01  0.00000000000E+00 0. -1.
     999901    1    3    3    0    0 -0.11052058511E+00 -0.62538850671E-01 -0.66907326851E-02  0.88914041269E+00  0.88000000000E+00 0.  1.
        -11    1    4    4    0    0  0.45189113514E-01  0.71930032268E-02  0.59363794643E-02  0.46144306233E-01  0.51100000000E-03 0.  1.
         11    1    4    4    0    0  0.76705564888E-01  0.36570020266E-01 -0.72310154042E-02  0.85285747765E-01  0.51100000000E-03 0. -1.
</event>
<event>
 8    1  0.1061721E+005  0.1043930E+01  0.7957747E-01            NaN
         13   -1    0    0    0    0  0.00000000000E+00  0.00000000000E+00  0.74505805969E-08  0.10566000000E+00  0.10566000000E+00 0. -1.
     999900   -1    0    0    0    0 -0.00000000000E+00 -0.00000000000E+00 -0.74505805969E-08  0.93827000000E+00  0.93827000000E+00 0.  1.
     999902    2    1    2    0    0  0.12398285230E-01  0.18449172821E-01  0.37414195616E-02  0.10213891998E+01  0.10211404457E+01 0.  0.
     999903    2    3    3    0    0  0.17578593704E-01 -0.72875883385E-02  0.12898832100E+00  0.13213332952E+00  0.21426943626E-01 0.  0.
         14    1    1    2    0    0 -0.12398285230E-01 -0.18449172821E-01 -0.37414195616E-02  0.22540800224E-01  0.00000000000E+00 0. -1.
     999901    1    3    3    0    0 -0.51803084735E-02  0.25736761159E-01 -0.12524690144E+00  0.88925587026E+00  0.88000000000E+00 0.  1.
        -11    1    4    4    0    0  0.97115232743E-02  0.62415361066E-02  0.35238185833E-01  0.37084515894E-01  0.51100000000E-03 0. -1.
         11    1    4    4    0    0  0.78670704292E-02 -0.13529124445E-01  0.93750135171E-01  0.95048813622E-01  0.51100000000E-03 0.  1.
</event>
<event>
 8    1  0.1061721E+005  0.1043930E+01  0.7957747E-01            NaN
         13   -1    0    0    0    0  0.00000000000E+00  0.00000000000E+00  0.74505805969E-08  0.10566000000E+00  0.10566000000E+00 0. -1.
     999900   -1    0    0    0    0 -0.00000000000E+00 -0.00000000000E+00 -0.74505805969E-08  0.93827000000E+00  0.93827000000E+00 0.  1.
     999902    2    1    2    0    0 -0.13019976079E-01 -0.77795932031E-02  0.17834074773E-01  0.10205185483E+01  0.10202499749E+01 0.  0.
     999903    2    3    3    0    0 -0.37417288854E-01  0.88657666038E-01 -0.83746672635E-01  0.12910729524E+00  0.19873430878E-01 0.  0.
         14    1    1    2    0    0  0.13019976079E-01  0.77795932031E-02 -0.17834074773E-01  0.23411451696E-01  0.00000000000E+00 0.  1.
     999901    1    3    3    0    0  0.24397312775E-01 -0.96437259241E-01  0.10158074741E+00  0.89141125306E+00  0.88000000000E+00 0. -1.
        -11    1    4    4    0    0 -0.30186777538E-01  0.67388696797E-01 -0.74234211220E-01  0.10470652907E+00  0.51100000000E-03 0.  1.
         11    1    4    4    0    0 -0.72305113160E-02  0.21268969241E-01 -0.95124614150E-02  0.24400766169E-01  0.51100000000E-03 0. -1.
</event>
<event>
 8    1  0.1061721E+005  0.1043930E+01  0.7957747E-01            NaN
         13   -1    0    0    0    0  0.00000000000E+00  0.00000000000E+00  0.74505805969E-08  0.10566000000E+00  0.10566000000E+00 0. -1.
     999900   -1    0    0    0    0 -0.00000000000E+00 -0.00000000000E+00 -0.74505805969E-08  0.93827000000E+00  0.93827000000E+00 0.  1.
     999902    2    1    2    0    0 -0.18667782055E-01  0.12850296969E-01 -0.92640391825E-02  0.10194465639E+01  0.10191525195E+01 0.  0.
     999903    2    3    3    0    0  0.13668453434E-01  0.12850529137E+00 -0.12258703500E-01  0.13128516090E+00  0.19623484173E-01 0.  0.
         14    1    1    2    0    0  0.18667782055E-01 -0.12850296969E-01  0.92640391825E-02  0.24483436054E-01  0.00000000000E+00 0. -1.
     999901    1    3    3    0    0 -0.32336235489E-01 -0.11565499440E+00  0.29946643172E-02  0.88816140305E+00  0.88000000000E+00 0. -1.
        -11    1    4    4    0    0  0.27739064418E-02  0.82983692725E-01 -0.55144744508E-03  0.83033445253E-01  0.51100000000E-03 0.  1.
         11    1    4    4    0    0  0.10894546992E-01  0.45521598642E-01 -0.11707256055E-01  0.48251715643E-01  0.51100000000E-03 0. -1.
</event>
<event>
 8    1  0.1061721E+005  0.1043930E+01  0.7957747E-01            NaN
         13   -1    0    0    0    0  0.00000000000E+00  0.00000000000E+00  0.74505805969E-08  0.10566000000E+00  0.10566000000E+00 0. -1.
     999900   -1    0    0    0    0 -0.00000000000E+00 -0.00000000000E+00 -0.74505805969E-08  0.93827000000E+00  0.93827000000E+00 0.  1.
     999902    2    1    2    0    0 -0.21288581124E-01 -0.26373989495E-02  0.62674646168E-02  0.10215818307E+01  0.10213373567E+01 0.  0.
     999903    2    3    3    0    0 -0.87827720604E-01 -0.39963144687E-01  0.91021494733E-01  0.13422400319E+00  0.20503879851E-01 0.  0.
         14    1    1    2    0    0  0.21288581124E-01  0.26373989495E-02 -0.62674646168E-02  0.22348169326E-01  0.00000000000E+00 0.  1.
     999901    1    3    3    0    0  0.66539139480E-01  0.37325745737E-01 -0.84754030116E-01  0.88735782748E+00  0.88000000000E+00 0.  1.
        -11    1    4    4    0    0 -0.16981645068E-01 -0.33394037330E-03  0.11041763579E-01  0.20264980861E-01  0.51100000000E-03 0. -1.
         11    1    4    4    0    0 -0.70846075536E-01 -0.39629204314E-01  0.79979731155E-01  0.11395902233E+00  0.51100000000E-03 0.  1.
</event>
<event>
 8    1  0.1061721E+005  0.1043930E+01  0.7957747E-01            NaN
         13   -1    0    0    0    0  0.00000000000E+00  0.00000000000E+00  0.74505805969E-08  0.10566000000E+00  0.10566000000E+00 0.  1.
     999900   -1    0    0    0    0 -0.00000000000E+00 -0.00000000000E+00 -0.74505805969E-08  0.93827000000E+00  0.93827000000E+00 0. -1.
     999902    2    1    2    0    0 -0.30414547995E-02 -0.50756100436E-02  0.22388149936E-01  0.10207731107E+01  0.10205104125E+01 0.  0.
     999903    2    3    3    0    0  0.86524375725E-01 -0.87712205737E-01 -0.37810949358E-01  0.13033794938E+00  0.19452879702E-01 0.  0.
         14    1    1    2    0    0  0.30414547995E-02  0.50756100436E-02 -0.22388149936E-01  0.23156889303E-01  0.00000000000E+00 0. -1.
     999901    1    3    3    0    0 -0.89565830524E-01  0.82636595694E-01  0.60199099295E-01  0.89043516131E+00  0.88000000000E+00 0.  1.
        -11    1    4    4    0    0  0.53603015507E-01 -0.53354471435E-01 -0.32967028315E-01  0.82504963308E-01  0.51100000000E-03 0. -1.
         11    1    4    4    0    0  0.32921360218E-01 -0.34357734302E-01 -0.48439210434E-02  0.47832986077E-01  0.51100000000E-03 0.  1.
</event>
<event>
 8    1  0.1061721E+005  0.1043930E+01  0.7957747E-01            NaN
         13   -1    0    0    0    0  0.00000000000E+00  0.00000000000E+00  0.74505805969E-08  0.10566000000E+00  0.10566000000E+00 0.  1.
     999900   -1    0    0    0    0 -0.00000000000E+00 -0.00000000000E+00 -0.74505805969E-08  0.93827000000E+00  0.93827000000E+00 0.  1.
     999902    2    1    2    0    0  0.78458721955E-03  0.40639455914E-02  0.22017354827E-01  0.10215269836E+01  0.10212812948E+01 0.  0.
     999903    2    3    3    0    0  0.68455530785E-01  0.81766560403E-01 -0.72620714770E-01  0.13047512361E+00  0.19443754062E-01 0.  0.
         14    1    1    2    0    0 -0.78458721955E-03 -0.40639455914E-02 -0.22017354827E-01  0.22403016414E-01  0.00000000000E+00 0. -1.
     999901    1    3    3    0    0 -0.67670943565E-01 -0.77702614811E-01  0.94638069597E-01  0.89105185998E+00  0.88000000000E+00 0.  1.
        -11    1    4    4    0    0  0.40093694117E-01  0.40823676927E-01 -0.28461438545E-01  0.63909244330E-01  0.51100000000E-03 0. -1.
         11    1    4    4    0    0  0.28361836668E-01  0.40942883475E-01 -0.44159276226E-01  0.66565879279E-01  0.51100000000E-03 0.  1.
</event>
<event>
 8    1  0.1061721E+005  0.1043930E+01  0.7957747E-01            NaN
         13   -1    0    0    0    0  0.00000000000E+00  0.00000000000E+00  0.74505805969E-08  0.10566000000E+00  0.10566000000E+00 0.  1.
     999900   -1    0    0    0    0 -0.00000000000E+00 -0.00000000000E+00 -0.74505805969E-08  0.93827000000E+00  0.93827000000E+00 0.  1.
     999902    2    1    2    0    0  0.24284119538E-02 -0.24842120662E-01 -0.11994568250E-01  0.10162370801E+01  0.10158596878E+01 0.  0.
     999903    2    3    3    0    0 -0.39774663364E-01 -0.72810268815E-01 -0.97735788698E-01  0.12976452010E+00  0.20079521732E-01 0.  0.
         14    1    1    2    0    0 -0.24284119538E-02  0.24842120662E-01  0.11994568250E-01  0.27692919873E-01  0.00000000000E+00 0.  1.
     999901    1    3    3    0    0  0.42203075318E-01  0.47968148153E-01  0.85741220448E-01  0.88647256003E+00  0.88000000000E+00 0. -1.
        -11    1    4    4    0    0 -0.80893628373E-02 -0.51552043876E-02 -0.18604780971E-01  0.20938312238E-01  0.51100000000E-03 0. -1.
         11    1    4    4    0    0 -0.31685300527E-01 -0.67655064427E-01 -0.79131007727E-01  0.10882620786E+00  0.51100000000E-03 0.  1.
</event>
<event>
 8    1  0.1061721E+005  0.1043930E+01  0.7957747E-01            NaN
         13   -1    0    0    0    0  0.00000000000E+00  0.00000000000E+00  0.74505805969E-08  0.10566000000E+00  0.10566000000E+00 0.  1.
     999900   -1    0    0    0    0 -0.00000000000E+00 -0.00000000000E+00 -0.74505805969E-08  0.93827000000E+00  0.93827000000E+00 0.  1.
     999902    2    1    2    0    0  0.17139256530E-01 -0.90493256042E-02 -0.13158024922E-01  0.10205039882E+01  0.10202350768E+01 0.  0.
     999903    2    3    3    0    0  0.90745079719E-01 -0.62524871481E-01 -0.73046301598E-01  0.13378866924E+00  0.20484550134E-01 0.  0.
         14    1    1    2    0    0 -0.17139256530E-01  0.90493256042E-02  0.13158024922E-01  0.23426011785E-01  0.00000000000E+00 0.  1.
     999901    1    3    3    0    0 -0.73605823189E-01  0.53475545877E-01  0.59888276676E-01  0.88671531897E+00  0.88000000000E+00 0. -1.
        -11    1    4    4    0    0  0.53491868963E-01 -0.48263961724E-01 -0.50256115398E-01  0.87844910509E-01  0.51100000000E-03 0.  1.
         11    1    4    4    0    0  0.37253210756E-01 -0.14260909757E-01 -0.22790186200E-01  0.45943758736E-01  0.51100000000E-03 0. -1.
</event>
<event>
 8    1  0.1061721E+005  0.1043930E+01  0.7957747E-01            NaN
         13   -1    0    0    0    0  0.00000000000E+00  0.00000000000E+00  0.74505805969E-08  0.10566000000E+00  0.10566000000E+00 0.  1.
     999900   -1    0    0    0    0 -0.00000000000E+00 -0.00000000000E+00 -0.74505805969E-08  0.93827000000E+00  0.93827000000E+00 0. -1.
     999902    2    1    2    0    0  0.16589585703E-01  0.16548146600E-01 -0.52129006223E-02  0.10199252121E+01  0.10196426866E+01 0.  0.
     999903    2    3    3    0    0 -0.50183394131E-02  0.12985001232E+00  0.13434057036E-01  0.13220232502E+00  0.20267496700E-01 0.  0.
         14    1    1    2    0    0 -0.16589585703E-01 -0.16548146600E-01  0.52129006223E-02  0.24004787910E-01  0.00000000000E+00 0.  1.
     999901    1    3    3    0    0  0.21607925116E-01 -0.11330186572E+00 -0.18646957658E-01  0.88772288707E+00  0.88000000000E+00 0.  1.
        -11    1    4    4    0    0  0.14382346786E-02  0.50183819410E-01 -0.40949496165E-02  0.50373742991E-01  0.51100000000E-03 0. -1.
         11    1    4    4    0    0 -0.64565740918E-02  0.79666192907E-01  0.17529006652E-01  0.81828582027E-01  0.51100000000E-03 0.  1.
</event>
<event>
 8    1  0.1061721E+005  0.1043930E+01  0.7957747E-01            NaN
         13   -1    0    0    0    0  0.00000000000E+00  0.00000000000E+00  0.74505805969E-08  0.10566000000E+00  0.10566000000E+00 0. -1.
     999900   -1    0    0    0    0 -0.00000000000E+00 -0.00000000000E+00 -0.74505805969E-08  0.93827000000E+00  0.93827000000E+00 0. -1.
     999902    2    1    2    0    0 -0.11368365774E-01 -0.20036505222E-01 -0.62580076145E-02  0.10200581768E+01  0.10197788094E+01 0.  0.
     999903    2    3    3    0    0 -0.66354759956E-01 -0.56357624258E-01  0.96618082940E-01  0.13161784837E+00  0.20225431470E-01 0.  0.
         14    1    1    2    0    0  0.11368365774E-01  0.20036505222E-01  0.62580076145E-02  0.23871823164E-01  0.00000000000E+00 0.  1.
     999901    1    3    3    0    0  0.54986394182E-01  0.36321119036E-01 -0.10287609056E+00  0.88844032846E+00  0.88000000000E+00 0. -1.
        -11    1    4    4    0    0 -0.45827973418E-01 -0.28887934732E-01  0.68055918861E-01  0.86986120351E-01  0.51100000000E-03 0.  1.
         11    1    4    4    0    0 -0.20526786538E-01 -0.27469689526E-01  0.28562164079E-01  0.44631728021E-01  0.51100000000E-03 0. -1.
</event>
<event>
 8    1  0.1061721E+005  0.1043930E+01  0.7957747E-01            NaN
         13   -1    0    0    0    0  0.00000000000E+00  0.00000000000E+00  0.74505805969E-08  0.10566000000E+00  0.10566000000E+00 0.  1.
     999900   -1    0    0    0    0 -0.00000000000E+00 -0.00000000000E+00 -0.74505805969E-08  0.93827000000E+00  0.93827000000E+00 0.  1.
     999902    2    1    2    0    0 -0.16707042186E-01  0.18381580901E-01  0.32430694525E-02  0.10188795454E+01  0.10185715502E+01 0.  0.
     999903    2    3    3    0    0 -0.47002783229E-01 -0.11294924973E+00  0.32833048893E-01  0.12812638888E+00  0.19276093545E-01 0.  0.
         14    1    1    2    0    0  0.16707042186E-01 -0.18381580901E-01 -0.32430694525E-02  0.25050454576E-01  0.00000000000E+00 0. -1.
     999901    1    3    3    0    0  0.30295741043E-01  0.13133083063E+00 -0.29589979440E-01  0.89075315654E+00  0.88000000000E+00 0.  1.
        -11    1    4    4    0    0 -0.39171942193E-01 -0.73569346807E-01  0.26600597691E-01  0.87491386795E-01  0.51100000000E-03 0.  1.
         11    1    4    4    0    0 -0.78308410358E-02 -0.39379902927E-01  0.62324512021E-02  0.40635002090E-01  0.51100000000E-03 0. -1.
</event>
<event>
 8    1  0.1061721E+005  0.1043930E+01  0.7957747E-01            NaN
         13   -1    0    0    0    0  0.00000000000E+00  0.00000000000E+00  0.74505805969E-08  0.10566000000E+00  0.10566000000E+00 0. -1.
     999900   -1    0    0    0    0 -0.00000000000E+00 -0.00000000000E+00 -0.74505805969E-08  0.93827000000E+00  0.93827000000E+00 0. -1.
     999902    2    1    2    0    0  0.11827777126E-01  0.14502496490E-02 -0.23099566497E-01  0.10179378953E+01  0.10176059990E+01 0.  0.
     999903    2    3    3    0    0 -0.84645455726E-01  0.27391873051E-01 -0.92274264437E-01  0.12958819425E+00  0.19062851990E-01 0.  0.
         14    1    1    2    0    0 -0.11827777126E-01 -0.14502496490E-02  0.23099566497E-01  0.25992104727E-01  0.00000000000E+00 0. -1.
     999901    1    3    3    0    0  0.96473232852E-01 -0.25941623402E-01  0.69174697941E-01  0.88834970103E+00  0.88000000000E+00 0.  1.
        -11    1    4    4    0    0 -0.47780072502E-01  0.10183606916E-01 -0.38764066479E-01  0.62366298183E-01  0.51100000000E-03 0. -1.
         11    1    4    4    0    0 -0.36865383224E-01  0.17208266134E-01 -0.53510197959E-01  0.67221896062E-01  0.51100000000E-03 0.  1.
</event>
<event>
 8    1  0.1061721E+005  0.1043930E+01  0.7957747E-01            NaN
         13   -1    0    0    0    0  0.00000000000E+00  0.00000000000E+00  0.74505805969E-08  0.10566000000E+00  0.10566000000E+00 0.  1.
     999900   -1    0    0    0    0 -0.00000000000E+00 -0.00000000000E+00 -0.74505805969E-08  0.93827000000E+00  0.93827000000E+00 0.  1.
     999902    2    1    2    0    0  0.13722023984E-01  0.15577746858E-01  0.45719447292E-02  0.10226729349E+01  0.10224519886E+01 0.  0.
     999903    2    3    3    0    0  0.36998969823E-01  0.13997554959E-01  0.12642779062E+00  0.13396985712E+00  0.19977013386E-01 0.  0.
         14    1    1    2    0    0 -0.13722023984E-01 -0.15577746858E-01 -0.45719447292E-02  0.21257065131E-01  0.00000000000E+00 0.  1.
     999901    1    3    3    0    0 -0.23276945839E-01  0.15801918993E-02 -0.12185584589E+00  0.88870307774E+00  0.88000000000E+00 0.  1.
        -11    1    4    4    0    0  0.31346329605E-01  0.10707020950E-01  0.12100578582E+00  0.12545873425E+00  0.51100000000E-03 0. -1.
         11    1    4    4    0    0  0.56526402175E-02  0.32905340089E-02  0.54220048040E-02  0.85111228746E-02  0.51100000000E-03 0.  1.
</event>
<event>
 8    1  0.1061721E+005  0.1043930E+01  0.7957747E-01            NaN
         13   -1    0    0    0    0  0.00000000000E+00  0.00000000000E+00  0.74505805969E-08  0.10566000000E+00  0.10566000000E+00 0.  1.
     999900   -1    0    0    0    0 -0.00000000000E+00 -0.00000000000E+00 -0.74505805969E-08  0.93827000000E+00  0.93827000000E+00 0. -1.
     999902    2    1    2    0    0 -0.20431194228E-01  0.11727523859E-01 -0.36179120437E-02  0.10200960368E+01  0.10198175653E+01 0.  0.
     999903    2    3    3    0    0 -0.33112694550E-01 -0.11189259176E-02  0.12466419222E+00  0.13061183235E+00  0.20508227436E-01 0.  0.
         14    1    1    2    0    0  0.20431194228E-01 -0.11727523859E-01  0.36179120437E-02  0.23833963183E-01  0.00000000000E+00 0. -1.
     999901    1    3    3    0    0  0.12681500323E-01  0.12846449777E-01 -0.12828210426E+00  0.88948420447E+00  0.88000000000E+00 0. -1.
        -11    1    4    4    0    0 -0.72153567335E-02 -0.25641979505E-02  0.66286762477E-01  0.66729547313E-01  0.51100000000E-03 0.  1.
         11    1    4    4    0    0 -0.25897337817E-01  0.14452720329E-02  0.58377429743E-01  0.63882285038E-01  0.51100000000E-03 0. -1.
</event>
<event>
 8    1  0.1061721E+005  0.1043930E+01  0.7957747E-01            NaN
         13   -1    0    0    0    0  0.00000000000E+00  0.00000000000E+00  0.74505805969E-08  0.10566000000E+00  0.10566000000E+00 0.  1.
     999900   -1    0    0    0    0 -0.00000000000E+00 -0.00000000000E+00 -0.74505805969E-08  0.93827000000E+00  0.93827000000E+00 0. -1.
     999902    2    1    2    0    0 -0.14420216328E-01 -0.10963341982E-01  0.15425424314E-03  0.10258147771E+01  0.10256548131E+01 0.  0.
     999903    2    3    3    0    0 -0.97972353039E-01 -0.16790541434E-01  0.92273740075E-01  0.13705107652E+00  0.19698990469E-01 0.  0.
         14    1    1    2    0    0  0.14420216328E-01  0.10963341982E-01 -0.15425424314E-03  0.18115222900E-01  0.00000000000E+00 0. -1.
     999901    1    3    3    0    0  0.83552136711E-01  0.58271994512E-02 -0.92119485832E-01  0.88876370058E+00  0.88000000000E+00 0. -1.
        -11    1    4    4    0    0 -0.43916160707E-01 -0.74686726248E-02  0.54767304410E-01  0.70598363971E-01  0.51100000000E-03 0. -1.
         11    1    4    4    0    0 -0.54056192331E-01 -0.93218688087E-02  0.37506435665E-01  0.66452712547E-01  0.51100000000E-03 0.  1.
</event>
<event>
 8    1  0.1061721E+005  0.1043930E+01  0.7957747E-01            NaN
         13   -1    0    0    0    0  0.00000000000E+00  0.00000000000E+00  0.74505805969E-08  0.10566000000E+00  0.10566000000E+00 0. -1.
     999900   -1    0    0    0    0 -0.00000000000E+00 -0.00000000000E+00 -0.74505805969E-08  0.93827000000E+00  0.93827000000E+00 0. -1.
     999902    2    1    2    0    0 -0.40919149577E-02  0.23275357825E-01  0.57703782625E-02  0.10196034031E+01  0.10193131591E+01 0.  0.
     999903    2    3    3    0    0 -0.12593496745E+00  0.38738683527E-02 -0.24885984887E-01  0.13046789049E+00  0.22976843193E-01 0.  0.
         14    1    1    2    0    0  0.40919149577E-02 -0.23275357825E-01 -0.57703782625E-02  0.24326596869E-01  0.00000000000E+00 0.  1.
     999901    1    3    3    0    0  0.12184305249E+00  0.19401489473E-01  0.30656363150E-01  0.88913551264E+00  0.88000000000E+00 0.  1.
        -11    1    4    4    0    0 -0.75902363131E-01  0.13435319285E-01 -0.13235341947E-01  0.78211967950E-01  0.51100000000E-03 0. -1.
         11    1    4    4    0    0 -0.50032604319E-01 -0.95614509319E-02 -0.11650642940E-01  0.52255922543E-01  0.51100000000E-03 0.  1.
</event>
<event>
 8    1  0.1061721E+005  0.1043930E+01  0.7957747E-01            NaN
         13   -1    0    0    0    0  0.00000000000E+00  0.00000000000E+00  0.74505805969E-08  0.10566000000E+00  0.10566000000E+00 0.  1.
     999900   -1    0    0    0    0 -0.00000000000E+00 -0.00000000000E+00 -0.74505805969E-08  0.93827000000E+00  0.93827000000E+00 0. -1.
     999902    2    1    2    0    0  0.17228430221E-01  0.16643522279E-01 -0.50623857753E-02  0.10194462627E+01  0.10191522110E+01 0.  0.
     999903    2    3    3    0    0  0.12108979256E-01 -0.11079211535E+00  0.59518192099E-01  0.12791011563E+00  0.19926421839E-01 0.  0.
         14    1    1    2    0    0 -0.17228430221E-01 -0.16643522279E-01  0.50623857753E-02  0.24483737286E-01  0.00000000000E+00 0.  1.
     999901    1    3    3    0    0  0.51194509646E-02  0.12743563763E+00 -0.64580577874E-01  0.89153614708E+00  0.88000000000E+00 0. -1.
        -11    1    4    4    0    0 -0.38154829057E-02 -0.45477160215E-01  0.19174394951E-01  0.49504025632E-01  0.51100000000E-03 0.  1.
         11    1    4    4    0    0  0.15924462162E-01 -0.65314955138E-01  0.40343797148E-01  0.78406090000E-01  0.51100000000E-03 0. -1.
</event>
<event>
 8    1  0.1061721E+005  0.1043930E+01  0.7957747E-01            NaN
         13   -1    0    0    0    0  0.00000000000E+00  0.00000000000E+00  0.74505805969E-08  0.10566000000E+00  0.10566000000E+00 0. -1.
     999900   -1    0    0    0    0 -0.00000000000E+00 -0.00000000000E+00 -0.74505805969E-08  0.93827000000E+00  0.93827000000E+00 0. -1.
     999902    2    1    2    0    0 -0.16405504866E-01 -0.35106332784E-02 -0.16176763915E-01  0.10206243606E+01  0.10203582374E+01 0.  0.
     999903    2    3    3    0    0  0.36018454515E-01  0.77333796619E-01 -0.98297222055E-01  0.13156425973E+00  0.19208472319E-01 0.  0.
         14    1    1    2    0    0  0.16405504866E-01  0.35106332784E-02  0.16176763915E-01  0.23305639375E-01  0.00000000000E+00 0.  1.
     999901    1    3    3    0    0 -0.52423959381E-01 -0.80844429897E-01  0.82120458140E-01  0.88906010090E+00  0.88000000000E+00 0.  1.
        -11    1    4    4    0    0  0.11729078669E-01  0.23902953811E-01 -0.44960311426E-01  0.52255269704E-01  0.51100000000E-03 0. -1.
         11    1    4    4    0    0  0.24289375846E-01  0.53430842807E-01 -0.53336910629E-01  0.79308990023E-01  0.51100000000E-03 0.  1.
</event>
<event>
 8    1  0.1061721E+005  0.1043930E+01  0.7957747E-01            NaN
         13   -1    0    0    0    0  0.00000000000E+00  0.00000000000E+00  0.74505805969E-08  0.10566000000E+00  0.10566000000E+00 0. -1.
     999900   -1    0    0    0    0 -0.00000000000E+00 -0.00000000000E+00 -0.74505805969E-08  0.93827000000E+00  0.93827000000E+00 0.  1.
     999902    2    1    2    0    0 -0.21248668724E-01 -0.98839377343E-02 -0.22742794074E-02  0.10203849263E+01  0.10201132424E+01 0.  0.
     999903    2    3    3    0    0  0.82073651819E-01 -0.61589176046E-01  0.76377251745E-01  0.12935462552E+00  0.19230799013E-01 0.  0.
         14    1    1    2    0    0  0.21248668724E-01  0.98839377343E-02  0.22742794074E-02  0.23545073678E-01  0.00000000000E+00 0. -1.
     999901    1    3    3    0    0 -0.10332232054E+00  0.51705238312E-01 -0.78651531153E-01  0.89103030080E+00  0.88000000000E+00 0.  1.
        -11    1    4    4    0    0  0.36058229893E-01 -0.24926535481E-01  0.44374557468E-01  0.62377003660E-01  0.51100000000E-03 0.  1.
         11    1    4    4    0    0  0.46015421927E-01 -0.36662640565E-01  0.32002694278E-01  0.66977621862E-01  0.51100000000E-03 0. -1.
</event>
<event>
 8    1  0.1061721E+005  0.1043930E+01  0.7957747E-01            NaN
         13   -1    0    0    0    0  0.00000000000E+00  0.00000000000E+00  0.74505805969E-08  0.10566000000E+00  0.10566000000E+00 0.  1.
     999900   -1    0    0    0    0 -0.00000000000E+00 -0.00000000000E+00 -0.74505805969E-08  0.93827000000E+00  0.93827000000E+00 0.  1.
     999902    2    1    2    0    0  0.21838778167E-01 -0.43449061978E-02  0.15968648096E-01  0.10165291211E+01  0.10161597541E+01 0.  0.
     999903    2    3    3    0    0  0.18641802231E-01 -0.12450685505E+00  0.16767977797E-01  0.12835697928E+00  0.18570818664E-01 0.  0.
         14    1    1    2    0    0 -0.21838778167E-01  0.43449061978E-02 -0.15968648096E-01  0.27400878886E-01  0.00000000000E+00 0. -1.
     999901    1    3    3    0    0  0.31969759362E-02  0.12016194885E+00 -0.79932970067E-03  0.88817214184E+00  0.88000000000E+00 0. -1.
        -11    1    4    4    0    0 -0.25401808757E-03 -0.32146439913E-01  0.10706948772E-01  0.33887431258E-01  0.51100000000E-03 0.  1.
         11    1    4    4    0    0  0.18895820319E-01 -0.92360415134E-01  0.60610290255E-02  0.94469548020E-01  0.51100000000E-03 0. -1.
</event>
<event>
 8    1  0.1061721E+005  0.1043930E+01  0.7957747E-01            NaN
         13   -1    0    0    0    0  0.00000000000E+00  0.00000000000E+00  0.74505805969E-08  0.10566000000E+00  0.10566000000E+00 0. -1.
     999900   -1    0    0    0    0 -0.00000000000E+00 -0.00000000000E+00 -0.74505805969E-08  0.93827000000E+00  0.93827000000E+00 0.  1.
     999902    2    1    2    0    0 -0.42357946257E-02 -0.18965132977E-01  0.15615802936E-01  0.10190006694E+01  0.10186956820E+01 0.  0.
     999903    2    3    3    0    0  0.10495744836E+00  0.62654513376E-01 -0.28980705814E-01  0.12738764816E+00  0.21120548795E-01 0.  0.
         14    1    1    2    0    0  0.42357946257E-02  0.18965132977E-01 -0.15615802936E-01  0.24929330642E-01  0.00000000000E+00 0.  1.
     999901    1    3    3    0    0 -0.10919324298E+00 -0.81619646353E-01  0.44596508750E-01  0.89161302120E+00  0.88000000000E+00 0.  1.
        -11    1    4    4    0    0  0.46114734390E-01  0.35309823160E-01 -0.53421585798E-02  0.58327970295E-01  0.51100000000E-03 0.  1.
         11    1    4    4    0    0  0.58842713966E-01  0.27344690216E-01 -0.23638547234E-01  0.69059677861E-01  0.51100000000E-03 0. -1.
</event>
<event>
 8    1  0.1061721E+005  0.1043930E+01  0.7957747E-01            NaN
         13   -1    0    0    0    0  0.00000000000E+00  0.00000000000E+00  0.74505805969E-08  0.10566000000E+00  0.10566000000E+00 0.  1.
     999900   -1    0    0    0    0 -0.00000000000E+00 -0.00000000000E+00 -0.74505805969E-08  0.93827000000E+00  0.93827000000E+00 0. -1.
     999902    2    1    2    0    0 -0.90014390307E-02 -0.17836367259E-01 -0.13932042357E-01  0.10195729947E+01  0.10192820159E+01 0.  0.
     999903    2    3    3    0    0  0.97267968191E-02 -0.12008686305E+00 -0.52121342377E-01  0.13263199706E+00  0.18951175665E-01 0.  0.
         14    1    1    2    0    0  0.90014390307E-02  0.17836367259E-01  0.13932042357E-01  0.24357005273E-01  0.00000000000E+00 0.  1.
     999901    1    3    3    0    0 -0.18728235850E-01  0.10225049579E+00  0.38189300020E-01  0.88694099767E+00  0.88000000000E+00 0.  1.
        -11    1    4    4    0    0  0.40989864446E-02 -0.56102505582E-01 -0.14120156393E-01  0.57999420342E-01  0.51100000000E-03 0. -1.
         11    1    4    4    0    0  0.56278103745E-02 -0.63984357469E-01 -0.38001185984E-01  0.74632576718E-01  0.51100000000E-03 0.  1.
</event>
<event>
 8    1  0.1061721E+005  0.1043930E+01  0.7957747E-01            NaN
         13   -1    0    0    0    0  0.00000000000E+00  0.00000000000E+00  0.74505805969E-08  0.10566000000E+00  0.10566000000E+00 0.  1.
     999900   -1    0    0    0    0 -0.00000000000E+00 -0.00000000000E+00 -0.74505805969E-08  0.93827000000E+00  0.93827000000E+00 0.  1.
     999902    2    1    2    0    0 -0.14754821752E-01 -0.17007439133E-01 -0.81755895061E-02  0.10199759186E+01  0.10196945997E+01 0.  0.
     999903    2    3    3    0    0 -0.12601676181E+00 -0.34015260202E-01 -0.13924656614E-01  0.13278848800E+00  0.20040566345E-01 0.  0.
         14    1    1    2    0    0  0.14754821752E-01  0.17007439133E-01  0.81755895061E-02  0.23954081376E-01  0.00000000000E+00 0. -1.
     999901    1    3    3    0    0  0.11126194006E+00  0.17007821069E-01  0.57490671074E-02  0.88718743062E+00  0.88000000000E+00 0. -1.
        -11    1    4    4    0    0 -0.82988113284E-01 -0.20819806589E-01 -0.18527369272E-01  0.87544364902E-01  0.51100000000E-03 0. -1.
         11    1    4    4    0    0 -0.43028648528E-01 -0.13195453613E-01  0.46027126580E-02  0.45244123099E-01  0.51100000000E-03 0.  1.
</event>
<event>
 8    1  0.1061721E+005  0.1043930E+01  0.7957747E-01            NaN
         13   -1    0    0    0    0  0.00000000000E+00  0.00000000000E+00  0.74505805969E-08  0.10566000000E+00  0.10566000000E+00 0. -1.
     999900   -1    0    0    0    0 -0.00000000000E+00 -0.00000000000E+00 -0.74505805969E-08  0.93827000000E+00  0.93827000000E+00 0. -1.
     999902    2    1    2    0    0 -0.63410855556E-02  0.90102514263E-02  0.20637371058E-01  0.10205356613E+01  0.10202674850E+01 0.  0.
     999903    2    3    3    0    0 -0.73301719071E-01  0.18300968044E-01  0.10823007540E+00  0.13360695750E+00  0.20712373618E-01 0.  0.
         14    1    1    2    0    0  0.63410855556E-02 -0.90102514263E-02 -0.20637371058E-01  0.23394338653E-01  0.00000000000E+00 0.  1.
     999901    1    3    3    0    0  0.66960633516E-01 -0.92907166172E-02 -0.87592704342E-01  0.88692870385E+00  0.88000000000E+00 0. -1.
        -11    1    4    4    0    0 -0.64819848927E-01  0.85341077946E-02  0.91212912943E-01  0.11222522185E+00  0.51100000000E-03 0. -1.
         11    1    4    4    0    0 -0.84818701444E-02  0.97668602490E-02  0.17017162457E-01  0.21381735649E-01  0.51100000000E-03 0.  1.
</event>
<event>
 8    1  0.1061721E+005  0.1043930E+01  0.7957747E-01            NaN
         13   -1    0    0    0    0  0.00000000000E+00  0.00000000000E+00  0.74505805969E-08  0.10566000000E+00  0.10566000000E+00 0. -1.
     999900   -1    0    0    0    0 -0.00000000000E+00 -0.00000000000E+00 -0.74505805969E-08  0.93827000000E+00  0.93827000000E+00 0. -1.
     999902    2    1    2    0    0 -0.15520927319E-01  0.16565326906E-01  0.60924274950E-02  0.10204262362E+01  0.10201555159E+01 0.  0.
     999903    2    3    3    0    0  0.11330814653E+00 -0.53069227009E-01 -0.11516743913E-01  0.12815050286E+00  0.25195973240E-01 0.  0.
         14    1    1    2    0    0  0.15520927319E-01 -0.16565326906E-01 -0.60924274950E-02  0.23503763808E-01  0.00000000000E+00 0.  1.
     999901    1    3    3    0    0 -0.12882907385E+00  0.69634553915E-01  0.17609171408E-01  0.89227573333E+00  0.88000000000E+00 0.  1.
        -11    1    4    4    0    0  0.48499702082E-01 -0.35827974719E-01 -0.13165486759E-02  0.60314668994E-01  0.51100000000E-03 0.  1.
         11    1    4    4    0    0  0.64808444453E-01 -0.17241252290E-01 -0.10200195237E-01  0.67835833870E-01  0.51100000000E-03 0. -1.
</event>
<event>
 8    1  0.1061721E+005  0.1043930E+01  0.7957747E-01            NaN
         13   -1    0    0    0    0  0.00000000000E+00  0.00000000000E+00  0.74505805969E-08  0.10566000000E+00  0.10566000000E+00 0. -1.
     999900   -1    0    0    0    0 -0.00000000000E+00 -0.00000000000E+00 -0.74505805969E-08  0.93827000000E+00  0.93827000000E+00 0. -1.
     999902    2    1    2    0    0  0.14724044603E-01  0.13581753845E-02 -0.28427154065E-01  0.10118871347E+01  0.10113796657E+01 0.  0.
     999903    2    3    3    0    0 -0.47930132339E-01 -0.48904471655E-01  0.95896382186E-01  0.11952609718E+00  0.20035639675E-01 0.  0.
         14    1    1    2    0    0 -0.14724044603E-01 -0.13581753845E-02  0.28427154065E-01  0.32042865322E-01  0.00000000000E+00 0. -1.
     999901    1    3    3    0    0  0.62654176942E-01  0.50262647040E-01 -0.12432353625E+00  0.89236103750E+00  0.88000000000E+00 0. -1.
        -11    1    4    4    0    0 -0.82397682355E-02 -0.15494616101E-01  0.37530284589E-01  0.41433806138E-01  0.51100000000E-03 0. -1.
         11    1    4    4    0    0 -0.39690364104E-01 -0.33409855554E-01  0.58366097597E-01  0.78092291044E-01  0.51100000000E-03 0.  1.
</event>
<event>
 8    1  0.1061721E+005  0.1043930E+01  0.7957747E-01            NaN
         13   -1    0    0    0    0  0.00000000000E+00  0.00000000000E+00  0.74505805969E-08  0.10566000000E+00  0.10566000000E+00 0. -1.
     999900   -1    0    0    0    0 -0.00000000000E+00 -0.00000000000E+00 -0.74505805969E-08  0.93827000000E+00  0.93827000000E+00 0.  1.
     999902    2    1    2    0    0  0.21296187333E-01 -0.46163719837E-02  0.66876992805E-02  0.10211360577E+01  0.10208816212E+01 0.  0.
     999903    2    3    3    0    0 -0.84647510630E-03  0.11828142699E+00 -0.51238142859E-01  0.13043432888E+00  0.19913673072E-01 0.  0.
         14    1    1    2    0    0 -0.21296187333E-01  0.46163719837E-02 -0.66876992805E-02  0.22793942329E-01  0.00000000000E+00 0.  1.
     999901    1    3    3    0    0  0.22142662440E-01 -0.12289779897E+00  0.57925842139E-01  0.89070172880E+00  0.88000000000E+00 0.  1.
        -11    1    4    4    0    0  0.93376337372E-02  0.62577694380E-01 -0.28861704518E-01  0.69544362434E-01  0.51100000000E-03 0.  1.
         11    1    4    4    0    0 -0.10184108843E-01  0.55703732608E-01 -0.22376438341E-01  0.60889966441E-01  0.51100000000E-03 0. -1.
</event>
<event>
 8    1  0.1061721E+005  0.1043930E+01  0.7957747E-01            NaN
         13   -1    0    0    0    0  0.00000000000E+00  0.00000000000E+00  0.74505805969E-08  0.10566000000E+00  0.10566000000E+00 0. -1.
     999900   -1    0    0    0    0 -0.00000000000E+00 -0.00000000000E+00 -0.74505805969E-08  0.93827000000E+00  0.93827000000E+00 0.  1.
     999902    2    1    2    0    0  0.40189652333E-03 -0.21495723304E-01  0.58059568504E-02  0.10216603620E+01  0.10214176220E+01 0.  0.
     999903    2    3    3    0    0  0.77062873351E-02 -0.73834364182E-01  0.10951631603E+00  0.13399571472E+00  0.21216217565E-01 0.  0.
         14    1    1    2    0    0 -0.40189652333E-03  0.21495723304E-01 -0.58059568504E-02  0.22269637988E-01  0.00000000000E+00 0.  1.
     999901    1    3    3    0    0 -0.73043908118E-02  0.52338640878E-01 -0.10371035918E+00  0.88766464729E+00  0.88000000000E+00 0.  1.
        -11    1    4    4    0    0  0.10667600886E-01 -0.23644890060E-01  0.27603339568E-01  0.37882502701E-01  0.51100000000E-03 0. -1.
         11    1    4    4    0    0 -0.29613135509E-02 -0.50189474123E-01  0.81912976460E-01  0.96113212017E-01  0.51100000000E-03 0.  1.
</event>
<event>
 8    1  0.1061721E+005  0.1043930E+01  0.7957747E-01            NaN
         13   -1    0    0    0    0  0.00000000000E+00  0.00000000000E+00  0.74505805969E-08  0.10566000000E+00  0.10566000000E+00 0. -1.
     999900   -1    0    0    0    0 -0.00000000000E+00 -0.00000000000E+00 -0.74505805969E-08  0.93827000000E+00  0.93827000000E+00 0. -1.
     999902    2    1    2    0    0  0.31712393006E-02 -0.12669745282E-01  0.19494833840E-01  0.10204645413E+01  0.10201947130E+01 0.  0.
     999903    2    3    3    0    0 -0.10471444203E+00 -0.59237024668E-01  0.50965729173E-01  0.13209623426E+00  0.19436308667E-01 0.  0.
         14    1    1    2    0    0 -0.31712393006E-02  0.12669745282E-01 -0.19494833840E-01  0.23465458671E-01  0.00000000000E+00 0.  1.
     999901    1    3    3    0    0  0.10788568133E+00  0.46567279386E-01 -0.31470895333E-01  0.88836830707E+00  0.88000000000E+00 0.  1.
        -11    1    4    4    0    0 -0.74655107381E-01 -0.50989079133E-01  0.41793456399E-01  0.99600328150E-01  0.51100000000E-03 0.  1.
         11    1    4    4    0    0 -0.30059334651E-01 -0.82479455353E-02  0.91722727741E-02  0.32495906112E-01  0.51100000000E-03 0. -1.
</event>
<event>
 8    1  0.1061721E+005  0.1043930E+01  0.7957747E-01            NaN
         13   -1    0    0    0    0  0.00000000000E+00  0.00000000000E+00  0.74505805969E-08  0.10566000000E+00  0.10566000000E+00 0. -1.
     999900   -1    0    0    0    0 -0.00000000000E+00 -0.00000000000E+00 -0.74505805969E-08  0.93827000000E+00  0.93827000000E+00 0.  1.
     999902    2    1    2    0    0 -0.17744052843E-01  0.54279414920E-02 -0.14410060610E-01  0.10204360900E+01  0.10201655993E+01 0.  0.
     999903    2    3    3    0    0 -0.12422124791E+00  0.68930480108E-03  0.40375150168E-01  0.13231376337E+00  0.21104161967E-01 0.  0.
         14    1    1    2    0    0  0.17744052843E-01 -0.54279414920E-02  0.14410060610E-01  0.23493909997E-01  0.00000000000E+00 0. -1.
     999901    1    3    3    0    0  0.10647719507E+00  0.47386366910E-02 -0.54785210779E-01  0.88812232663E+00  0.88000000000E+00 0.  1.
        -11    1    4    4    0    0 -0.42386369040E-01  0.74372510623E-02  0.66676691022E-02  0.43550383650E-01  0.51100000000E-03 0. -1.
         11    1    4    4    0    0 -0.81834878869E-01 -0.67479462612E-02  0.33707481066E-01  0.88763379719E-01  0.51100000000E-03 0.  1.
</event>
<event>
 8    1  0.1061721E+005  0.1043930E+01  0.7957747E-01            NaN
         13   -1    0    0    0    0  0.00000000000E+00  0.00000000000E+00  0.74505805969E-08  0.10566000000E+00  0.10566000000E+00 0.  1.
     999900   -1    0    0    0    0 -0.00000000000E+00 -0.00000000000E+00 -0.74505805969E-08  0.93827000000E+00  0.93827000000E+00 0. -1.
     999902    2    1    2    0    0 -0.21336366579E-02  0.22796925946E-01 -0.57152754198E-02  0.10203309193E+01  0.10200579730E+01 0.  0.
     999903    2    3    3    0    0  0.76153386398E-01 -0.24768630273E-01 -0.10113434595E+00  0.13044545522E+00  0.19365886276E-01 0.  0.
         14    1    1    2    0    0  0.21336366579E-02 -0.22796925946E-01  0.57152754198E-02  0.23599080726E-01  0.00000000000E+00 0.  1.
     999901    1    3    3    0    0 -0.78287023056E-01  0.47565556219E-01  0.95419070528E-01  0.88988546406E+00  0.88000000000E+00 0.  1.
        -11    1    4    4    0    0  0.28102436329E-01 -0.25834321166E-02 -0.24898989488E-01  0.37638302932E-01  0.51100000000E-03 0.  1.
         11    1    4    4    0    0  0.48050950069E-01 -0.22185198157E-01 -0.76235356460E-01  0.92807152286E-01  0.51100000000E-03 0. -1.
</event>
<event>
 8    1  0.1061721E+005  0.1043930E+01  0.7957747E-01            NaN
         13   -1    0    0    0    0  0.00000000000E+00  0.00000000000E+00  0.74505805969E-08  0.10566000000E+00  0.10566000000E+00 0. -1.
     999900   -1    0    0    0    0 -0.00000000000E+00 -0.00000000000E+00 -0.74505805969E-08  0.93827000000E+00  0.93827000000E+00 0.  1.
     999902    2    1    2    0    0 -0.18508601442E-01  0.13548663476E-01  0.38499112499E-02  0.10206715300E+01  0.10204064954E+01 0.  0.
     999903    2    3    3    0    0  0.12580976267E+00 -0.10028866050E-01 -0.12027650285E-01  0.12846315353E+00  0.20723004257E-01 0.  0.
         14    1    1    2    0    0  0.18508601442E-01 -0.13548663476E-01 -0.38499112499E-02  0.23258469984E-01  0.00000000000E+00 0. -1.
     999901    1    3    3    0    0 -0.14431836411E+00  0.23577529526E-01  0.15877561535E-01  0.89220837649E+00  0.88000000000E+00 0.  1.
        -11    1    4    4    0    0  0.43755703256E-01  0.11787109883E-02  0.45244969707E-02  0.44007762053E-01  0.51100000000E-03 0. -1.
         11    1    4    4    0    0  0.82054059413E-01 -0.11207577038E-01 -0.16552147256E-01  0.84455391474E-01  0.51100000000E-03 0.  1.
</event>
<event>
 8    1  0.1061721E+005  0.1043930E+01  0.7957747E-01            NaN
         13   -1    0    0    0    0  0.00000000000E+00  0.00000000000E+00  0.74505805969E-08  0.10566000000E+00  0.10566000000E+00 0. -1.
     999900   -1    0    0    0    0 -0.00000000000E+00 -0.00000000000E+00 -0.74505805969E-08  0.93827000000E+00  0.93827000000E+00 0.  1.
     999902    2    1    2    0    0  0.16277054698E-01  0.16547198143E-01  0.16747974438E-03  0.10207183580E+01  0.10204544017E+01 0.  0.
     999903    2    3    3    0    0  0.62848899527E-01  0.78965516653E-01  0.84724474668E-01  0.13324167174E+00  0.19737514758E-01 0.  0.
         14    1    1    2    0    0 -0.16277054698E-01 -0.16547198143E-01 -0.16747974438E-03  0.23211642025E-01  0.00000000000E+00 0.  1.
     999901    1    3    3    0    0 -0.46571844829E-01 -0.62418318511E-01 -0.84556994924E-01  0.88747668623E+00  0.88000000000E+00 0.  1.
        -11    1    4    4    0    0  0.51584629834E-01  0.50508501225E-01  0.60940440506E-01  0.94477939971E-01  0.51100000000E-03 0. -1.
         11    1    4    4    0    0  0.11264269693E-01  0.28457015428E-01  0.23784034162E-01  0.38763731771E-01  0.51100000000E-03 0.  1.
</event>
<event>
 8    1  0.1061721E+005  0.1043930E+01  0.7957747E-01            NaN
         13   -1    0    0    0    0  0.00000000000E+00  0.00000000000E+00  0.74505805969E-08  0.10566000000E+00  0.10566000000E+00 0. -1.
     999900   -1    0    0    0    0 -0.00000000000E+00 -0.00000000000E+00 -0.74505805969E-08  0.93827000000E+00  0.93827000000E+00 0.  1.
     999902    2    1    2    0    0 -0.13648873546E-01 -0.13475744766E-01 -0.13151432805E-01  0.10206738690E+01  0.10204088882E+01 0.  0.
     999903    2    3    3    0    0  0.12009985562E+00 -0.31030392366E-01  0.30936087145E-01  0.12930380124E+00  0.19379653206E-01 0.  0.
         14    1    1    2    0    0  0.13648873546E-01  0.13475744766E-01  0.13151432805E-01  0.23256131039E-01  0.00000000000E+00 0.  1.
     999901    1    3    3    0    0 -0.13374872916E+00  0.17554647601E-01 -0.44087519950E-01  0.89137006772E+00  0.88000000000E+00 0. -1.
        -11    1    4    4    0    0  0.94972588518E-01 -0.27866036580E-01  0.31792851292E-01  0.10395842957E+00  0.51100000000E-03 0.  1.
         11    1    4    4    0    0  0.25127267101E-01 -0.31643557864E-02 -0.85676414660E-03  0.25345371674E-01  0.51100000000E-03 0. -1.
</event>
<event>
 8    1  0.1061721E+005  0.1043930E+01  0.7957747E-01            NaN
         13   -1    0    0    0    0  0.00000000000E+00  0.00000000000E+00  0.74505805969E-08  0.10566000000E+00  0.10566000000E+00 0.  1.
     999900   -1    0    0    0    0 -0.00000000000E+00 -0.00000000000E+00 -0.74505805969E-08  0.93827000000E+00  0.93827000000E+00 0. -1.
     999902    2    1    2    0    0 -0.82371559846E-02  0.11412707663E-01 -0.19309147108E-01  0.10200355698E+01  0.10197556667E+01 0.  0.
     999903    2    3    3    0    0  0.22291556383E-01 -0.95519009806E-01  0.75608647105E-01  0.12797291380E+00  0.32242897355E-01 0.  0.
         14    1    1    2    0    0  0.82371559846E-02 -0.11412707663E-01  0.19309147108E-01  0.23894430249E-01  0.00000000000E+00 0.  1.
     999901    1    3    3    0    0 -0.30528712368E-01  0.10693171747E+00 -0.94917794212E-01  0.89206265595E+00  0.88000000000E+00 0. -1.
        -11    1    4    4    0    0  0.20779623175E-01 -0.25749850605E-01  0.29471195458E-01  0.44313203768E-01  0.51100000000E-03 0. -1.
         11    1    4    4    0    0  0.15119332082E-02 -0.69769159200E-01  0.46137451647E-01  0.83659710034E-01  0.51100000000E-03 0.  1.
</event>
<event>
 8    1  0.1061721E+005  0.1043930E+01  0.7957747E-01            NaN
         13   -1    0    0    0    0  0.00000000000E+00  0.00000000000E+00  0.74505805969E-08  0.10566000000E+00  0.10566000000E+00 0.  1.
     999900   -1    0    0    0    0 -0.00000000000E+00 -0.00000000000E+00 -0.74505805969E-08  0.93827000000E+00  0.93827000000E+00 0. -1.
     999902    2    1    2    0    0 -0.18353264192E-01 -0.11869631572E-01 -0.72746976690E-02  0.10208941218E+01  0.10206341931E+01 0.  0.
     999903    2    3    3    0    0 -0.21024650105E-01  0.11831638979E+00 -0.45730190244E-01  0.13048165477E+00  0.22212787437E-01 0.  0.
         14    1    1    2    0    0  0.18353264192E-01  0.11869631572E-01  0.72746976690E-02  0.23035878241E-01  0.00000000000E+00 0. -1.
     999901    1    3    3    0    0  0.26713859130E-02 -0.13018602137E+00  0.38455492575E-01  0.89041246699E+00  0.88000000000E+00 0. -1.
        -11    1    4    4    0    0 -0.83175808464E-03  0.57882179689E-01 -0.28200508318E-01  0.64393853258E-01  0.51100000000E-03 0. -1.
         11    1    4    4    0    0 -0.20192892021E-01  0.60434210105E-01 -0.17529681926E-01  0.66087801511E-01  0.51100000000E-03 0.  1.
</event>
<event>
 8    1  0.1061721E+005  0.1043930E+01  0.7957747E-01            NaN
         13   -1    0    0    0    0  0.00000000000E+00  0.00000000000E+00  0.74505805969E-08  0.10566000000E+00  0.10566000000E+00 0.  1.
     999900   -1    0    0    0    0 -0.00000000000E+00 -0.00000000000E+00 -0.74505805969E-08  0.93827000000E+00  0.93827000000E+00 0. -1.
     999902    2    1    2    0    0 -0.51476853167E-02  0.19671065475E-01 -0.13507202258E-01  0.10195190600E+01  0.10192267754E+01 0.  0.
     999903    2    3    3    0    0  0.90321686836E-01  0.89945289652E-01  0.21739165607E-01  0.13087111276E+00  0.20161711002E-01 0.  0.
         14    1    1    2    0    0  0.51476853167E-02 -0.19671065475E-01  0.13507202258E-01  0.24410940045E-01  0.00000000000E+00 0.  1.
     999901    1    3    3    0    0 -0.95469372153E-01 -0.70274224177E-01 -0.35246367865E-01  0.88864794719E+00  0.88000000000E+00 0.  1.
        -11    1    4    4    0    0  0.64227903962E-01  0.51327828173E-01  0.10160234136E-01  0.82844801110E-01  0.51100000000E-03 0.  1.
         11    1    4    4    0    0  0.26093782874E-01  0.38617461480E-01  0.11578931470E-01  0.48026311651E-01  0.51100000000E-03 0. -1.
</event>
<event>
 8    1  0.1061721E+005  0.1043930E+01  0.7957747E-01            NaN
         13   -1    0    0    0    0  0.00000000000E+00  0.00000000000E+00  0.74505805969E-08  0.10566000000E+00  0.10566000000E+00 0. -1.
     999900   -1    0    0    0    0 -0.00000000000E+00 -0.00000000000E+00 -0.74505805969E-08  0.93827000000E+00  0.93827000000E+00 0. -1.
     999902    2    1    2    0    0 -0.16516414283E-01 -0.75757627517E-02  0.14110803301E-01  0.10209235033E+01  0.10206642448E+01 0.  0.
     999903    2    3    3    0    0  0.72781215854E-01 -0.40563479102E-01  0.10006998675E+00  0.13162533201E+00  0.19202201987E-01 0.  0.
         14    1    1    2    0    0  0.16516414283E-01  0.75757627517E-02 -0.14110803301E-01  0.23006496731E-01  0.00000000000E+00 0.  1.
     999901    1    3    3    0    0 -0.89297630137E-01  0.32987716350E-01 -0.85959183451E-01  0.88929817126E+00  0.88000000000E+00 0. -1.
        -11    1    4    4    0    0  0.11159479564E-01 -0.21122032316E-02  0.23375639735E-01  0.25993788501E-01  0.51100000000E-03 0.  1.
         11    1    4    4    0    0  0.61621736290E-01 -0.38451275870E-01  0.76694347017E-01  0.10563154351E+00  0.51100000000E-03 0. -1.
</event>
<event>
 8    1  0.1061721E+005  0.1043930E+01  0.7957747E-01            NaN
         13   -1    0    0    0    0  0.00000000000E+00  0.00000000000E+00  0.74505805969E-08  0.10566000000E+00  0.10566000000E+00 0. -1.
     999900   -1    0    0    0    0 -0.00000000000E+00 -0.00000000000E+00 -0.74505805969E-08  0.93827000000E+00  0.93827000000E+00 0.  1.
     999902    2    1    2    0    0  0.15062987210E-01 -0.23321167691E-02  0.19861805563E-01  0.10188935531E+01  0.10185859065E+01 0.  0.
     999903    2    3    3    0    0  0.35111078434E-01  0.35973810767E-01 -0.11475226766E+00  0.12760784205E+00  0.24264697181E-01 0.  0.
         14    1    1    2    0    0 -0.15062987210E-01  0.23321167691E-02 -0.19861805563E-01  0.25036446884E-01  0.00000000000E+00 0.  1.
     999901    1    3    3    0    0 -0.20048091223E-01 -0.38305927536E-01  0.13461407322E+00  0.89128571107E+00  0.88000000000E+00 0. -1.
        -11    1    4    4    0    0  0.28533801784E-01  0.12912813972E-01 -0.56332598433E-01  0.64455731911E-01  0.51100000000E-03 0.  1.
         11    1    4    4    0    0  0.65772766498E-02  0.23060996794E-01 -0.58419669226E-01  0.63152110137E-01  0.51100000000E-03 0. -1.
</event>
<event>
 8    1  0.1061721E+005  0.1043930E+01  0.7957747E-01            NaN
         13   -1    0    0    0    0  0.00000000000E+00  0.00000000000E+00  0.74505805969E-08  0.10566000000E+00  0.10566000000E+00 0.  1.
     999900   -1    0    0    0    0 -0.00000000000E+00 -0.00000000000E+00 -0.74505805969E-08  0.93827000000E+00  0.93827000000E+00 0.  1.
     999902    2    1    2    0    0 -0.16006603360E-01 -0.57880842514E-02  0.16949599839E-01  0.10199091298E+01  0.10196262211E+01 0.  0.
     999903    2    3    3    0    0 -0.86663048718E-01 -0.30060214959E-02 -0.96087543760E-01  0.12986560897E+00  0.10617916395E-01 0.  0.
         14    1    1    2    0    0  0.16006603360E-01  0.57880842514E-02 -0.16949599839E-01  0.24020870199E-01  0.00000000000E+00 0. -1.
     999901    1    3    3    0    0  0.70656445358E-01 -0.27820627555E-02  0.11303714360E+00  0.89004352083E+00  0.88000000000E+00 0. -1.
        -11    1    4    4    0    0 -0.34552428081E-01 -0.36965604693E-02 -0.45290810139E-01  0.57088120039E-01  0.51100000000E-03 0.  1.
         11    1    4    4    0    0 -0.52110620637E-01  0.69053897344E-03 -0.50796733621E-01  0.72777488929E-01  0.51100000000E-03 0. -1.
</event>
<event>
 8    1  0.1061721E+005  0.1043930E+01  0.7957747E-01            NaN
         13   -1    0    0    0    0  0.00000000000E+00  0.00000000000E+00  0.74505805969E-08  0.10566000000E+00  0.10566000000E+00 0.  1.
     999900   -1    0    0    0    0 -0.00000000000E+00 -0.00000000000E+00 -0.74505805969E-08  0.93827000000E+00  0.93827000000E+00 0.  1.
     999902    2    1    2    0    0 -0.22871135539E-01  0.10983116777E-02  0.80821713631E-02  0.10196479774E+01  0.10193588088E+01 0.  0.
     999903    2    3    3    0    0 -0.10025060667E+00 -0.69336931057E-01 -0.45873452814E-01  0.13180794934E+00  0.20277270323E-01 0.  0.
         14    1    1    2    0    0  0.22871135539E-01 -0.10983116777E-02 -0.80821713631E-02  0.24282022637E-01  0.00000000000E+00 0. -1.
     999901    1    3    3    0    0  0.77379471129E-01  0.70435242735E-01  0.53955624177E-01  0.88784002802E+00  0.88000000000E+00 0. -1.
        -11    1    4    4    0    0 -0.58621640815E-01 -0.44415466474E-01 -0.17510232631E-01  0.75604892710E-01  0.51100000000E-03 0. -1.
         11    1    4    4    0    0 -0.41628965853E-01 -0.24921464583E-01 -0.28363220183E-01  0.56203056635E-01  0.51100000000E-03 0.  1.
</event>
<event>
 8    1  0.1061721E+005  0.1043930E+01  0.7957747E-01            NaN
         13   -1    0    0    0    0  0.00000000000E+00  0.00000000000E+00  0.74505805969E-08  0.10566000000E+00  0.10566000000E+00 0. -1.
     999900   -1    0    0    0    0 -0.00000000000E+00 -0.00000000000E+00 -0.74505805969E-08  0.93827000000E+00  0.93827000000E+00 0. -1.
     999902    2    1    2    0    0 -0.28388884823E-02 -0.18836611242E-01  0.14459706393E-01  0.10200143081E+01  0.10197339008E+01 0.  0.
     999903    2    3    3    0    0  0.94116313201E-01 -0.43538417764E-01 -0.75444070755E-01  0.12979344811E+00  0.20026410790E-01 0.  0.
         14    1    1    2    0    0  0.28388884823E-02  0.18836611242E-01 -0.14459706393E-01  0.23915691917E-01  0.00000000000E+00 0.  1.
     999901    1    3    3    0    0 -0.96955201683E-01  0.24701806521E-01  0.89903777148E-01  0.89022085997E+00  0.88000000000E+00 0.  1.
        -11    1    4    4    0    0  0.48956440986E-01 -0.13724116787E-01 -0.43760432370E-01  0.67084432306E-01  0.51100000000E-03 0. -1.
         11    1    4    4    0    0  0.45159872214E-01 -0.29814300977E-01 -0.31683638385E-01  0.62709015807E-01  0.51100000000E-03 0.  1.
</event>
<event>
 8    1  0.1061721E+005  0.1043930E+01  0.7957747E-01            NaN
         13   -1    0    0    0    0  0.00000000000E+00  0.00000000000E+00  0.74505805969E-08  0.10566000000E+00  0.10566000000E+00 0.  1.
     999900   -1    0    0    0    0 -0.00000000000E+00 -0.00000000000E+00 -0.74505805969E-08  0.93827000000E+00  0.93827000000E+00 0. -1.
     999902    2    1    2    0    0 -0.50544250628E-02 -0.21437462855E-01 -0.11006726491E-01  0.10193076513E+01  0.10190102198E+01 0.  0.
     999903    2    3    3    0    0 -0.28910762269E-01 -0.42141586512E-01 -0.11996155906E+00  0.13202588035E+00  0.20695698583E-01 0.  0.
         14    1    1    2    0    0  0.50544250628E-02  0.21437462855E-01  0.11006726491E-01  0.24622348678E-01  0.00000000000E+00 0. -1.
     999901    1    3    3    0    0  0.23856337207E-01  0.20704123657E-01  0.10895483257E+00  0.88728177097E+00  0.88000000000E+00 0.  1.
        -11    1    4    4    0    0 -0.25194894015E-01 -0.18675319059E-01 -0.69276461002E-01  0.76046297717E-01  0.51100000000E-03 0.  1.
         11    1    4    4    0    0 -0.37158682543E-02 -0.23466267453E-01 -0.50685098062E-01  0.55979582632E-01  0.51100000000E-03 0. -1.
</event>
<event>
 8    1  0.1061721E+005  0.1043930E+01  0.7957747E-01            NaN
         13   -1    0    0    0    0  0.00000000000E+00  0.00000000000E+00  0.74505805969E-08  0.10566000000E+00  0.10566000000E+00 0. -1.
     999900   -1    0    0    0    0 -0.00000000000E+00 -0.00000000000E+00 -0.74505805969E-08  0.93827000000E+00  0.93827000000E+00 0.  1.
     999902    2    1    2    0    0  0.90105323733E-02 -0.18220099090E-01  0.12822834441E-01  0.10198969647E+01  0.10196137660E+01 0.  0.
     999903    2    3    3    0    0 -0.26398155721E-01 -0.10647709958E+00 -0.68084562241E-01  0.13108366584E+00  0.22653575261E-01 0.  0.
         14    1    1    2    0    0 -0.90105323733E-02  0.18220099090E-01 -0.12822834441E-01  0.24033035339E-01  0.00000000000E+00 0.  1.
     999901    1    3    3    0    0  0.35408688095E-01  0.88257000494E-01  0.80907396683E-01  0.88881329882E+00  0.88000000000E+00 0. -1.
        -11    1    4    4    0    0 -0.26712839340E-01 -0.63479257226E-01 -0.38701695828E-01  0.79001735833E-01  0.51100000000E-03 0. -1.
         11    1    4    4    0    0  0.31468361888E-03 -0.42997842358E-01 -0.29382866414E-01  0.52081930004E-01  0.51100000000E-03 0.  1.
</event>
<event>
 8    1  0.1061721E+005  0.1043930E+01  0.7957747E-01            NaN
         13   -1    0    0    0    0  0.00000000000E+00  0.00000000000E+00  0.74505805969E-08  0.10566000000E+00  0.10566000000E+00 0.  1.
     999900   -1    0    0    0    0 -0.00000000000E+00 -0.00000000000E+00 -0.74505805969E-08  0.93827000000E+00  0.93827000000E+00 0.  1.
     999902    2    1    2    0    0  0.17534159957E-01  0.13343283035E-01 -0.89504403077E-02  0.10201476463E+01  0.10198703936E+01 0.  0.
     999903    2    3    3    0    0 -0.43690357227E-01  0.10849338471E+00 -0.56828240390E-01  0.13161274706E+00  0.20317589527E-01 0.  0.
         14    1    1    2    0    0 -0.17534159957E-01 -0.13343283035E-01  0.89504403077E-02  0.23782353737E-01  0.00000000000E+00 0. -1.
     999901    1    3    3    0    0  0.61224517184E-01 -0.95150101672E-01  0.47877800082E-01  0.88853489920E+00  0.88000000000E+00 0.  1.
        -11    1    4    4    0    0  0.12376577340E-02  0.12359470817E-01 -0.81473619046E-02  0.14863678634E-01  0.51100000000E-03 0. -1.
         11    1    4    4    0    0 -0.44928014961E-01  0.96133913891E-01 -0.48680878485E-01  0.11674906843E+00  0.51100000000E-03 0.  1.
</event>
<event>
 8    1  0.1061721E+005  0.1043930E+01  0.7957747E-01            NaN
         13   -1    0    0    0    0  0.00000000000E+00  0.00000000000E+00  0.74505805969E-08  0.10566000000E+00  0.10566000000E+00 0.  1.
     999900   -1    0    0    0    0 -0.00000000000E+00 -0.00000000000E+00 -0.74505805969E-08  0.93827000000E+00  0.93827000000E+00 0. -1.
     999902    2    1    2    0    0  0.19859348769E-01 -0.46900052003E-02 -0.13553721150E-01  0.10194331994E+01  0.10191388300E+01 0.  0.
     999903    2    3    3    0    0 -0.11004364360E+00 -0.35710106024E-01 -0.52242582438E-01  0.12851577222E+00  0.20054952484E-01 0.  0.
         14    1    1    2    0    0 -0.19859348769E-01  0.46900052003E-02  0.13553721150E-01  0.24496800594E-01  0.00000000000E+00 0.  1.
     999901    1    3    3    0    0  0.12990299237E+00  0.31020100824E-01  0.38688861288E-01  0.89091742719E+00  0.88000000000E+00 0.  1.
        -11    1    4    4    0    0 -0.40390019649E-01 -0.31152058929E-02 -0.17879259496E-01  0.44283035534E-01  0.51100000000E-03 0.  1.
         11    1    4    4    0    0 -0.69653623953E-01 -0.32594900131E-01 -0.34363322942E-01  0.84232736683E-01  0.51100000000E-03 0. -1.
</event>
<event>
 8    1  0.1061721E+005  0.1043930E+01  0.7957747E-01            NaN
         13   -1    0    0    0    0  0.00000000000E+00  0.00000000000E+00  0.74505805969E-08  0.10566000000E+00  0.10566000000E+00 0.  1.
     999900   -1    0    0    0    0 -0.00000000000E+00 -0.00000000000E+00 -0.74505805969E-08  0.93827000000E+00  0.93827000000E+00 0.  1.
     999902    2    1    2    0    0  0.22537617145E-01  0.31781732146E-02 -0.99464633221E-02  0.10190909762E+01  0.10187882217E+01 0.  0.
     999903    2    3    3    0    0 -0.24880499701E-02 -0.51996240889E-01  0.11539014317E+00  0.12814778781E+00  0.19929147481E-01 0.  0.
         14    1    1    2    0    0 -0.22537617145E-01 -0.31781732146E-02  0.99464633221E-02  0.24839023817E-01  0.00000000000E+00 0.  1.
     999901    1    3    3    0    0  0.25025667115E-01  0.55174414104E-01 -0.12533660649E+00  0.89094318838E+00  0.88000000000E+00 0.  1.
        -11    1    4    4    0    0 -0.32267852834E-02 -0.42017166631E-01  0.70357477409E-01  0.82013963343E-01  0.51100000000E-03 0. -1.
         11    1    4    4    0    0  0.73873531335E-03 -0.99790742585E-02  0.45032665763E-01  0.46133824464E-01  0.51100000000E-03 0.  1.
</event>
<event>
 8    1  0.1061721E+005  0.1043930E+01  0.7957747E-01            NaN
         13   -1    0    0    0    0  0.00000000000E+00  0.00000000000E+00  0.74505805969E-08  0.10566000000E+00  0.10566000000E+00 0. -1.
     999900   -1    0    0    0    0 -0.00000000000E+00 -0.00000000000E+00 -0.74505805969E-08  0.93827000000E+00  0.93827000000E+00 0. -1.
     999902    2    1    2    0    0  0.74049664959E-02 -0.15243082827E-02  0.23188944976E-01  0.10195397517E+01  0.10192479684E+01 0.  0.
     999903    2    3    3    0    0  0.42275222711E-02  0.12374796463E+00  0.34175672630E-01  0.13059433900E+00  0.23568497744E-01 0.  0.
         14    1    1    2    0    0 -0.74049664959E-02  0.15243082827E-02 -0.23188944976E-01  0.24390248331E-01  0.00000000000E+00 0.  1.
     999901    1    3    3    0    0  0.31774442248E-02 -0.12527227291E+00 -0.10986727654E-01  0.88894541266E+00  0.88000000000E+00 0. -1.
        -11    1    4    4    0    0  0.12306500032E-01  0.39764435059E-01  0.12882854092E-01  0.43576246846E-01  0.51100000000E-03 0. -1.
         11    1    4    4    0    0 -0.80789777605E-02  0.83983529570E-01  0.21292818538E-01  0.87018092159E-01  0.51100000000E-03 0.  1.
</event>
<event>
 8    1  0.1061721E+005  0.1043930E+01  0.7957747E-01            NaN
         13   -1    0    0    0    0  0.00000000000E+00  0.00000000000E+00  0.74505805969E-08  0.10566000000E+00  0.10566000000E+00 0. -1.
     999900   -1    0    0    0    0 -0.00000000000E+00 -0.00000000000E+00 -0.74505805969E-08  0.93827000000E+00  0.93827000000E+00 0. -1.
     999902    2    1    2    0    0 -0.22373243437E-01 -0.49463454987E-02 -0.57029229516E-02  0.10203174676E+01  0.10200442064E+01 0.  0.
     999903    2    3    3    0    0  0.11291869228E+00  0.36678016351E-01  0.42487180597E-01  0.12770401182E+00  0.20180341207E-01 0.  0.
         14    1    1    2    0    0  0.22373243437E-01  0.49463454987E-02  0.57029229516E-02  0.23612532390E-01  0.00000000000E+00 0. -1.
     999901    1    3    3    0    0 -0.13529193572E+00 -0.41624361849E-01 -0.48190103549E-01  0.89261345579E+00  0.88000000000E+00 0. -1.
        -11    1    4    4    0    0  0.92155178253E-01  0.33176366175E-01  0.27121861160E-01  0.10163220270E+00  0.51100000000E-03 0. -1.
         11    1    4    4    0    0  0.20763514027E-01  0.35016501753E-02  0.15365319438E-01  0.26071809127E-01  0.51100000000E-03 0.  1.
</event>
<event>
 8    1  0.1061721E+005  0.1043930E+01  0.7957747E-01            NaN
         13   -1    0    0    0    0  0.00000000000E+00  0.00000000000E+00  0.74505805969E-08  0.10566000000E+00  0.10566000000E+00 0. -1.
     999900   -1    0    0    0    0 -0.00000000000E+00 -0.00000000000E+00 -0.74505805969E-08  0.93827000000E+00  0.93827000000E+00 0. -1.
     999902    2    1    2    0    0  0.76261359660E-02  0.78135189341E-02  0.22675866583E-01  0.10187624822E+01  0.10184515654E+01 0.  0.
     999903    2    3    3    0    0 -0.55556766710E-01 -0.84253807974E-01  0.79266464809E-01  0.12990311891E+00  0.20159101484E-01 0.  0.
         14    1    1    2    0    0 -0.76261359660E-02 -0.78135189341E-02 -0.22675866583E-01  0.25167517819E-01  0.00000000000E+00 0.  1.
     999901    1    3    3    0    0  0.63182902676E-01  0.92067326908E-01 -0.56590598226E-01  0.88885936328E+00  0.88000000000E+00 0. -1.
        -11    1    4    4    0    0 -0.43014685354E-01 -0.73532208363E-01  0.73186222723E-01  0.11231087721E+00  0.51100000000E-03 0. -1.
         11    1    4    4    0    0 -0.12542081355E-01 -0.10721599611E-01  0.60802420864E-02  0.17592241693E-01  0.51100000000E-03 0.  1.
</event>
<event>
 8    1  0.1061721E+005  0.1043930E+01  0.7957747E-01            NaN
         13   -1    0    0    0    0  0.00000000000E+00  0.00000000000E+00  0.74505805969E-08  0.10566000000E+00  0.10566000000E+00 0.  1.
     999900   -1    0    0    0    0 -0.00000000000E+00 -0.00000000000E+00 -0.74505805969E-08  0.93827000000E+00  0.93827000000E+00 0.  1.
     999902    2    1    2    0    0  0.79792878488E-02 -0.18680312986E-01  0.11498075259E-01  0.10205884306E+01  0.10203214767E+01 0.  0.
     999903    2    3    3    0    0  0.22425541947E-01  0.84352691987E-02 -0.12617965680E+00  0.12935383355E+00  0.15396420530E-01 0.  0.
         14    1    1    2    0    0 -0.79792878488E-02  0.18680312986E-01 -0.11498075259E-01  0.23341569409E-01  0.00000000000E+00 0. -1.
     999901    1    3    3    0    0 -0.14446254098E-01 -0.27115582184E-01  0.13767773206E+00  0.89123459704E+00  0.88000000000E+00 0. -1.
        -11    1    4    4    0    0  0.58878964104E-02  0.84596592106E-02 -0.71029485870E-01  0.71775219554E-01  0.51100000000E-03 0. -1.
         11    1    4    4    0    0  0.16537645536E-01 -0.24390011877E-04 -0.55150170934E-01  0.57578613997E-01  0.51100000000E-03 0.  1.
</event>
<event>
 8    1  0.1061721E+005  0.1043930E+01  0.7957747E-01            NaN
         13   -1    0    0    0    0  0.00000000000E+00  0.00000000000E+00  0.74505805969E-08  0.10566000000E+00  0.10566000000E+00 0.  1.
     999900   -1    0    0    0    0 -0.00000000000E+00 -0.00000000000E+00 -0.74505805969E-08  0.93827000000E+00  0.93827000000E+00 0. -1.
     999902    2    1    2    0    0  0.12589885838E-02 -0.55636777074E-02 -0.23717371335E-01  0.10195362864E+01  0.10192444191E+01 0.  0.
     999903    2    3    3    0    0  0.68794267286E-01 -0.10656000337E+00 -0.27197539157E-01  0.13118197460E+00  0.19527385736E-01 0.  0.
         14    1    1    2    0    0 -0.12589885838E-02  0.55636777074E-02  0.23717371335E-01  0.24393713635E-01  0.00000000000E+00 0.  1.
     999901    1    3    3    0    0 -0.67535278703E-01  0.10099632566E+00  0.34801678221E-02  0.88835431177E+00  0.88000000000E+00 0. -1.
        -11    1    4    4    0    0  0.17173545001E-01 -0.20369581144E-01 -0.13219150343E-01  0.29746555106E-01  0.51100000000E-03 0. -1.
         11    1    4    4    0    0  0.51620722285E-01 -0.86190422225E-01 -0.13978388814E-01  0.10143541949E+00  0.51100000000E-03 0.  1.
</event>
<event>
 8    1  0.1061721E+005  0.1043930E+01  0.7957747E-01            NaN
         13   -1    0    0    0    0  0.00000000000E+00  0.00000000000E+00  0.74505805969E-08  0.10566000000E+00  0.10566000000E+00 0.  1.
     999900   -1    0    0    0    0 -0.00000000000E+00 -0.00000000000E+00 -0.74505805969E-08  0.93827000000E+00  0.93827000000E+00 0. -1.
     999902    2    1    2    0    0  0.15157738159E-01 -0.94711124474E-02 -0.14741549030E-01  0.10207616538E+01  0.10204986926E+01 0.  0.
     999903    2    3    3    0    0 -0.97263518210E-01 -0.24484952708E-01  0.78103335258E-01  0.12863827288E+00  0.19696938498E-01 0.  0.
         14    1    1    2    0    0 -0.15157738159E-01  0.94711124474E-02  0.14741549030E-01  0.23168346184E-01  0.00000000000E+00 0.  1.
     999901    1    3    3    0    0  0.11242125637E+00  0.15013840260E-01 -0.92844884288E-01  0.89212338094E+00  0.88000000000E+00 0. -1.
        -11    1    4    4    0    0 -0.31479217002E-01 -0.96461541823E-02  0.14647848321E-01  0.36039006298E-01  0.51100000000E-03 0.  1.
         11    1    4    4    0    0 -0.65784301209E-01 -0.14838798525E-01  0.63455486936E-01  0.92599266577E-01  0.51100000000E-03 0. -1.
</event>
<event>
 8    1  0.1061721E+005  0.1043930E+01  0.7957747E-01            NaN
         13   -1    0    0    0    0  0.00000000000E+00  0.00000000000E+00  0.74505805969E-08  0.10566000000E+00  0.10566000000E+00 0.  1.
     999900   -1    0    0    0    0 -0.00000000000E+00 -0.00000000000E+00 -0.74505805969E-08  0.93827000000E+00  0.93827000000E+00 0.  1.
     999902    2    1    2    0    0 -0.12600087802E-01 -0.19221434585E-01  0.22199615946E-02  0.10208398725E+01  0.10205787041E+01 0.  0.
     999903    2    3    3    0    0  0.47850174900E-02  0.71706277263E-01  0.10618013111E+00  0.12989778259E+00  0.20845313343E-01 0.  0.
         14    1    1    2    0    0  0.12600087802E-01  0.19221434585E-01 -0.22199615946E-02  0.23090127536E-01  0.00000000000E+00 0.  1.
     999901    1    3    3    0    0 -0.17385105292E-01 -0.90927711848E-01 -0.10396016951E+00  0.89094208988E+00  0.88000000000E+00 0.  1.
        -11    1    4    4    0    0 -0.43304387163E-02  0.51623761538E-01  0.64409528530E-01  0.82659627033E-01  0.51100000000E-03 0.  1.
         11    1    4    4    0    0  0.91154562063E-02  0.20082515725E-01  0.41770602576E-01  0.47238155555E-01  0.51100000000E-03 0. -1.
</event>
<event>
 8    1  0.1061721E+005  0.1043930E+01  0.7957747E-01            NaN
         13   -1    0    0    0    0  0.00000000000E+00  0.00000000000E+00  0.74505805969E-08  0.10566000000E+00  0.10566000000E+00 0.  1.
     999900   -1    0    0    0    0 -0.00000000000E+00 -0.00000000000E+00 -0.74505805969E-08  0.93827000000E+00  0.93827000000E+00 0.  1.
     999902    2    1    2    0    0  0.12611295691E-01  0.16113816878E-01 -0.12903836210E-01  0.10197389094E+01  0.10194519285E+01 0.  0.
     999903    2    3    3    0    0  0.95572676117E-01 -0.74130167485E-01 -0.45227224133E-01  0.13065434161E+00  0.19890626602E-01 0.  0.
         14    1    1    2    0    0 -0.12611295691E-01 -0.16113816878E-01  0.12903836210E-01  0.24191090557E-01  0.00000000000E+00 0.  1.
     999901    1    3    3    0    0 -0.82961380426E-01  0.90243984363E-01  0.32323387922E-01  0.88908456784E+00  0.88000000000E+00 0. -1.
        -11    1    4    4    0    0  0.75581768028E-01 -0.52572776915E-01 -0.41585388847E-01  0.10102527514E+00  0.51100000000E-03 0.  1.
         11    1    4    4    0    0  0.19990908090E-01 -0.21557390570E-01 -0.36418352852E-02  0.29629066467E-01  0.51100000000E-03 0. -1.
</event>
<event>
 8    1  0.1061721E+005  0.1043930E+01  0.7957747E-01            NaN
         13   -1    0    0    0    0  0.00000000000E+00  0.00000000000E+00  0.74505805969E-08  0.10566000000E+00  0.10566000000E+00 0. -1.
     999900   -1    0    0    0    0 -0.00000000000E+00 -0.00000000000E+00 -0.74505805969E-08  0.93827000000E+00  0.93827000000E+00 0. -1.
     999902    2    1    2    0    0  0.15791480287E-01  0.12690368989E-01  0.11601126597E-01  0.10205847124E+01  0.10203176725E+01 0.  0.
     999903    2    3    3    0    0  0.48945014218E-01  0.11856215555E+00 -0.27431431887E-01  0.13276066867E+00  0.20501525447E-01 0.  0.
         14    1    1    2    0    0 -0.15791480287E-01 -0.12690368989E-01 -0.11601126597E-01  0.23345287599E-01  0.00000000000E+00 0.  1.
     999901    1    3    3    0    0 -0.33153533931E-01 -0.10587178656E+00  0.39032558484E-01  0.88782404373E+00  0.88000000000E+00 0. -1.
        -11    1    4    4    0    0  0.19480399113E-01  0.33640537945E-01 -0.34410703694E-03  0.38878673762E-01  0.51100000000E-03 0.  1.
         11    1    4    4    0    0  0.29464615105E-01  0.84921617604E-01 -0.27087324850E-01  0.93881994910E-01  0.51100000000E-03 0. -1.
</event>
<event>
 8    1  0.1061721E+005  0.1043930E+01  0.7957747E-01            NaN
         13   -1    0    0    0    0  0.00000000000E+00  0.00000000000E+00  0.74505805969E-08  0.10566000000E+00  0.10566000000E+00 0. -1.
     999900   -1    0    0    0    0 -0.00000000000E+00 -0.00000000000E+00 -0.74505805969E-08  0.93827000000E+00  0.93827000000E+00 0.  1.
     999902    2    1    2    0    0 -0.19308908955E-01  0.14656911085E-01  0.20490844959E-03  0.10196874549E+01  0.10193992371E+01 0.  0.
     999903    2    3    3    0    0  0.12154512226E+00  0.28043818818E-01 -0.20737222372E-01  0.12813956481E+00  0.20737481934E-01 0.  0.
         14    1    1    2    0    0  0.19308908955E-01 -0.14656911085E-01 -0.20490844959E-03  0.24242545144E-01  0.00000000000E+00 0.  1.
     999901    1    3    3    0    0 -0.14085403122E+00 -0.13386907733E-01  0.20942130821E-01  0.89154789005E+00  0.88000000000E+00 0.  1.
        -11    1    4    4    0    0  0.55844946284E-01  0.21537191375E-01 -0.37924657532E-02  0.59976266600E-01  0.51100000000E-03 0.  1.
         11    1    4    4    0    0  0.65700175980E-01  0.65066274429E-02 -0.16944756619E-01  0.68163298206E-01  0.51100000000E-03 0. -1.
</event>
<event>
 8    1  0.1061721E+005  0.1043930E+01  0.7957747E-01            NaN
         13   -1    0    0    0    0  0.00000000000E+00  0.00000000000E+00  0.74505805969E-08  0.10566000000E+00  0.10566000000E+00 0. -1.
     999900   -1    0    0    0    0 -0.00000000000E+00 -0.00000000000E+00 -0.74505805969E-08  0.93827000000E+00  0.93827000000E+00 0. -1.
     999902    2    1    2    0    0 -0.98731658483E-02 -0.61804584277E-02  0.20592434844E-01  0.10202714742E+01  0.10199971349E+01 0.  0.
     999903    2    3    3    0    0 -0.18087697794E-01  0.10047905499E+00 -0.75413688398E-01  0.12860959544E+00  0.20736401245E-01 0.  0.
         14    1    1    2    0    0  0.98731658483E-02  0.61804584277E-02 -0.20592434844E-01  0.23658525800E-01  0.00000000000E+00 0.  1.
     999901    1    3    3    0    0  0.82145319459E-02 -0.10665951342E+00  0.96006123242E-01  0.89166187876E+00  0.88000000000E+00 0. -1.
        -11    1    4    4    0    0 -0.23861885954E-02  0.53951628003E-01 -0.30305455152E-01  0.61928618532E-01  0.51100000000E-03 0.  1.
         11    1    4    4    0    0 -0.15701509199E-01  0.46527426991E-01 -0.45108233246E-01  0.66680976906E-01  0.51100000000E-03 0. -1.
</event>
<event>
 8    1  0.1061721E+005  0.1043930E+01  0.7957747E-01            NaN
         13   -1    0    0    0    0  0.00000000000E+00  0.00000000000E+00  0.74505805969E-08  0.10566000000E+00  0.10566000000E+00 0.  1.
     999900   -1    0    0    0    0 -0.00000000000E+00 -0.00000000000E+00 -0.74505805969E-08  0.93827000000E+00  0.93827000000E+00 0. -1.
     999902    2    1    2    0    0 -0.95619571471E-02  0.17439531257E-01  0.12841381716E-01  0.10202557659E+01  0.10199810579E+01 0.  0.
     999903    2    3    3    0    0 -0.45418722786E-01 -0.11189388757E+00 -0.40522141623E-01  0.12848196809E+00  0.16806835137E-01 0.  0.
         14    1    1    2    0    0  0.95619571471E-02 -0.17439531257E-01 -0.12841381716E-01  0.23674234081E-01  0.00000000000E+00 0. -1.
     999901    1    3    3    0    0  0.35856765638E-01  0.12933341883E+00  0.53363523339E-01  0.89177379783E+00  0.88000000000E+00 0.  1.
        -11    1    4    4    0    0 -0.35321092817E-01 -0.98567708640E-01 -0.38807782722E-01  0.11166681649E+00  0.51100000000E-03 0. -1.
         11    1    4    4    0    0 -0.10097629968E-01 -0.13326178933E-01 -0.17143589012E-02  0.16815151601E-01  0.51100000000E-03 0.  1.
</event>
<event>
 8    1  0.1061721E+005  0.1043930E+01  0.7957747E-01            NaN
         13   -1    0    0    0    0  0.00000000000E+00  0.00000000000E+00  0.74505805969E-08  0.10566000000E+00  0.10566000000E+00 0.  1.
     999900   -1    0    0    0    0 -0.00000000000E+00 -0.00000000000E+00 -0.74505805969E-08  0.93827000000E+00  0.93827000000E+00 0.  1.
     999902    2    1    2    0    0 -0.10710915764E-01  0.20184070029E-01 -0.35204296314E-02  0.10208104450E+01  0.10205486028E+01 0.  0.
     999903    2    3    3    0    0 -0.86445112888E-01 -0.67601680739E-01  0.67037756592E-01  0.13040578176E+00  0.21653228990E-01 0.  0.
         14    1    1    2    0    0  0.10710915764E-01 -0.20184070029E-01  0.35204296314E-02  0.23119555018E-01  0.00000000000E+00 0. -1.
     999901    1    3    3    0    0  0.75734197124E-01  0.87785750768E-01 -0.70558186223E-01  0.89040466323E+00  0.88000000000E+00 0.  1.
        -11    1    4    4    0    0 -0.70947132667E-01 -0.49005911718E-01  0.60469498878E-01  0.10531807268E+00  0.51100000000E-03 0.  1.
         11    1    4    4    0    0 -0.15497980221E-01 -0.18595769021E-01  0.65682577131E-02  0.25087709078E-01  0.51100000000E-03 0. -1.
</event>
<event>
 8    1  0.1061721E+005  0.1043930E+01  0.7957747E-01            NaN
         13   -1    0    0    0    0  0.00000000000E+00  0.00000000000E+00  0.74505805969E-08  0.10566000000E+00  0.10566000000E+00 0. -1.
     999900   -1    0    0    0    0 -0.00000000000E+00 -0.00000000000E+00 -0.74505805969E-08  0.93827000000E+00  0.93827000000E+00 0.  1.
     999902    2    1    2    0    0  0.18477475906E-01  0.69989978822E-02 -0.13409704395E-01  0.10200506520E+01  0.10197711064E+01 0.  0.
     999903    2    3    3    0    0 -0.24624083912E-01  0.24639701123E-01  0.12211370687E+00  0.12845907857E+00  0.19404048063E-01 0.  0.
         14    1    1    2    0    0 -0.18477475906E-01 -0.69989978822E-02  0.13409704395E-01  0.23879347964E-01  0.00000000000E+00 0. -1.
     999901    1    3    3    0    0  0.43101559818E-01 -0.17640703241E-01 -0.13552341127E+00  0.89159157346E+00  0.88000000000E+00 0.  1.
        -11    1    4    4    0    0 -0.17311031292E-01  0.66044200411E-02  0.40255862845E-01  0.44318007434E-01  0.51100000000E-03 0. -1.
         11    1    4    4    0    0 -0.73130526192E-02  0.18035281082E-01  0.81857844029E-01  0.84141071139E-01  0.51100000000E-03 0.  1.
</event>
<event>
 8    1  0.1061721E+005  0.1043930E+01  0.7957747E-01            NaN
         13   -1    0    0    0    0  0.00000000000E+00  0.00000000000E+00  0.74505805969E-08  0.10566000000E+00  0.10566000000E+00 0.  1.
     999900   -1    0    0    0    0 -0.00000000000E+00 -0.00000000000E+00 -0.74505805969E-08  0.93827000000E+00  0.93827000000E+00 0. -1.
     999902    2    1    2    0    0 -0.21673860788E-01  0.24246064592E-01 -0.31879272871E-02  0.10112529320E+01  0.10107248398E+01 0.  0.
     999903    2    3    3    0    0  0.10036434011E+00 -0.40023361100E-01 -0.46758545502E-01  0.11944449952E+00  0.20143403090E-01 0.  0.
         14    1    1    2    0    0  0.21673860788E-01 -0.24246064592E-01  0.31879272871E-02  0.32677067953E-01  0.00000000000E+00 0. -1.
     999901    1    3    3    0    0 -0.12203820090E+00  0.64269425691E-01  0.43570618215E-01  0.89180843253E+00  0.88000000000E+00 0. -1.
        -11    1    4    4    0    0  0.92094693852E-01 -0.30247456065E-01 -0.43327017403E-01  0.10617830660E+00  0.51100000000E-03 0. -1.
         11    1    4    4    0    0  0.82696462595E-02 -0.97759050341E-02 -0.34315280990E-02  0.13266192920E-01  0.51100000000E-03 0.  1.
</event>
<event>
 8    1  0.1061721E+005  0.1043930E+01  0.7957747E-01            NaN
         13   -1    0    0    0    0  0.00000000000E+00  0.00000000000E+00  0.74505805969E-08  0.10566000000E+00  0.10566000000E+00 0.  1.
     999900   -1    0    0    0    0 -0.00000000000E+00 -0.00000000000E+00 -0.74505805969E-08  0.93827000000E+00  0.93827000000E+00 0.  1.
     999902    2    1    2    0    0  0.41339219273E-02  0.70121478132E-02 -0.22579813955E-01  0.10199277600E+01  0.10196452952E+01 0.  0.
     999903    2    3    3    0    0 -0.81417066790E-01 -0.88501273156E-01 -0.46316582927E-01  0.13031817176E+00  0.19400668105E-01 0.  0.
         14    1    1    2    0    0 -0.41339219273E-02 -0.70121478132E-02  0.22579813955E-01  0.24002240014E-01  0.00000000000E+00 0.  1.
     999901    1    3    3    0    0  0.85550988717E-01  0.95513420969E-01  0.23736768971E-01  0.88960958822E+00  0.88000000000E+00 0. -1.
        -11    1    4    4    0    0 -0.33817535868E-01 -0.23952238844E-01 -0.18989795049E-01  0.45587376705E-01  0.51100000000E-03 0.  1.
         11    1    4    4    0    0 -0.47599530922E-01 -0.64549034312E-01 -0.27326787878E-01  0.84730795059E-01  0.51100000000E-03 0. -1.
</event>
<event>
 8    1  0.1061721E+005  0.1043930E+01  0.7957747E-01            NaN
         13   -1    0    0    0    0  0.00000000000E+00  0.00000000000E+00  0.74505805969E-08  0.10566000000E+00  0.10566000000E+00 0.  1.
     999900   -1    0    0    0    0 -0.00000000000E+00 -0.00000000000E+00 -0.74505805969E-08  0.93827000000E+00  0.93827000000E+00 0.  1.
     999902    2    1    2    0    0  0.18337109281E-02  0.51772473912E-02 -0.22579690946E-01  0.10206919099E+01  0.10204273449E+01 0.  0.
     999903    2    3    3    0    0 -0.24406608934E-01 -0.60176140012E-01  0.10866622811E+00  0.12817574152E+00  0.20095302819E-01 0.  0.
         14    1    1    2    0    0 -0.18337109281E-02 -0.51772473912E-02  0.22579690946E-01  0.23238090058E-01  0.00000000000E+00 0.  1.
     999901    1    3    3    0    0  0.26240319862E-01  0.65353387404E-01 -0.13124591906E+00  0.89251616843E+00  0.88000000000E+00 0.  1.
        -11    1    4    4    0    0  0.12283375999E-02 -0.13255355948E-01  0.32413410182E-01  0.35044308456E-01  0.51100000000E-03 0.  1.
         11    1    4    4    0    0 -0.25634946534E-01 -0.46920784064E-01  0.76252817928E-01  0.93131433061E-01  0.51100000000E-03 0. -1.
</event>
<event>
 8    1  0.1061721E+005  0.1043930E+01  0.7957747E-01            NaN
         13   -1    0    0    0    0  0.00000000000E+00  0.00000000000E+00  0.74505805969E-08  0.10566000000E+00  0.10566000000E+00 0. -1.
     999900   -1    0    0    0    0 -0.00000000000E+00 -0.00000000000E+00 -0.74505805969E-08  0.93827000000E+00  0.93827000000E+00 0. -1.
     999902    2    1    2    0    0  0.10448126611E-01  0.19610792105E-01  0.67324910406E-02  0.10207120554E+01  0.10204479541E+01 0.  0.
     999903    2    3    3    0    0 -0.44710570656E-01 -0.97837262066E-01  0.68200621578E-01  0.12907599825E+00  0.20931401359E-01 0.  0.
         14    1    1    2    0    0 -0.10448126611E-01 -0.19610792105E-01 -0.67324910406E-02  0.23217944617E-01  0.00000000000E+00 0.  1.
     999901    1    3    3    0    0  0.55158697267E-01  0.11744805417E+00 -0.61468130537E-01  0.89163605714E+00  0.88000000000E+00 0.  1.
        -11    1    4    4    0    0 -0.27927165796E-01 -0.56211277935E-01  0.51474284277E-01  0.81175719395E-01  0.51100000000E-03 0.  1.
         11    1    4    4    0    0 -0.16783404860E-01 -0.41625984131E-01  0.16726337301E-01  0.47900278852E-01  0.51100000000E-03 0. -1.
</event>
<event>
 8    1  0.1061721E+005  0.1043930E+01  0.7957747E-01            NaN
         13   -1    0    0    0    0  0.00000000000E+00  0.00000000000E+00  0.74505805969E-08  0.10566000000E+00  0.10566000000E+00 0. -1.
     999900   -1    0    0    0    0 -0.00000000000E+00 -0.00000000000E+00 -0.74505805969E-08  0.93827000000E+00  0.93827000000E+00 0.  1.
     999902    2    1    2    0    0  0.10789031500E-01 -0.20889470726E-01 -0.30406420869E-03  0.10204169049E+01  0.10201459670E+01 0.  0.
     999903    2    3    3    0    0  0.67205207850E-01 -0.11254870324E+00 -0.19885102376E-01  0.13364319251E+00  0.16773045212E-01 0.  0.
         14    1    1    2    0    0 -0.10789031500E-01  0.20889470726E-01  0.30406420869E-03  0.23513095137E-01  0.00000000000E+00 0.  1.
     999901    1    3    3    0    0 -0.56416176351E-01  0.91659232513E-01  0.19581038167E-01  0.88677371235E+00  0.88000000000E+00 0.  1.
        -11    1    4    4    0    0  0.54475455302E-01 -0.83864483047E-01 -0.89437285310E-02  0.10040457235E+00  0.51100000000E-03 0.  1.
         11    1    4    4    0    0  0.12729752548E-01 -0.28684220192E-01 -0.10941373845E-01  0.33238620166E-01  0.51100000000E-03 0. -1.
</event>
<event>
 8    1  0.1061721E+005  0.1043930E+01  0.7957747E-01            NaN
         13   -1    0    0    0    0  0.00000000000E+00  0.00000000000E+00  0.74505805969E-08  0.10566000000E+00  0.10566000000E+00 0.  1.
     999900   -1    0    0    0    0 -0.00000000000E+00 -0.00000000000E+00 -0.74505805969E-08  0.93827000000E+00  0.93827000000E+00 0. -1.
     999902    2    1    2    0    0 -0.31461895442E-02 -0.14617823733E-01 -0.19028067680E-01  0.10197298628E+01  0.10194426647E+01 0.  0.
     999903    2    3    3    0    0 -0.27728871226E-01  0.90473789431E-01 -0.87360274518E-01  0.13050669293E+00  0.21113561107E-01 0.  0.
         14    1    1    2    0    0  0.31461895442E-02  0.14617823733E-01  0.19028067680E-01  0.24200137168E-01  0.00000000000E+00 0.  1.
     999901    1    3    3    0    0  0.24582681682E-01 -0.10509161316E+00  0.68332206838E-01  0.88922316990E+00  0.88000000000E+00 0. -1.
        -11    1    4    4    0    0 -0.25309625314E-02  0.32473622147E-01 -0.20566824625E-01  0.38525281347E-01  0.51100000000E-03 0.  1.
         11    1    4    4    0    0 -0.25197908695E-01  0.58000167284E-01 -0.66793449893E-01  0.91981411585E-01  0.51100000000E-03 0. -1.
</event>
<event>
 7    1  0.1061721E+005  0.1043930E+01  0.7957747E-01            NaN
         13   -1    0    0    0    0  0.00000000000E+00  0.00000000000E+00  0.74505805969E-08  0.10566000000E+00  0.10566000000E+00 0.  1.
     999900   -1    0    0    0    0 -0.00000000000E+00 -0.00000000000E+00 -0.74505805969E-08  0.93827000000E+00  0.93827000000E+00 0.  1.
     999902    2    1    2    0    0 -0.12052295765E-01 -0.16832645841E-01 -0.15671812793E-01  0.10179646093E+01  0.10176334037E+01 0.  0.
         14    1    1    2    0    0  0.12052295765E-01  0.16832645841E-01  0.15671812793E-01  0.25965390723E-01  0.00000000000E+00 0.  1.
     999901    1    3    3    0    0 -0.51001799550E-01 -0.99577020923E-01 -0.30536090417E-01  0.88760870854E+00  0.88000000000E+00 0.  1.
        -11    1    3    3    0    0  0.44750005209E-01  0.35957130285E-01 -0.30431079933E-01  0.64975302473E-01  0.51100000000E-03 0.  1.
         11    1    3    3    0    0 -0.58005014240E-02  0.46787244798E-01  0.45295357557E-01  0.65380598267E-01  0.51100000000E-03 0. -1.
</event>
<event>
 8    1  0.1061721E+005  0.1043930E+01  0.7957747E-01            NaN
         13   -1    0    0    0    0  0.00000000000E+00  0.00000000000E+00  0.74505805969E-08  0.10566000000E+00  0.10566000000E+00 0. -1.
     999900   -1    0    0    0    0 -0.00000000000E+00 -0.00000000000E+00 -0.74505805969E-08  0.93827000000E+00  0.93827000000E+00 0.  1.
     999902    2    1    2    0    0 -0.15076555303E-02  0.10329497405E-01  0.20319980226E-01  0.10210854571E+01  0.10208298769E+01 0.  0.
     999903    2    3    3    0    0 -0.71615438717E-01  0.95121672319E-01  0.56469416508E-01  0.13349794262E+00  0.21354205134E-01 0.  0.
         14    1    1    2    0    0  0.15076555303E-02 -0.10329497405E-01 -0.20319980226E-01  0.22844542854E-01  0.00000000000E+00 0.  1.
     999901    1    3    3    0    0  0.70107783187E-01 -0.84792174914E-01 -0.36149436282E-01  0.88758751452E+00  0.88000000000E+00 0. -1.
        -11    1    4    4    0    0 -0.45461782127E-01  0.74561123334E-01  0.36175474612E-01  0.94525450707E-01  0.51100000000E-03 0.  1.
         11    1    4    4    0    0 -0.26153656590E-01  0.20560548985E-01  0.20293941896E-01  0.38972491917E-01  0.51100000000E-03 0. -1.
</event>
<event>
 8    1  0.1061721E+005  0.1043930E+01  0.7957747E-01            NaN
         13   -1    0    0    0    0  0.00000000000E+00  0.00000000000E+00  0.74505805969E-08  0.10566000000E+00  0.10566000000E+00 0.  1.
     999900   -1    0    0    0    0 -0.00000000000E+00 -0.00000000000E+00 -0.74505805969E-08  0.93827000000E+00  0.93827000000E+00 0.  1.
     999902    2    1    2    0    0 -0.75909200036E-02 -0.66263246978E-02 -0.20455528926E-01  0.10211273925E+01  0.10208727603E+01 0.  0.
     999903    2    3    3    0    0  0.31612150528E-01 -0.34975188808E-01 -0.12353273577E+00  0.13379123894E+00  0.20424664414E-01 0.  0.
         14    1    1    2    0    0  0.75909200036E-02  0.66263246978E-02  0.20455528926E-01  0.22802607507E-01  0.00000000000E+00 0. -1.
     999901    1    3    3    0    0 -0.39203070532E-01  0.28348864111E-01  0.10307720684E+00  0.88733615356E+00  0.88000000000E+00 0. -1.
        -11    1    4    4    0    0  0.32834582276E-01 -0.25498875055E-01 -0.10505947186E+00  0.11298697346E+00  0.51100000000E-03 0.  1.
         11    1    4    4    0    0 -0.12224317476E-02 -0.94763137535E-02 -0.18473263910E-01  0.20804265482E-01  0.51100000000E-03 0. -1.
</event>
<event>
 8    1  0.1061721E+005  0.1043930E+01  0.7957747E-01            NaN
         13   -1    0    0    0    0  0.00000000000E+00  0.00000000000E+00  0.74505805969E-08  0.10566000000E+00  0.10566000000E+00 0.  1.
     999900   -1    0    0    0    0 -0.00000000000E+00 -0.00000000000E+00 -0.74505805969E-08  0.93827000000E+00  0.93827000000E+00 0. -1.
     999902    2    1    2    0    0 -0.56657682397E-02  0.18580023665E-01  0.12597925781E-01  0.10207777659E+01  0.10205151745E+01 0.  0.
     999903    2    3    3    0    0 -0.83925042250E-01 -0.12827222236E-01 -0.96572936832E-01  0.13003133381E+00  0.19335596630E-01 0.  0.
         14    1    1    2    0    0  0.56657682397E-02 -0.18580023665E-01 -0.12597925781E-01  0.23152234085E-01  0.00000000000E+00 0.  1.
     999901    1    3    3    0    0  0.78259274010E-01  0.31407245902E-01  0.10917086261E+00  0.89074643210E+00  0.88000000000E+00 0.  1.
        -11    1    4    4    0    0 -0.20597131262E-01 -0.55681718224E-03 -0.36321258209E-01  0.41761786127E-01  0.51100000000E-03 0.  1.
         11    1    4    4    0    0 -0.63327910988E-01 -0.12270405054E-01 -0.60251678623E-01  0.88269547683E-01  0.51100000000E-03 0. -1.
</event>
<event>
 8    1  0.1061721E+005  0.1043930E+01  0.7957747E-01            NaN
         13   -1    0    0    0    0  0.00000000000E+00  0.00000000000E+00  0.74505805969E-08  0.10566000000E+00  0.10566000000E+00 0.  1.
     999900   -1    0    0    0    0 -0.00000000000E+00 -0.00000000000E+00 -0.74505805969E-08  0.93827000000E+00  0.93827000000E+00 0.  1.
     999902    2    1    2    0    0  0.81137992141E-02 -0.21200708664E-01 -0.85703685119E-02  0.10196657258E+01  0.10193769849E+01 0.  0.
     999903    2    3    3    0    0 -0.86402310535E-01 -0.96982647635E-01 -0.17681480524E-02  0.13134007185E+00  0.19393166802E-01 0.  0.
         14    1    1    2    0    0 -0.81137992141E-02  0.21200708664E-01  0.85703685119E-02  0.24264274190E-01  0.00000000000E+00 0. -1.
     999901    1    3    3    0    0  0.94516109749E-01  0.75781938971E-01 -0.68022204595E-02  0.88832565396E+00  0.88000000000E+00 0.  1.
        -11    1    4    4    0    0 -0.25591623854E-01 -0.32785149717E-01  0.80594588520E-02  0.42367596716E-01  0.51100000000E-03 0. -1.
         11    1    4    4    0    0 -0.60810686681E-01 -0.64197497917E-01 -0.98276069044E-02  0.88972475137E-01  0.51100000000E-03 0.  1.
</event>
<event>
 8    1  0.1061721E+005  0.1043930E+01  0.7957747E-01            NaN
         13   -1    0    0    0    0  0.00000000000E+00  0.00000000000E+00  0.74505805969E-08  0.10566000000E+00  0.10566000000E+00 0.  1.
     999900   -1    0    0    0    0 -0.00000000000E+00 -0.00000000000E+00 -0.74505805969E-08  0.93827000000E+00  0.93827000000E+00 0.  1.
     999902    2    1    2    0    0  0.51556135080E-02  0.20729376747E-01  0.84666565854E-02  0.10209523656E+01  0.10206937646E+01 0.  0.
     999903    2    3    3    0    0 -0.63429398841E-01  0.10194568320E+00  0.54461222693E-01  0.13336265602E+00  0.20083881187E-01 0.  0.
         14    1    1    2    0    0 -0.51556135080E-02 -0.20729376747E-01 -0.84666565854E-02  0.22977634445E-01  0.00000000000E+00 0. -1.
     999901    1    3    3    0    0  0.68585012349E-01 -0.81216306457E-01 -0.45994566107E-01  0.88758970953E+00  0.88000000000E+00 0.  1.
        -11    1    4    4    0    0 -0.51377992554E-01  0.74904337946E-01  0.49158138158E-01  0.10328185528E+00  0.51100000000E-03 0. -1.
         11    1    4    4    0    0 -0.12051406288E-01  0.27041345257E-01  0.53030845352E-02  0.30080800744E-01  0.51100000000E-03 0.  1.
</event>
<event>
 8    1  0.1061721E+005  0.1043930E+01  0.7957747E-01            NaN
         13   -1    0    0    0    0  0.00000000000E+00  0.00000000000E+00  0.74505805969E-08  0.10566000000E+00  0.10566000000E+00 0.  1.
     999900   -1    0    0    0    0 -0.00000000000E+00 -0.00000000000E+00 -0.74505805969E-08  0.93827000000E+00  0.93827000000E+00 0. -1.
     999902    2    1    2    0    0  0.18812846821E-01  0.13383700801E-01  0.46234547408E-02  0.10203838116E+01  0.10201121017E+01 0.  0.
     999903    2    3    3    0    0 -0.10606796516E+00 -0.21226985175E-01  0.67561411315E-01  0.12866956191E+00  0.17038595335E-01 0.  0.
         14    1    1    2    0    0 -0.18812846821E-01 -0.13383700801E-01 -0.46234547408E-02  0.23546188362E-01  0.00000000000E+00 0. -1.
     999901    1    3    3    0    0  0.12488081198E+00  0.34610685976E-01 -0.62937956575E-01  0.89171424973E+00  0.88000000000E+00 0. -1.
        -11    1    4    4    0    0 -0.69134132854E-01 -0.70756744554E-02  0.48597891635E-01  0.84803358936E-01  0.51100000000E-03 0.  1.
         11    1    4    4    0    0 -0.36933832306E-01 -0.14151310720E-01  0.18963519681E-01  0.43866202977E-01  0.51100000000E-03 0. -1.
</event>
<event>
 8    1  0.1061721E+005  0.1043930E+01  0.7957747E-01            NaN
         13   -1    0    0    0    0  0.00000000000E+00  0.00000000000E+00  0.74505805969E-08  0.10566000000E+00  0.10566000000E+00 0.  1.
     999900   -1    0    0    0    0 -0.00000000000E+00 -0.00000000000E+00 -0.74505805969E-08  0.93827000000E+00  0.93827000000E+00 0.  1.
     999902    2    1    2    0    0  0.27012502287E-01 -0.41560894988E-02  0.40542055699E-04  0.10165996139E+01  0.10162321708E+01 0.  0.
     999903    2    3    3    0    0  0.88487270730E-01  0.75599690386E-01 -0.52548924714E-01  0.12929708175E+00  0.20274012734E-01 0.  0.
         14    1    1    2    0    0 -0.27012502287E-01  0.41560894988E-02 -0.40542055699E-04  0.27330386082E-01  0.00000000000E+00 0.  1.
     999901    1    3    3    0    0 -0.61474768443E-01 -0.79755779885E-01  0.52589466769E-01  0.88730253217E+00  0.88000000000E+00 0. -1.
        -11    1    4    4    0    0  0.22220028875E-01  0.24520291213E-01 -0.24036195977E-01  0.40902007316E-01  0.51100000000E-03 0. -1.
         11    1    4    4    0    0  0.66267241855E-01  0.51079399172E-01 -0.28512728736E-01  0.88395074432E-01  0.51100000000E-03 0.  1.
</event>
<event>
 8    1  0.1061721E+005  0.1043930E+01  0.7957747E-01            NaN
         13   -1    0    0    0    0  0.00000000000E+00  0.00000000000E+00  0.74505805969E-08  0.10566000000E+00  0.10566000000E+00 0.  1.
     999900   -1    0    0    0    0 -0.00000000000E+00 -0.00000000000E+00 -0.74505805969E-08  0.93827000000E+00  0.93827000000E+00 0.  1.
     999902    2    1    2    0    0  0.23076685584E-02  0.48809553005E-02 -0.25888953560E-01  0.10174840745E+01  0.10171403320E+01 0.  0.
     999903    2    3    3    0    0  0.91328182546E-02  0.14879356759E-01  0.12175688704E+00  0.12510195627E+00  0.22824467017E-01 0.  0.
         14    1    1    2    0    0 -0.23076685584E-02 -0.48809553005E-02  0.25888953560E-01  0.26445925495E-01  0.00000000000E+00 0.  1.
     999901    1    3    3    0    0 -0.68251496962E-02 -0.99984014584E-02 -0.14764584060E+00  0.89238211824E+00  0.88000000000E+00 0.  1.
        -11    1    4    4    0    0  0.12972696514E-01  0.15822218767E-02  0.37522356423E-01  0.39736414451E-01  0.51100000000E-03 0.  1.
         11    1    4    4    0    0 -0.38398782592E-02  0.13297134882E-01  0.84234530615E-01  0.85365541819E-01  0.51100000000E-03 0. -1.
</event>
<event>
 8    1  0.1061721E+005  0.1043930E+01  0.7957747E-01            NaN
         13   -1    0    0    0    0  0.00000000000E+00  0.00000000000E+00  0.74505805969E-08  0.10566000000E+00  0.10566000000E+00 0. -1.
     999900   -1    0    0    0    0 -0.00000000000E+00 -0.00000000000E+00 -0.74505805969E-08  0.93827000000E+00  0.93827000000E+00 0. -1.
     999902    2    1    2    0    0  0.50237190413E-02  0.23460482318E-01 -0.21626747543E-02  0.10198403934E+01  0.10195558439E+01 0.  0.
     999903    2    3    3    0    0  0.23783341354E-01  0.12870709207E+00 -0.16270251738E-01  0.13325830696E+00  0.19023469873E-01 0.  0.
         14    1    1    2    0    0 -0.50237190413E-02 -0.23460482318E-01  0.21626747543E-02  0.24089606591E-01  0.00000000000E+00 0. -1.
     999901    1    3    3    0    0 -0.18759622312E-01 -0.10524660975E+00  0.14107576983E-01  0.88658208645E+00  0.88000000000E+00 0.  1.
        -11    1    4    4    0    0  0.25735114017E-01  0.10100384732E+00 -0.94702916485E-02  0.10466145810E+00  0.51100000000E-03 0. -1.
         11    1    4    4    0    0 -0.19517726629E-02  0.27703244751E-01 -0.67999600892E-02  0.28596848856E-01  0.51100000000E-03 0.  1.
</event>
<event>
 8    1  0.1061721E+005  0.1043930E+01  0.7957747E-01            NaN
         13   -1    0    0    0    0  0.00000000000E+00  0.00000000000E+00  0.74505805969E-08  0.10566000000E+00  0.10566000000E+00 0. -1.
     999900   -1    0    0    0    0 -0.00000000000E+00 -0.00000000000E+00 -0.74505805969E-08  0.93827000000E+00  0.93827000000E+00 0.  1.
     999902    2    1    2    0    0 -0.17150499478E-01 -0.17208354562E-01  0.33746095597E-02  0.10194013415E+01  0.10191061966E+01 0.  0.
     999903    2    3    3    0    0  0.10931661611E+00  0.44540403304E-01 -0.42649091790E-01  0.12703089065E+00  0.19594184459E-01 0.  0.
         14    1    1    2    0    0  0.17150499478E-01  0.17208354562E-01 -0.33746095597E-02  0.24528658519E-01  0.00000000000E+00 0. -1.
     999901    1    3    3    0    0 -0.12646711559E+00 -0.61748757865E-01  0.46023701349E-01  0.89237045083E+00  0.88000000000E+00 0. -1.
        -11    1    4    4    0    0  0.83048490591E-01  0.41408134176E-01 -0.37414352524E-01  0.10005888397E+00  0.51100000000E-03 0.  1.
         11    1    4    4    0    0  0.26268125523E-01  0.31322691275E-02 -0.52347392656E-02  0.26972006684E-01  0.51100000000E-03 0. -1.
</event>
<event>
 8    1  0.1061721E+005  0.1043930E+01  0.7957747E-01            NaN
         13   -1    0    0    0    0  0.00000000000E+00  0.00000000000E+00  0.74505805969E-08  0.10566000000E+00  0.10566000000E+00 0.  1.
     999900   -1    0    0    0    0 -0.00000000000E+00 -0.00000000000E+00 -0.74505805969E-08  0.93827000000E+00  0.93827000000E+00 0.  1.
     999902    2    1    2    0    0  0.81517572435E-02 -0.16225035414E-01 -0.17768692391E-01  0.10185246984E+01  0.10182078039E+01 0.  0.
     999903    2    3    3    0    0 -0.10373398617E+00 -0.66778147082E-02 -0.74717540892E-01  0.12956309048E+00  0.19963727119E-01 0.  0.
         14    1    1    2    0    0 -0.81517572435E-02  0.16225035414E-01  0.17768692391E-01  0.25405301605E-01  0.00000000000E+00 0. -1.
     999901    1    3    3    0    0  0.11188574342E+00 -0.95472207060E-02  0.56948848501E-01  0.88896160792E+00  0.88000000000E+00 0.  1.
        -11    1    4    4    0    0 -0.28844877157E-01 -0.50902960167E-02 -0.11242021411E-01  0.31378053129E-01  0.51100000000E-03 0.  1.
         11    1    4    4    0    0 -0.74889109017E-01 -0.15875186915E-02 -0.63475519481E-01  0.98185037350E-01  0.51100000000E-03 0. -1.
</event>
<event>
 7    1  0.1061721E+005  0.1043930E+01  0.7957747E-01            NaN
         13   -1    0    0    0    0  0.00000000000E+00  0.00000000000E+00  0.74505805969E-08  0.10566000000E+00  0.10566000000E+00 0.  1.
     999900   -1    0    0    0    0 -0.00000000000E+00 -0.00000000000E+00 -0.74505805969E-08  0.93827000000E+00  0.93827000000E+00 0.  1.
     999903    2    1    2    0    0  0.51927439216E-01  0.60870216328E-01 -0.17827771256E-01  0.84979734625E-01  0.22407224049E-01 0.  0.
         14    1    1    2    0    0  0.47222397506E-01  0.30290831480E-01  0.39208926940E-01  0.68445812507E-01  0.00000000000E+00 0.  1.
     999901    1    1    2    0    0 -0.99149836722E-01 -0.91161047808E-01 -0.21381155684E-01  0.89050445287E+00  0.88000000000E+00 0.  1.
        -11    1    3    3    0    0  0.20264697824E-01  0.40809150123E-01 -0.85412306764E-02  0.46360095493E-01  0.51100000000E-03 0.  1.
         11    1    3    3    0    0  0.31662741392E-01  0.20061066206E-01 -0.92865405798E-02  0.38619639132E-01  0.51100000000E-03 0. -1.
</event>
<event>
 8    1  0.1061721E+005  0.1043930E+01  0.7957747E-01            NaN
         13   -1    0    0    0    0  0.00000000000E+00  0.00000000000E+00  0.74505805969E-08  0.10566000000E+00  0.10566000000E+00 0. -1.
     999900   -1    0    0    0    0 -0.00000000000E+00 -0.00000000000E+00 -0.74505805969E-08  0.93827000000E+00  0.93827000000E+00 0.  1.
     999902    2    1    2    0    0  0.17028213157E-01  0.87362851428E-02 -0.15199764082E-01  0.10194899601E+01  0.10191969698E+01 0.  0.
     999903    2    3    3    0    0 -0.11775280101E+00 -0.43441130683E-01 -0.11268294544E-01  0.12769185462E+00  0.20624773789E-01 0.  0.
         14    1    1    2    0    0 -0.17028213157E-01 -0.87362851428E-02  0.15199764082E-01  0.24440039885E-01  0.00000000000E+00 0. -1.
     999901    1    3    3    0    0  0.13478101417E+00  0.52177415826E-01 -0.39314695382E-02  0.89179810549E+00  0.88000000000E+00 0.  1.
        -11    1    4    4    0    0 -0.68458678359E-01 -0.17141687443E-01 -0.13141497165E-01  0.71787103019E-01  0.51100000000E-03 0. -1.
         11    1    4    4    0    0 -0.49294122655E-01 -0.26299443240E-01  0.18732026214E-02  0.55904751606E-01  0.51100000000E-03 0.  1.
</event>
<event>
 8    1  0.1061721E+005  0.1043930E+01  0.7957747E-01            NaN
         13   -1    0    0    0    0  0.00000000000E+00  0.00000000000E+00  0.74505805969E-08  0.10566000000E+00  0.10566000000E+00 0.  1.
     999900   -1    0    0    0    0 -0.00000000000E+00 -0.00000000000E+00 -0.74505805969E-08  0.93827000000E+00  0.93827000000E+00 0. -1.
     999902    2    1    2    0    0 -0.13809757708E-01  0.13916670420E-01 -0.12569586643E-01  0.10206409976E+01  0.10203752586E+01 0.  0.
     999903    2    3    3    0    0 -0.88548168914E-01 -0.83472975720E-01 -0.45648773660E-01  0.13150388452E+00  0.20023616364E-01 0.  0.
         14    1    1    2    0    0  0.13809757708E-01 -0.13916670420E-01  0.12569586643E-01  0.23289002381E-01  0.00000000000E+00 0. -1.
     999901    1    3    3    0    0  0.74738411205E-01  0.97389646140E-01  0.33079187017E-01  0.88913711310E+00  0.88000000000E+00 0. -1.
        -11    1    4    4    0    0 -0.57736138302E-01 -0.42699952387E-01 -0.31897422895E-01  0.78577695997E-01  0.51100000000E-03 0. -1.
         11    1    4    4    0    0 -0.30812030612E-01 -0.40773023334E-01 -0.13751350765E-01  0.52926188518E-01  0.51100000000E-03 0.  1.
</event>
<event>
 8    1  0.1061721E+005  0.1043930E+01  0.7957747E-01            NaN
         13   -1    0    0    0    0  0.00000000000E+00  0.00000000000E+00  0.74505805969E-08  0.10566000000E+00  0.10566000000E+00 0.  1.
     999900   -1    0    0    0    0 -0.00000000000E+00 -0.00000000000E+00 -0.74505805969E-08  0.93827000000E+00  0.93827000000E+00 0.  1.
     999902    2    1    2    0    0 -0.54434948099E-02 -0.60969411888E-02  0.23762940831E-01  0.10188007007E+01  0.10184907393E+01 0.  0.
     999903    2    3    3    0    0 -0.20615906853E-01  0.11817412023E+00 -0.38651066321E-01  0.12775131535E+00  0.20889120101E-01 0.  0.
         14    1    1    2    0    0  0.54434948099E-02  0.60969411888E-02 -0.23762940831E-01  0.25129299325E-01  0.00000000000E+00 0. -1.
     999901    1    3    3    0    0  0.15172412043E-01 -0.12427106142E+00  0.62414007153E-01  0.89104938532E+00  0.88000000000E+00 0. -1.
        -11    1    4    4    0    0 -0.14261149024E-01  0.67465751102E-01 -0.32634724844E-01  0.76290853514E-01  0.51100000000E-03 0.  1.
         11    1    4    4    0    0 -0.63547578287E-02  0.50708369130E-01 -0.60163414773E-02  0.51460461839E-01  0.51100000000E-03 0. -1.
</event>
<event>
 8    1  0.1092800E+005  0.1043930E+01  0.7957747E-01            NaN
         13   -1    0    0    0    0  0.00000000000E+00  0.00000000000E+00  0.74505805969E-08  0.10566000000E+00  0.10566000000E+00 0.  1.
     999900   -1    0    0    0    0 -0.00000000000E+00 -0.00000000000E+00 -0.74505805969E-08  0.93827000000E+00  0.93827000000E+00 0. -1.
     999902    2    1    2    0    0 -0.20442139714E-01 -0.11519434956E-01 -0.10926850323E-01  0.10180461341E+01  0.10177170317E+01 0.  0.
     999903    2    3    3    0    0 -0.11181890281E+00  0.28526310166E-01  0.56116892419E-01  0.12987484542E+00  0.20028790780E-01 0.  0.
         14    1    1    2    0    0  0.20442139714E-01  0.11519434956E-01  0.10926850323E-01  0.25883865936E-01  0.00000000000E+00 0.  1.
     999901    1    3    3    0    0  0.91376763095E-01 -0.40045745122E-01 -0.67043742742E-01  0.88817128865E+00  0.88000000000E+00 0.  1.
        -11    1    4    4    0    0 -0.67223194481E-01  0.76606972865E-02  0.36452886418E-01  0.76855176848E-01  0.51100000000E-03 0. -1.
         11    1    4    4    0    0 -0.44595708328E-01  0.20865612879E-01  0.19664006001E-01  0.53019668569E-01  0.51100000000E-03 0.  1.
</event>
<event>
 8    1  0.1061721E+005  0.1043930E+01  0.7957747E-01            NaN
         13   -1    0    0    0    0  0.00000000000E+00  0.00000000000E+00  0.74505805969E-08  0.10566000000E+00  0.10566000000E+00 0. -1.
     999900   -1    0    0    0    0 -0.00000000000E+00 -0.00000000000E+00 -0.74505805969E-08  0.93827000000E+00  0.93827000000E+00 0.  1.
     999902    2    1    2    0    0  0.10777318740E-01  0.23257240293E-01 -0.76684980683E-02  0.10171745204E+01  0.10168225751E+01 0.  0.
     999903    2    3    3    0    0  0.88864545649E-01 -0.35001839388E-01 -0.83231874723E-01  0.12857924738E+00  0.21978208574E-01 0.  0.
         14    1    1    2    0    0 -0.10777318740E-01 -0.23257240293E-01  0.76684980683E-02  0.26755479587E-01  0.00000000000E+00 0. -1.
     999901    1    3    3    0    0 -0.78087226909E-01  0.58259079681E-01  0.75563376654E-01  0.88859527304E+00  0.88000000000E+00 0. -1.
        -11    1    4    4    0    0  0.38485998373E-01 -0.19745898997E-01 -0.50913948797E-01  0.66809908705E-01  0.51100000000E-03 0. -1.
         11    1    4    4    0    0  0.50378547277E-01 -0.15255940390E-01 -0.32317925925E-01  0.61769338672E-01  0.51100000000E-03 0.  1.
</event>
<event>
 8    1  0.1061721E+005  0.1043930E+01  0.7957747E-01            NaN
         13   -1    0    0    0    0  0.00000000000E+00  0.00000000000E+00  0.74505805969E-08  0.10566000000E+00  0.10566000000E+00 0. -1.
     999900   -1    0    0    0    0 -0.00000000000E+00 -0.00000000000E+00 -0.74505805969E-08  0.93827000000E+00  0.93827000000E+00 0.  1.
     999902    2    1    2    0    0 -0.42794068443E-02  0.23391277422E-01 -0.34117147329E-02  0.10199069906E+01  0.10196240310E+01 0.  0.
     999903    2    3    3    0    0  0.84476824459E-02  0.11699710483E+00 -0.59448967238E-01  0.13307882045E+00  0.20398697747E-01 0.  0.
         14    1    1    2    0    0  0.42794068443E-02 -0.23391277422E-01  0.34117147329E-02  0.24023009383E-01  0.00000000000E+00 0.  1.
     999901    1    3    3    0    0 -0.12727089290E-01 -0.93605827411E-01  0.56037252505E-01  0.88682817016E+00  0.88000000000E+00 0.  1.
        -11    1    4    4    0    0  0.14806210711E-01  0.76222104703E-01 -0.35695034432E-01  0.85460106045E-01  0.51100000000E-03 0. -1.
         11    1    4    4    0    0 -0.63585282654E-02  0.40775000129E-01 -0.23753932806E-01  0.47618714409E-01  0.51100000000E-03 0.  1.
</event>
<event>
 8    1  0.1061721E+005  0.1043930E+01  0.7957747E-01            NaN
         13   -1    0    0    0    0  0.00000000000E+00  0.00000000000E+00  0.74505805969E-08  0.10566000000E+00  0.10566000000E+00 0. -1.
     999900   -1    0    0    0    0 -0.00000000000E+00 -0.00000000000E+00 -0.74505805969E-08  0.93827000000E+00  0.93827000000E+00 0. -1.
     999902    2    1    2    0    0 -0.13191082995E-01  0.17366345336E-01  0.51294086307E-02  0.10215267535E+01  0.10212810596E+01 0.  0.
     999903    2    3    3    0    0  0.61629688199E-01  0.29143821539E-01  0.11119274805E+00  0.13192780525E+00  0.19837786659E-01 0.  0.
         14    1    1    2    0    0  0.13191082995E-01 -0.17366345336E-01 -0.51294086307E-02  0.22403246501E-01  0.00000000000E+00 0.  1.
     999901    1    3    3    0    0 -0.74820771194E-01 -0.11777476203E-01 -0.10606333942E+00  0.88959894824E+00  0.88000000000E+00 0. -1.
        -11    1    4    4    0    0  0.11179755804E-01  0.14932836702E-02  0.32799181765E-01  0.34688099997E-01  0.51100000000E-03 0. -1.
         11    1    4    4    0    0  0.50449932395E-01  0.27650537868E-01  0.78393566283E-01  0.97239705258E-01  0.51100000000E-03 0.  1.
</event>
<event>
 8    1  0.1061721E+005  0.1043930E+01  0.7957747E-01            NaN
         13   -1    0    0    0    0  0.00000000000E+00  0.00000000000E+00  0.74505805969E-08  0.10566000000E+00  0.10566000000E+00 0. -1.
     999900   -1    0    0    0    0 -0.00000000000E+00 -0.00000000000E+00 -0.74505805969E-08  0.93827000000E+00  0.93827000000E+00 0.  1.
     999902    2    1    2    0    0 -0.21751927004E-01 -0.22535676955E-02  0.24104076872E-02  0.10219292054E+01  0.10216923539E+01 0.  0.
     999903    2    3    3    0    0 -0.78922525479E-02  0.12450673528E+00  0.38503009237E-01  0.13200620829E+00  0.19466446141E-01 0.  0.
         14    1    1    2    0    0  0.21751927004E-01  0.22535676955E-02 -0.24104076872E-02  0.22000794553E-01  0.00000000000E+00 0.  1.
     999901    1    3    3    0    0 -0.13859674456E-01 -0.12676030298E+00 -0.36092601550E-01  0.88992299716E+00  0.88000000000E+00 0. -1.
        -11    1    4    4    0    0  0.62754129166E-02  0.47807188942E-01  0.16471413163E-01  0.50955634570E-01  0.51100000000E-03 0. -1.
         11    1    4    4    0    0 -0.14167665465E-01  0.76699546340E-01  0.22031596074E-01  0.81050573718E-01  0.51100000000E-03 0.  1.
</event>
<event>
 7    1  0.1061721E+005  0.1043930E+01  0.7957747E-01            NaN
         13   -1    0    0    0    0  0.00000000000E+00  0.00000000000E+00  0.74505805969E-08  0.10566000000E+00  0.10566000000E+00 0.  1.
     999900   -1    0    0    0    0 -0.00000000000E+00 -0.00000000000E+00 -0.74505805969E-08  0.93827000000E+00  0.93827000000E+00 0.  1.
     999903    2    1    2    0    0 -0.64142370645E-02 -0.93085786049E-01  0.59729907367E-01  0.11329026044E+00  0.23683649942E-01 0.  0.
         14    1    1    2    0    0 -0.60776104641E-02  0.36783192985E-01 -0.30665244567E-01  0.48273158789E-01  0.00000000000E+00 0. -1.
     999901    1    1    2    0    0  0.12491847529E-01  0.56302593064E-01 -0.29064662800E-01  0.88236658077E+00  0.88000000000E+00 0. -1.
        -11    1    3    3    0    0  0.47162188106E-02 -0.72897210407E-01  0.42605527763E-01  0.84567949733E-01  0.51100000000E-03 0.  1.
         11    1    3    3    0    0 -0.11130455875E-01 -0.20188575642E-01  0.17124379604E-01  0.28722310705E-01  0.51100000000E-03 0. -1.
</event>
<event>
 8    1  0.1061721E+005  0.1043930E+01  0.7957747E-01            NaN
         13   -1    0    0    0    0  0.00000000000E+00  0.00000000000E+00  0.74505805969E-08  0.10566000000E+00  0.10566000000E+00 0. -1.
     999900   -1    0    0    0    0 -0.00000000000E+00 -0.00000000000E+00 -0.74505805969E-08  0.93827000000E+00  0.93827000000E+00 0. -1.
     999902    2    1    2    0    0 -0.73314127699E-02  0.20553880286E-01  0.35586549729E-02  0.10218194678E+01  0.10215802216E+01 0.  0.
     999903    2    3    3    0    0 -0.11077763013E+00 -0.29984755223E-01 -0.61922397016E-01  0.13190765099E+00  0.19861426282E-01 0.  0.
         14    1    1    2    0    0  0.73314127699E-02 -0.20553880286E-01 -0.35586549729E-02  0.22110532179E-01  0.00000000000E+00 0. -1.
     999901    1    3    3    0    0  0.10344621736E+00  0.50538635509E-01  0.65481051989E-01  0.88991181683E+00  0.88000000000E+00 0.  1.
        -11    1    4    4    0    0 -0.73339663829E-01 -0.26314305629E-01 -0.49391396672E-01  0.92254648433E-01  0.51100000000E-03 0. -1.
         11    1    4    4    0    0 -0.37437966303E-01 -0.36704495935E-02 -0.12531000344E-01  0.39653002557E-01  0.51100000000E-03 0.  1.
</event>
<event>
 8    1  0.1061721E+005  0.1043930E+01  0.7957747E-01            NaN
         13   -1    0    0    0    0  0.00000000000E+00  0.00000000000E+00  0.74505805969E-08  0.10566000000E+00  0.10566000000E+00 0.  1.
     999900   -1    0    0    0    0 -0.00000000000E+00 -0.00000000000E+00 -0.74505805969E-08  0.93827000000E+00  0.93827000000E+00 0.  1.
     999902    2    1    2    0    0  0.19704172672E-01 -0.12663429483E-01 -0.18983171381E-02  0.10204306282E+01  0.10201600102E+01 0.  0.
     999903    2    3    3    0    0  0.12921896815E+00 -0.19458685721E-01  0.19158034476E-01  0.13336634875E+00  0.18530259393E-01 0.  0.
         14    1    1    2    0    0 -0.19704172672E-01  0.12663429483E-01  0.18983171381E-02  0.23499371798E-01  0.00000000000E+00 0. -1.
     999901    1    3    3    0    0 -0.10951479548E+00  0.67952562388E-02 -0.21056351614E-01  0.88706427945E+00  0.88000000000E+00 0.  1.
        -11    1    4    4    0    0  0.95340988460E-01 -0.14348379872E-01  0.22288254734E-01  0.98958615116E-01  0.51100000000E-03 0.  1.
         11    1    4    4    0    0  0.33877979693E-01 -0.51103058491E-02 -0.31302202574E-02  0.34407733634E-01  0.51100000000E-03 0. -1.
</event>
<event>
 8    1  0.1061721E+005  0.1043930E+01  0.7957747E-01            NaN
         13   -1    0    0    0    0  0.00000000000E+00  0.00000000000E+00  0.74505805969E-08  0.10566000000E+00  0.10566000000E+00 0. -1.
     999900   -1    0    0    0    0 -0.00000000000E+00 -0.00000000000E+00 -0.74505805969E-08  0.93827000000E+00  0.93827000000E+00 0. -1.
     999902    2    1    2    0    0  0.56594107906E-02 -0.13893927636E-02 -0.24234854407E-01  0.10190043604E+01  0.10186994645E+01 0.  0.
     999903    2    3    3    0    0 -0.47798220389E-01 -0.36619975070E-02  0.11555326801E+00  0.12636579845E+00  0.17823500544E-01 0.  0.
         14    1    1    2    0    0 -0.56594107906E-02  0.13893927636E-02  0.24234854407E-01  0.24925639629E-01  0.00000000000E+00 0. -1.
     999901    1    3    3    0    0  0.53457631179E-01  0.22726047433E-02 -0.13978812242E+00  0.89263856192E+00  0.88000000000E+00 0. -1.
        -11    1    4    4    0    0 -0.16755933854E-01  0.45626767752E-02  0.26399982168E-01  0.31603789617E-01  0.51100000000E-03 0. -1.
         11    1    4    4    0    0 -0.31042286535E-01 -0.82246742822E-02  0.89153285842E-01  0.94762008832E-01  0.51100000000E-03 0.  1.
</event>
<event>
 8    1  0.1061721E+005  0.1043930E+01  0.7957747E-01            NaN
         13   -1    0    0    0    0  0.00000000000E+00  0.00000000000E+00  0.74505805969E-08  0.10566000000E+00  0.10566000000E+00 0. -1.
     999900   -1    0    0    0    0 -0.00000000000E+00 -0.00000000000E+00 -0.74505805969E-08  0.93827000000E+00  0.93827000000E+00 0. -1.
     999902    2    1    2    0    0  0.20724013165E-01  0.95126900783E-02  0.88277142513E-02  0.10194779135E+01  0.10191846308E+01 0.  0.
     999903    2    3    3    0    0  0.10254931650E-01  0.20047566282E-01 -0.12584390275E+00  0.12910887222E+00  0.18037308270E-01 0.  0.
         14    1    1    2    0    0 -0.20724013165E-01 -0.95126900783E-02 -0.88277142513E-02  0.24452086477E-01  0.00000000000E+00 0.  1.
     999901    1    3    3    0    0  0.10469081515E-01 -0.10534876204E-01  0.13467161700E+00  0.89036904130E+00  0.88000000000E+00 0.  1.
        -11    1    4    4    0    0  0.97877748993E-02  0.22588988526E-01 -0.94531208901E-01  0.97685585003E-01  0.51100000000E-03 0.  1.
         11    1    4    4    0    0  0.46715675090E-03 -0.25414222437E-02 -0.31312693849E-01  0.31423287217E-01  0.51100000000E-03 0. -1.
</event>
<event>
 8    1  0.1061721E+005  0.1043930E+01  0.7957747E-01            NaN
         13   -1    0    0    0    0  0.00000000000E+00  0.00000000000E+00  0.74505805969E-08  0.10566000000E+00  0.10566000000E+00 0.  1.
     999900   -1    0    0    0    0 -0.00000000000E+00 -0.00000000000E+00 -0.74505805969E-08  0.93827000000E+00  0.93827000000E+00 0. -1.
     999902    2    1    2    0    0  0.23612706855E-01 -0.19938004334E-02  0.48084000104E-02  0.10197503417E+01  0.10194636352E+01 0.  0.
     999903    2    3    3    0    0 -0.65942241056E-01  0.66825806159E-01  0.87052759079E-01  0.12872825356E+00  0.13368353538E-01 0.  0.
         14    1    1    2    0    0 -0.23612706855E-01  0.19938004334E-02 -0.48084000104E-02  0.24179658307E-01  0.00000000000E+00 0.  1.
     999901    1    3    3    0    0  0.89554947911E-01 -0.68819606593E-01 -0.82244359069E-01  0.89102208814E+00  0.88000000000E+00 0. -1.
        -11    1    4    4    0    0 -0.28561626897E-01  0.22152711048E-01  0.27478283213E-01  0.45407337591E-01  0.51100000000E-03 0.  1.
         11    1    4    4    0    0 -0.37380614159E-01  0.44673095111E-01  0.59574475867E-01  0.83320915967E-01  0.51100000000E-03 0. -1.
</event>
<event>
 8    1  0.1061721E+005  0.1043930E+01  0.7957747E-01            NaN
         13   -1    0    0    0    0  0.00000000000E+00  0.00000000000E+00  0.74505805969E-08  0.10566000000E+00  0.10566000000E+00 0. -1.
     999900   -1    0    0    0    0 -0.00000000000E+00 -0.00000000000E+00 -0.74505805969E-08  0.93827000000E+00  0.93827000000E+00 0.  1.
     999902    2    1    2    0    0 -0.13311575140E-01  0.16973944132E-01  0.70528702078E-02  0.10212351594E+01  0.10209829553E+01 0.  0.
     999903    2    3    3    0    0 -0.96325127568E-01 -0.79768675738E-01  0.31640909187E-01  0.13171002987E+00  0.26548314531E-01 0.  0.
         14    1    1    2    0    0  0.13311575140E-01 -0.16973944132E-01 -0.70528702078E-02  0.22694840609E-01  0.00000000000E+00 0.  1.
     999901    1    3    3    0    0  0.83013552428E-01  0.96742619871E-01 -0.24588038979E-01  0.88952512952E+00  0.88000000000E+00 0. -1.
        -11    1    4    4    0    0 -0.11425217772E-01 -0.29988573407E-03  0.12152455364E-02  0.11504932651E-01  0.51100000000E-03 0.  1.
         11    1    4    4    0    0 -0.84899909796E-01 -0.79468790004E-01  0.30425663650E-01  0.12020509722E+00  0.51100000000E-03 0. -1.
</event>
<event>
 8    1  0.1061721E+005  0.1043930E+01  0.7957747E-01            NaN
         13   -1    0    0    0    0  0.00000000000E+00  0.00000000000E+00  0.74505805969E-08  0.10566000000E+00  0.10566000000E+00 0. -1.
     999900   -1    0    0    0    0 -0.00000000000E+00 -0.00000000000E+00 -0.74505805969E-08  0.93827000000E+00  0.93827000000E+00 0. -1.
     999902    2    1    2    0    0  0.10391370446E-01 -0.19697549297E-01 -0.71196847195E-02  0.10205491545E+01  0.10202812910E+01 0.  0.
     999903    2    3    3    0    0  0.43932077002E-01 -0.36436901052E-01  0.11635624431E+00  0.13113840011E+00  0.20020720398E-01 0.  0.
         14    1    1    2    0    0 -0.10391370446E-01  0.19697549297E-01  0.71196847195E-02  0.23380845549E-01  0.00000000000E+00 0. -1.
     999901    1    3    3    0    0 -0.33540706556E-01  0.16739351755E-01 -0.12347592903E+00  0.88941075434E+00  0.88000000000E+00 0. -1.
        -11    1    4    4    0    0  0.31388638662E-01 -0.28790368693E-01  0.64948816747E-01  0.77670727332E-01  0.51100000000E-03 0.  1.
         11    1    4    4    0    0  0.12543438341E-01 -0.76465323589E-02  0.51407427561E-01  0.53467672775E-01  0.51100000000E-03 0. -1.
</event>
<event>
 8    1  0.1061721E+005  0.1043930E+01  0.7957747E-01            NaN
         13   -1    0    0    0    0  0.00000000000E+00  0.00000000000E+00  0.74505805969E-08  0.10566000000E+00  0.10566000000E+00 0. -1.
     999900   -1    0    0    0    0 -0.00000000000E+00 -0.00000000000E+00 -0.74505805969E-08  0.93827000000E+00  0.93827000000E+00 0.  1.
     999902    2    1    2    0    0 -0.22363690553E-01 -0.25743548369E-03  0.97544711612E-02  0.10195301919E+01  0.10192381770E+01 0.  0.
     999903    2    3    3    0    0 -0.10666407399E+00  0.75011627473E-01 -0.64585660995E-02  0.13215493358E+00  0.20475459885E-01 0.  0.
         14    1    1    2    0    0  0.22363690553E-01  0.25743548369E-03 -0.97544711612E-02  0.24399808110E-01  0.00000000000E+00 0.  1.
     999901    1    3    3    0    0  0.84300383434E-01 -0.75269062957E-01  0.16213037261E-01  0.88737525831E+00  0.88000000000E+00 0.  1.
        -11    1    4    4    0    0 -0.96755215094E-01  0.60216522335E-01 -0.81822135528E-02  0.11425765160E+00  0.51100000000E-03 0.  1.
         11    1    4    4    0    0 -0.99088588930E-02  0.14795105139E-01  0.17236474533E-02  0.17897281977E-01  0.51100000000E-03 0. -1.
</event>
<event>
 8    1  0.1061721E+005  0.1043930E+01  0.7957747E-01            NaN
         13   -1    0    0    0    0  0.00000000000E+00  0.00000000000E+00  0.74505805969E-08  0.10566000000E+00  0.10566000000E+00 0.  1.
     999900   -1    0    0    0    0 -0.00000000000E+00 -0.00000000000E+00 -0.74505805969E-08  0.93827000000E+00  0.93827000000E+00 0.  1.
     999902    2    1    2    0    0 -0.35180452073E-02 -0.11559187590E-01 -0.20078234072E-01  0.10204965422E+01  0.10202274579E+01 0.  0.
     999903    2    3    3    0    0  0.88700710470E-01  0.68599046711E-01  0.59662039507E-01  0.12848300384E+00  0.19356602781E-01 0.  0.
         14    1    1    2    0    0  0.35180452073E-02  0.11559187590E-01  0.20078234072E-01  0.23433457774E-01  0.00000000000E+00 0.  1.
     999901    1    3    3    0    0 -0.92218755677E-01 -0.80158234301E-01 -0.79740273579E-01  0.89201353838E+00  0.88000000000E+00 0. -1.
        -11    1    4    4    0    0  0.27869750820E-01  0.32393625810E-01  0.26724586992E-01  0.50403716874E-01  0.51100000000E-03 0. -1.
         11    1    4    4    0    0  0.60830959650E-01  0.36205420901E-01  0.32937452515E-01  0.78079286970E-01  0.51100000000E-03 0.  1.
</event>
<event>
 8    1  0.1061721E+005  0.1043930E+01  0.7957747E-01            NaN
         13   -1    0    0    0    0  0.00000000000E+00  0.00000000000E+00  0.74505805969E-08  0.10566000000E+00  0.10566000000E+00 0. -1.
     999900   -1    0    0    0    0 -0.00000000000E+00 -0.00000000000E+00 -0.74505805969E-08  0.93827000000E+00  0.93827000000E+00 0. -1.
     999902    2    1    2    0    0  0.58002672510E-02 -0.93532223665E-02 -0.21359099479E-01  0.10199021620E+01  0.10196190872E+01 0.  0.
     999903    2    3    3    0    0  0.14935461909E-01  0.97063367693E-01  0.79424163911E-01  0.12773333907E+00  0.19058927715E-01 0.  0.
         14    1    1    2    0    0 -0.58002672510E-02  0.93532223665E-02  0.21359099479E-01  0.24027838008E-01  0.00000000000E+00 0. -1.
     999901    1    3    3    0    0 -0.91351946577E-02 -0.10641659006E+00 -0.10078326339E+00  0.89216882293E+00  0.88000000000E+00 0. -1.
        -11    1    4    4    0    0  0.16442908594E-01  0.53780051335E-01  0.38586571355E-01  0.68204455679E-01  0.51100000000E-03 0. -1.
         11    1    4    4    0    0 -0.15074466852E-02  0.43283316358E-01  0.40837592556E-01  0.59528883387E-01  0.51100000000E-03 0.  1.
</event>
<event>
 8    1  0.1061721E+005  0.1043930E+01  0.7957747E-01            NaN
         13   -1    0    0    0    0  0.00000000000E+00  0.00000000000E+00  0.74505805969E-08  0.10566000000E+00  0.10566000000E+00 0.  1.
     999900   -1    0    0    0    0 -0.00000000000E+00 -0.00000000000E+00 -0.74505805969E-08  0.93827000000E+00  0.93827000000E+00 0. -1.
     999902    2    1    2    0    0  0.14195098112E-01 -0.16991634291E-01 -0.22955308952E-02  0.10216704872E+01  0.10214279703E+01 0.  0.
     999903    2    3    3    0    0 -0.89390594657E-01  0.40332611653E-01 -0.83131160961E-01  0.13007054107E+00  0.19752411395E-01 0.  0.
         14    1    1    2    0    0 -0.14195098112E-01  0.16991634291E-01  0.22955308952E-02  0.22259512761E-01  0.00000000000E+00 0.  1.
     999901    1    3    3    0    0  0.10358569277E+00 -0.57324245944E-01  0.80835630065E-01  0.89159994617E+00  0.88000000000E+00 0.  1.
        -11    1    4    4    0    0 -0.37559234704E-01  0.22541300691E-01 -0.47946983141E-01  0.64945982644E-01  0.51100000000E-03 0.  1.
         11    1    4    4    0    0 -0.51831359953E-01  0.17791310961E-01 -0.35184177820E-01  0.65124558426E-01  0.51100000000E-03 0. -1.
</event>
<event>
 8    1  0.1061721E+005  0.1043930E+01  0.7957747E-01            NaN
         13   -1    0    0    0    0  0.00000000000E+00  0.00000000000E+00  0.74505805969E-08  0.10566000000E+00  0.10566000000E+00 0. -1.
     999900   -1    0    0    0    0 -0.00000000000E+00 -0.00000000000E+00 -0.74505805969E-08  0.93827000000E+00  0.93827000000E+00 0.  1.
     999902    2    1    2    0    0  0.88732372879E-02 -0.25180877152E-01  0.52063990642E-02  0.10167285753E+01  0.10163646385E+01 0.  0.
     999903    2    3    3    0    0  0.68199258799E-01  0.10310430772E+00 -0.72142647935E-02  0.12536392581E+00  0.19555845822E-01 0.  0.
         14    1    1    2    0    0 -0.88732372879E-02  0.25180877152E-01 -0.52063990642E-02  0.27201424693E-01  0.00000000000E+00 0. -1.
     999901    1    3    3    0    0 -0.59326021511E-01 -0.12828518487E+00  0.12420663858E-01  0.89136464950E+00  0.88000000000E+00 0.  1.
        -11    1    4    4    0    0  0.27463041593E-01  0.58385279273E-01 -0.77512152332E-03  0.64528454373E-01  0.51100000000E-03 0.  1.
         11    1    4    4    0    0  0.40736217206E-01  0.44719028449E-01 -0.64391432702E-02  0.60835471435E-01  0.51100000000E-03 0. -1.
</event>
<event>
 8    1  0.1061721E+005  0.1043930E+01  0.7957747E-01            NaN
         13   -1    0    0    0    0  0.00000000000E+00  0.00000000000E+00  0.74505805969E-08  0.10566000000E+00  0.10566000000E+00 0.  1.
     999900   -1    0    0    0    0 -0.00000000000E+00 -0.00000000000E+00 -0.74505805969E-08  0.93827000000E+00  0.93827000000E+00 0.  1.
     999902    2    1    2    0    0 -0.14482097537E-01 -0.24885854394E-04 -0.18765149312E-01  0.10202263590E+01  0.10199509601E+01 0.  0.
     999903    2    3    3    0    0 -0.50204702092E-01  0.24910664073E-01  0.11470452745E+00  0.12909671593E+00  0.19177595010E-01 0.  0.
         14    1    1    2    0    0  0.14482097537E-01  0.24885854394E-04  0.18765149312E-01  0.23703641009E-01  0.00000000000E+00 0.  1.
     999901    1    3    3    0    0  0.35722604555E-01 -0.24935549928E-01 -0.13346967676E+00  0.89112964306E+00  0.88000000000E+00 0.  1.
        -11    1    4    4    0    0 -0.88996346337E-02  0.13850736241E-01  0.31598525606E-01  0.35633893030E-01  0.51100000000E-03 0. -1.
         11    1    4    4    0    0 -0.41305067458E-01  0.11059927833E-01  0.83106001842E-01  0.93462822901E-01  0.51100000000E-03 0.  1.
</event>
<event>
 8    1  0.1061721E+005  0.1043930E+01  0.7957747E-01            NaN
         13   -1    0    0    0    0  0.00000000000E+00  0.00000000000E+00  0.74505805969E-08  0.10566000000E+00  0.10566000000E+00 0. -1.
     999900   -1    0    0    0    0 -0.00000000000E+00 -0.00000000000E+00 -0.74505805969E-08  0.93827000000E+00  0.93827000000E+00 0.  1.
     999902    2    1    2    0    0  0.14960542851E-02 -0.22358977053E-01 -0.13217458583E-01  0.10179134044E+01  0.10175808743E+01 0.  0.
     999903    2    3    3    0    0  0.40345851789E-01 -0.11222008283E+00  0.48643193545E-01  0.13032618879E+00  0.19940422765E-01 0.  0.
         14    1    1    2    0    0 -0.14960542851E-02  0.22358977053E-01  0.13217458583E-01  0.26016595563E-01  0.00000000000E+00 0. -1.
     999901    1    3    3    0    0 -0.38849797504E-01  0.89861105774E-01 -0.61860652128E-01  0.88758721565E+00  0.88000000000E+00 0. -1.
        -11    1    4    4    0    0  0.21856121699E-01 -0.43950502316E-01  0.11420161525E-01  0.50398590454E-01  0.51100000000E-03 0. -1.
         11    1    4    4    0    0  0.18489730090E-01 -0.68269580512E-01  0.37223032020E-01  0.79927598336E-01  0.51100000000E-03 0.  1.
</event>
<event>
 8    1  0.1061721E+005  0.1043930E+01  0.7957747E-01            NaN
         13   -1    0    0    0    0  0.00000000000E+00  0.00000000000E+00  0.74505805969E-08  0.10566000000E+00  0.10566000000E+00 0.  1.
     999900   -1    0    0    0    0 -0.00000000000E+00 -0.00000000000E+00 -0.74505805969E-08  0.93827000000E+00  0.93827000000E+00 0.  1.
     999902    2    1    2    0    0 -0.14686958788E-01 -0.83874991744E-02 -0.17162863556E-01  0.10198339259E+01  0.10195492218E+01 0.  0.
     999903    2    3    3    0    0  0.38852516639E-01 -0.37691247047E-01 -0.11843414878E+00  0.13192567712E+00  0.21156288296E-01 0.  0.
         14    1    1    2    0    0  0.14686958788E-01  0.83874991744E-02  0.17162863556E-01  0.24096074084E-01  0.00000000000E+00 0.  1.
     999901    1    3    3    0    0 -0.53539475428E-01  0.29303747872E-01  0.10127128522E+00  0.88790824880E+00  0.88000000000E+00 0. -1.
        -11    1    4    4    0    0  0.21545151663E-01 -0.31934791149E-01 -0.66179146611E-01  0.76576530433E-01  0.51100000000E-03 0.  1.
         11    1    4    4    0    0  0.17307364977E-01 -0.57564558979E-02 -0.52255002164E-01  0.55349146688E-01  0.51100000000E-03 0. -1.
</event>
<event>
 8    1  0.1061721E+005  0.1043930E+01  0.7957747E-01            NaN
         13   -1    0    0    0    0  0.00000000000E+00  0.00000000000E+00  0.74505805969E-08  0.10566000000E+00  0.10566000000E+00 0.  1.
     999900   -1    0    0    0    0 -0.00000000000E+00 -0.00000000000E+00 -0.74505805969E-08  0.93827000000E+00  0.93827000000E+00 0.  1.
     999902    2    1    2    0    0  0.93243623824E-02 -0.19560822615E-01 -0.71766767097E-02  0.10211029502E+01  0.10208477657E+01 0.  0.
     999903    2    3    3    0    0  0.96649155979E-01 -0.43975115744E-01  0.76494590018E-01  0.13249586143E+00  0.20708955510E-01 0.  0.
         14    1    1    2    0    0 -0.93243623824E-02  0.19560822615E-01  0.71766767097E-02  0.22827049827E-01  0.00000000000E+00 0. -1.
     999901    1    3    3    0    0 -0.87324793597E-01  0.24414293130E-01 -0.83671266728E-01  0.88860708874E+00  0.88000000000E+00 0.  1.
        -11    1    4    4    0    0  0.78756219335E-01 -0.30279389859E-01  0.51558576803E-01  0.98883423773E-01  0.51100000000E-03 0.  1.
         11    1    4    4    0    0  0.17892936644E-01 -0.13695725885E-01  0.24936013215E-01  0.33612437658E-01  0.51100000000E-03 0. -1.
</event>
<event>
 8    1  0.1061721E+005  0.1043930E+01  0.7957747E-01            NaN
         13   -1    0    0    0    0  0.00000000000E+00  0.00000000000E+00  0.74505805969E-08  0.10566000000E+00  0.10566000000E+00 0.  1.
     999900   -1    0    0    0    0 -0.00000000000E+00 -0.00000000000E+00 -0.74505805969E-08  0.93827000000E+00  0.93827000000E+00 0.  1.
     999902    2    1    2    0    0 -0.22249233989E-01 -0.28841282685E-02 -0.59186302609E-02  0.10207270521E+01  0.10204632958E+01 0.  0.
     999903    2    3    3    0    0  0.67948637320E-01 -0.86778813157E-01 -0.66129111273E-01  0.13010969530E+00  0.20196379033E-01 0.  0.
         14    1    1    2    0    0  0.22249233989E-01  0.28841282685E-02  0.59186302609E-02  0.23202947940E-01  0.00000000000E+00 0. -1.
     999901    1    3    3    0    0 -0.90197871309E-01  0.83894684889E-01  0.60210481012E-01  0.89061735676E+00  0.88000000000E+00 0. -1.
        -11    1    4    4    0    0  0.56855898339E-01 -0.74092350033E-01 -0.63761644146E-01  0.11308438396E+00  0.51100000000E-03 0.  1.
         11    1    4    4    0    0  0.11092738982E-01 -0.12686463125E-01 -0.23674671272E-02  0.17025311343E-01  0.51100000000E-03 0. -1.
</event>
<event>
 8    1  0.1061721E+005  0.1043930E+01  0.7957747E-01            NaN
         13   -1    0    0    0    0  0.00000000000E+00  0.00000000000E+00  0.74505805969E-08  0.10566000000E+00  0.10566000000E+00 0. -1.
     999900   -1    0    0    0    0 -0.00000000000E+00 -0.00000000000E+00 -0.74505805969E-08  0.93827000000E+00  0.93827000000E+00 0. -1.
     999902    2    1    2    0    0 -0.19501949711E-02 -0.19202010832E-01  0.12820739072E-01  0.10207590736E+01  0.10204960531E+01 0.  0.
     999903    2    3    3    0    0  0.12277353479E+00  0.27396475571E-01 -0.25915080956E-01  0.12990112113E+00  0.19462839736E-01 0.  0.
         14    1    1    2    0    0  0.19501949711E-02  0.19202010832E-01 -0.12820739072E-01  0.23170926412E-01  0.00000000000E+00 0. -1.
     999901    1    3    3    0    0 -0.12472372977E+00 -0.46598486404E-01  0.38735820028E-01  0.89085795246E+00  0.88000000000E+00 0.  1.
        -11    1    4    4    0    0  0.37674257034E-01  0.16562665944E-02 -0.13854724842E-01  0.40178444264E-01  0.51100000000E-03 0.  1.
         11    1    4    4    0    0  0.85099277761E-01  0.25740208977E-01 -0.12060356114E-01  0.89722676867E-01  0.51100000000E-03 0. -1.
</event>
<event>
 8    1  0.1061721E+005  0.1043930E+01  0.7957747E-01            NaN
         13   -1    0    0    0    0  0.00000000000E+00  0.00000000000E+00  0.74505805969E-08  0.10566000000E+00  0.10566000000E+00 0.  1.
     999900   -1    0    0    0    0 -0.00000000000E+00 -0.00000000000E+00 -0.74505805969E-08  0.93827000000E+00  0.93827000000E+00 0.  1.
     999902    2    1    2    0    0  0.31423779008E-02  0.34458448446E-02 -0.25281742594E-01  0.10182217349E+01  0.10178971395E+01 0.  0.
     999903    2    3    3    0    0  0.47244458704E-01 -0.75047325646E-01 -0.93881964186E-01  0.13097196075E+00  0.21810349312E-01 0.  0.
         14    1    1    2    0    0 -0.31423779008E-02 -0.34458448446E-02  0.25281742594E-01  0.25708265095E-01  0.00000000000E+00 0.  1.
     999901    1    3    3    0    0 -0.44102080803E-01  0.78493170491E-01  0.68600221592E-01  0.88724977416E+00  0.88000000000E+00 0. -1.
        -11    1    4    4    0    0  0.33414252805E-01 -0.34409748550E-01 -0.55829281573E-01  0.73605114549E-01  0.51100000000E-03 0. -1.
         11    1    4    4    0    0  0.13830205899E-01 -0.40637577096E-01 -0.38052682613E-01  0.57366846196E-01  0.51100000000E-03 0.  1.
</event>
<event>
 8    1  0.1061721E+005  0.1043930E+01  0.7957747E-01            NaN
         13   -1    0    0    0    0  0.00000000000E+00  0.00000000000E+00  0.74505805969E-08  0.10566000000E+00  0.10566000000E+00 0. -1.
     999900   -1    0    0    0    0 -0.00000000000E+00 -0.00000000000E+00 -0.74505805969E-08  0.93827000000E+00  0.93827000000E+00 0. -1.
     999902    2    1    2    0    0 -0.55069994465E-04  0.21424425890E-01 -0.97433611300E-02  0.10203940245E+01  0.10201225530E+01 0.  0.
     999903    2    3    3    0    0 -0.70734303860E-02  0.12908505451E+00  0.24972337339E-01  0.13312560509E+00  0.19642412832E-01 0.  0.
         14    1    1    2    0    0  0.55069994465E-04 -0.21424425890E-01  0.97433611300E-02  0.23535975517E-01  0.00000000000E+00 0. -1.
     999901    1    3    3    0    0  0.70183603915E-02 -0.10766062862E+00 -0.34715698469E-01  0.88726841940E+00  0.88000000000E+00 0. -1.
        -11    1    4    4    0    0 -0.74550278670E-02  0.64714548860E-01  0.33988039892E-02  0.65233145442E-01  0.51100000000E-03 0.  1.
         11    1    4    4    0    0  0.38159748104E-03  0.64370505651E-01  0.21573533350E-01  0.67892459645E-01  0.51100000000E-03 0. -1.
</event>
<event>
 8    1  0.1061721E+005  0.1043930E+01  0.7957747E-01            NaN
         13   -1    0    0    0    0  0.00000000000E+00  0.00000000000E+00  0.74505805969E-08  0.10566000000E+00  0.10566000000E+00 0. -1.
     999900   -1    0    0    0    0 -0.00000000000E+00 -0.00000000000E+00 -0.74505805969E-08  0.93827000000E+00  0.93827000000E+00 0.  1.
     999902    2    1    2    0    0  0.21914190616E-02  0.15874228752E-01  0.17209530285E-01  0.10204148689E+01  0.10201438837E+01 0.  0.
     999903    2    3    3    0    0 -0.72227897214E-01 -0.91936097390E-01  0.52922692893E-01  0.13000107130E+00  0.20744926514E-01 0.  0.
         14    1    1    2    0    0 -0.21914190616E-02 -0.15874228752E-01 -0.17209530285E-01  0.23515131056E-01  0.00000000000E+00 0.  1.
     999901    1    3    3    0    0  0.74419316275E-01  0.10781032614E+00 -0.35713162608E-01  0.89041379765E+00  0.88000000000E+00 0.  1.
        -11    1    4    4    0    0 -0.36183150591E-01 -0.36376786287E-01  0.14019938995E-01  0.53191265991E-01  0.51100000000E-03 0. -1.
         11    1    4    4    0    0 -0.36044746622E-01 -0.55559311103E-01  0.38902753897E-01  0.76809805306E-01  0.51100000000E-03 0.  1.
</event>
<event>
 8    1  0.1061721E+005  0.1043930E+01  0.7957747E-01            NaN
         13   -1    0    0    0    0  0.00000000000E+00  0.00000000000E+00  0.74505805969E-08  0.10566000000E+00  0.10566000000E+00 0. -1.
     999900   -1    0    0    0    0 -0.00000000000E+00 -0.00000000000E+00 -0.74505805969E-08  0.93827000000E+00  0.93827000000E+00 0.  1.
     999902    2    1    2    0    0  0.12160277609E-01  0.20317583291E-01 -0.51460320752E-02  0.10196986528E+01  0.10194107044E+01 0.  0.
     999903    2    3    3    0    0 -0.50249094938E-01 -0.15084841282E-01  0.11565370807E+00  0.12855285176E+00  0.19938192626E-01 0.  0.
         14    1    1    2    0    0 -0.12160277609E-01 -0.20317583291E-01  0.51460320752E-02  0.24231347227E-01  0.00000000000E+00 0. -1.
     999901    1    3    3    0    0  0.62409372547E-01  0.35402424573E-01 -0.12079974015E+00  0.89114580102E+00  0.88000000000E+00 0.  1.
        -11    1    4    4    0    0 -0.18520186041E-01 -0.49035301125E-02  0.22164820647E-01  0.29301574938E-01  0.51100000000E-03 0.  1.
         11    1    4    4    0    0 -0.31728908898E-01 -0.10181311169E-01  0.93488887427E-01  0.99251276819E-01  0.51100000000E-03 0. -1.
</event>
<event>
 8    1  0.1061721E+005  0.1043930E+01  0.7957747E-01            NaN
         13   -1    0    0    0    0  0.00000000000E+00  0.00000000000E+00  0.74505805969E-08  0.10566000000E+00  0.10566000000E+00 0.  1.
     999900   -1    0    0    0    0 -0.00000000000E+00 -0.00000000000E+00 -0.74505805969E-08  0.93827000000E+00  0.93827000000E+00 0. -1.
     999902    2    1    2    0    0  0.26443893682E-01 -0.17058434140E-02  0.16495013620E-02  0.10173798537E+01  0.10170333605E+01 0.  0.
     999903    2    3    3    0    0  0.28553829123E-01 -0.12294072404E+00 -0.11602031561E-01  0.12896668897E+00  0.23833945144E-01 0.  0.
         14    1    1    2    0    0 -0.26443893682E-01  0.17058434140E-02 -0.16495013620E-02  0.26550146319E-01  0.00000000000E+00 0.  1.
     999901    1    3    3    0    0 -0.21099354415E-02  0.12123488063E+00  0.13251532923E-01  0.88841316471E+00  0.88000000000E+00 0. -1.
        -11    1    4    4    0    0  0.11327445338E-02 -0.57170268391E-01 -0.53240357846E-02  0.57431081969E-01  0.51100000000E-03 0. -1.
         11    1    4    4    0    0  0.27421084589E-01 -0.65770455654E-01 -0.62779957759E-02  0.71535607000E-01  0.51100000000E-03 0.  1.
</event>
<event>
 8    1  0.1061721E+005  0.1043930E+01  0.7957747E-01            NaN
         13   -1    0    0    0    0  0.00000000000E+00  0.00000000000E+00  0.74505805969E-08  0.10566000000E+00  0.10566000000E+00 0.  1.
     999900   -1    0    0    0    0 -0.00000000000E+00 -0.00000000000E+00 -0.74505805969E-08  0.93827000000E+00  0.93827000000E+00 0.  1.
     999902    2    1    2    0    0 -0.10020929372E-01  0.15176237367E-01  0.14297989501E-01  0.10207962647E+01  0.10205340976E+01 0.  0.
     999903    2    3    3    0    0 -0.84445737313E-01 -0.74874532106E-01  0.64318858234E-01  0.13166731991E+00  0.21496267099E-01 0.  0.
         14    1    1    2    0    0  0.10020929372E-01 -0.15176237367E-01 -0.14297989501E-01  0.23133735320E-01  0.00000000000E+00 0.  1.
     999901    1    3    3    0    0  0.74424807941E-01  0.90050769473E-01 -0.50020868733E-01  0.88912894477E+00  0.88000000000E+00 0. -1.
        -11    1    4    4    0    0 -0.62888727250E-01 -0.49223961873E-01  0.35214880919E-01  0.87283099147E-01  0.51100000000E-03 0.  1.
         11    1    4    4    0    0 -0.21557010063E-01 -0.25650570233E-01  0.29103977315E-01  0.44384220762E-01  0.51100000000E-03 0. -1.
</event>
<event>
 8    1  0.1061721E+005  0.1043930E+01  0.7957747E-01            NaN
         13   -1    0    0    0    0  0.00000000000E+00  0.00000000000E+00  0.74505805969E-08  0.10566000000E+00  0.10566000000E+00 0. -1.
     999900   -1    0    0    0    0 -0.00000000000E+00 -0.00000000000E+00 -0.74505805969E-08  0.93827000000E+00  0.93827000000E+00 0.  1.
     999902    2    1    2    0    0 -0.55611463670E-02 -0.15309958960E-01 -0.14081488068E-01  0.10223984070E+01  0.10221716554E+01 0.  0.
     999903    2    3    3    0    0 -0.43163395395E-01  0.10733362617E+00 -0.60131118742E-01  0.13190643812E+00  0.19999274127E-01 0.  0.
         14    1    1    2    0    0  0.55611463670E-02  0.15309958960E-01  0.14081488068E-01  0.21531593032E-01  0.00000000000E+00 0. -1.
     999901    1    3    3    0    0  0.37602249028E-01 -0.12264358513E+00  0.46049630673E-01  0.89049196885E+00  0.88000000000E+00 0. -1.
        -11    1    4    4    0    0 -0.17569485700E-01  0.37811363458E-01 -0.11388220619E-01  0.43224283964E-01  0.51100000000E-03 0.  1.
         11    1    4    4    0    0 -0.25593909695E-01  0.69522262716E-01 -0.48742898123E-01  0.88682154152E-01  0.51100000000E-03 0. -1.
</event>
<event>
 8    1  0.1061721E+005  0.1043930E+01  0.7957747E-01            NaN
         13   -1    0    0    0    0  0.00000000000E+00  0.00000000000E+00  0.74505805969E-08  0.10566000000E+00  0.10566000000E+00 0. -1.
     999900   -1    0    0    0    0 -0.00000000000E+00 -0.00000000000E+00 -0.74505805969E-08  0.93827000000E+00  0.93827000000E+00 0. -1.
     999902    2    1    2    0    0  0.73162230299E-02 -0.22799711714E-01 -0.43324460372E-03  0.10199812699E+01  0.10197000781E+01 0.  0.
     999903    2    3    3    0    0  0.99917803133E-01  0.20311484672E-01 -0.79120654636E-01  0.13058521840E+00  0.19907221830E-01 0.  0.
         14    1    1    2    0    0 -0.73162230299E-02  0.22799711714E-01  0.43324460372E-03  0.23948730124E-01  0.00000000000E+00 0. -1.
     999901    1    3    3    0    0 -0.92601580103E-01 -0.43111196385E-01  0.78687410032E-01  0.88939605148E+00  0.88000000000E+00 0.  1.
        -11    1    4    4    0    0  0.37295614454E-01  0.80803996834E-03 -0.37535101719E-01  0.52922214316E-01  0.51100000000E-03 0.  1.
         11    1    4    4    0    0  0.62622188680E-01  0.19503444703E-01 -0.41585552917E-01  0.77663004080E-01  0.51100000000E-03 0. -1.
</event>
<event>
 8    1  0.1061721E+005  0.1043930E+01  0.7957747E-01            NaN
         13   -1    0    0    0    0  0.00000000000E+00  0.00000000000E+00  0.74505805969E-08  0.10566000000E+00  0.10566000000E+00 0.  1.
     999900   -1    0    0    0    0 -0.00000000000E+00 -0.00000000000E+00 -0.74505805969E-08  0.93827000000E+00  0.93827000000E+00 0.  1.
     999902    2    1    2    0    0 -0.11695292315E-01 -0.20265488009E-01 -0.16814965605E-02  0.10204715837E+01  0.10202019191E+01 0.  0.
     999903    2    3    3    0    0  0.50726430052E-01  0.70784139852E-01  0.92263859518E-01  0.12861271809E+00  0.21096121015E-01 0.  0.
         14    1    1    2    0    0  0.11695292315E-01  0.20265488009E-01  0.16814965605E-02  0.23458416342E-01  0.00000000000E+00 0.  1.
     999901    1    3    3    0    0 -0.62421722367E-01 -0.91049627862E-01 -0.93945356078E-01  0.89185886556E+00  0.88000000000E+00 0.  1.
        -11    1    4    4    0    0  0.14809731265E-01  0.22739177416E-01  0.43646306010E-01  0.51397076561E-01  0.51100000000E-03 0. -1.
         11    1    4    4    0    0  0.35916698787E-01  0.48044962436E-01  0.48617553508E-01  0.77215641533E-01  0.51100000000E-03 0.  1.
</event>
<event>
 8    1  0.1061721E+005  0.1043930E+01  0.7957747E-01            NaN
         13   -1    0    0    0    0  0.00000000000E+00  0.00000000000E+00  0.74505805969E-08  0.10566000000E+00  0.10566000000E+00 0.  1.
     999900   -1    0    0    0    0 -0.00000000000E+00 -0.00000000000E+00 -0.74505805969E-08  0.93827000000E+00  0.93827000000E+00 0. -1.
     999902    2    1    2    0    0  0.18247546187E-02 -0.18699429022E-01 -0.14074088562E-01  0.10204549421E+01  0.10201848903E+01 0.  0.
     999903    2    3    3    0    0 -0.11610822491E+00 -0.58263498818E-01  0.26154412162E-02  0.13154997322E+00  0.20562094591E-01 0.  0.
         14    1    1    2    0    0 -0.18247546187E-02  0.18699429022E-01  0.14074088562E-01  0.23475057913E-01  0.00000000000E+00 0.  1.
     999901    1    3    3    0    0  0.11793297953E+00  0.39564069796E-01 -0.16689529778E-01  0.88890496887E+00  0.88000000000E+00 0. -1.
        -11    1    4    4    0    0 -0.10608637474E+00 -0.48927203070E-01 -0.26770955831E-02  0.11685725509E+00  0.51100000000E-03 0. -1.
         11    1    4    4    0    0 -0.10021850173E-01 -0.93362957477E-02  0.52925367992E-02  0.14692718127E-01  0.51100000000E-03 0.  1.
</event>
<event>
 8    1  0.1061721E+005  0.1043930E+01  0.7957747E-01            NaN
         13   -1    0    0    0    0  0.00000000000E+00  0.00000000000E+00  0.74505805969E-08  0.10566000000E+00  0.10566000000E+00 0.  1.
     999900   -1    0    0    0    0 -0.00000000000E+00 -0.00000000000E+00 -0.74505805969E-08  0.93827000000E+00  0.93827000000E+00 0.  1.
     999902    2    1    2    0    0 -0.18858332972E-01  0.12437897323E-01 -0.98998459802E-02  0.10192653499E+01  0.10189668830E+01 0.  0.
     999903    2    3    3    0    0 -0.11367117491E+00  0.57284185903E-01  0.29307829111E-01  0.13217014288E+00  0.20183752429E-01 0.  0.
         14    1    1    2    0    0  0.18858332972E-01 -0.12437897323E-01  0.98998459802E-02  0.24664650063E-01  0.00000000000E+00 0. -1.
     999901    1    3    3    0    0  0.94812841937E-01 -0.44846288580E-01 -0.39207675091E-01  0.88709520706E+00  0.88000000000E+00 0. -1.
        -11    1    4    4    0    0 -0.88932408489E-01  0.53591416804E-01  0.24718413590E-01  0.10673459761E+00  0.51100000000E-03 0. -1.
         11    1    4    4    0    0 -0.24738766420E-01  0.36927690997E-02  0.45894155212E-02  0.25435545275E-01  0.51100000000E-03 0.  1.
</event>
<event>
 8    1  0.1061721E+005  0.1043930E+01  0.7957747E-01            NaN
         13   -1    0    0    0    0  0.00000000000E+00  0.00000000000E+00  0.74505805969E-08  0.10566000000E+00  0.10566000000E+00 0.  1.
     999900   -1    0    0    0    0 -0.00000000000E+00 -0.00000000000E+00 -0.74505805969E-08  0.93827000000E+00  0.93827000000E+00 0.  1.
     999902    2    1    2    0    0  0.16698441330E-01  0.18004262512E-01 -0.33892344146E-02  0.10191413268E+01  0.10188398135E+01 0.  0.
     999903    2    3    3    0    0  0.46206386513E-02 -0.66931837642E-02 -0.12805156114E+00  0.12993014100E+00  0.20457033474E-01 0.  0.
         14    1    1    2    0    0 -0.16698441330E-01 -0.18004262512E-01  0.33892344146E-02  0.24788673247E-01  0.00000000000E+00 0.  1.
     999901    1    3    3    0    0  0.12077802678E-01  0.24697446276E-01  0.12466232673E+00  0.88921118576E+00  0.88000000000E+00 0. -1.
        -11    1    4    4    0    0 -0.40649568318E-02  0.42447546360E-02 -0.68801687929E-01  0.69054146862E-01  0.51100000000E-03 0. -1.
         11    1    4    4    0    0  0.86855954831E-02 -0.10937938400E-01 -0.59249873211E-01  0.60875994135E-01  0.51100000000E-03 0.  1.
</event>
<event>
 8    1  0.1061721E+005  0.1043930E+01  0.7957747E-01            NaN
         13   -1    0    0    0    0  0.00000000000E+00  0.00000000000E+00  0.74505805969E-08  0.10566000000E+00  0.10566000000E+00 0. -1.
     999900   -1    0    0    0    0 -0.00000000000E+00 -0.00000000000E+00 -0.74505805969E-08  0.93827000000E+00  0.93827000000E+00 0.  1.
     999902    2    1    2    0    0 -0.11107697893E-01  0.19228432327E-01  0.59042300101E-02  0.10209523262E+01  0.10206937243E+01 0.  0.
     999903    2    3    3    0    0 -0.36994326748E-01  0.60927805455E-01 -0.10945134490E+00  0.13206770828E+00  0.19532152525E-01 0.  0.
         14    1    1    2    0    0  0.11107697893E-01 -0.19228432327E-01 -0.59042300101E-02  0.22977673821E-01  0.00000000000E+00 0.  1.
     999901    1    3    3    0    0  0.25886628855E-01 -0.41699373128E-01  0.11535557491E+00  0.88888461790E+00  0.88000000000E+00 0. -1.
        -11    1    4    4    0    0 -0.22645131790E-01  0.22664202005E-01 -0.59004087575E-01  0.67143216470E-01  0.51100000000E-03 0.  1.
         11    1    4    4    0    0 -0.14349194957E-01  0.38263603450E-01 -0.50447257320E-01  0.64924491812E-01  0.51100000000E-03 0. -1.
</event>
<event>
 8    1  0.1061721E+005  0.1043930E+01  0.7957747E-01            NaN
         13   -1    0    0    0    0  0.00000000000E+00  0.00000000000E+00  0.74505805969E-08  0.10566000000E+00  0.10566000000E+00 0.  1.
     999900   -1    0    0    0    0 -0.00000000000E+00 -0.00000000000E+00 -0.74505805969E-08  0.93827000000E+00  0.93827000000E+00 0.  1.
     999902    2    1    2    0    0 -0.46489461677E-02 -0.22504035836E-01 -0.26786879824E-02  0.10207951843E+01  0.10205329924E+01 0.  0.
     999903    2    3    3    0    0 -0.80162865319E-01 -0.29371870944E-01  0.98410186766E-01  0.13176848066E+00  0.19737676067E-01 0.  0.
         14    1    1    2    0    0  0.46489461677E-02  0.22504035836E-01  0.26786879824E-02  0.23134815726E-01  0.00000000000E+00 0.  1.
     999901    1    3    3    0    0  0.75513919151E-01  0.68678351084E-02 -0.10108887475E+00  0.88902670362E+00  0.88000000000E+00 0.  1.
        -11    1    4    4    0    0 -0.47612163104E-01 -0.13499099905E-01  0.42948999301E-01  0.65528783261E-01  0.51100000000E-03 0. -1.
         11    1    4    4    0    0 -0.32550702215E-01 -0.15872771040E-01  0.55461187465E-01  0.66239697397E-01  0.51100000000E-03 0.  1.
</event>
<event>
 8    1  0.1061721E+005  0.1043930E+01  0.7957747E-01            NaN
         13   -1    0    0    0    0  0.00000000000E+00  0.00000000000E+00  0.74505805969E-08  0.10566000000E+00  0.10566000000E+00 0. -1.
     999900   -1    0    0    0    0 -0.00000000000E+00 -0.00000000000E+00 -0.74505805969E-08  0.93827000000E+00  0.93827000000E+00 0. -1.
     999902    2    1    2    0    0 -0.15971247484E-01  0.90673037511E-02 -0.13659786375E-01  0.10210414328E+01  0.10207848554E+01 0.  0.
     999903    2    3    3    0    0 -0.28409178085E-01 -0.12571829884E+00 -0.65013600316E-02  0.13066336489E+00  0.20456665914E-01 0.  0.
         14    1    1    2    0    0  0.15971247484E-01 -0.90673037511E-02  0.13659786375E-01  0.22888567175E-01  0.00000000000E+00 0.  1.
     999901    1    3    3    0    0  0.12437930601E-01  0.13478560259E+00 -0.71584263436E-02  0.89037806793E+00  0.88000000000E+00 0. -1.
        -11    1    4    4    0    0 -0.21587988033E-02 -0.50323054654E-01  0.17483691125E-02  0.50402263417E-01  0.51100000000E-03 0. -1.
         11    1    4    4    0    0 -0.26250379281E-01 -0.75395244187E-01 -0.82497291440E-02  0.80261101478E-01  0.51100000000E-03 0.  1.
</event>
<event>
 8    1  0.1061721E+005  0.1043930E+01  0.7957747E-01            NaN
         13   -1    0    0    0    0  0.00000000000E+00  0.00000000000E+00  0.74505805969E-08  0.10566000000E+00  0.10566000000E+00 0.  1.
     999900   -1    0    0    0    0 -0.00000000000E+00 -0.00000000000E+00 -0.74505805969E-08  0.93827000000E+00  0.93827000000E+00 0. -1.
     999902    2    1    2    0    0  0.81420437447E-02  0.17129219566E-01  0.13709462609E-01  0.10205280256E+01  0.10202596722E+01 0.  0.
     999903    2    3    3    0    0 -0.25633923217E-01 -0.12256999288E+00  0.21165227494E-01  0.12883734253E+00  0.21693151049E-01 0.  0.
         14    1    1    2    0    0 -0.81420437447E-02 -0.17129219566E-01 -0.13709462609E-01  0.23401974367E-01  0.00000000000E+00 0. -1.
     999901    1    3    3    0    0  0.33775966962E-01  0.13969921244E+00 -0.74557648855E-02  0.89169068310E+00  0.88000000000E+00 0. -1.
        -11    1    4    4    0    0 -0.20138499430E-02 -0.57870611255E-01  0.52563967879E-02  0.58145972060E-01  0.51100000000E-03 0.  1.
         11    1    4    4    0    0 -0.23620073274E-01 -0.64699381621E-01  0.15908830706E-01  0.70691370471E-01  0.51100000000E-03 0. -1.
</event>
<event>
 8    1  0.1061721E+005  0.1043930E+01  0.7957747E-01            NaN
         13   -1    0    0    0    0  0.00000000000E+00  0.00000000000E+00  0.74505805969E-08  0.10566000000E+00  0.10566000000E+00 0.  1.
     999900   -1    0    0    0    0 -0.00000000000E+00 -0.00000000000E+00 -0.74505805969E-08  0.93827000000E+00  0.93827000000E+00 0.  1.
     999902    2    1    2    0    0  0.95124767386E-02  0.41838687423E-02  0.21447814566E-01  0.10200972343E+01  0.10198187911E+01 0.  0.
     999903    2    3    3    0    0 -0.25560837215E-01  0.33081752280E-01 -0.11912363423E+00  0.12778251558E+00  0.19752780128E-01 0.  0.
         14    1    1    2    0    0 -0.95124767386E-02 -0.41838687423E-02 -0.21447814566E-01  0.23832765702E-01  0.00000000000E+00 0. -1.
     999901    1    3    3    0    0  0.35073313954E-01 -0.28897883537E-01  0.14057144880E+00  0.89231471872E+00  0.88000000000E+00 0. -1.
        -11    1    4    4    0    0 -0.27695855583E-01  0.26563055367E-01 -0.89696671684E-01  0.97562340886E-01  0.51100000000E-03 0.  1.
         11    1    4    4    0    0  0.21350183684E-02  0.65186969126E-02 -0.29426962546E-01  0.30220174694E-01  0.51100000000E-03 0. -1.
</event>
<event>
 7    1  0.1061721E+005  0.1043930E+01  0.7957747E-01            NaN
         13   -1    0    0    0    0  0.00000000000E+00  0.00000000000E+00  0.74505805969E-08  0.10566000000E+00  0.10566000000E+00 0. -1.
     999900   -1    0    0    0    0 -0.00000000000E+00 -0.00000000000E+00 -0.74505805969E-08  0.93827000000E+00  0.93827000000E+00 0. -1.
     999903    2    1    2    0    0 -0.24970892241E-01 -0.11574518080E+00  0.17633914306E-02  0.12007867161E+00  0.19881787907E-01 0.  0.
         14    1    1    2    0    0  0.19055704119E-02  0.37442793447E-01  0.13761574835E-01  0.39937137124E-01  0.00000000000E+00 0.  1.
     999901    1    1    2    0    0  0.23065321829E-01  0.78302387349E-01 -0.15524966265E-01  0.88391419126E+00  0.88000000000E+00 0.  1.
        -11    1    3    3    0    0 -0.14809311460E-01 -0.64021705931E-01 -0.88461575712E-02  0.66306939011E-01  0.51100000000E-03 0. -1.
         11    1    3    3    0    0 -0.10161580781E-01 -0.51723474866E-01  0.10609549002E-01  0.53771732603E-01  0.51100000000E-03 0.  1.
</event>
<event>
 8    1  0.1061721E+005  0.1043930E+01  0.7957747E-01            NaN
         13   -1    0    0    0    0  0.00000000000E+00  0.00000000000E+00  0.74505805969E-08  0.10566000000E+00  0.10566000000E+00 0.  1.
     999900   -1    0    0    0    0 -0.00000000000E+00 -0.00000000000E+00 -0.74505805969E-08  0.93827000000E+00  0.93827000000E+00 0.  1.
     999902    2    1    2    0    0  0.35525514244E-02 -0.24652010282E-01  0.58166365521E-02  0.10183531454E+01  0.10180319018E+01 0.  0.
     999903    2    3    3    0    0 -0.78337052351E-01  0.77363142720E-01 -0.58586573773E-01  0.12635495469E+00  0.20283942590E-01 0.  0.
         14    1    1    2    0    0 -0.35525514244E-02  0.24652010282E-01 -0.58166365521E-02  0.25576854641E-01  0.00000000000E+00 0.  1.
     999901    1    3    3    0    0  0.81889603775E-01 -0.10201515300E+00  0.64403210325E-01  0.89199819066E+00  0.88000000000E+00 0. -1.
        -11    1    4    4    0    0 -0.44610618624E-01  0.30135838321E-01 -0.25841241730E-01  0.59718564454E-01  0.51100000000E-03 0.  1.
         11    1    4    4    0    0 -0.33726433727E-01  0.47227304399E-01 -0.32745332043E-01  0.66636390241E-01  0.51100000000E-03 0. -1.
</event>
<event>
 8    1  0.1061721E+005  0.1043930E+01  0.7957747E-01            NaN
         13   -1    0    0    0    0  0.00000000000E+00  0.00000000000E+00  0.74505805969E-08  0.10566000000E+00  0.10566000000E+00 0.  1.
     999900   -1    0    0    0    0 -0.00000000000E+00 -0.00000000000E+00 -0.74505805969E-08  0.93827000000E+00  0.93827000000E+00 0. -1.
     999902    2    1    2    0    0 -0.96200200270E-02 -0.12701730337E-01  0.21534129456E-01  0.10171419902E+01  0.10167891771E+01 0.  0.
     999903    2    3    3    0    0 -0.16998767398E-01 -0.51138595806E-01  0.11770913671E+00  0.13103732900E+00  0.20278724147E-01 0.  0.
         14    1    1    2    0    0  0.96200200270E-02  0.12701730337E-01 -0.21534129456E-01  0.26788009824E-01  0.00000000000E+00 0. -1.
     999901    1    3    3    0    0  0.73787473714E-02  0.38436865468E-01 -0.96175007251E-01  0.88610466118E+00  0.88000000000E+00 0. -1.
        -11    1    4    4    0    0 -0.83468818819E-02 -0.44937946451E-01  0.10454181095E+00  0.11409794401E+00  0.51100000000E-03 0.  1.
         11    1    4    4    0    0 -0.86518855165E-02 -0.62006493545E-02  0.13167325755E-01  0.16939384993E-01  0.51100000000E-03 0. -1.
</event>
<event>
 8    1  0.1061721E+005  0.1043930E+01  0.7957747E-01            NaN
         13   -1    0    0    0    0  0.00000000000E+00  0.00000000000E+00  0.74505805969E-08  0.10566000000E+00  0.10566000000E+00 0. -1.
     999900   -1    0    0    0    0 -0.00000000000E+00 -0.00000000000E+00 -0.74505805969E-08  0.93827000000E+00  0.93827000000E+00 0.  1.
     999902    2    1    2    0    0 -0.45955082134E-02  0.57540153272E-02 -0.20829975416E-01  0.10218366692E+01  0.10215977992E+01 0.  0.
     999903    2    3    3    0    0 -0.59842843212E-01 -0.67143512945E-01 -0.97003895817E-01  0.13382271451E+00  0.20232298453E-01 0.  0.
         14    1    1    2    0    0  0.45955082134E-02 -0.57540153272E-02  0.20829975416E-01  0.22093330757E-01  0.00000000000E+00 0. -1.
     999901    1    3    3    0    0  0.55247334998E-01  0.72897528272E-01  0.76173920401E-01  0.88801395473E+00  0.88000000000E+00 0. -1.
        -11    1    4    4    0    0 -0.74303559274E-02 -0.20682966307E-01 -0.19863685682E-01  0.29628068016E-01  0.51100000000E-03 0.  1.
         11    1    4    4    0    0 -0.52412487284E-01 -0.46460546637E-01 -0.77140210135E-01  0.10419464649E+00  0.51100000000E-03 0. -1.
</event>
<event>
 8    1  0.1061721E+005  0.1043930E+01  0.7957747E-01            NaN
         13   -1    0    0    0    0  0.00000000000E+00  0.00000000000E+00  0.74505805969E-08  0.10566000000E+00  0.10566000000E+00 0.  1.
     999900   -1    0    0    0    0 -0.00000000000E+00 -0.00000000000E+00 -0.74505805969E-08  0.93827000000E+00  0.93827000000E+00 0. -1.
     999902    2    1    2    0    0  0.62882652345E-02  0.10892499949E-01 -0.20653783797E-01  0.10197480311E+01  0.10194612692E+01 0.  0.
     999903    2    3    3    0    0  0.44690492427E-02  0.12833819274E+00 -0.25362339814E-01  0.13193106190E+00  0.16489169074E-01 0.  0.
         14    1    1    2    0    0 -0.62882652345E-02 -0.10892499949E-01  0.20653783797E-01  0.24181968901E-01  0.00000000000E+00 0.  1.
     999901    1    3    3    0    0  0.18192159918E-02 -0.11744569279E+00  0.47085560173E-02  0.88781696920E+00  0.88000000000E+00 0.  1.
        -11    1    4    4    0    0 -0.55919432747E-02  0.24976957323E-01 -0.41195414942E-02  0.25929712105E-01  0.51100000000E-03 0.  1.
         11    1    4    4    0    0  0.10060992517E-01  0.10336123541E+00 -0.21242798320E-01  0.10600134979E+00  0.51100000000E-03 0. -1.
</event>
<event>
 8    1  0.1061721E+005  0.1043930E+01  0.7957747E-01            NaN
         13   -1    0    0    0    0  0.00000000000E+00  0.00000000000E+00  0.74505805969E-08  0.10566000000E+00  0.10566000000E+00 0.  1.
     999900   -1    0    0    0    0 -0.00000000000E+00 -0.00000000000E+00 -0.74505805969E-08  0.93827000000E+00  0.93827000000E+00 0.  1.
     999902    2    1    2    0    0  0.78639255189E-02  0.17850940838E-01  0.11536157068E-01  0.10212676891E+01  0.10210162156E+01 0.  0.
     999903    2    3    3    0    0 -0.67046169318E-01  0.95913475975E-01  0.61343585035E-01  0.13324400614E+00  0.17214704562E-01 0.  0.
         14    1    1    2    0    0 -0.78639255189E-02 -0.17850940838E-01 -0.11536157068E-01  0.22662310854E-01  0.00000000000E+00 0. -1.
     999901    1    3    3    0    0  0.74910094837E-01 -0.78062535137E-01 -0.49807427967E-01  0.88802368301E+00  0.88000000000E+00 0.  1.
        -11    1    4    4    0    0 -0.19049192617E-01  0.17091929206E-01  0.89242035309E-02  0.27109192408E-01  0.51100000000E-03 0.  1.
         11    1    4    4    0    0 -0.47996976702E-01  0.78821546769E-01  0.52419381504E-01  0.10613481373E+00  0.51100000000E-03 0. -1.
</event>
<event>
 8    1  0.1061721E+005  0.1043930E+01  0.7957747E-01            NaN
         13   -1    0    0    0    0  0.00000000000E+00  0.00000000000E+00  0.74505805969E-08  0.10566000000E+00  0.10566000000E+00 0. -1.
     999900   -1    0    0    0    0 -0.00000000000E+00 -0.00000000000E+00 -0.74505805969E-08  0.93827000000E+00  0.93827000000E+00 0.  1.
     999902    2    1    2    0    0 -0.20875678627E-01 -0.50701463323E-02  0.67752041305E-02  0.10214043761E+01  0.10211559605E+01 0.  0.
     999903    2    3    3    0    0  0.80061652027E-01 -0.97193407428E-01  0.29241356314E-01  0.13057343367E+00  0.18383092487E-01 0.  0.
         14    1    1    2    0    0  0.20875678627E-01  0.50701463323E-02 -0.67752041305E-02  0.22525623920E-01  0.00000000000E+00 0.  1.
     999901    1    3    3    0    0 -0.10093733065E+00  0.92123261096E-01 -0.22466152183E-01  0.89083094241E+00  0.88000000000E+00 0. -1.
        -11    1    4    4    0    0  0.31269798435E-01 -0.38873454821E-01  0.24520941285E-02  0.49952173831E-01  0.51100000000E-03 0. -1.
         11    1    4    4    0    0  0.48791853592E-01 -0.58319952607E-01  0.26789262185E-01  0.80621259842E-01  0.51100000000E-03 0.  1.
</event>
<event>
 8    1  0.1061721E+005  0.1043930E+01  0.7957747E-01            NaN
         13   -1    0    0    0    0  0.00000000000E+00  0.00000000000E+00  0.74505805969E-08  0.10566000000E+00  0.10566000000E+00 0. -1.
     999900   -1    0    0    0    0 -0.00000000000E+00 -0.00000000000E+00 -0.74505805969E-08  0.93827000000E+00  0.93827000000E+00 0.  1.
     999902    2    1    2    0    0 -0.14398055916E-01  0.14855416358E-02  0.22600794846E-01  0.10170914684E+01  0.10167373055E+01 0.  0.
     999903    2    3    3    0    0 -0.41007205339E-03 -0.11950353218E+00 -0.36867770632E-01  0.12671484591E+00  0.20399933830E-01 0.  0.
         14    1    1    2    0    0  0.14398055916E-01 -0.14855416358E-02 -0.22600794846E-01  0.26838531551E-01  0.00000000000E+00 0.  1.
     999901    1    3    3    0    0 -0.13987983863E-01  0.12098907382E+00  0.59468565478E-01  0.89037662253E+00  0.88000000000E+00 0. -1.
        -11    1    4    4    0    0 -0.86445274289E-02 -0.44695422156E-01 -0.86733242942E-02  0.46345402053E-01  0.51100000000E-03 0. -1.
         11    1    4    4    0    0  0.82344553755E-02 -0.74808110028E-01 -0.28194446338E-01  0.80369443862E-01  0.51100000000E-03 0.  1.
</event>
<event>
 8    1  0.1061721E+005  0.1043930E+01  0.7957747E-01            NaN
         13   -1    0    0    0    0  0.00000000000E+00  0.00000000000E+00  0.74505805969E-08  0.10566000000E+00  0.10566000000E+00 0. -1.
     999900   -1    0    0    0    0 -0.00000000000E+00 -0.00000000000E+00 -0.74505805969E-08  0.93827000000E+00  0.93827000000E+00 0. -1.
     999902    2    1    2    0    0 -0.17758428374E-01 -0.48065193989E-02  0.14671016078E-01  0.10203991029E+01  0.10201277499E+01 0.  0.
     999903    2    3    3    0    0 -0.47442066632E-01  0.76880682574E-01  0.95049204074E-01  0.13247198286E+00  0.18790582950E-01 0.  0.
         14    1    1    2    0    0  0.17758428374E-01  0.48065193989E-02 -0.14671016078E-01  0.23530897131E-01  0.00000000000E+00 0.  1.
     999901    1    3    3    0    0  0.29683638258E-01 -0.81687201972E-01 -0.80378187997E-01  0.88792712001E+00  0.88000000000E+00 0. -1.
        -11    1    4    4    0    0 -0.47617062223E-01  0.67179614695E-01  0.82073917280E-01  0.11626209298E+00  0.51100000000E-03 0.  1.
         11    1    4    4    0    0  0.17499559089E-03  0.97010678784E-02  0.12975286794E-01  0.16209889877E-01  0.51100000000E-03 0. -1.
</event>
<event>
 8    1  0.1061721E+005  0.1043930E+01  0.7957747E-01            NaN
         13   -1    0    0    0    0  0.00000000000E+00  0.00000000000E+00  0.74505805969E-08  0.10566000000E+00  0.10566000000E+00 0.  1.
     999900   -1    0    0    0    0 -0.00000000000E+00 -0.00000000000E+00 -0.74505805969E-08  0.93827000000E+00  0.93827000000E+00 0.  1.
     999902    2    1    2    0    0 -0.19869215164E-01  0.84855912249E-02  0.69930773475E-02  0.10212211009E+01  0.10209685807E+01 0.  0.
     999903    2    3    3    0    0 -0.55225470134E-01  0.93357749382E-01 -0.73930057620E-01  0.13273817937E+00  0.19704033126E-01 0.  0.
         14    1    1    2    0    0  0.19869215164E-01 -0.84855912249E-02 -0.69930773475E-02  0.22708899147E-01  0.00000000000E+00 0. -1.
     999901    1    3    3    0    0  0.35356254970E-01 -0.84872158157E-01  0.80923134967E-01  0.88848292148E+00  0.88000000000E+00 0.  1.
        -11    1    4    4    0    0 -0.52134020193E-01  0.78352046903E-01 -0.57600314170E-01  0.11034063906E+00  0.51100000000E-03 0.  1.
         11    1    4    4    0    0 -0.30914499403E-02  0.15005702479E-01 -0.16329743449E-01  0.22397540306E-01  0.51100000000E-03 0. -1.
</event>
<event>
 8    1  0.1061721E+005  0.1043930E+01  0.7957747E-01            NaN
         13   -1    0    0    0    0  0.00000000000E+00  0.00000000000E+00  0.74505805969E-08  0.10566000000E+00  0.10566000000E+00 0. -1.
     999900   -1    0    0    0    0 -0.00000000000E+00 -0.00000000000E+00 -0.74505805969E-08  0.93827000000E+00  0.93827000000E+00 0.  1.
     999902    2    1    2    0    0 -0.78622802425E-02 -0.58507769250E-02  0.20817855780E-01  0.10209206506E+01  0.10206613271E+01 0.  0.
     999903    2    3    3    0    0  0.12200843350E+00  0.92260642551E-02  0.43334977272E-01  0.13097641964E+00  0.17484968953E-01 0.  0.
         14    1    1    2    0    0  0.78622802425E-02  0.58507769250E-02 -0.20817855780E-01  0.23009349415E-01  0.00000000000E+00 0.  1.
     999901    1    3    3    0    0 -0.12987071375E+00 -0.15076841180E-01 -0.22517121492E-01  0.88994423094E+00  0.88000000000E+00 0.  1.
        -11    1    4    4    0    0  0.21294506915E-01  0.77410555038E-02  0.50479715304E-02  0.23219024584E-01  0.51100000000E-03 0.  1.
         11    1    4    4    0    0  0.10071392659E+00  0.14850087513E-02  0.38287005742E-01  0.10775739506E+00  0.51100000000E-03 0. -1.
</event>
<event>
 8    1  0.1061721E+005  0.1043930E+01  0.7957747E-01            NaN
         13   -1    0    0    0    0  0.00000000000E+00  0.00000000000E+00  0.74505805969E-08  0.10566000000E+00  0.10566000000E+00 0. -1.
     999900   -1    0    0    0    0 -0.00000000000E+00 -0.00000000000E+00 -0.74505805969E-08  0.93827000000E+00  0.93827000000E+00 0. -1.
     999902    2    1    2    0    0 -0.39299378210E-02  0.79586273195E-02 -0.21317048391E-01  0.10208388607E+01  0.10205776692E+01 0.  0.
     999903    2    3    3    0    0  0.10679185524E+00 -0.16422222483E-01  0.67953997618E-01  0.12908605814E+00  0.19268494402E-01 0.  0.
         14    1    1    2    0    0  0.39299378210E-02 -0.79586273195E-02  0.21317048391E-01  0.23091139257E-01  0.00000000000E+00 0. -1.
     999901    1    3    3    0    0 -0.11072179306E+00  0.24380849803E-01 -0.89271046010E-01  0.89175280260E+00  0.88000000000E+00 0. -1.
        -11    1    4    4    0    0  0.92062251481E-01 -0.80216949858E-02  0.53383221364E-01  0.10672317078E+00  0.51100000000E-03 0. -1.
         11    1    4    4    0    0  0.14729603759E-01 -0.84005274977E-02  0.14570776255E-01  0.22362887354E-01  0.51100000000E-03 0.  1.
</event>
<event>
 8    1  0.1061721E+005  0.1043930E+01  0.7957747E-01            NaN
         13   -1    0    0    0    0  0.00000000000E+00  0.00000000000E+00  0.74505805969E-08  0.10566000000E+00  0.10566000000E+00 0.  1.
     999900   -1    0    0    0    0 -0.00000000000E+00 -0.00000000000E+00 -0.74505805969E-08  0.93827000000E+00  0.93827000000E+00 0.  1.
     999902    2    1    2    0    0 -0.16394285277E-01  0.42041511800E-02  0.17978964094E-01  0.10192380858E+01  0.10189389505E+01 0.  0.
     999903    2    3    3    0    0 -0.45547737162E-01  0.52557062370E-01  0.11111744392E+00  0.13252352959E+00  0.19456576898E-01 0.  0.
         14    1    1    2    0    0  0.16394285277E-01 -0.42041511800E-02 -0.17978964094E-01  0.24691914198E-01  0.00000000000E+00 0. -1.
     999901    1    3    3    0    0  0.29153451885E-01 -0.48352911190E-01 -0.93138479830E-01  0.88671455621E+00  0.88000000000E+00 0.  1.
        -11    1    4    4    0    0 -0.32094493932E-01  0.22368575389E-01  0.58041929816E-01  0.69996688803E-01  0.51100000000E-03 0.  1.
         11    1    4    4    0    0 -0.13453243230E-01  0.30188486980E-01  0.53075514109E-01  0.62526840784E-01  0.51100000000E-03 0. -1.
</event>
<event>
 8    1  0.1061721E+005  0.1043930E+01  0.7957747E-01            NaN
         13   -1    0    0    0    0  0.00000000000E+00  0.00000000000E+00  0.74505805969E-08  0.10566000000E+00  0.10566000000E+00 0.  1.
     999900   -1    0    0    0    0 -0.00000000000E+00 -0.00000000000E+00 -0.74505805969E-08  0.93827000000E+00  0.93827000000E+00 0. -1.
     999902    2    1    2    0    0  0.19459426273E-01  0.12559653399E-01 -0.57613819154E-02  0.10200635448E+01  0.10197843045E+01 0.  0.
     999903    2    3    3    0    0  0.50910621277E-01  0.79785149765E-01 -0.91088455852E-01  0.13282673613E+00  0.19704658338E-01 0.  0.
         14    1    1    2    0    0 -0.19459426273E-01 -0.12559653399E-01  0.57613819154E-02  0.23866455245E-01  0.00000000000E+00 0. -1.
     999901    1    3    3    0    0 -0.31451195005E-01 -0.67225496366E-01  0.85327073937E-01  0.88723680862E+00  0.88000000000E+00 0.  1.
        -11    1    4    4    0    0  0.34213472982E-01  0.43690648407E-01 -0.41707580456E-01  0.69420586861E-01  0.51100000000E-03 0.  1.
         11    1    4    4    0    0  0.16697148296E-01  0.36094501358E-01 -0.49380875396E-01  0.63406149271E-01  0.51100000000E-03 0. -1.
</event>
<event>
 8    1  0.1061721E+005  0.1043930E+01  0.7957747E-01            NaN
         13   -1    0    0    0    0  0.00000000000E+00  0.00000000000E+00  0.74505805969E-08  0.10566000000E+00  0.10566000000E+00 0.  1.
     999900   -1    0    0    0    0 -0.00000000000E+00 -0.00000000000E+00 -0.74505805969E-08  0.93827000000E+00  0.93827000000E+00 0.  1.
     999902    2    1    2    0    0 -0.21249326851E-01  0.79137802604E-02  0.96318926436E-02  0.10192939458E+01  0.10189961790E+01 0.  0.
     999903    2    3    3    0    0  0.57772061717E-02 -0.79362966544E-01 -0.98456654083E-01  0.12798547063E+00  0.18833783164E-01 0.  0.
         14    1    1    2    0    0  0.21249326851E-01 -0.79137802604E-02 -0.96318926436E-02  0.24636054179E-01  0.00000000000E+00 0. -1.
     999901    1    3    3    0    0 -0.27026533023E-01  0.87276746805E-01  0.10808854673E+00  0.89130847519E+00  0.88000000000E+00 0.  1.
        -11    1    4    4    0    0 -0.20163726672E-02 -0.44189991201E-01 -0.41929159229E-01  0.60951920361E-01  0.51100000000E-03 0.  1.
         11    1    4    4    0    0  0.77935788389E-02 -0.35172975344E-01 -0.56527494854E-01  0.67033550265E-01  0.51100000000E-03 0. -1.
</event>
<event>
 8    1  0.1061721E+005  0.1043930E+01  0.7957747E-01            NaN
         13   -1    0    0    0    0  0.00000000000E+00  0.00000000000E+00  0.74505805969E-08  0.10566000000E+00  0.10566000000E+00 0. -1.
     999900   -1    0    0    0    0 -0.00000000000E+00 -0.00000000000E+00 -0.74505805969E-08  0.93827000000E+00  0.93827000000E+00 0. -1.
     999902    2    1    2    0    0  0.19137366378E-01  0.22502762629E-02 -0.12887478818E-01  0.10207483339E+01  0.10204850667E+01 0.  0.
     999903    2    3    3    0    0 -0.65023869558E-02  0.10759837024E-01  0.12712633827E+00  0.12926996701E+00  0.19787959976E-01 0.  0.
         14    1    1    2    0    0 -0.19137366378E-01 -0.22502762629E-02  0.12887478818E-01  0.23181666149E-01  0.00000000000E+00 0. -1.
     999901    1    3    3    0    0  0.25639753334E-01 -0.85095607612E-02 -0.14001381709E+00  0.89147836684E+00  0.88000000000E+00 0. -1.
        -11    1    4    4    0    0 -0.11291487214E-01  0.14492943598E-02  0.89081498457E-01  0.89807419660E-01  0.51100000000E-03 0.  1.
         11    1    4    4    0    0  0.47891002579E-02  0.93105426643E-02  0.38044839810E-01  0.39462547348E-01  0.51100000000E-03 0. -1.
</event>
<event>
 8    1  0.1061721E+005  0.1043930E+01  0.7957747E-01            NaN
         13   -1    0    0    0    0  0.00000000000E+00  0.00000000000E+00  0.74505805969E-08  0.10566000000E+00  0.10566000000E+00 0.  1.
     999900   -1    0    0    0    0 -0.00000000000E+00 -0.00000000000E+00 -0.74505805969E-08  0.93827000000E+00  0.93827000000E+00 0.  1.
     999902    2    1    2    0    0 -0.10706191055E-01  0.21472275150E-01  0.42391122869E-02  0.10195650416E+01  0.10192738703E+01 0.  0.
     999903    2    3    3    0    0 -0.28644954775E-01  0.66508378269E-01 -0.10749833336E+00  0.13117587763E+00  0.20182204552E-01 0.  0.
         14    1    1    2    0    0  0.10706191055E-01 -0.21472275150E-01 -0.42391122869E-02  0.24364958444E-01  0.00000000000E+00 0.  1.
     999901    1    3    3    0    0  0.17938763720E-01 -0.45036103119E-01  0.11173744565E+00  0.88838916393E+00  0.88000000000E+00 0. -1.
        -11    1    4    4    0    0 -0.22767352983E-01  0.39152487160E-01 -0.51568935616E-01  0.68635893338E-01  0.51100000000E-03 0. -1.
         11    1    4    4    0    0 -0.58776017916E-02  0.27355891108E-01 -0.55929397749E-01  0.62539984287E-01  0.51100000000E-03 0.  1.
</event>
<event>
 8    1  0.1061721E+005  0.1043930E+01  0.7957747E-01            NaN
         13   -1    0    0    0    0  0.00000000000E+00  0.00000000000E+00  0.74505805969E-08  0.10566000000E+00  0.10566000000E+00 0. -1.
     999900   -1    0    0    0    0 -0.00000000000E+00 -0.00000000000E+00 -0.74505805969E-08  0.93827000000E+00  0.93827000000E+00 0. -1.
     999902    2    1    2    0    0 -0.71552091808E-02  0.27273474624E-01  0.17631768052E-03  0.10157330050E+01  0.10153415519E+01 0.  0.
     999903    2    3    3    0    0 -0.23113696985E-01  0.11973329153E+00 -0.40704209791E-01  0.12980145656E+00  0.17924322638E-01 0.  0.
         14    1    1    2    0    0  0.71552091808E-02 -0.27273474624E-01 -0.17631768052E-03  0.28196994953E-01  0.00000000000E+00 0. -1.
     999901    1    3    3    0    0  0.15958487805E-01 -0.92459816905E-01  0.40880527472E-01  0.88593154849E+00  0.88000000000E+00 0.  1.
        -11    1    4    4    0    0 -0.41580552219E-02  0.40371452900E-02 -0.41759459895E-03  0.58329642181E-02  0.51100000000E-03 0. -1.
         11    1    4    4    0    0 -0.18955641764E-01  0.11569614624E+00 -0.40286615192E-01  0.12396849234E+00  0.51100000000E-03 0.  1.
</event>
<event>
 8    1  0.1061721E+005  0.1043930E+01  0.7957747E-01            NaN
         13   -1    0    0    0    0  0.00000000000E+00  0.00000000000E+00  0.74505805969E-08  0.10566000000E+00  0.10566000000E+00 0.  1.
     999900   -1    0    0    0    0 -0.00000000000E+00 -0.00000000000E+00 -0.74505805969E-08  0.93827000000E+00  0.93827000000E+00 0.  1.
     999902    2    1    2    0    0 -0.24808040762E-01 -0.76631102530E-03  0.10510394725E-01  0.10169764378E+01  0.10166191915E+01 0.  0.
     999903    2    3    3    0    0  0.76443346596E-01 -0.96464529041E-01 -0.16526946176E-01  0.12560613865E+00  0.18835379325E-01 0.  0.
         14    1    1    2    0    0  0.24808040762E-01  0.76631102530E-03 -0.10510394725E-01  0.26953562219E-01  0.00000000000E+00 0.  1.
     999901    1    3    3    0    0 -0.10125138736E+00  0.95698218015E-01  0.27037340900E-01  0.89137029913E+00  0.88000000000E+00 0. -1.
        -11    1    4    4    0    0  0.24523204583E-01 -0.18289256984E-01 -0.22518345975E-02  0.30679249732E-01  0.51100000000E-03 0. -1.
         11    1    4    4    0    0  0.51920142014E-01 -0.78175272056E-01 -0.14275111578E-01  0.94926888916E-01  0.51100000000E-03 0.  1.
</event>
<event>
 8    1  0.1061721E+005  0.1043930E+01  0.7957747E-01            NaN
         13   -1    0    0    0    0  0.00000000000E+00  0.00000000000E+00  0.74505805969E-08  0.10566000000E+00  0.10566000000E+00 0. -1.
     999900   -1    0    0    0    0 -0.00000000000E+00 -0.00000000000E+00 -0.74505805969E-08  0.93827000000E+00  0.93827000000E+00 0. -1.
     999902    2    1    2    0    0  0.19455838460E-01 -0.69905333676E-02  0.11541932539E-01  0.10202527237E+01  0.10199779443E+01 0.  0.
     999903    2    3    3    0    0 -0.94474462350E-01 -0.32890237926E-01  0.80435430740E-01  0.12986111196E+00  0.19668708493E-01 0.  0.
         14    1    1    2    0    0 -0.19455838460E-01  0.69905333676E-02 -0.11541932539E-01  0.23677276314E-01  0.00000000000E+00 0.  1.
     999901    1    3    3    0    0  0.11393030081E+00  0.25899704559E-01 -0.68893498200E-01  0.89039161173E+00  0.88000000000E+00 0.  1.
        -11    1    4    4    0    0 -0.51765914030E-01 -0.10794116603E-01  0.33115601835E-01  0.62394927795E-01  0.51100000000E-03 0. -1.
         11    1    4    4    0    0 -0.42708548320E-01 -0.22096121323E-01  0.47319828905E-01  0.67466184164E-01  0.51100000000E-03 0.  1.
</event>
<event>
 8    1  0.1061721E+005  0.1043930E+01  0.7957747E-01            NaN
         13   -1    0    0    0    0  0.00000000000E+00  0.00000000000E+00  0.74505805969E-08  0.10566000000E+00  0.10566000000E+00 0.  1.
     999900   -1    0    0    0    0 -0.00000000000E+00 -0.00000000000E+00 -0.74505805969E-08  0.93827000000E+00  0.93827000000E+00 0.  1.
     999902    2    1    2    0    0 -0.88066897082E-02 -0.81159151347E-03 -0.20373588824E-01  0.10217196514E+01  0.10214782163E+01 0.  0.
     999903    2    3    3    0    0  0.57390541206E-01 -0.11713852180E+00 -0.13860025377E-01  0.13157558742E+00  0.10243407228E-01 0.  0.
         14    1    1    2    0    0  0.88066897082E-02  0.81159151347E-03  0.20373588824E-01  0.22210348623E-01  0.00000000000E+00 0.  1.
     999901    1    3    3    0    0 -0.66197230914E-01  0.11632693029E+00 -0.65135634468E-02  0.89014406396E+00  0.88000000000E+00 0.  1.
        -11    1    4    4    0    0  0.36443231444E-01 -0.84466130283E-01 -0.11144440652E-01  0.92666584924E-01  0.51100000000E-03 0. -1.
         11    1    4    4    0    0  0.20947309761E-01 -0.32672391518E-01 -0.27155847246E-02  0.38909002495E-01  0.51100000000E-03 0.  1.
</event>
<event>
 8    1  0.1061721E+005  0.1043930E+01  0.7957747E-01            NaN
         13   -1    0    0    0    0  0.00000000000E+00  0.00000000000E+00  0.74505805969E-08  0.10566000000E+00  0.10566000000E+00 0.  1.
     999900   -1    0    0    0    0 -0.00000000000E+00 -0.00000000000E+00 -0.74505805969E-08  0.93827000000E+00  0.93827000000E+00 0. -1.
     999902    2    1    2    0    0 -0.50619644424E-02 -0.67812951325E-02  0.22248502974E-01  0.10201265269E+01  0.10198487758E+01 0.  0.
     999903    2    3    3    0    0  0.11523918751E+00  0.52487935704E-01 -0.16070894889E-01  0.12914191134E+00  0.19603720810E-01 0.  0.
         14    1    1    2    0    0  0.50619644424E-02  0.67812951325E-02 -0.22248502974E-01  0.23803473113E-01  0.00000000000E+00 0.  1.
     999901    1    3    3    0    0 -0.12030115195E+00 -0.59269230836E-01  0.38319397862E-01  0.89098461555E+00  0.88000000000E+00 0.  1.
        -11    1    4    4    0    0  0.33106101833E-01  0.65724316043E-02 -0.46617992491E-03  0.33759284360E-01  0.51100000000E-03 0. -1.
         11    1    4    4    0    0  0.82133085679E-01  0.45915504099E-01 -0.15604714964E-01  0.95382626982E-01  0.51100000000E-03 0.  1.
</event>
<event>
 8    1  0.1061721E+005  0.1043930E+01  0.7957747E-01            NaN
         13   -1    0    0    0    0  0.00000000000E+00  0.00000000000E+00  0.74505805969E-08  0.10566000000E+00  0.10566000000E+00 0. -1.
     999900   -1    0    0    0    0 -0.00000000000E+00 -0.00000000000E+00 -0.74505805969E-08  0.93827000000E+00  0.93827000000E+00 0.  1.
     999902    2    1    2    0    0  0.10806483583E-01  0.18848942272E-01  0.10521017349E-01  0.10197896910E+01  0.10195039281E+01 0.  0.
     999903    2    3    3    0    0 -0.53071397805E-02 -0.80429222888E-01 -0.96824818801E-01  0.12757955238E+00  0.20111464939E-01 0.  0.
         14    1    1    2    0    0 -0.10806483583E-01 -0.18848942272E-01 -0.10521017349E-01  0.24140308993E-01  0.00000000000E+00 0.  1.
     999901    1    3    3    0    0  0.16113623364E-01  0.99278165160E-01  0.10734583615E+00  0.89221013863E+00  0.88000000000E+00 0. -1.
        -11    1    4    4    0    0 -0.90346611230E-02 -0.56396209618E-01 -0.55586589300E-01  0.79701239588E-01  0.51100000000E-03 0. -1.
         11    1    4    4    0    0  0.37275213424E-02 -0.24033013270E-01 -0.41238229501E-01  0.47878312789E-01  0.51100000000E-03 0.  1.
</event>
<event>
 8    1  0.1061721E+005  0.1043930E+01  0.7957747E-01            NaN
         13   -1    0    0    0    0  0.00000000000E+00  0.00000000000E+00  0.74505805969E-08  0.10566000000E+00  0.10566000000E+00 0.  1.
     999900   -1    0    0    0    0 -0.00000000000E+00 -0.00000000000E+00 -0.74505805969E-08  0.93827000000E+00  0.93827000000E+00 0. -1.
     999902    2    1    2    0    0  0.68543821876E-02  0.22450023114E-01 -0.25123983297E-02  0.10203228350E+01  0.10200496995E+01 0.  0.
     999903    2    3    3    0    0  0.74619829469E-01 -0.93625334038E-01  0.43439374180E-01  0.12893223053E+00  0.20067852792E-01 0.  0.
         14    1    1    2    0    0 -0.68543821876E-02 -0.22450023114E-01  0.25123983297E-02  0.23607164979E-01  0.00000000000E+00 0.  1.
     999901    1    3    3    0    0 -0.67765447282E-01  0.11607535715E+00 -0.45951772510E-01  0.89139060449E+00  0.88000000000E+00 0.  1.
        -11    1    4    4    0    0  0.28442538195E-01 -0.21856052673E-01  0.16062872757E-01  0.39305750465E-01  0.51100000000E-03 0. -1.
         11    1    4    4    0    0  0.46177291274E-01 -0.71769281365E-01  0.27376501424E-01  0.89626480061E-01  0.51100000000E-03 0.  1.
</event>
<event>
 8    1  0.1061721E+005  0.1043930E+01  0.7957747E-01            NaN
         13   -1    0    0    0    0  0.00000000000E+00  0.00000000000E+00  0.74505805969E-08  0.10566000000E+00  0.10566000000E+00 0.  1.
     999900   -1    0    0    0    0 -0.00000000000E+00 -0.00000000000E+00 -0.74505805969E-08  0.93827000000E+00  0.93827000000E+00 0.  1.
     999902    2    1    2    0    0 -0.18809575364E-01 -0.25261292761E-02  0.14442944361E-01  0.10200808890E+01  0.10198020592E+01 0.  0.
     999903    2    3    3    0    0  0.10848070463E+00  0.63599269842E-01  0.16469094033E-01  0.12846466601E+00  0.20469708164E-01 0.  0.
         14    1    1    2    0    0  0.18809575364E-01  0.25261292761E-02 -0.14442944361E-01  0.23849111017E-01  0.00000000000E+00 0. -1.
     999901    1    3    3    0    0 -0.12729028000E+00 -0.66125399119E-01 -0.20261496720E-02  0.89161622298E+00  0.88000000000E+00 0. -1.
        -11    1    4    4    0    0  0.73063307882E-01  0.35925028837E-01  0.18401706012E-01  0.83472981022E-01  0.51100000000E-03 0. -1.
         11    1    4    4    0    0  0.35417396751E-01  0.27674241006E-01 -0.19326119797E-02  0.44991684986E-01  0.51100000000E-03 0.  1.
</event>
<event>
 8    1  0.1061721E+005  0.1043930E+01  0.7957747E-01            NaN
         13   -1    0    0    0    0  0.00000000000E+00  0.00000000000E+00  0.74505805969E-08  0.10566000000E+00  0.10566000000E+00 0.  1.
     999900   -1    0    0    0    0 -0.00000000000E+00 -0.00000000000E+00 -0.74505805969E-08  0.93827000000E+00  0.93827000000E+00 0.  1.
     999902    2    1    2    0    0  0.23643723835E-01 -0.19864696128E-02 -0.23283281611E-02  0.10200890090E+01  0.10198103713E+01 0.  0.
     999903    2    3    3    0    0 -0.66388659072E-01 -0.36070089788E-01 -0.10284198347E+00  0.12915101005E+00  0.19874717653E-01 0.  0.
         14    1    1    2    0    0 -0.23643723835E-01  0.19864696128E-02  0.23283281611E-02  0.23840990968E-01  0.00000000000E+00 0.  1.
     999901    1    3    3    0    0  0.90032382907E-01  0.34083620175E-01  0.10051365531E+00  0.89093799899E+00  0.88000000000E+00 0. -1.
        -11    1    4    4    0    0 -0.18130069037E-01 -0.73779538760E-02 -0.42123795275E-01  0.46452221218E-01  0.51100000000E-03 0. -1.
         11    1    4    4    0    0 -0.48258590035E-01 -0.28692135912E-01 -0.60718188191E-01  0.82698788827E-01  0.51100000000E-03 0.  1.
</event>
<event>
 8    1  0.1061721E+005  0.1043930E+01  0.7957747E-01            NaN
         13   -1    0    0    0    0  0.00000000000E+00  0.00000000000E+00  0.74505805969E-08  0.10566000000E+00  0.10566000000E+00 0. -1.
     999900   -1    0    0    0    0 -0.00000000000E+00 -0.00000000000E+00 -0.74505805969E-08  0.93827000000E+00  0.93827000000E+00 0. -1.
     999902    2    1    2    0    0 -0.15722452803E-01 -0.73715612798E-03  0.17728746634E-01  0.10202224616E+01  0.10199469710E+01 0.  0.
     999903    2    3    3    0    0 -0.55204375191E-01  0.10595333028E+00 -0.46854128043E-01  0.13055250603E+00  0.23979497058E-01 0.  0.
         14    1    1    2    0    0  0.15722452803E-01  0.73715612798E-03 -0.17728746634E-01  0.23707538432E-01  0.00000000000E+00 0.  1.
     999901    1    3    3    0    0  0.39481922388E-01 -0.10669048641E+00  0.64582874677E-01  0.88966995554E+00  0.88000000000E+00 0.  1.
        -11    1    4    4    0    0 -0.23960333944E-01  0.48122067843E-01 -0.33897424179E-01  0.63554130497E-01  0.51100000000E-03 0. -1.
         11    1    4    4    0    0 -0.31244041247E-01  0.57831262434E-01 -0.12956703864E-01  0.66998375534E-01  0.51100000000E-03 0.  1.
</event>
<event>
 8    1  0.1061721E+005  0.1043930E+01  0.7957747E-01            NaN
         13   -1    0    0    0    0  0.00000000000E+00  0.00000000000E+00  0.74505805969E-08  0.10566000000E+00  0.10566000000E+00 0. -1.
     999900   -1    0    0    0    0 -0.00000000000E+00 -0.00000000000E+00 -0.74505805969E-08  0.93827000000E+00  0.93827000000E+00 0.  1.
     999902    2    1    2    0    0  0.81442203649E-02  0.30383071661E-02 -0.21886671464E-01  0.10203803498E+01  0.10201085591E+01 0.  0.
     999903    2    3    3    0    0  0.79858034475E-01  0.48842811975E-02 -0.10549834575E+00  0.13351102978E+00  0.17150284087E-01 0.  0.
         14    1    1    2    0    0 -0.81442203649E-02 -0.30383071661E-02  0.21886671464E-01  0.23549650179E-01  0.00000000000E+00 0. -1.
     999901    1    3    3    0    0 -0.71713814110E-01 -0.18459740314E-02  0.83611674284E-01  0.88686932004E+00  0.88000000000E+00 0. -1.
        -11    1    4    4    0    0  0.45796453129E-01 -0.52204564752E-02 -0.64126479752E-01  0.78974899882E-01  0.51100000000E-03 0. -1.
         11    1    4    4    0    0  0.34061581347E-01  0.10104737673E-01 -0.41371865995E-01  0.54536129898E-01  0.51100000000E-03 0.  1.
</event>
<event>
 8    1  0.1061721E+005  0.1043930E+01  0.7957747E-01            NaN
         13   -1    0    0    0    0  0.00000000000E+00  0.00000000000E+00  0.74505805969E-08  0.10566000000E+00  0.10566000000E+00 0. -1.
     999900   -1    0    0    0    0 -0.00000000000E+00 -0.00000000000E+00 -0.74505805969E-08  0.93827000000E+00  0.93827000000E+00 0.  1.
     999902    2    1    2    0    0 -0.21308270110E-01 -0.42731441019E-02 -0.94651524549E-02  0.10202257547E+01  0.10199503416E+01 0.  0.
     999903    2    3    3    0    0 -0.71904565780E-01 -0.17094960170E-01  0.10647022688E+00  0.13108830957E+00  0.19640047099E-01 0.  0.
         14    1    1    2    0    0  0.21308270110E-01  0.42731441019E-02  0.94651524549E-02  0.23704245328E-01  0.00000000000E+00 0.  1.
     999901    1    3    3    0    0  0.50596295670E-01  0.12821816068E-01 -0.11593537934E+00  0.88913744510E+00  0.88000000000E+00 0.  1.
        -11    1    4    4    0    0 -0.70996866165E-01 -0.19461944825E-01  0.10046911406E+00  0.12455370851E+00  0.51100000000E-03 0.  1.
         11    1    4    4    0    0 -0.90769961471E-03  0.23669846555E-02  0.60011128171E-02  0.65346010585E-02  0.51100000000E-03 0. -1.
</event>
<event>
 8    1  0.1061721E+005  0.1043930E+01  0.7957747E-01            NaN
         13   -1    0    0    0    0  0.00000000000E+00  0.00000000000E+00  0.74505805969E-08  0.10566000000E+00  0.10566000000E+00 0. -1.
     999900   -1    0    0    0    0 -0.00000000000E+00 -0.00000000000E+00 -0.74505805969E-08  0.93827000000E+00  0.93827000000E+00 0.  1.
     999902    2    1    2    0    0  0.14032798304E-01 -0.79671549099E-02  0.16970271935E-01  0.10205123760E+01  0.10202436593E+01 0.  0.
     999903    2    3    3    0    0 -0.62426633055E-01  0.11087429914E+00  0.51586380036E-02  0.12916011646E+00  0.21576130645E-01 0.  0.
         14    1    1    2    0    0 -0.14032798304E-01  0.79671549099E-02 -0.16970271935E-01  0.23417624029E-01  0.00000000000E+00 0. -1.
     999901    1    3    3    0    0  0.76459431359E-01 -0.11884145405E+00  0.11811633932E-01  0.89135225951E+00  0.88000000000E+00 0. -1.
        -11    1    4    4    0    0 -0.23128425343E-01  0.57454594894E-01  0.96692985640E-02  0.62687406941E-01  0.51100000000E-03 0.  1.
         11    1    4    4    0    0 -0.39298207712E-01  0.53419704243E-01 -0.45106605605E-02  0.66472709516E-01  0.51100000000E-03 0. -1.
</event>
<event>
 8    1  0.1061721E+005  0.1043930E+01  0.7957747E-01            NaN
         13   -1    0    0    0    0  0.00000000000E+00  0.00000000000E+00  0.74505805969E-08  0.10566000000E+00  0.10566000000E+00 0.  1.
     999900   -1    0    0    0    0 -0.00000000000E+00 -0.00000000000E+00 -0.74505805969E-08  0.93827000000E+00  0.93827000000E+00 0.  1.
     999902    2    1    2    0    0 -0.15297244855E-01  0.60590778767E-03 -0.18916714609E-01  0.10195945338E+01  0.10193040755E+01 0.  0.
     999903    2    3    3    0    0  0.70317308785E-01  0.94188063243E-01 -0.51532817096E-01  0.12990285586E+00  0.20079978878E-01 0.  0.
         14    1    1    2    0    0  0.15297244855E-01 -0.60590778767E-03  0.18916714609E-01  0.24335466217E-01  0.00000000000E+00 0.  1.
     999901    1    3    3    0    0 -0.85614553640E-01 -0.93582155455E-01  0.32616102486E-01  0.88969167792E+00  0.88000000000E+00 0. -1.
        -11    1    4    4    0    0  0.31293380349E-01  0.57352430540E-01 -0.32399646093E-01  0.72928561829E-01  0.51100000000E-03 0.  1.
         11    1    4    4    0    0  0.39023928437E-01  0.36835632703E-01 -0.19133171003E-01  0.56974294036E-01  0.51100000000E-03 0. -1.
</event>
<event>
 8    1  0.1061721E+005  0.1043930E+01  0.7957747E-01            NaN
         13   -1    0    0    0    0  0.00000000000E+00  0.00000000000E+00  0.74505805969E-08  0.10566000000E+00  0.10566000000E+00 0. -1.
     999900   -1    0    0    0    0 -0.00000000000E+00 -0.00000000000E+00 -0.74505805969E-08  0.93827000000E+00  0.93827000000E+00 0.  1.
     999902    2    1    2    0    0  0.11326240728E-01 -0.20877923011E-01 -0.50008543180E-02  0.10196569709E+01  0.10193680191E+01 0.  0.
     999903    2    3    3    0    0  0.39358919190E-01 -0.12464778704E+00 -0.38185542874E-02  0.13311570644E+00  0.24880004219E-01 0.  0.
         14    1    1    2    0    0 -0.11326240728E-01  0.20877923011E-01  0.50008543180E-02  0.24273029110E-01  0.00000000000E+00 0.  1.
     999901    1    3    3    0    0 -0.28032678461E-01  0.10376986403E+00 -0.11823000306E-02  0.88654126445E+00  0.88000000000E+00 0.  1.
        -11    1    4    4    0    0  0.25597218880E-01 -0.44106908870E-01  0.32390302654E-02  0.51101755963E-01  0.51100000000E-03 0.  1.
         11    1    4    4    0    0  0.13761700310E-01 -0.80540878169E-01 -0.70575845528E-02  0.82013950474E-01  0.51100000000E-03 0. -1.
</event>
<event>
 8    1  0.1061721E+005  0.1043930E+01  0.7957747E-01            NaN
         13   -1    0    0    0    0  0.00000000000E+00  0.00000000000E+00  0.74505805969E-08  0.10566000000E+00  0.10566000000E+00 0. -1.
     999900   -1    0    0    0    0 -0.00000000000E+00 -0.00000000000E+00 -0.74505805969E-08  0.93827000000E+00  0.93827000000E+00 0.  1.
     999902    2    1    2    0    0  0.37906473228E-02 -0.14177289423E-01  0.17012643698E-01  0.10214623658E+01  0.10212152418E+01 0.  0.
     999903    2    3    3    0    0  0.57774398004E-01  0.92263501296E-01  0.71535690446E-01  0.13173395221E+00  0.19648013137E-01 0.  0.
         14    1    1    2    0    0 -0.37906473228E-02  0.14177289423E-01 -0.17012643698E-01  0.22467634235E-01  0.00000000000E+00 0.  1.
     999901    1    3    3    0    0 -0.53983750681E-01 -0.10644079072E+00 -0.54523046748E-01  0.88972841356E+00  0.88000000000E+00 0.  1.
        -11    1    4    4    0    0  0.24796198912E-01  0.26177893749E-01  0.30570266550E-01  0.47275108879E-01  0.51100000000E-03 0. -1.
         11    1    4    4    0    0  0.32978199092E-01  0.66085607547E-01  0.40965423897E-01  0.84458843328E-01  0.51100000000E-03 0.  1.
</event>
<event>
 8    1  0.1061721E+005  0.1043930E+01  0.7957747E-01            NaN
         13   -1    0    0    0    0  0.00000000000E+00  0.00000000000E+00  0.74505805969E-08  0.10566000000E+00  0.10566000000E+00 0. -1.
     999900   -1    0    0    0    0 -0.00000000000E+00 -0.00000000000E+00 -0.74505805969E-08  0.93827000000E+00  0.93827000000E+00 0.  1.
     999902    2    1    2    0    0 -0.52383341209E-02  0.47150777473E-02 -0.22619449071E-01  0.10202379849E+01  0.10199628593E+01 0.  0.
     999903    2    3    3    0    0  0.81970443541E-01 -0.31374313366E-01 -0.96648684708E-01  0.13210052777E+00  0.20151427447E-01 0.  0.
         14    1    1    2    0    0  0.52383341209E-02 -0.47150777473E-02  0.22619449071E-01  0.23692015085E-01  0.00000000000E+00 0. -1.
     999901    1    3    3    0    0 -0.87208777662E-01  0.36089391113E-01  0.74029235637E-01  0.88813745714E+00  0.88000000000E+00 0. -1.
        -11    1    4    4    0    0  0.24733960265E-01 -0.12813620596E-01 -0.18390127220E-01  0.33382863319E-01  0.51100000000E-03 0. -1.
         11    1    4    4    0    0  0.57236483275E-01 -0.18560692769E-01 -0.78258557488E-01  0.98717664452E-01  0.51100000000E-03 0.  1.
</event>
<event>
 8    1  0.1061721E+005  0.1043930E+01  0.7957747E-01            NaN
         13   -1    0    0    0    0  0.00000000000E+00  0.00000000000E+00  0.74505805969E-08  0.10566000000E+00  0.10566000000E+00 0.  1.
     999900   -1    0    0    0    0 -0.00000000000E+00 -0.00000000000E+00 -0.74505805969E-08  0.93827000000E+00  0.93827000000E+00 0.  1.
     999902    2    1    2    0    0 -0.93313566278E-02  0.16698931222E-01 -0.11896593079E-01  0.10214031838E+01  0.10211547417E+01 0.  0.
     999903    2    3    3    0    0 -0.93752586030E-01 -0.56788158883E-01  0.70541475334E-01  0.13049166660E+00  0.61264127326E-02 0.  0.
         14    1    1    2    0    0  0.93313566278E-02 -0.16698931222E-01  0.11896593079E-01  0.22526816184E-01  0.00000000000E+00 0.  1.
     999901    1    3    3    0    0  0.84421229402E-01  0.73487090105E-01 -0.82438068413E-01  0.89091151722E+00  0.88000000000E+00 0.  1.
        -11    1    4    4    0    0 -0.14724795208E-01 -0.69505656283E-02  0.89759444247E-02  0.18599963865E-01  0.51100000000E-03 0.  1.
         11    1    4    4    0    0 -0.79027790822E-01 -0.49837593255E-01  0.61565530909E-01  0.11189170273E+00  0.51100000000E-03 0. -1.
</event>
<event>
 8    1  0.1061721E+005  0.1043930E+01  0.7957747E-01            NaN
         13   -1    0    0    0    0  0.00000000000E+00  0.00000000000E+00  0.74505805969E-08  0.10566000000E+00  0.10566000000E+00 0. -1.
     999900   -1    0    0    0    0 -0.00000000000E+00 -0.00000000000E+00 -0.74505805969E-08  0.93827000000E+00  0.93827000000E+00 0. -1.
     999902    2    1    2    0    0 -0.10386576080E-01 -0.78740924245E-02  0.18464917369E-01  0.10213283304E+01  0.10210782159E+01 0.  0.
     999903    2    3    3    0    0 -0.67790741598E-02  0.12541143198E+00 -0.12004059853E-01  0.13076311459E+00  0.34364393846E-01 0.  0.
         14    1    1    2    0    0  0.10386576080E-01  0.78740924245E-02 -0.18464917369E-01  0.22601669576E-01  0.00000000000E+00 0.  1.
     999901    1    3    3    0    0 -0.36075019200E-02 -0.13328552441E+00  0.30468977222E-01  0.89056521584E+00  0.88000000000E+00 0.  1.
        -11    1    4    4    0    0  0.19497753108E-03  0.10068352614E+00  0.35088765864E-02  0.10074613535E+00  0.51100000000E-03 0.  1.
         11    1    4    4    0    0 -0.69740516909E-02  0.24727905845E-01 -0.15512936439E-01  0.30016979236E-01  0.51100000000E-03 0. -1.
</event>
<event>
 8    1  0.1061721E+005  0.1043930E+01  0.7957747E-01            NaN
         13   -1    0    0    0    0  0.00000000000E+00  0.00000000000E+00  0.74505805969E-08  0.10566000000E+00  0.10566000000E+00 0.  1.
     999900   -1    0    0    0    0 -0.00000000000E+00 -0.00000000000E+00 -0.74505805969E-08  0.93827000000E+00  0.93827000000E+00 0.  1.
     999902    2    1    2    0    0 -0.17084989814E-01  0.16534728220E-01 -0.45286931733E-02  0.10197266288E+01  0.10194393530E+01 0.  0.
     999903    2    3    3    0    0  0.41232387217E-01 -0.74157820141E-02 -0.12115511076E+00  0.12979614577E+00  0.20331625941E-01 0.  0.
         14    1    1    2    0    0  0.17084989814E-01 -0.16534728220E-01  0.45286931733E-02  0.24203371173E-01  0.00000000000E+00 0. -1.
     999901    1    3    3    0    0 -0.58317377031E-01  0.23950510234E-01  0.11662641759E+00  0.88993048306E+00  0.88000000000E+00 0. -1.
        -11    1    4    4    0    0  0.26141973495E-01 -0.19184620186E-02 -0.46038382780E-01  0.52979968713E-01  0.51100000000E-03 0.  1.
         11    1    4    4    0    0  0.15090413722E-01 -0.54973199955E-02 -0.75116727981E-01  0.76816177052E-01  0.51100000000E-03 0. -1.
</event>
<event>
 8    1  0.1389298E+005  0.1043930E+01  0.7957747E-01            NaN
         13   -1    0    0    0    0  0.00000000000E+00  0.00000000000E+00  0.74505805969E-08  0.10566000000E+00  0.10566000000E+00 0. -1.
     999900   -1    0    0    0    0 -0.00000000000E+00 -0.00000000000E+00 -0.74505805969E-08  0.93827000000E+00  0.93827000000E+00 0. -1.
     999902    2    1    2    0    0 -0.22933319936E-01 -0.26843425967E-02  0.37577928557E-02  0.10205363285E+01  0.10202681677E+01 0.  0.
     999903    2    3    3    0    0 -0.34069579558E-01 -0.11089844638E+00  0.58316962928E-01  0.13216083832E+00  0.24625542844E-01 0.  0.
         14    1    1    2    0    0  0.22933319936E-01  0.26843425967E-02 -0.37577928557E-02  0.23393671487E-01  0.00000000000E+00 0. -1.
     999901    1    3    3    0    0  0.11136259621E-01  0.10821410378E+00 -0.54559170072E-01  0.88837549019E+00  0.88000000000E+00 0. -1.
        -11    1    4    4    0    0 -0.32369594115E-01 -0.66926946980E-01  0.32492503332E-01  0.81135878309E-01  0.51100000000E-03 0. -1.
         11    1    4    4    0    0 -0.16999854427E-02 -0.43971499397E-01  0.25824459596E-01  0.51024960012E-01  0.51100000000E-03 0.  1.
</event>
<event>
 8    1  0.1061721E+005  0.1043930E+01  0.7957747E-01            NaN
         13   -1    0    0    0    0  0.00000000000E+00  0.00000000000E+00  0.74505805969E-08  0.10566000000E+00  0.10566000000E+00 0.  1.
     999900   -1    0    0    0    0 -0.00000000000E+00 -0.00000000000E+00 -0.74505805969E-08  0.93827000000E+00  0.93827000000E+00 0. -1.
     999902    2    1    2    0    0  0.44856708601E-02 -0.14735779965E-01 -0.18273028948E-01  0.10200308778E+01  0.10197508635E+01 0.  0.
     999903    2    3    3    0    0  0.65024844967E-02 -0.12931259961E+00  0.16030311689E-01  0.13193818315E+00  0.19664245668E-01 0.  0.
         14    1    1    2    0    0 -0.44856708601E-02  0.14735779965E-01  0.18273028948E-01  0.23899122185E-01  0.00000000000E+00 0. -1.
     999901    1    3    3    0    0 -0.20168136366E-02  0.11457681965E+00 -0.34303340637E-01  0.88809269466E+00  0.88000000000E+00 0.  1.
        -11    1    4    4    0    0 -0.11757444987E-02 -0.27796110277E-01  0.11263592200E-01  0.30018923231E-01  0.51100000000E-03 0. -1.
         11    1    4    4    0    0  0.76782289954E-02 -0.10151648933E+00  0.47667194883E-02  0.10191925992E+00  0.51100000000E-03 0.  1.
</event>
<event>
 8    1  0.1061721E+005  0.1043930E+01  0.7957747E-01            NaN
         13   -1    0    0    0    0  0.00000000000E+00  0.00000000000E+00  0.74505805969E-08  0.10566000000E+00  0.10566000000E+00 0.  1.
     999900   -1    0    0    0    0 -0.00000000000E+00 -0.00000000000E+00 -0.74505805969E-08  0.93827000000E+00  0.93827000000E+00 0. -1.
     999902    2    1    2    0    0  0.21189241821E-02 -0.27637943285E-01  0.13331677228E-01  0.10131715968E+01  0.10127045992E+01 0.  0.
     999903    2    3    3    0    0 -0.11428257206E+00 -0.13898277367E-01 -0.40252718196E-01  0.12378451900E+00  0.21181535174E-01 0.  0.
         14    1    1    2    0    0 -0.21189241821E-02  0.27637943285E-01 -0.13331677228E-01  0.30758403184E-01  0.00000000000E+00 0. -1.
     999901    1    3    3    0    0  0.11640149624E+00 -0.13739665918E-01  0.53584395424E-01  0.88938707781E+00  0.88000000000E+00 0. -1.
        -11    1    4    4    0    0 -0.97207630764E-01 -0.39804314914E-02 -0.32750432228E-01  0.10265485496E+00  0.51100000000E-03 0.  1.
         11    1    4    4    0    0 -0.17074941295E-01 -0.99178458756E-02 -0.75022859677E-02  0.21129664048E-01  0.51100000000E-03 0. -1.
</event>
<event>
 8    1  0.1061721E+005  0.1043930E+01  0.7957747E-01            NaN
         13   -1    0    0    0    0  0.00000000000E+00  0.00000000000E+00  0.74505805969E-08  0.10566000000E+00  0.10566000000E+00 0. -1.
     999900   -1    0    0    0    0 -0.00000000000E+00 -0.00000000000E+00 -0.74505805969E-08  0.93827000000E+00  0.93827000000E+00 0.  1.
     999902    2    1    2    0    0 -0.27535635575E-01  0.13163791855E-01  0.29179904494E-03  0.10134081752E+01  0.10129484428E+01 0.  0.
     999903    2    3    3    0    0 -0.89535159841E-01  0.87856229247E-01 -0.15594181247E-01  0.12792792947E+00  0.19675232745E-01 0.  0.
         14    1    1    2    0    0  0.27535635575E-01 -0.13163791855E-01 -0.29179904494E-03  0.30521824801E-01  0.00000000000E+00 0. -1.
     999901    1    3    3    0    0  0.61999524266E-01 -0.74692437392E-01  0.15885980292E-01  0.88548024573E+00  0.88000000000E+00 0.  1.
        -11    1    4    4    0    0 -0.59071781395E-01  0.69959960129E-01 -0.13207196007E-01  0.92512499295E-01  0.51100000000E-03 0.  1.
         11    1    4    4    0    0 -0.30463378446E-01  0.17896269117E-01 -0.23869852398E-02  0.35415430171E-01  0.51100000000E-03 0. -1.
</event>
<event>
 8    1  0.1061721E+005  0.1043930E+01  0.7957747E-01            NaN
         13   -1    0    0    0    0  0.00000000000E+00  0.00000000000E+00  0.74505805969E-08  0.10566000000E+00  0.10566000000E+00 0.  1.
     999900   -1    0    0    0    0 -0.00000000000E+00 -0.00000000000E+00 -0.74505805969E-08  0.93827000000E+00  0.93827000000E+00 0. -1.
     999902    2    1    2    0    0  0.15575856970E-01  0.13991601992E-01  0.10659448627E-01  0.10204354029E+01  0.10201648962E+01 0.  0.
     999903    2    3    3    0    0 -0.22641888945E-01  0.30771892236E-01  0.12487469241E+00  0.13207326047E+00  0.19750768044E-01 0.  0.
         14    1    1    2    0    0 -0.15575856970E-01 -0.13991601992E-01 -0.10659448627E-01  0.23494597075E-01  0.00000000000E+00 0.  1.
     999901    1    3    3    0    0  0.38217745914E-01 -0.16780290244E-01 -0.11421524378E+00  0.88836214246E+00  0.88000000000E+00 0. -1.
        -11    1    4    4    0    0  0.24157947933E-02  0.99958282982E-02  0.35063181092E-01  0.36543678484E-01  0.51100000000E-03 0. -1.
         11    1    4    4    0    0 -0.25057683738E-01  0.20776063938E-01  0.89811511320E-01  0.95529581982E-01  0.51100000000E-03 0.  1.
</event>
<event>
 8    1  0.1061721E+005  0.1043930E+01  0.7957747E-01            NaN
         13   -1    0    0    0    0  0.00000000000E+00  0.00000000000E+00  0.74505805969E-08  0.10566000000E+00  0.10566000000E+00 0.  1.
     999900   -1    0    0    0    0 -0.00000000000E+00 -0.00000000000E+00 -0.74505805969E-08  0.93827000000E+00  0.93827000000E+00 0. -1.
     999902    2    1    2    0    0  0.16333798536E-01 -0.12250603292E-01 -0.11943483064E-01  0.10202758874E+01  0.10200016516E+01 0.  0.
     999903    2    3    3    0    0  0.75764126416E-01  0.10062010974E+00  0.25614910013E-01  0.13028577811E+00  0.21299085107E-01 0.  0.
         14    1    1    2    0    0 -0.16333798536E-01  0.12250603292E-01  0.11943483064E-01  0.23654112609E-01  0.00000000000E+00 0. -1.
     999901    1    3    3    0    0 -0.59430327880E-01 -0.11287071303E+00 -0.37558393078E-01  0.88999010928E+00  0.88000000000E+00 0.  1.
        -11    1    4    4    0    0  0.10438841653E-01  0.17563491292E-01  0.12111279581E-01  0.23756890696E-01  0.51100000000E-03 0.  1.
         11    1    4    4    0    0  0.65325284763E-01  0.83056618447E-01  0.13503630432E-01  0.10652888741E+00  0.51100000000E-03 0. -1.
</event>
<event>
 8    1  0.1061721E+005  0.1043930E+01  0.7957747E-01            NaN
         13   -1    0    0    0    0  0.00000000000E+00  0.00000000000E+00  0.74505805969E-08  0.10566000000E+00  0.10566000000E+00 0. -1.
     999900   -1    0    0    0    0 -0.00000000000E+00 -0.00000000000E+00 -0.74505805969E-08  0.93827000000E+00  0.93827000000E+00 0. -1.
     999902    2    1    2    0    0  0.11947329310E-01 -0.36131884340E-02  0.17286259357E-01  0.10226084482E+01  0.10223861451E+01 0.  0.
     999903    2    3    3    0    0  0.97411693340E-01  0.14098701067E-01 -0.86040653819E-01  0.13227462343E+00  0.20143746516E-01 0.  0.
         14    1    1    2    0    0 -0.11947329310E-01  0.36131884340E-02 -0.17286259357E-01  0.21321551793E-01  0.00000000000E+00 0.  1.
     999901    1    3    3    0    0 -0.85464364030E-01 -0.17711889501E-01  0.10332691318E+00  0.89033382477E+00  0.88000000000E+00 0.  1.
        -11    1    4    4    0    0  0.71179508806E-01  0.11151492307E-02 -0.61420591778E-01  0.94024019522E-01  0.51100000000E-03 0.  1.
         11    1    4    4    0    0  0.26232184534E-01  0.12983551836E-01 -0.24620062041E-01  0.38250603912E-01  0.51100000000E-03 0. -1.
</event>
<event>
 8    1  0.1061721E+005  0.1043930E+01  0.7957747E-01            NaN
         13   -1    0    0    0    0  0.00000000000E+00  0.00000000000E+00  0.74505805969E-08  0.10566000000E+00  0.10566000000E+00 0. -1.
     999900   -1    0    0    0    0 -0.00000000000E+00 -0.00000000000E+00 -0.74505805969E-08  0.93827000000E+00  0.93827000000E+00 0.  1.
     999902    2    1    2    0    0 -0.81054567240E-02 -0.17275122635E-01  0.12654114029E-01  0.10210333869E+01  0.10207766270E+01 0.  0.
     999903    2    3    3    0    0 -0.11300280414E+00 -0.23960368913E-01 -0.59962586689E-01  0.13180825721E+00  0.20836790631E-01 0.  0.
         14    1    1    2    0    0  0.81054567240E-02  0.17275122635E-01 -0.12654114029E-01  0.22896613126E-01  0.00000000000E+00 0.  1.
     999901    1    3    3    0    0  0.10489734741E+00  0.66852462780E-02  0.72616700718E-01  0.88922512967E+00  0.88000000000E+00 0. -1.
        -11    1    4    4    0    0 -0.76467500746E-01 -0.24273355821E-01 -0.34855292411E-01  0.87473578886E-01  0.51100000000E-03 0.  1.
         11    1    4    4    0    0 -0.36535303391E-01  0.31298690770E-03 -0.25107294278E-01  0.44334678319E-01  0.51100000000E-03 0. -1.
</event>
<event>
 8    1  0.1061721E+005  0.1043930E+01  0.7957747E-01            NaN
         13   -1    0    0    0    0  0.00000000000E+00  0.00000000000E+00  0.74505805969E-08  0.10566000000E+00  0.10566000000E+00 0. -1.
     999900   -1    0    0    0    0 -0.00000000000E+00 -0.00000000000E+00 -0.74505805969E-08  0.93827000000E+00  0.93827000000E+00 0.  1.
     999902    2    1    2    0    0 -0.24938017977E-01 -0.19307133399E-02 -0.23066705285E-02  0.10188112197E+01  0.10185015210E+01 0.  0.
     999903    2    3    3    0    0  0.53234835504E-01 -0.79180270026E-01 -0.83348976304E-01  0.12827972427E+00  0.20128907968E-01 0.  0.
         14    1    1    2    0    0  0.24938017977E-01  0.19307133399E-02  0.23066705285E-02  0.25118780296E-01  0.00000000000E+00 0.  1.
     999901    1    3    3    0    0 -0.78172853481E-01  0.77249556686E-01  0.81042305776E-01  0.89053149543E+00  0.88000000000E+00 0.  1.
        -11    1    4    4    0    0  0.53211484506E-01 -0.69032191504E-01 -0.72066367655E-01  0.11309610080E+00  0.51100000000E-03 0.  1.
         11    1    4    4    0    0  0.23350997732E-04 -0.10148078522E-01 -0.11282608649E-01  0.15183623477E-01  0.51100000000E-03 0. -1.
</event>
<event>
 8    1  0.1061721E+005  0.1043930E+01  0.7957747E-01            NaN
         13   -1    0    0    0    0  0.00000000000E+00  0.00000000000E+00  0.74505805969E-08  0.10566000000E+00  0.10566000000E+00 0. -1.
     999900   -1    0    0    0    0 -0.00000000000E+00 -0.00000000000E+00 -0.74505805969E-08  0.93827000000E+00  0.93827000000E+00 0. -1.
     999902    2    1    2    0    0  0.18334814492E-01 -0.10389706496E-01  0.10184604763E-01  0.10205240692E+01  0.10202556239E+01 0.  0.
     999903    2    3    3    0    0  0.10241772689E+00 -0.58600435915E-01  0.59770549930E-01  0.13381499820E+00  0.20261619714E-01 0.  0.
         14    1    1    2    0    0 -0.18334814492E-01  0.10389706496E-01 -0.10184604763E-01  0.23405930824E-01  0.00000000000E+00 0.  1.
     999901    1    3    3    0    0 -0.84082912402E-01  0.48210729419E-01 -0.49585945166E-01  0.88670907097E+00  0.88000000000E+00 0.  1.
        -11    1    4    4    0    0  0.38431748612E-01 -0.24576128181E-01  0.34004135301E-01  0.56899276940E-01  0.51100000000E-03 0.  1.
         11    1    4    4    0    0  0.63985978283E-01 -0.34024307734E-01  0.25766414629E-01  0.76915721263E-01  0.51100000000E-03 0. -1.
</event>
<event>
 8    1  0.1061721E+005  0.1043930E+01  0.7957747E-01            NaN
         13   -1    0    0    0    0  0.00000000000E+00  0.00000000000E+00  0.74505805969E-08  0.10566000000E+00  0.10566000000E+00 0. -1.
     999900   -1    0    0    0    0 -0.00000000000E+00 -0.00000000000E+00 -0.74505805969E-08  0.93827000000E+00  0.93827000000E+00 0. -1.
     999902    2    1    2    0    0  0.14282551806E-01 -0.18291189416E-01  0.18407479728E-02  0.10206502395E+01  0.10203847138E+01 0.  0.
     999903    2    3    3    0    0 -0.50493681906E-01 -0.51327412372E-01 -0.10749332080E+00  0.13090797845E+00  0.19949176213E-01 0.  0.
         14    1    1    2    0    0 -0.14282551806E-01  0.18291189416E-01 -0.18407479728E-02  0.23279760511E-01  0.00000000000E+00 0.  1.
     999901    1    3    3    0    0  0.64776233713E-01  0.33036222956E-01  0.10933406878E+00  0.88974226104E+00  0.88000000000E+00 0. -1.
        -11    1    4    4    0    0 -0.19772378351E-01 -0.31759714361E-01 -0.64412749673E-01  0.74490870872E-01  0.51100000000E-03 0. -1.
         11    1    4    4    0    0 -0.30721303556E-01 -0.19567698011E-01 -0.43080571131E-01  0.56417107579E-01  0.51100000000E-03 0.  1.
</event>
<event>
 8    1  0.1061721E+005  0.1043930E+01  0.7957747E-01            NaN
         13   -1    0    0    0    0  0.00000000000E+00  0.00000000000E+00  0.74505805969E-08  0.10566000000E+00  0.10566000000E+00 0.  1.
     999900   -1    0    0    0    0 -0.00000000000E+00 -0.00000000000E+00 -0.74505805969E-08  0.93827000000E+00  0.93827000000E+00 0. -1.
     999902    2    1    2    0    0 -0.18751837900E-01  0.10887767690E-01  0.11017593701E-01  0.10196079466E+01  0.10193178123E+01 0.  0.
     999903    2    3    3    0    0 -0.70873729942E-01  0.21481968121E-01 -0.10516600068E+00  0.13037931667E+00  0.21314735860E-01 0.  0.
         14    1    1    2    0    0  0.18751837900E-01 -0.10887767690E-01 -0.11017593701E-01  0.24322053385E-01  0.00000000000E+00 0. -1.
     999901    1    3    3    0    0  0.52121892042E-01 -0.10594200431E-01  0.11618359439E+00  0.88922862995E+00  0.88000000000E+00 0.  1.
        -11    1    4    4    0    0 -0.24592862338E-01  0.14504522776E-01 -0.53639912944E-01  0.60767519618E-01  0.51100000000E-03 0.  1.
         11    1    4    4    0    0 -0.46280867604E-01  0.69774453443E-02 -0.51526087741E-01  0.69611797051E-01  0.51100000000E-03 0. -1.
</event>
<event>
 8    1  0.1061721E+005  0.1043930E+01  0.7957747E-01            NaN
         13   -1    0    0    0    0  0.00000000000E+00  0.00000000000E+00  0.74505805969E-08  0.10566000000E+00  0.10566000000E+00 0.  1.
     999900   -1    0    0    0    0 -0.00000000000E+00 -0.00000000000E+00 -0.74505805969E-08  0.93827000000E+00  0.93827000000E+00 0. -1.
     999902    2    1    2    0    0  0.79037087521E-02 -0.75073172715E-02  0.20949191955E-01  0.10203143893E+01  0.10200410560E+01 0.  0.
     999903    2    3    3    0    0  0.37764770869E-01 -0.10888697975E+00  0.63406925608E-01  0.13297444423E+00  0.19473374765E-01 0.  0.
         14    1    1    2    0    0 -0.79037087521E-02  0.75073172715E-02 -0.20949191955E-01  0.23615610689E-01  0.00000000000E+00 0. -1.
     999901    1    3    3    0    0 -0.29861062117E-01  0.10137966248E+00 -0.42457733653E-01  0.88733994508E+00  0.88000000000E+00 0. -1.
        -11    1    4    4    0    0  0.12142570349E-01 -0.41077558716E-01  0.13310843734E-01  0.44858082066E-01  0.51100000000E-03 0.  1.
         11    1    4    4    0    0  0.25622200520E-01 -0.67809421033E-01  0.50096081874E-01  0.88116362161E-01  0.51100000000E-03 0. -1.
</event>
<event>
 8    1  0.1061721E+005  0.1043930E+01  0.7957747E-01            NaN
         13   -1    0    0    0    0  0.00000000000E+00  0.00000000000E+00  0.74505805969E-08  0.10566000000E+00  0.10566000000E+00 0. -1.
     999900   -1    0    0    0    0 -0.00000000000E+00 -0.00000000000E+00 -0.74505805969E-08  0.93827000000E+00  0.93827000000E+00 0.  1.
     999902    2    1    2    0    0 -0.79304748658E-02  0.18992527513E-01 -0.12632146971E-01  0.10197808868E+01  0.10194949129E+01 0.  0.
     999903    2    3    3    0    0 -0.10606154837E+00  0.61873333907E-01  0.42686264343E-01  0.13156436036E+00  0.20241103278E-01 0.  0.
         14    1    1    2    0    0  0.79304748658E-02 -0.18992527513E-01  0.12632146971E-01  0.24149113234E-01  0.00000000000E+00 0. -1.
     999901    1    3    3    0    0  0.98131073508E-01 -0.42880806394E-01 -0.55318411313E-01  0.88821652640E+00  0.88000000000E+00 0.  1.
        -11    1    4    4    0    0 -0.70950803641E-01  0.51977749417E-01  0.29390551314E-01  0.92734937317E-01  0.51100000000E-03 0.  1.
         11    1    4    4    0    0 -0.35110744733E-01  0.98955844904E-02  0.13295713028E-01  0.38829423045E-01  0.51100000000E-03 0. -1.
</event>
<event>
 8    1  0.1061721E+005  0.1043930E+01  0.7957747E-01            NaN
         13   -1    0    0    0    0  0.00000000000E+00  0.00000000000E+00  0.74505805969E-08  0.10566000000E+00  0.10566000000E+00 0.  1.
     999900   -1    0    0    0    0 -0.00000000000E+00 -0.00000000000E+00 -0.74505805969E-08  0.93827000000E+00  0.93827000000E+00 0. -1.
     999902    2    1    2    0    0 -0.18659585921E-01 -0.13441484627E-01 -0.28897599878E-02  0.10207523304E+01  0.10204891551E+01 0.  0.
     999903    2    3    3    0    0  0.10105891549E+00 -0.79174284943E-01 -0.82672400378E-02  0.13020068230E+00  0.20059875812E-01 0.  0.
         14    1    1    2    0    0  0.18659585921E-01  0.13441484627E-01  0.28897599878E-02  0.23177669609E-01  0.00000000000E+00 0.  1.
     999901    1    3    3    0    0 -0.11971850142E+00  0.65732800316E-01  0.53774800500E-02  0.89055164809E+00  0.88000000000E+00 0.  1.
        -11    1    4    4    0    0  0.70855904623E-01 -0.47330214789E-01 -0.12423071773E-01  0.86112149464E-01  0.51100000000E-03 0.  1.
         11    1    4    4    0    0  0.30203010871E-01 -0.31844070154E-01  0.41558317354E-02  0.44088532841E-01  0.51100000000E-03 0. -1.
</event>
<event>
 8    1  0.1061721E+005  0.1043930E+01  0.7957747E-01            NaN
         13   -1    0    0    0    0  0.00000000000E+00  0.00000000000E+00  0.74505805969E-08  0.10566000000E+00  0.10566000000E+00 0. -1.
     999900   -1    0    0    0    0 -0.00000000000E+00 -0.00000000000E+00 -0.74505805969E-08  0.93827000000E+00  0.93827000000E+00 0.  1.
     999902    2    1    2    0    0 -0.20320830675E-01  0.52086164934E-03  0.11300139221E-01  0.10206727301E+01  0.10204077231E+01 0.  0.
     999903    2    3    3    0    0  0.75384911875E-01  0.89069232862E-01  0.53933591351E-01  0.13004485359E+00  0.19662616512E-01 0.  0.
         14    1    1    2    0    0  0.20320830675E-01 -0.52086164934E-03 -0.11300139221E-01  0.23257269887E-01  0.00000000000E+00 0.  1.
     999901    1    3    3    0    0 -0.95705742550E-01 -0.88548371212E-01 -0.42633452130E-01  0.89062787652E+00  0.88000000000E+00 0. -1.
        -11    1    4    4    0    0  0.50109507412E-01  0.47637697883E-01  0.24901338363E-01  0.73489120051E-01  0.51100000000E-03 0.  1.
         11    1    4    4    0    0  0.25275404463E-01  0.41431534979E-01  0.29032252988E-01  0.56555733538E-01  0.51100000000E-03 0. -1.
</event>
<event>
 8    1  0.1061721E+005  0.1043930E+01  0.7957747E-01            NaN
         13   -1    0    0    0    0  0.00000000000E+00  0.00000000000E+00  0.74505805969E-08  0.10566000000E+00  0.10566000000E+00 0. -1.
     999900   -1    0    0    0    0 -0.00000000000E+00 -0.00000000000E+00 -0.74505805969E-08  0.93827000000E+00  0.93827000000E+00 0. -1.
     999902    2    1    2    0    0  0.18943035884E-01 -0.51450199885E-02 -0.13681030328E-01  0.10200034367E+01  0.10197227714E+01 0.  0.
     999903    2    3    3    0    0 -0.71634644180E-01 -0.69677622212E-01  0.77731789647E-01  0.12830557504E+00  0.20822972454E-01 0.  0.
         14    1    1    2    0    0 -0.18943035884E-01  0.51450199885E-02  0.13681030328E-01  0.23926563272E-01  0.00000000000E+00 0. -1.
     999901    1    3    3    0    0  0.90577680064E-01  0.64532602224E-01 -0.91412819975E-01  0.89169786168E+00  0.88000000000E+00 0. -1.
        -11    1    4    4    0    0 -0.47785485099E-01 -0.34120329456E-01  0.51410268465E-01  0.78044386684E-01  0.51100000000E-03 0.  1.
         11    1    4    4    0    0 -0.23849159081E-01 -0.35557292756E-01  0.26321521182E-01  0.50261188360E-01  0.51100000000E-03 0. -1.
</event>
<event>
 8    1  0.1061721E+005  0.1043930E+01  0.7957747E-01            NaN
         13   -1    0    0    0    0  0.00000000000E+00  0.00000000000E+00  0.74505805969E-08  0.10566000000E+00  0.10566000000E+00 0.  1.
     999900   -1    0    0    0    0 -0.00000000000E+00 -0.00000000000E+00 -0.74505805969E-08  0.93827000000E+00  0.93827000000E+00 0.  1.
     999902    2    1    2    0    0 -0.10282866269E-02  0.43542811311E-02 -0.20792140727E-01  0.10226619429E+01  0.10224407656E+01 0.  0.
     999903    2    3    3    0    0  0.51452712444E-01 -0.10241205237E+00  0.60106399711E-01  0.13097933170E+00  0.20179097047E-01 0.  0.
         14    1    1    2    0    0  0.10282866269E-02 -0.43542811311E-02  0.20792140727E-01  0.21268057118E-01  0.00000000000E+00 0.  1.
     999901    1    3    3    0    0 -0.52480999071E-01  0.10676633351E+00 -0.80898540439E-01  0.89168261118E+00  0.88000000000E+00 0. -1.
        -11    1    4    4    0    0  0.37493534367E-01 -0.78635930802E-01  0.54732504722E-01  0.10288480416E+00  0.51100000000E-03 0.  1.
         11    1    4    4    0    0  0.13959178077E-01 -0.23776121573E-01  0.53738949893E-02  0.28094527546E-01  0.51100000000E-03 0. -1.
</event>
<event>
 8    1  0.1061721E+005  0.1043930E+01  0.7957747E-01            NaN
         13   -1    0    0    0    0  0.00000000000E+00  0.00000000000E+00  0.74505805969E-08  0.10566000000E+00  0.10566000000E+00 0. -1.
     999900   -1    0    0    0    0 -0.00000000000E+00 -0.00000000000E+00 -0.74505805969E-08  0.93827000000E+00  0.93827000000E+00 0.  1.
     999902    2    1    2    0    0 -0.17932435734E-01 -0.47233620897E-02 -0.12860673127E-01  0.10213627823E+01  0.10211134383E+01 0.  0.
     999903    2    3    3    0    0  0.56662772443E-01 -0.56549270271E-01  0.99830737151E-01  0.12953896351E+00  0.20141430868E-01 0.  0.
         14    1    1    2    0    0  0.17932435734E-01  0.47233620897E-02  0.12860673127E-01  0.22567217685E-01  0.00000000000E+00 0. -1.
     999901    1    3    3    0    0 -0.74595208177E-01  0.51825908181E-01 -0.11269141028E+00  0.89182381881E+00  0.88000000000E+00 0.  1.
        -11    1    4    4    0    0  0.26403441714E-01 -0.40336312037E-01  0.57780312094E-01  0.75252809846E-01  0.51100000000E-03 0.  1.
         11    1    4    4    0    0  0.30259330729E-01 -0.16212958234E-01  0.42050425057E-01  0.54286153661E-01  0.51100000000E-03 0. -1.
</event>
<event>
 8    1  0.1061721E+005  0.1043930E+01  0.7957747E-01            NaN
         13   -1    0    0    0    0  0.00000000000E+00  0.00000000000E+00  0.74505805969E-08  0.10566000000E+00  0.10566000000E+00 0. -1.
     999900   -1    0    0    0    0 -0.00000000000E+00 -0.00000000000E+00 -0.74505805969E-08  0.93827000000E+00  0.93827000000E+00 0.  1.
     999902    2    1    2    0    0 -0.16070957404E-01 -0.15466732862E-01  0.11379631145E-03  0.10216251026E+01  0.10213815848E+01 0.  0.
     999903    2    3    3    0    0 -0.31783247340E-01 -0.45280408007E-01  0.11926051826E+00  0.13295661965E+00  0.19846947697E-01 0.  0.
         14    1    1    2    0    0  0.16070957404E-01  0.15466732862E-01 -0.11379631145E-03  0.22304897375E-01  0.00000000000E+00 0.  1.
     999901    1    3    3    0    0  0.15712289935E-01  0.29813675145E-01 -0.11914672195E+00  0.88866848297E+00  0.88000000000E+00 0.  1.
        -11    1    4    4    0    0 -0.29514932042E-01 -0.33547916847E-01  0.76909116272E-01  0.88948677477E-01  0.51100000000E-03 0.  1.
         11    1    4    4    0    0 -0.22683152980E-02 -0.11732491160E-01  0.42351401987E-01  0.44007942173E-01  0.51100000000E-03 0. -1.
</event>
<event>
 8    1  0.1061721E+005  0.1043930E+01  0.7957747E-01            NaN
         13   -1    0    0    0    0  0.00000000000E+00  0.00000000000E+00  0.74505805969E-08  0.10566000000E+00  0.10566000000E+00 0. -1.
     999900   -1    0    0    0    0 -0.00000000000E+00 -0.00000000000E+00 -0.74505805969E-08  0.93827000000E+00  0.93827000000E+00 0. -1.
     999902    2    1    2    0    0  0.19994591521E-01  0.12530341404E-01  0.15241909469E-02  0.10202843597E+01  0.10200103227E+01 0.  0.
     999903    2    3    3    0    0 -0.88315030341E-02  0.40224878867E-01 -0.12240600503E+00  0.13070208438E+00  0.20093990885E-01 0.  0.
         14    1    1    2    0    0 -0.19994591521E-01 -0.12530341404E-01 -0.15241909469E-02  0.23645640272E-01  0.00000000000E+00 0.  1.
     999901    1    3    3    0    0  0.28826094556E-01 -0.27694537462E-01  0.12393019597E+00  0.88958227534E+00  0.88000000000E+00 0.  1.
        -11    1    4    4    0    0 -0.14862543194E-01  0.23548149451E-01 -0.68237012971E-01  0.73701842535E-01  0.51100000000E-03 0. -1.
         11    1    4    4    0    0  0.60310401600E-02  0.16676729415E-01 -0.54168992057E-01  0.57000241849E-01  0.51100000000E-03 0.  1.
</event>
<event>
 8    1  0.1061721E+005  0.1043930E+01  0.7957747E-01            NaN
         13   -1    0    0    0    0  0.00000000000E+00  0.00000000000E+00  0.74505805969E-08  0.10566000000E+00  0.10566000000E+00 0.  1.
     999900   -1    0    0    0    0 -0.00000000000E+00 -0.00000000000E+00 -0.74505805969E-08  0.93827000000E+00  0.93827000000E+00 0. -1.
     999902    2    1    2    0    0 -0.21876104721E-01  0.53464741528E-02 -0.60438834868E-02  0.10206131119E+01  0.10203467288E+01 0.  0.
     999903    2    3    3    0    0  0.48659372969E-01 -0.11536723992E+00  0.23804758929E-01  0.12907623894E+00  0.20412601155E-01 0.  0.
         14    1    1    2    0    0  0.21876104721E-01 -0.53464741528E-02  0.60438834868E-02  0.23316888112E-01  0.00000000000E+00 0. -1.
     999901    1    3    3    0    0 -0.70535477689E-01  0.12071371407E+00 -0.29848642415E-01  0.89153687295E+00  0.88000000000E+00 0. -1.
        -11    1    4    4    0    0  0.41697168943E-01 -0.10639679254E+00  0.16246339850E-01  0.11542588982E+00  0.51100000000E-03 0.  1.
         11    1    4    4    0    0  0.69622040253E-02 -0.89704473790E-02  0.75584190789E-02  0.13650349118E-01  0.51100000000E-03 0. -1.
</event>
<event>
 8    1  0.1061721E+005  0.1043930E+01  0.7957747E-01            NaN
         13   -1    0    0    0    0  0.00000000000E+00  0.00000000000E+00  0.74505805969E-08  0.10566000000E+00  0.10566000000E+00 0.  1.
     999900   -1    0    0    0    0 -0.00000000000E+00 -0.00000000000E+00 -0.74505805969E-08  0.93827000000E+00  0.93827000000E+00 0.  1.
     999902    2    1    2    0    0 -0.21408320816E-01  0.99936233791E-02 -0.21086476664E-02  0.10202100695E+01  0.10199342875E+01 0.  0.
     999903    2    3    3    0    0  0.10522319832E+00 -0.18893182477E-01  0.67405471427E-01  0.12796447441E+00  0.20063282963E-01 0.  0.
         14    1    1    2    0    0  0.21408320816E-01 -0.99936233791E-02  0.21086476664E-02  0.23719930510E-01  0.00000000000E+00 0. -1.
     999901    1    3    3    0    0 -0.12663151914E+00  0.28886805856E-01 -0.69514119093E-01  0.89224559508E+00  0.88000000000E+00 0. -1.
        -11    1    4    4    0    0  0.66487040847E-01 -0.20431327020E-02  0.41904378834E-01  0.78618948596E-01  0.51100000000E-03 0.  1.
         11    1    4    4    0    0  0.38736157473E-01 -0.16850049775E-01  0.25501092592E-01  0.49345525811E-01  0.51100000000E-03 0. -1.
</event>
<event>
 8    1  0.1079561E+005  0.1043930E+01  0.7957747E-01            NaN
         13   -1    0    0    0    0  0.00000000000E+00  0.00000000000E+00  0.74505805969E-08  0.10566000000E+00  0.10566000000E+00 0. -1.
     999900   -1    0    0    0    0 -0.00000000000E+00 -0.00000000000E+00 -0.74505805969E-08  0.93827000000E+00  0.93827000000E+00 0. -1.
     999902    2    1    2    0    0  0.23537190618E-01 -0.51103550155E-02  0.45318897520E-02  0.10194217749E+01  0.10191271276E+01 0.  0.
     999903    2    3    3    0    0  0.42726975868E-01  0.93804645865E-01 -0.76575924706E-01  0.12996637819E+00  0.20061933152E-01 0.  0.
         14    1    1    2    0    0 -0.23537190618E-01  0.51103550155E-02 -0.45318897520E-02  0.24508225054E-01  0.00000000000E+00 0. -1.
     999901    1    3    3    0    0 -0.19189785250E-01 -0.98915000881E-01  0.81107814458E-01  0.88945539676E+00  0.88000000000E+00 0.  1.
        -11    1    4    4    0    0  0.25892466790E-01  0.50446627691E-01 -0.30045349583E-01  0.64173719188E-01  0.51100000000E-03 0. -1.
         11    1    4    4    0    0  0.16834509078E-01  0.43358018175E-01 -0.46530575123E-01  0.65792659000E-01  0.51100000000E-03 0.  1.
</event>
<event>
 8    1  0.1061721E+005  0.1043930E+01  0.7957747E-01            NaN
         13   -1    0    0    0    0  0.00000000000E+00  0.00000000000E+00  0.74505805969E-08  0.10566000000E+00  0.10566000000E+00 0.  1.
     999900   -1    0    0    0    0 -0.00000000000E+00 -0.00000000000E+00 -0.74505805969E-08  0.93827000000E+00  0.93827000000E+00 0. -1.
     999902    2    1    2    0    0  0.51930728322E-02  0.16360821489E-01 -0.16953504582E-01  0.10198039601E+01  0.10195185389E+01 0.  0.
     999903    2    3    3    0    0 -0.19289366011E-01  0.79673068858E-01 -0.10280229363E+00  0.13302448068E+00  0.20182253152E-01 0.  0.
         14    1    1    2    0    0 -0.51930728322E-02 -0.16360821489E-01  0.16953504582E-01  0.24126039933E-01  0.00000000000E+00 0.  1.
     999901    1    3    3    0    0  0.24482438843E-01 -0.63312247369E-01  0.85848789049E-01  0.88677947939E+00  0.88000000000E+00 0.  1.
        -11    1    4    4    0    0 -0.84039981291E-03  0.34976123895E-01 -0.53814658777E-01  0.64189673116E-01  0.51100000000E-03 0.  1.
         11    1    4    4    0    0 -0.18448966198E-01  0.44696944963E-01 -0.48987634855E-01  0.68834807565E-01  0.51100000000E-03 0. -1.
</event>
<event>
 8    1  0.1061721E+005  0.1043930E+01  0.7957747E-01            NaN
         13   -1    0    0    0    0  0.00000000000E+00  0.00000000000E+00  0.74505805969E-08  0.10566000000E+00  0.10566000000E+00 0.  1.
     999900   -1    0    0    0    0 -0.00000000000E+00 -0.00000000000E+00 -0.74505805969E-08  0.93827000000E+00  0.93827000000E+00 0.  1.
     999902    2    1    2    0    0 -0.43404184308E-02  0.42785809862E-02  0.25098948814E-01  0.10181016683E+01  0.10177739947E+01 0.  0.
     999903    2    3    3    0    0 -0.71897387795E-01 -0.48407698382E-02  0.10793713544E+00  0.13158642768E+00  0.21723151659E-01 0.  0.
         14    1    1    2    0    0  0.43404184308E-02 -0.42785809862E-02 -0.25098948814E-01  0.25828331711E-01  0.00000000000E+00 0. -1.
     999901    1    3    3    0    0  0.67556969364E-01  0.91193508244E-02 -0.82838186626E-01  0.88651524061E+00  0.88000000000E+00 0. -1.
        -11    1    4    4    0    0 -0.50699424930E-01  0.59313840122E-02  0.79967978480E-01  0.94872291570E-01  0.51100000000E-03 0.  1.
         11    1    4    4    0    0 -0.21197962865E-01 -0.10772153850E-01  0.27969156960E-01  0.36714136110E-01  0.51100000000E-03 0. -1.
</event>
<event>
 8    1  0.1061721E+005  0.1043930E+01  0.7957747E-01            NaN
         13   -1    0    0    0    0  0.00000000000E+00  0.00000000000E+00  0.74505805969E-08  0.10566000000E+00  0.10566000000E+00 0. -1.
     999900   -1    0    0    0    0 -0.00000000000E+00 -0.00000000000E+00 -0.74505805969E-08  0.93827000000E+00  0.93827000000E+00 0.  1.
     999902    2    1    2    0    0 -0.28841885068E-01 -0.95836395009E-02 -0.20427508213E-01  0.10073105575E+01  0.10066447117E+01 0.  0.
     999903    2    3    3    0    0 -0.18894881404E-01 -0.10675747683E+00  0.45869965263E-01  0.11942708958E+00  0.20114686387E-01 0.  0.
         14    1    1    2    0    0  0.28841885068E-01  0.95836395009E-02  0.20427508213E-01  0.36619442543E-01  0.00000000000E+00 0. -1.
     999901    1    3    3    0    0 -0.99470036648E-02  0.97173837334E-01 -0.66297473476E-01  0.88788346788E+00  0.88000000000E+00 0.  1.
        -11    1    4    4    0    0 -0.43026422273E-02 -0.55119975647E-01  0.32461947943E-01  0.64115237118E-01  0.51100000000E-03 0.  1.
         11    1    4    4    0    0 -0.14592239176E-01 -0.51637501187E-01  0.13408017320E-01  0.55311852460E-01  0.51100000000E-03 0. -1.
</event>
<event>
 8    1  0.1061721E+005  0.1043930E+01  0.7957747E-01            NaN
         13   -1    0    0    0    0  0.00000000000E+00  0.00000000000E+00  0.74505805969E-08  0.10566000000E+00  0.10566000000E+00 0. -1.
     999900   -1    0    0    0    0 -0.00000000000E+00 -0.00000000000E+00 -0.74505805969E-08  0.93827000000E+00  0.93827000000E+00 0.  1.
     999902    2    1    2    0    0 -0.18354934330E-01 -0.16231835647E-02  0.15285515830E-01  0.10199887107E+01  0.10197076957E+01 0.  0.
     999903    2    3    3    0    0 -0.83279671984E-01  0.55568117996E-01 -0.81341999737E-01  0.13048157565E+00  0.19636729885E-01 0.  0.
         14    1    1    2    0    0  0.18354934330E-01  0.16231835647E-02 -0.15285515830E-01  0.23941289299E-01  0.00000000000E+00 0.  1.
     999901    1    3    3    0    0  0.64924737655E-01 -0.57191301561E-01  0.96627515567E-01  0.88950713505E+00  0.88000000000E+00 0. -1.
        -11    1    4    4    0    0 -0.38521059757E-01  0.14406881144E-01 -0.35430393662E-01  0.54286316740E-01  0.51100000000E-03 0.  1.
         11    1    4    4    0    0 -0.44758612227E-01  0.41161236852E-01 -0.45911606075E-01  0.76195258915E-01  0.51100000000E-03 0. -1.
</event>
<event>
 8    1  0.1061721E+005  0.1043930E+01  0.7957747E-01            NaN
         13   -1    0    0    0    0  0.00000000000E+00  0.00000000000E+00  0.74505805969E-08  0.10566000000E+00  0.10566000000E+00 0. -1.
     999900   -1    0    0    0    0 -0.00000000000E+00 -0.00000000000E+00 -0.74505805969E-08  0.93827000000E+00  0.93827000000E+00 0.  1.
     999902    2    1    2    0    0  0.12263552056E-01  0.77818277437E-02  0.19408395031E-01  0.10196887676E+01  0.10194005814E+01 0.  0.
     999903    2    3    3    0    0 -0.49766402274E-01  0.11578837257E+00  0.29091933370E-01  0.13086544436E+00  0.19894268621E-01 0.  0.
         14    1    1    2    0    0 -0.12263552056E-01 -0.77818277437E-02 -0.19408395031E-01  0.24241232430E-01  0.00000000000E+00 0.  1.
     999901    1    3    3    0    0  0.62029954330E-01 -0.10800654483E+00 -0.96835383387E-02  0.88882332321E+00  0.88000000000E+00 0.  1.
        -11    1    4    4    0    0 -0.38058562891E-01  0.64230858754E-01  0.15103886883E-01  0.76173787785E-01  0.51100000000E-03 0.  1.
         11    1    4    4    0    0 -0.11707839383E-01  0.51557513815E-01  0.13988046487E-01  0.54691656579E-01  0.51100000000E-03 0. -1.
</event>
<event>
 8    1  0.1061721E+005  0.1043930E+01  0.7957747E-01            NaN
         13   -1    0    0    0    0  0.00000000000E+00  0.00000000000E+00  0.74505805969E-08  0.10566000000E+00  0.10566000000E+00 0.  1.
     999900   -1    0    0    0    0 -0.00000000000E+00 -0.00000000000E+00 -0.74505805969E-08  0.93827000000E+00  0.93827000000E+00 0.  1.
     999902    2    1    2    0    0  0.62944468627E-02  0.11539264775E-01 -0.19382121797E-01  0.10205111756E+01  0.10202424310E+01 0.  0.
     999903    2    3    3    0    0  0.92890287305E-01 -0.70903428639E-01  0.52200180298E-01  0.12954559640E+00  0.20032499947E-01 0.  0.
         14    1    1    2    0    0 -0.62944468627E-02 -0.11539264775E-01  0.19382121797E-01  0.23418824441E-01  0.00000000000E+00 0.  1.
     999901    1    3    3    0    0 -0.86595840443E-01  0.82442693414E-01 -0.71582302095E-01  0.89096557916E+00  0.88000000000E+00 0. -1.
        -11    1    4    4    0    0  0.63887702447E-02 -0.76789301008E-02  0.10691992010E-01  0.14641112214E-01  0.51100000000E-03 0.  1.
         11    1    4    4    0    0  0.86501517061E-01 -0.63224498538E-01  0.41508188288E-01  0.11490448418E+00  0.51100000000E-03 0. -1.
</event>
<event>
 8    1  0.1061721E+005  0.1043930E+01  0.7957747E-01            NaN
         13   -1    0    0    0    0  0.00000000000E+00  0.00000000000E+00  0.74505805969E-08  0.10566000000E+00  0.10566000000E+00 0. -1.
     999900   -1    0    0    0    0 -0.00000000000E+00 -0.00000000000E+00 -0.74505805969E-08  0.93827000000E+00  0.93827000000E+00 0. -1.
     999902    2    1    2    0    0 -0.12364641923E-02 -0.19545998460E-01 -0.54187671695E-03  0.10243374369E+01  0.10241500457E+01 0.  0.
     999903    2    3    3    0    0  0.85144587041E-01 -0.22102226610E-01 -0.10029998798E+00  0.13449480973E+00  0.17048669552E-01 0.  0.
         14    1    1    2    0    0  0.12364641923E-02  0.19545998460E-01  0.54187671695E-03  0.19592563126E-01  0.00000000000E+00 0. -1.
     999901    1    3    3    0    0 -0.86381051233E-01  0.25562281501E-02  0.99758111260E-01  0.88984262714E+00  0.88000000000E+00 0.  1.
        -11    1    4    4    0    0  0.74719590169E-01 -0.13440125535E-01 -0.82513392638E-01  0.11212660351E+00  0.51100000000E-03 0.  1.
         11    1    4    4    0    0  0.10424996872E-01 -0.86621010752E-02 -0.17786595339E-01  0.22368206222E-01  0.51100000000E-03 0. -1.
</event>
<event>
 8    1  0.1061721E+005  0.1043930E+01  0.7957747E-01            NaN
         13   -1    0    0    0    0  0.00000000000E+00  0.00000000000E+00  0.74505805969E-08  0.10566000000E+00  0.10566000000E+00 0. -1.
     999900   -1    0    0    0    0 -0.00000000000E+00 -0.00000000000E+00 -0.74505805969E-08  0.93827000000E+00  0.93827000000E+00 0. -1.
     999902    2    1    2    0    0  0.18935649400E-01 -0.29686634769E-02 -0.14017513675E-01  0.10201842115E+01  0.10199078208E+01 0.  0.
     999903    2    3    3    0    0  0.52002995145E-01  0.86323293241E-01 -0.83149891900E-01  0.13235213921E+00  0.21146199940E-01 0.  0.
         14    1    1    2    0    0 -0.18935649400E-01  0.29686634769E-02  0.14017513675E-01  0.23745788483E-01  0.00000000000E+00 0.  1.
     999901    1    3    3    0    0 -0.33067345744E-01 -0.89291956717E-01  0.69132378224E-01  0.88783207230E+00  0.88000000000E+00 0.  1.
        -11    1    4    4    0    0  0.17053045176E-01  0.35252051577E-01 -0.20161883279E-01  0.44048565794E-01  0.51100000000E-03 0.  1.
         11    1    4    4    0    0  0.34949949969E-01  0.51071241663E-01 -0.62988008621E-01  0.88303573421E-01  0.51100000000E-03 0. -1.
</event>
<event>
 8    1  0.1061721E+005  0.1043930E+01  0.7957747E-01            NaN
         13   -1    0    0    0    0  0.00000000000E+00  0.00000000000E+00  0.74505805969E-08  0.10566000000E+00  0.10566000000E+00 0. -1.
     999900   -1    0    0    0    0 -0.00000000000E+00 -0.00000000000E+00 -0.74505805969E-08  0.93827000000E+00  0.93827000000E+00 0.  1.
     999902    2    1    2    0    0  0.10242699452E-01  0.12566053437E-01 -0.17448426397E-01  0.10201126497E+01  0.10198345709E+01 0.  0.
     999903    2    3    3    0    0 -0.38218927660E-01  0.11799576093E+00  0.37389683303E-01  0.13080327115E+00  0.18105836001E-01 0.  0.
         14    1    1    2    0    0 -0.10242699452E-01 -0.12566053437E-01  0.17448426397E-01  0.23817350289E-01  0.00000000000E+00 0. -1.
     999901    1    3    3    0    0  0.48461627112E-01 -0.10542970749E+00 -0.54838109701E-01  0.88930937856E+00  0.88000000000E+00 0. -1.
        -11    1    4    4    0    0  0.62535356376E-03  0.13166378634E-01  0.70818301904E-02  0.14971908137E-01  0.51100000000E-03 0.  1.
         11    1    4    4    0    0 -0.38844281223E-01  0.10482938229E+00  0.30307853113E-01  0.11583136301E+00  0.51100000000E-03 0. -1.
</event>
<event>
 8    1  0.1061721E+005  0.1043930E+01  0.7957747E-01            NaN
         13   -1    0    0    0    0  0.00000000000E+00  0.00000000000E+00  0.74505805969E-08  0.10566000000E+00  0.10566000000E+00 0. -1.
     999900   -1    0    0    0    0 -0.00000000000E+00 -0.00000000000E+00 -0.74505805969E-08  0.93827000000E+00  0.93827000000E+00 0.  1.
     999902    2    1    2    0    0  0.10311844604E-01  0.12971911082E-05 -0.20190052560E-01  0.10212590414E+01  0.10210073738E+01 0.  0.
     999903    2    3    3    0    0  0.12422842105E-01  0.12521801143E+00  0.29467441476E-01  0.13100652187E+00  0.21459293415E-01 0.  0.
         14    1    1    2    0    0 -0.10311844604E-01 -0.12971911082E-05  0.20190052560E-01  0.22670958586E-01  0.00000000000E+00 0. -1.
     999901    1    3    3    0    0 -0.21109975012E-02 -0.12521671424E+00 -0.49657494036E-01  0.89025251954E+00  0.88000000000E+00 0. -1.
        -11    1    4    4    0    0 -0.44134925630E-02  0.27074323917E-01  0.10675868245E-02  0.27457217536E-01  0.51100000000E-03 0.  1.
         11    1    4    4    0    0  0.16836334668E-01  0.98143687512E-01  0.28399854651E-01  0.10354930434E+00  0.51100000000E-03 0. -1.
</event>
<event>
 8    1  0.1061721E+005  0.1043930E+01  0.7957747E-01            NaN
         13   -1    0    0    0    0  0.00000000000E+00  0.00000000000E+00  0.74505805969E-08  0.10566000000E+00  0.10566000000E+00 0. -1.
     999900   -1    0    0    0    0 -0.00000000000E+00 -0.00000000000E+00 -0.74505805969E-08  0.93827000000E+00  0.93827000000E+00 0.  1.
     999902    2    1    2    0    0  0.21070825667E-01 -0.10839800085E-01 -0.31237300444E-02  0.10200294006E+01  0.10197493513E+01 0.  0.
     999903    2    3    3    0    0 -0.58737482240E-01 -0.38793045300E-01  0.10635205169E+00  0.12922319461E+00  0.20805839129E-01 0.  0.
         14    1    1    2    0    0 -0.21070825667E-01  0.10839800085E-01  0.31237300444E-02  0.23900599355E-01  0.00000000000E+00 0. -1.
     999901    1    3    3    0    0  0.79808307907E-01  0.27953245216E-01 -0.10947578174E+00  0.89080620604E+00  0.88000000000E+00 0.  1.
        -11    1    4    4    0    0 -0.66001661767E-02 -0.81944661748E-02  0.61551743767E-02  0.12200768913E-01  0.51100000000E-03 0. -1.
         11    1    4    4    0    0 -0.52137316064E-01 -0.30598579126E-01  0.10019687731E+00  0.11702242569E+00  0.51100000000E-03 0.  1.
</event>
<event>
 8    1  0.1061721E+005  0.1043930E+01  0.7957747E-01            NaN
         13   -1    0    0    0    0  0.00000000000E+00  0.00000000000E+00  0.74505805969E-08  0.10566000000E+00  0.10566000000E+00 0.  1.
     999900   -1    0    0    0    0 -0.00000000000E+00 -0.00000000000E+00 -0.74505805969E-08  0.93827000000E+00  0.93827000000E+00 0. -1.
     999902    2    1    2    0    0 -0.10326772623E-01  0.31281243698E-02  0.20162114054E-01  0.10210621571E+01  0.10208060494E+01 0.  0.
     999903    2    3    3    0    0  0.12636086316E+00  0.22583113933E-01 -0.40361246921E-02  0.12996869336E+00  0.19962619547E-01 0.  0.
         14    1    1    2    0    0  0.10326772623E-01 -0.31281243698E-02 -0.20162114054E-01  0.22867842881E-01  0.00000000000E+00 0. -1.
     999901    1    3    3    0    0 -0.13668763578E+00 -0.19454989563E-01  0.24198238746E-01  0.89109346376E+00  0.88000000000E+00 0. -1.
        -11    1    4    4    0    0  0.81916823144E-01  0.65241533849E-02 -0.78730084197E-02  0.82554078482E-01  0.51100000000E-03 0. -1.
         11    1    4    4    0    0  0.44444040012E-01  0.16058960548E-01  0.38368837276E-02  0.47414614880E-01  0.51100000000E-03 0.  1.
</event>
<event>
 8    1  0.1061721E+005  0.1043930E+01  0.7957747E-01            NaN
         13   -1    0    0    0    0  0.00000000000E+00  0.00000000000E+00  0.74505805969E-08  0.10566000000E+00  0.10566000000E+00 0. -1.
     999900   -1    0    0    0    0 -0.00000000000E+00 -0.00000000000E+00 -0.74505805969E-08  0.93827000000E+00  0.93827000000E+00 0.  1.
     999902    2    1    2    0    0 -0.61431156309E-02  0.99844646647E-02  0.19102348604E-01  0.10215173445E+01  0.10212714419E+01 0.  0.
     999903    2    3    3    0    0  0.90498699316E-01 -0.72142390404E-01 -0.54556325951E-01  0.12937942856E+00  0.19186056461E-01 0.  0.
         14    1    1    2    0    0  0.61431156309E-02 -0.99844646647E-02 -0.19102348604E-01  0.22412655499E-01  0.00000000000E+00 0.  1.
     999901    1    3    3    0    0 -0.96641814947E-01  0.82126855069E-01  0.73658674556E-01  0.89213791594E+00  0.88000000000E+00 0. -1.
        -11    1    4    4    0    0  0.89781091414E-01 -0.67686528281E-01 -0.50380369032E-01  0.12320938759E+00  0.51100000000E-03 0.  1.
         11    1    4    4    0    0  0.71760790171E-03 -0.44558621231E-02 -0.41759569197E-02  0.61700409687E-02  0.51100000000E-03 0. -1.
</event>
<event>
 8    1  0.1061721E+005  0.1043930E+01  0.7957747E-01            NaN
         13   -1    0    0    0    0  0.00000000000E+00  0.00000000000E+00  0.74505805969E-08  0.10566000000E+00  0.10566000000E+00 0. -1.
     999900   -1    0    0    0    0 -0.00000000000E+00 -0.00000000000E+00 -0.74505805969E-08  0.93827000000E+00  0.93827000000E+00 0.  1.
     999902    2    1    2    0    0 -0.14877757866E-01 -0.22870294948E-01  0.85624263627E-03  0.10166329082E+01  0.10162663720E+01 0.  0.
     999903    2    3    3    0    0  0.11887378837E+00  0.29516089314E-01  0.13965936311E-01  0.12488985470E+00  0.20006282507E-01 0.  0.
         14    1    1    2    0    0  0.14877757866E-01  0.22870294948E-01 -0.85624263627E-03  0.27297091815E-01  0.00000000000E+00 0. -1.
     999901    1    3    3    0    0 -0.13375154623E+00 -0.52386384261E-01 -0.13109693675E-01  0.89174305349E+00  0.88000000000E+00 0. -1.
        -11    1    4    4    0    0  0.13968007120E-01  0.97531556278E-02  0.49981379615E-02  0.17761525038E-01  0.51100000000E-03 0.  1.
         11    1    4    4    0    0  0.10490578125E+00  0.19762933686E-01  0.89677983497E-02  0.10712832966E+00  0.51100000000E-03 0. -1.
</event>
<event>
 8    1  0.1061721E+005  0.1043930E+01  0.7957747E-01            NaN
         13   -1    0    0    0    0  0.00000000000E+00  0.00000000000E+00  0.74505805969E-08  0.10566000000E+00  0.10566000000E+00 0. -1.
     999900   -1    0    0    0    0 -0.00000000000E+00 -0.00000000000E+00 -0.74505805969E-08  0.93827000000E+00  0.93827000000E+00 0. -1.
     999902    2    1    2    0    0  0.75363226548E-02 -0.37831660141E-02 -0.23340540422E-01  0.10191128823E+01  0.10188106681E+01 0.  0.
     999903    2    3    3    0    0 -0.36180599604E-01  0.11299999986E+00 -0.48961725382E-01  0.12995264800E+00  0.20307742702E-01 0.  0.
         14    1    1    2    0    0 -0.75363226548E-02  0.37831660141E-02  0.23340540422E-01  0.24817117710E-01  0.00000000000E+00 0. -1.
     999901    1    3    3    0    0  0.43716922259E-01 -0.11678316587E+00  0.25621184960E-01  0.88916023429E+00  0.88000000000E+00 0.  1.
        -11    1    4    4    0    0 -0.12406044243E-01  0.43361716365E-01 -0.29296386591E-01  0.53783712852E-01  0.51100000000E-03 0. -1.
         11    1    4    4    0    0 -0.23774555361E-01  0.69638283495E-01 -0.19665338792E-01  0.76168935148E-01  0.51100000000E-03 0.  1.
</event>
<event>
 8    1  0.1061721E+005  0.1043930E+01  0.7957747E-01            NaN
         13   -1    0    0    0    0  0.00000000000E+00  0.00000000000E+00  0.74505805969E-08  0.10566000000E+00  0.10566000000E+00 0. -1.
     999900   -1    0    0    0    0 -0.00000000000E+00 -0.00000000000E+00 -0.74505805969E-08  0.93827000000E+00  0.93827000000E+00 0.  1.
     999902    2    1    2    0    0  0.15090914283E-01  0.16935052711E-01 -0.50090051368E-02  0.10207002381E+01  0.10204358649E+01 0.  0.
     999903    2    3    3    0    0  0.68002012788E-01  0.98913783399E-01  0.53868854868E-01  0.13335211082E+00  0.21742162881E-01 0.  0.
         14    1    1    2    0    0 -0.15090914283E-01 -0.16935052711E-01  0.50090051368E-02  0.23229761873E-01  0.00000000000E+00 0.  1.
     999901    1    3    3    0    0 -0.52911098505E-01 -0.81978730687E-01 -0.58877860005E-01  0.88734812730E+00  0.88000000000E+00 0.  1.
        -11    1    4    4    0    0  0.65708505237E-01  0.82812342083E-01  0.46688069325E-01  0.11556612220E+00  0.51100000000E-03 0. -1.
         11    1    4    4    0    0  0.22935075507E-02  0.16101441316E-01  0.71807855437E-02  0.17785988625E-01  0.51100000000E-03 0.  1.
</event>
<event>
 8    1  0.1061721E+005  0.1043930E+01  0.7957747E-01            NaN
         13   -1    0    0    0    0  0.00000000000E+00  0.00000000000E+00  0.74505805969E-08  0.10566000000E+00  0.10566000000E+00 0.  1.
     999900   -1    0    0    0    0 -0.00000000000E+00 -0.00000000000E+00 -0.74505805969E-08  0.93827000000E+00  0.93827000000E+00 0. -1.
     999902    2    1    2    0    0 -0.17951066957E-01  0.15289311329E-01 -0.60155758609E-02  0.10195950252E+01  0.10193045788E+01 0.  0.
     999903    2    3    3    0    0  0.35434794531E-01 -0.11038565266E+00 -0.50408263309E-01  0.12795891249E+00  0.19795789968E-01 0.  0.
         14    1    1    2    0    0  0.17951066957E-01 -0.15289311329E-01  0.60155758609E-02  0.24334974805E-01  0.00000000000E+00 0.  1.
     999901    1    3    3    0    0 -0.53385861488E-01  0.12567496398E+00  0.44392687448E-01  0.89163611270E+00  0.88000000000E+00 0.  1.
        -11    1    4    4    0    0  0.47194550311E-02 -0.38138190479E-01 -0.23085434123E-01  0.44832947912E-01  0.51100000000E-03 0. -1.
         11    1    4    4    0    0  0.30715339500E-01 -0.72247462176E-01 -0.27322829185E-01  0.83125964579E-01  0.51100000000E-03 0.  1.
</event>
<event>
 8    1  0.1061721E+005  0.1043930E+01  0.7957747E-01            NaN
         13   -1    0    0    0    0  0.00000000000E+00  0.00000000000E+00  0.74505805969E-08  0.10566000000E+00  0.10566000000E+00 0. -1.
     999900   -1    0    0    0    0 -0.00000000000E+00 -0.00000000000E+00 -0.74505805969E-08  0.93827000000E+00  0.93827000000E+00 0.  1.
     999902    2    1    2    0    0 -0.20999400829E-01  0.90272638529E-02  0.21605939515E-02  0.10209705903E+01  0.10207124040E+01 0.  0.
     999903    2    3    3    0    0 -0.65438503234E-01 -0.11232010169E+00 -0.64795656419E-03  0.13152812172E+00  0.20030576776E-01 0.  0.
         14    1    1    2    0    0  0.20999400829E-01 -0.90272638529E-02 -0.21605939515E-02  0.22959409707E-01  0.00000000000E+00 0.  1.
     999901    1    3    3    0    0  0.44439102405E-01  0.12134736554E+00  0.28085505157E-02  0.88944246857E+00  0.88000000000E+00 0.  1.
        -11    1    4    4    0    0 -0.26732729487E-01 -0.28407028581E-01  0.22022993086E-02  0.39073128130E-01  0.51100000000E-03 0. -1.
         11    1    4    4    0    0 -0.38705773747E-01 -0.83913073109E-01 -0.28502558728E-02  0.92454993589E-01  0.51100000000E-03 0.  1.
</event>
<event>
 8    1  0.1061721E+005  0.1043930E+01  0.7957747E-01            NaN
         13   -1    0    0    0    0  0.00000000000E+00  0.00000000000E+00  0.74505805969E-08  0.10566000000E+00  0.10566000000E+00 0.  1.
     999900   -1    0    0    0    0 -0.00000000000E+00 -0.00000000000E+00 -0.74505805969E-08  0.93827000000E+00  0.93827000000E+00 0.  1.
     999902    2    1    2    0    0  0.17980490055E-01 -0.66097670860E-02  0.13984446134E-01  0.10202118260E+01  0.10199360853E+01 0.  0.
     999903    2    3    3    0    0 -0.51949195380E-01 -0.97801190398E-02 -0.11495474170E+00  0.12806524266E+00  0.19792526605E-01 0.  0.
         14    1    1    2    0    0 -0.17980490055E-01  0.66097670860E-02 -0.13984446134E-01  0.23718173986E-01  0.00000000000E+00 0.  1.
     999901    1    3    3    0    0  0.69929685435E-01  0.31703519538E-02  0.12893918783E+00  0.89214658336E+00  0.88000000000E+00 0. -1.
        -11    1    4    4    0    0 -0.82784854134E-02  0.56249023443E-02 -0.23700851436E-01  0.25732553836E-01  0.51100000000E-03 0.  1.
         11    1    4    4    0    0 -0.43670709967E-01 -0.15405021384E-01 -0.91253890260E-01  0.10233268882E+00  0.51100000000E-03 0. -1.
</event>
<event>
 8    1  0.1061721E+005  0.1043930E+01  0.7957747E-01            NaN
         13   -1    0    0    0    0  0.00000000000E+00  0.00000000000E+00  0.74505805969E-08  0.10566000000E+00  0.10566000000E+00 0. -1.
     999900   -1    0    0    0    0 -0.00000000000E+00 -0.00000000000E+00 -0.74505805969E-08  0.93827000000E+00  0.93827000000E+00 0.  1.
     999902    2    1    2    0    0  0.30814243071E-01  0.30127951019E-02  0.18503012840E-01  0.10078612324E+01  0.10072156213E+01 0.  0.
     999903    2    3    3    0    0  0.16109377698E-01 -0.11576461183E+00  0.17595098261E-01  0.11975925079E+00  0.19280385510E-01 0.  0.
         14    1    1    2    0    0 -0.30814243071E-01 -0.30127951019E-02 -0.18503012840E-01  0.36068767577E-01  0.00000000000E+00 0.  1.
     999901    1    3    3    0    0  0.14704865373E-01  0.11877740693E+00  0.90791457864E-03  0.88810198163E+00  0.88000000000E+00 0.  1.
        -11    1    4    4    0    0  0.13272161437E-01 -0.47852459611E-01  0.14416119467E-01  0.51711640677E-01  0.51100000000E-03 0.  1.
         11    1    4    4    0    0  0.28372162617E-02 -0.67912152221E-01  0.31789787940E-02  0.68047610117E-01  0.51100000000E-03 0. -1.
</event>
<event>
 8    1  0.1061721E+005  0.1043930E+01  0.7957747E-01            NaN
         13   -1    0    0    0    0  0.00000000000E+00  0.00000000000E+00  0.74505805969E-08  0.10566000000E+00  0.10566000000E+00 0.  1.
     999900   -1    0    0    0    0 -0.00000000000E+00 -0.00000000000E+00 -0.74505805969E-08  0.93827000000E+00  0.93827000000E+00 0. -1.
     999902    2    1    2    0    0  0.98253228942E-02  0.17209776246E-01 -0.12134164815E-01  0.10206931473E+01  0.10204286107E+01 0.  0.
     999903    2    3    3    0    0  0.83268655242E-01  0.95230530254E-01 -0.38766783396E-01  0.13379379702E+00  0.19884511272E-01 0.  0.
         14    1    1    2    0    0 -0.98253228942E-02 -0.17209776246E-01  0.12134164815E-01  0.23236852716E-01  0.00000000000E+00 0.  1.
     999901    1    3    3    0    0 -0.73443332348E-01 -0.78020754008E-01  0.26632618581E-01  0.88689935026E+00  0.88000000000E+00 0.  1.
        -11    1    4    4    0    0  0.46048955704E-01  0.54818321709E-01 -0.11695616606E-01  0.72543802528E-01  0.51100000000E-03 0. -1.
         11    1    4    4    0    0  0.37219699537E-01  0.40412208544E-01 -0.27071166790E-01  0.61249994494E-01  0.51100000000E-03 0.  1.
</event>
<event>
 8    1  0.1061721E+005  0.1043930E+01  0.7957747E-01            NaN
         13   -1    0    0    0    0  0.00000000000E+00  0.00000000000E+00  0.74505805969E-08  0.10566000000E+00  0.10566000000E+00 0.  1.
     999900   -1    0    0    0    0 -0.00000000000E+00 -0.00000000000E+00 -0.74505805969E-08  0.93827000000E+00  0.93827000000E+00 0. -1.
     999902    2    1    2    0    0  0.12815967979E-01 -0.44094981625E-02 -0.18591446155E-01  0.10209227277E+01  0.10206634515E+01 0.  0.
     999903    2    3    3    0    0  0.44235022280E-01 -0.11978639276E+00  0.25320089895E-01  0.13175052401E+00  0.20287349233E-01 0.  0.
         14    1    1    2    0    0 -0.12815967979E-01  0.44094981625E-02  0.18591446155E-01  0.23007272316E-01  0.00000000000E+00 0.  1.
     999901    1    3    3    0    0 -0.31419054301E-01  0.11537689460E+00 -0.43911536050E-01  0.88917220367E+00  0.88000000000E+00 0.  1.
        -11    1    4    4    0    0  0.17660854172E-01 -0.55656387582E-01  0.21499724299E-01  0.62225706220E-01  0.51100000000E-03 0.  1.
         11    1    4    4    0    0  0.26574168108E-01 -0.64130005180E-01  0.38203655962E-02  0.69524817794E-01  0.51100000000E-03 0. -1.
</event>
<event>
 8    1  0.1061721E+005  0.1043930E+01  0.7957747E-01            NaN
         13   -1    0    0    0    0  0.00000000000E+00  0.00000000000E+00  0.74505805969E-08  0.10566000000E+00  0.10566000000E+00 0. -1.
     999900   -1    0    0    0    0 -0.00000000000E+00 -0.00000000000E+00 -0.74505805969E-08  0.93827000000E+00  0.93827000000E+00 0. -1.
     999902    2    1    2    0    0 -0.17574494596E-02  0.13480973701E-01 -0.18539475820E-01  0.10209400578E+01  0.10206811765E+01 0.  0.
     999903    2    3    3    0    0 -0.70570006333E-01  0.11067929176E+00 -0.67952099279E-03  0.13273869602E+00  0.19724813113E-01 0.  0.
         14    1    1    2    0    0  0.17574494596E-02 -0.13480973701E-01  0.18539475820E-01  0.22989942240E-01  0.00000000000E+00 0. -1.
     999901    1    3    3    0    0  0.68812556873E-01 -0.97198318062E-01 -0.17859954827E-01  0.88820136174E+00  0.88000000000E+00 0.  1.
        -11    1    4    4    0    0 -0.25077501961E-01  0.26204524624E-01 -0.54088776760E-02  0.36675268153E-01  0.51100000000E-03 0. -1.
         11    1    4    4    0    0 -0.45492504372E-01  0.84474767139E-01  0.47293566832E-02  0.96063427863E-01  0.51100000000E-03 0.  1.
</event>
<event>
 8    1  0.1061721E+005  0.1043930E+01  0.7957747E-01            NaN
         13   -1    0    0    0    0  0.00000000000E+00  0.00000000000E+00  0.74505805969E-08  0.10566000000E+00  0.10566000000E+00 0.  1.
     999900   -1    0    0    0    0 -0.00000000000E+00 -0.00000000000E+00 -0.74505805969E-08  0.93827000000E+00  0.93827000000E+00 0. -1.
     999902    2    1    2    0    0 -0.22403791608E-01  0.52540636542E-02 -0.57414972205E-02  0.10202129206E+01  0.10199372057E+01 0.  0.
     999903    2    3    3    0    0  0.67060609399E-01  0.41167915616E-01 -0.10148169710E+00  0.12978612989E+00  0.18814410861E-01 0.  0.
         14    1    1    2    0    0  0.22403791608E-01 -0.52540636542E-02  0.57414972205E-02  0.23717079366E-01  0.00000000000E+00 0.  1.
     999901    1    3    3    0    0 -0.89464401007E-01 -0.35913851962E-01  0.95740199875E-01  0.89042679075E+00  0.88000000000E+00 0. -1.
        -11    1    4    4    0    0  0.37688255196E-01  0.20318085644E-01 -0.69405786508E-01  0.81551538954E-01  0.51100000000E-03 0. -1.
         11    1    4    4    0    0  0.29372354203E-01  0.20849829972E-01 -0.32075910588E-01  0.48234590932E-01  0.51100000000E-03 0.  1.
</event>
<event>
 8    1  0.1061721E+005  0.1043930E+01  0.7957747E-01            NaN
         13   -1    0    0    0    0  0.00000000000E+00  0.00000000000E+00  0.74505805969E-08  0.10566000000E+00  0.10566000000E+00 0. -1.
     999900   -1    0    0    0    0 -0.00000000000E+00 -0.00000000000E+00 -0.74505805969E-08  0.93827000000E+00  0.93827000000E+00 0. -1.
     999902    2    1    2    0    0  0.19069405896E-01  0.62555254075E-02 -0.12935010644E-01  0.10200534772E+01  0.10197739985E+01 0.  0.
     999903    2    3    3    0    0 -0.92485952854E-01  0.79594185593E-01  0.35406306491E-01  0.12867250363E+00  0.20349958140E-01 0.  0.
         14    1    1    2    0    0 -0.19069405896E-01 -0.62555254075E-02  0.12935010644E-01  0.23876522773E-01  0.00000000000E+00 0. -1.
     999901    1    3    3    0    0  0.11155535875E+00 -0.73338660186E-01 -0.48341317135E-01  0.89138097359E+00  0.88000000000E+00 0. -1.
        -11    1    4    4    0    0 -0.68143736872E-01  0.53128483314E-01  0.16237728249E-01  0.87921155325E-01  0.51100000000E-03 0.  1.
         11    1    4    4    0    0 -0.24342215982E-01  0.26465702279E-01  0.19168578242E-01  0.40751348308E-01  0.51100000000E-03 0. -1.
</event>
<event>
 8    1  0.1061721E+005  0.1043930E+01  0.7957747E-01            NaN
         13   -1    0    0    0    0  0.00000000000E+00  0.00000000000E+00  0.74505805969E-08  0.10566000000E+00  0.10566000000E+00 0. -1.
     999900   -1    0    0    0    0 -0.00000000000E+00 -0.00000000000E+00 -0.74505805969E-08  0.93827000000E+00  0.93827000000E+00 0.  1.
     999902    2    1    2    0    0  0.12993710816E-02 -0.20248306718E-01  0.99893314303E-02  0.10213143189E+01  0.10210638907E+01 0.  0.
     999903    2    3    3    0    0  0.11729002764E+00 -0.37340321148E-01 -0.43198618140E-01  0.13194660677E+00  0.19812527865E-01 0.  0.
         14    1    1    2    0    0 -0.12993710816E-02  0.20248306718E-01 -0.99893314303E-02  0.22615681121E-01  0.00000000000E+00 0.  1.
     999901    1    3    3    0    0 -0.11599065656E+00  0.17092014431E-01  0.53187949570E-01  0.88936771211E+00  0.88000000000E+00 0. -1.
        -11    1    4    4    0    0  0.24798397847E-01 -0.16417210468E-01 -0.80795626142E-02  0.30822488354E-01  0.51100000000E-03 0.  1.
         11    1    4    4    0    0  0.92491629796E-01 -0.20923110681E-01 -0.35119055526E-01  0.10112411841E+00  0.51100000000E-03 0. -1.
</event>
<event>
 8    1  0.1061721E+005  0.1043930E+01  0.7957747E-01            NaN
         13   -1    0    0    0    0  0.00000000000E+00  0.00000000000E+00  0.74505805969E-08  0.10566000000E+00  0.10566000000E+00 0. -1.
     999900   -1    0    0    0    0 -0.00000000000E+00 -0.00000000000E+00 -0.74505805969E-08  0.93827000000E+00  0.93827000000E+00 0.  1.
     999902    2    1    2    0    0 -0.21577468826E-01  0.61492949948E-02 -0.11855809248E-01  0.10185536093E+01  0.10182374448E+01 0.  0.
     999903    2    3    3    0    0 -0.81357001525E-01 -0.92764013903E-01 -0.38815960365E-01  0.13058723332E+00  0.17950564148E-01 0.  0.
         14    1    1    2    0    0  0.21577468826E-01 -0.61492949948E-02  0.11855809248E-01  0.25376390657E-01  0.00000000000E+00 0. -1.
     999901    1    3    3    0    0  0.59779532699E-01  0.98913308898E-01  0.26960151118E-01  0.88796637603E+00  0.88000000000E+00 0. -1.
        -11    1    4    4    0    0 -0.41369824645E-01 -0.52706147185E-01 -0.29548021637E-01  0.73230779362E-01  0.51100000000E-03 0.  1.
         11    1    4    4    0    0 -0.39987176880E-01 -0.40057866718E-01 -0.92679387284E-02  0.57356453954E-01  0.51100000000E-03 0. -1.
</event>
<event>
 8    1  0.1061721E+005  0.1043930E+01  0.7957747E-01            NaN
         13   -1    0    0    0    0  0.00000000000E+00  0.00000000000E+00  0.74505805969E-08  0.10566000000E+00  0.10566000000E+00 0.  1.
     999900   -1    0    0    0    0 -0.00000000000E+00 -0.00000000000E+00 -0.74505805969E-08  0.93827000000E+00  0.93827000000E+00 0.  1.
     999902    2    1    2    0    0  0.35265367247E-02 -0.13879343163E-01  0.18467434357E-01  0.10205608160E+01  0.10202932228E+01 0.  0.
     999903    2    3    3    0    0 -0.74537793341E-02 -0.85048658696E-01  0.10090384956E+00  0.13377933146E+00  0.20651622147E-01 0.  0.
         14    1    1    2    0    0 -0.35265367247E-02  0.13879343163E-01 -0.18467434357E-01  0.23369183974E-01  0.00000000000E+00 0. -1.
     999901    1    3    3    0    0  0.10980316059E-01  0.71169315533E-01 -0.82436415207E-01  0.88678148456E+00  0.88000000000E+00 0.  1.
        -11    1    4    4    0    0  0.88878454684E-03 -0.56428121324E-01  0.77516118633E-01  0.95884996653E-01  0.51100000000E-03 0.  1.
         11    1    4    4    0    0 -0.83425638810E-02 -0.28620537371E-01  0.23387730931E-01  0.37894334809E-01  0.51100000000E-03 0. -1.
</event>
<event>
 8    1  0.1061721E+005  0.1043930E+01  0.7957747E-01            NaN
         13   -1    0    0    0    0  0.00000000000E+00  0.00000000000E+00  0.74505805969E-08  0.10566000000E+00  0.10566000000E+00 0. -1.
     999900   -1    0    0    0    0 -0.00000000000E+00 -0.00000000000E+00 -0.74505805969E-08  0.93827000000E+00  0.93827000000E+00 0.  1.
     999902    2    1    2    0    0  0.15895308223E-01 -0.10724473330E-01 -0.29077043980E-02  0.10245359314E+01  0.10243523539E+01 0.  0.
     999903    2    3    3    0    0 -0.36639162052E-01  0.97040899868E-01  0.79521906685E-01  0.13258980803E+00  0.22292579642E-01 0.  0.
         14    1    1    2    0    0 -0.15895308223E-01  0.10724473330E-01  0.29077043980E-02  0.19394068593E-01  0.00000000000E+00 0.  1.
     999901    1    3    3    0    0  0.52534470275E-01 -0.10776537320E+00 -0.82429611083E-01  0.89194612338E+00  0.88000000000E+00 0. -1.
        -11    1    4    4    0    0 -0.25138617766E-01  0.79008370819E-01  0.52549769497E-01  0.98163191461E-01  0.51100000000E-03 0. -1.
         11    1    4    4    0    0 -0.11500544286E-01  0.18032529049E-01  0.26972137188E-01  0.34426616567E-01  0.51100000000E-03 0.  1.
</event>
<event>
 8    1  0.1061721E+005  0.1043930E+01  0.7957747E-01            NaN
         13   -1    0    0    0    0  0.00000000000E+00  0.00000000000E+00  0.74505805969E-08  0.10566000000E+00  0.10566000000E+00 0. -1.
     999900   -1    0    0    0    0 -0.00000000000E+00 -0.00000000000E+00 -0.74505805969E-08  0.93827000000E+00  0.93827000000E+00 0.  1.
     999902    2    1    2    0    0  0.11304569366E-01  0.14267223751E-01  0.14649492675E-01  0.10205643286E+01  0.10202968168E+01 0.  0.
     999903    2    3    3    0    0 -0.64936180717E-01 -0.44822911588E-01 -0.98716333330E-01  0.12806440900E+00  0.20731073703E-01 0.  0.
         14    1    1    2    0    0 -0.11304569366E-01 -0.14267223751E-01 -0.14649492675E-01  0.23365671352E-01  0.00000000000E+00 0.  1.
     999901    1    3    3    0    0  0.76240750082E-01  0.59090135339E-01  0.11336582600E+00  0.89249991965E+00  0.88000000000E+00 0. -1.
        -11    1    4    4    0    0 -0.11715706688E-01 -0.29001752264E-02 -0.26043652545E-01  0.28708914268E-01  0.51100000000E-03 0. -1.
         11    1    4    4    0    0 -0.53220474028E-01 -0.41922736361E-01 -0.72672680785E-01  0.99355494731E-01  0.51100000000E-03 0.  1.
</event>
<event>
 8    1  0.1061721E+005  0.1043930E+01  0.7957747E-01            NaN
         13   -1    0    0    0    0  0.00000000000E+00  0.00000000000E+00  0.74505805969E-08  0.10566000000E+00  0.10566000000E+00 0.  1.
     999900   -1    0    0    0    0 -0.00000000000E+00 -0.00000000000E+00 -0.74505805969E-08  0.93827000000E+00  0.93827000000E+00 0.  1.
     999902    2    1    2    0    0  0.93482225462E-02 -0.22949711793E-02  0.21726680052E-01  0.10201664821E+01  0.10198896736E+01 0.  0.
     999903    2    3    3    0    0 -0.25521451003E-01 -0.95331581676E-01  0.85693062174E-01  0.13226817537E+00  0.20300600623E-01 0.  0.
         14    1    1    2    0    0 -0.93482225462E-02  0.22949711793E-02 -0.21726680052E-01  0.23763517912E-01  0.00000000000E+00 0. -1.
     999901    1    3    3    0    0  0.34869673549E-01  0.93036610496E-01 -0.63966382122E-01  0.88789830672E+00  0.88000000000E+00 0.  1.
        -11    1    4    4    0    0 -0.15168529154E-01 -0.22211121495E-01  0.22494813830E-01  0.35067021045E-01  0.51100000000E-03 0. -1.
         11    1    4    4    0    0 -0.10352921849E-01 -0.73120460181E-01  0.63198248344E-01  0.97201154328E-01  0.51100000000E-03 0.  1.
</event>
<event>
 8    1  0.1061721E+005  0.1043930E+01  0.7957747E-01            NaN
         13   -1    0    0    0    0  0.00000000000E+00  0.00000000000E+00  0.74505805969E-08  0.10566000000E+00  0.10566000000E+00 0. -1.
     999900   -1    0    0    0    0 -0.00000000000E+00 -0.00000000000E+00 -0.74505805969E-08  0.93827000000E+00  0.93827000000E+00 0. -1.
     999902    2    1    2    0    0  0.19157181932E-01 -0.10500339809E-01 -0.44244386921E-03  0.10220793590E+01  0.10218457641E+01 0.  0.
     999903    2    3    3    0    0  0.12426259613E-01  0.12088220100E-01 -0.12940459032E+00  0.13236772955E+00  0.21797496107E-01 0.  0.
         14    1    1    2    0    0 -0.19157181932E-01  0.10500339809E-01  0.44244386921E-03  0.21850641003E-01  0.00000000000E+00 0.  1.
     999901    1    3    3    0    0  0.67309223184E-02 -0.22588559909E-01  0.12896214645E+00  0.88971162945E+00  0.88000000000E+00 0.  1.
        -11    1    4    4    0    0 -0.45002815596E-02  0.47801006330E-02 -0.13677928862E-01  0.15180538697E-01  0.51100000000E-03 0.  1.
         11    1    4    4    0    0  0.16926541173E-01  0.73081194667E-02 -0.11572666146E+00  0.11718719085E+00  0.51100000000E-03 0. -1.
</event>
<event>
 8    1  0.1061721E+005  0.1043930E+01  0.7957747E-01            NaN
         13   -1    0    0    0    0  0.00000000000E+00  0.00000000000E+00  0.74505805969E-08  0.10566000000E+00  0.10566000000E+00 0. -1.
     999900   -1    0    0    0    0 -0.00000000000E+00 -0.00000000000E+00 -0.74505805969E-08  0.93827000000E+00  0.93827000000E+00 0. -1.
     999902    2    1    2    0    0 -0.10692881174E-01 -0.21699148939E-01 -0.84943968196E-04  0.10197391342E+01  0.10194521587E+01 0.  0.
     999903    2    3    3    0    0  0.55614415589E-01  0.93870662178E-01  0.62693626640E-01  0.12749803014E+00  0.20508350258E-01 0.  0.
         14    1    1    2    0    0  0.10692881174E-01  0.21699148939E-01  0.84943968196E-04  0.24190865796E-01  0.00000000000E+00 0.  1.
     999901    1    3    3    0    0 -0.66307296762E-01 -0.11556981112E+00 -0.62778570608E-01  0.89224110406E+00  0.88000000000E+00 0. -1.
        -11    1    4    4    0    0  0.15550248414E-01  0.36152350501E-01  0.32419289335E-01  0.50990921883E-01  0.51100000000E-03 0. -1.
         11    1    4    4    0    0  0.40064167174E-01  0.57718311677E-01  0.30274337306E-01  0.76507108261E-01  0.51100000000E-03 0.  1.
</event>
<event>
 8    1  0.1061721E+005  0.1043930E+01  0.7957747E-01            NaN
         13   -1    0    0    0    0  0.00000000000E+00  0.00000000000E+00  0.74505805969E-08  0.10566000000E+00  0.10566000000E+00 0. -1.
     999900   -1    0    0    0    0 -0.00000000000E+00 -0.00000000000E+00 -0.74505805969E-08  0.93827000000E+00  0.93827000000E+00 0. -1.
     999902    2    1    2    0    0  0.53692719230E-02  0.16459388735E-01 -0.16707934492E-01  0.10198697499E+01  0.10195859018E+01 0.  0.
     999903    2    3    3    0    0  0.37613644203E-01  0.61081247942E-01  0.10670701802E+00  0.12955404167E+00  0.15879450209E-01 0.  0.
         14    1    1    2    0    0 -0.53692719230E-02 -0.16459388735E-01  0.16707934492E-01  0.24060250072E-01  0.00000000000E+00 0. -1.
     999901    1    3    3    0    0 -0.32244372280E-01 -0.44621859207E-01 -0.12341495251E+00  0.89031570826E+00  0.88000000000E+00 0. -1.
        -11    1    4    4    0    0  0.37004123855E-01  0.60590184842E-01  0.99201109069E-01  0.12199015060E+00  0.51100000000E-03 0. -1.
         11    1    4    4    0    0  0.60952034737E-03  0.49106309988E-03  0.75059089503E-02  0.75638910748E-02  0.51100000000E-03 0.  1.
</event>
<event>
 8    1  0.1061721E+005  0.1043930E+01  0.7957747E-01            NaN
         13   -1    0    0    0    0  0.00000000000E+00  0.00000000000E+00  0.74505805969E-08  0.10566000000E+00  0.10566000000E+00 0.  1.
     999900   -1    0    0    0    0 -0.00000000000E+00 -0.00000000000E+00 -0.74505805969E-08  0.93827000000E+00  0.93827000000E+00 0. -1.
     999902    2    1    2    0    0  0.14834342160E-01  0.15073636882E-01  0.89675817187E-02  0.10209585012E+01  0.10207000399E+01 0.  0.
     999903    2    3    3    0    0 -0.50507995640E-01 -0.57181338430E-01 -0.10272005169E+00  0.12856591379E+00  0.12530845210E-01 0.  0.
         14    1    1    2    0    0 -0.14834342160E-01 -0.15073636882E-01 -0.89675817187E-02  0.22971498820E-01  0.00000000000E+00 0. -1.
     999901    1    3    3    0    0  0.65342337800E-01  0.72254975312E-01  0.11168763341E+00  0.89239258739E+00  0.88000000000E+00 0.  1.
        -11    1    4    4    0    0 -0.25449140845E-01 -0.36686863099E-01 -0.54018786353E-01  0.70084770769E-01  0.51100000000E-03 0. -1.
         11    1    4    4    0    0 -0.25058854795E-01 -0.20494475331E-01 -0.48701265338E-01  0.58481143023E-01  0.51100000000E-03 0.  1.
</event>
<event>
 8    1  0.1061721E+005  0.1043930E+01  0.7957747E-01            NaN
         13   -1    0    0    0    0  0.00000000000E+00  0.00000000000E+00  0.74505805969E-08  0.10566000000E+00  0.10566000000E+00 0. -1.
     999900   -1    0    0    0    0 -0.00000000000E+00 -0.00000000000E+00 -0.74505805969E-08  0.93827000000E+00  0.93827000000E+00 0.  1.
     999902    2    1    2    0    0 -0.17282462818E-01  0.97629748569E-02  0.12880486771E-01  0.10202676641E+01  0.10199932354E+01 0.  0.
     999903    2    3    3    0    0 -0.11246671872E+00  0.64291987169E-01  0.25097578142E-01  0.13337267989E+00  0.19394867355E-01 0.  0.
         14    1    1    2    0    0  0.17282462818E-01 -0.97629748569E-02 -0.12880486771E-01  0.23662335865E-01  0.00000000000E+00 0.  1.
     999901    1    3    3    0    0  0.95184255899E-01 -0.54529012312E-01 -0.12217091371E-01  0.88689498424E+00  0.88000000000E+00 0.  1.
        -11    1    4    4    0    0 -0.12670575764E-01  0.10582837667E-02  0.75850058049E-03  0.12747544816E-01  0.51100000000E-03 0. -1.
         11    1    4    4    0    0 -0.99796142953E-01  0.63233703402E-01  0.24339077561E-01  0.12062513508E+00  0.51100000000E-03 0.  1.
</event>
<event>
 8    1  0.1061721E+005  0.1043930E+01  0.7957747E-01            NaN
         13   -1    0    0    0    0  0.00000000000E+00  0.00000000000E+00  0.74505805969E-08  0.10566000000E+00  0.10566000000E+00 0.  1.
     999900   -1    0    0    0    0 -0.00000000000E+00 -0.00000000000E+00 -0.74505805969E-08  0.93827000000E+00  0.93827000000E+00 0.  1.
     999902    2    1    2    0    0 -0.84869824882E-03  0.11914672740E-01  0.18925365086E-01  0.10215503405E+01  0.10213051694E+01 0.  0.
     999903    2    3    3    0    0 -0.11919071008E+00 -0.46159327629E-01  0.24614778894E-01  0.13171339437E+00  0.20135094240E-01 0.  0.
         14    1    1    2    0    0  0.84869824882E-03 -0.11914672740E-01 -0.18925365086E-01  0.22379659490E-01  0.00000000000E+00 0. -1.
     999901    1    3    3    0    0  0.11834201183E+00  0.58074000370E-01 -0.56894138076E-02  0.88983694614E+00  0.88000000000E+00 0. -1.
        -11    1    4    4    0    0 -0.49756647848E-01 -0.29492047875E-01  0.14086136384E-01  0.59533060161E-01  0.51100000000E-03 0. -1.
         11    1    4    4    0    0 -0.69434062234E-01 -0.16667279754E-01  0.10528642510E-01  0.72180334211E-01  0.51100000000E-03 0.  1.
</event>
<event>
 8    1  0.1061721E+005  0.1043930E+01  0.7957747E-01            NaN
         13   -1    0    0    0    0  0.00000000000E+00  0.00000000000E+00  0.74505805969E-08  0.10566000000E+00  0.10566000000E+00 0.  1.
     999900   -1    0    0    0    0 -0.00000000000E+00 -0.00000000000E+00 -0.74505805969E-08  0.93827000000E+00  0.93827000000E+00 0. -1.
     999902    2    1    2    0    0 -0.79577117130E-02  0.21277505703E-01 -0.22761194341E-02  0.10210993595E+01  0.10208440938E+01 0.  0.
     999903    2    3    3    0    0  0.97305633024E-01 -0.46012421020E-01 -0.70480159117E-01  0.12966226303E+00  0.16103431898E-01 0.  0.
         14    1    1    2    0    0  0.79577117130E-02 -0.21277505703E-01  0.22761194341E-02  0.22830640471E-01  0.00000000000E+00 0.  1.
     999901    1    3    3    0    0 -0.10526334474E+00  0.67289926723E-01  0.68204039683E-01  0.89143709650E+00  0.88000000000E+00 0.  1.
        -11    1    4    4    0    0  0.69493962461E-01 -0.34125725663E-01 -0.41837039532E-01  0.88003266805E-01  0.51100000000E-03 0. -1.
         11    1    4    4    0    0  0.27811670563E-01 -0.11886695357E-01 -0.28643119585E-01  0.41658996226E-01  0.51100000000E-03 0.  1.
</event>
<event>
 8    1  0.1061721E+005  0.1043930E+01  0.7957747E-01            NaN
         13   -1    0    0    0    0  0.00000000000E+00  0.00000000000E+00  0.74505805969E-08  0.10566000000E+00  0.10566000000E+00 0. -1.
     999900   -1    0    0    0    0 -0.00000000000E+00 -0.00000000000E+00 -0.74505805969E-08  0.93827000000E+00  0.93827000000E+00 0.  1.
     999902    2    1    2    0    0 -0.13227044117E-01 -0.15923995804E-01  0.99544428147E-02  0.10209600355E+01  0.10207016091E+01 0.  0.
     999903    2    3    3    0    0  0.54812324588E-01 -0.56451942748E-01 -0.10203770092E+00  0.13033435067E+00  0.19599433371E-01 0.  0.
         14    1    1    2    0    0  0.13227044117E-01  0.15923995804E-01 -0.99544428147E-02  0.22969964523E-01  0.00000000000E+00 0.  1.
     999901    1    3    3    0    0 -0.68039368705E-01  0.40527946944E-01  0.11199214374E+00  0.89062568481E+00  0.88000000000E+00 0. -1.
        -11    1    4    4    0    0  0.42631916396E-01 -0.39168836820E-01 -0.86512144931E-01  0.10409750436E+00  0.51100000000E-03 0.  1.
         11    1    4    4    0    0  0.12180408192E-01 -0.17283105928E-01 -0.15525555992E-01  0.26236846306E-01  0.51100000000E-03 0. -1.
</event>
<event>
 8    1  0.1061721E+005  0.1043930E+01  0.7957747E-01            NaN
         13   -1    0    0    0    0  0.00000000000E+00  0.00000000000E+00  0.74505805969E-08  0.10566000000E+00  0.10566000000E+00 0.  1.
     999900   -1    0    0    0    0 -0.00000000000E+00 -0.00000000000E+00 -0.74505805969E-08  0.93827000000E+00  0.93827000000E+00 0. -1.
     999902    2    1    2    0    0 -0.21958908141E-02  0.22849561185E-01 -0.56382840605E-02  0.10202928549E+01  0.10200190170E+01 0.  0.
     999903    2    3    3    0    0  0.90905877379E-01  0.90744276618E-01  0.24472007113E-01  0.13227018553E+00  0.19952958857E-01 0.  0.
         14    1    1    2    0    0  0.21958908141E-02 -0.22849561185E-01  0.56382840605E-02  0.23637145132E-01  0.00000000000E+00 0.  1.
     999901    1    3    3    0    0 -0.93101768193E-01 -0.67894715432E-01 -0.30110291174E-01  0.88802266934E+00  0.88000000000E+00 0. -1.
        -11    1    4    4    0    0  0.29762866051E-01  0.23082239605E-01  0.15140932630E-01  0.40597129734E-01  0.51100000000E-03 0. -1.
         11    1    4    4    0    0  0.61143011327E-01  0.67662037013E-01  0.93310744834E-02  0.91673055796E-01  0.51100000000E-03 0.  1.
</event>
<event>
 8    1  0.1061721E+005  0.1043930E+01  0.7957747E-01            NaN
         13   -1    0    0    0    0  0.00000000000E+00  0.00000000000E+00  0.74505805969E-08  0.10566000000E+00  0.10566000000E+00 0.  1.
     999900   -1    0    0    0    0 -0.00000000000E+00 -0.00000000000E+00 -0.74505805969E-08  0.93827000000E+00  0.93827000000E+00 0.  1.
     999902    2    1    2    0    0 -0.13098542378E-01 -0.15567535338E-01  0.28223246413E-02  0.10233901488E+01  0.10231840066E+01 0.  0.
     999903    2    3    3    0    0  0.12463828846E+00 -0.14054801136E-01  0.36041205798E-01  0.13205563420E+00  0.20186174090E-01 0.  0.
         14    1    1    2    0    0  0.13098542378E-01  0.15567535338E-01 -0.28223246413E-02  0.20539851151E-01  0.00000000000E+00 0.  1.
     999901    1    3    3    0    0 -0.13773683084E+00 -0.15127342016E-02 -0.33218881156E-01  0.89133451465E+00  0.88000000000E+00 0.  1.
        -11    1    4    4    0    0  0.69460198403E-01  0.19007918560E-02  0.22501699055E-01  0.73040535001E-01  0.51100000000E-03 0. -1.
         11    1    4    4    0    0  0.55178090056E-01 -0.15955592993E-01  0.13539506742E-01  0.59015099202E-01  0.51100000000E-03 0.  1.
</event>
<event>
 8    1  0.1061721E+005  0.1043930E+01  0.7957747E-01            NaN
         13   -1    0    0    0    0  0.00000000000E+00  0.00000000000E+00  0.74505805969E-08  0.10566000000E+00  0.10566000000E+00 0. -1.
     999900   -1    0    0    0    0 -0.00000000000E+00 -0.00000000000E+00 -0.74505805969E-08  0.93827000000E+00  0.93827000000E+00 0.  1.
     999902    2    1    2    0    0 -0.16810386078E-01 -0.14642331505E-01 -0.12919169385E-01  0.10181639004E+01  0.10178378241E+01 0.  0.
     999903    2    3    3    0    0 -0.10656173852E+00  0.48697443912E-01 -0.53902099900E-01  0.13038755861E+00  0.19199841306E-01 0.  0.
         14    1    1    2    0    0  0.16810386078E-01  0.14642331505E-01  0.12919169385E-01  0.25766099619E-01  0.00000000000E+00 0. -1.
     999901    1    3    3    0    0  0.89751352444E-01 -0.63339775417E-01  0.40982930515E-01  0.88777634177E+00  0.88000000000E+00 0.  1.
        -11    1    4    4    0    0 -0.69979716777E-01  0.24324141543E-01 -0.40466461905E-01  0.84419312258E-01  0.51100000000E-03 0.  1.
         11    1    4    4    0    0 -0.36582021745E-01  0.24373302369E-01 -0.13435637995E-01  0.45968246351E-01  0.51100000000E-03 0. -1.
</event>
<event>
 8    1  0.1061721E+005  0.1043930E+01  0.7957747E-01            NaN
         13   -1    0    0    0    0  0.00000000000E+00  0.00000000000E+00  0.74505805969E-08  0.10566000000E+00  0.10566000000E+00 0. -1.
     999900   -1    0    0    0    0 -0.00000000000E+00 -0.00000000000E+00 -0.74505805969E-08  0.93827000000E+00  0.93827000000E+00 0. -1.
     999902    2    1    2    0    0  0.87068876752E-02 -0.16108893437E-01 -0.13732075315E-01  0.10210416573E+01  0.10207850849E+01 0.  0.
     999903    2    3    3    0    0 -0.35729336913E-01 -0.24141354533E-01  0.12069992262E+00  0.12968815805E+00  0.19777676869E-01 0.  0.
         14    1    1    2    0    0 -0.87068876752E-02  0.16108893437E-01  0.13732075315E-01  0.22888342737E-01  0.00000000000E+00 0. -1.
     999901    1    3    3    0    0  0.44436224589E-01  0.80324610953E-02 -0.13443199794E+00  0.89135349921E+00  0.88000000000E+00 0. -1.
        -11    1    4    4    0    0 -0.34873881163E-01 -0.17231905401E-01  0.11181310015E+00  0.11838731620E+00  0.51100000000E-03 0.  1.
         11    1    4    4    0    0 -0.85545575077E-03 -0.69094491317E-02  0.88868224747E-02  0.11300841851E-01  0.51100000000E-03 0. -1.
</event>
<event>
 8    1  0.1061721E+005  0.1043930E+01  0.7957747E-01            NaN
         13   -1    0    0    0    0  0.00000000000E+00  0.00000000000E+00  0.74505805969E-08  0.10566000000E+00  0.10566000000E+00 0. -1.
     999900   -1    0    0    0    0 -0.00000000000E+00 -0.00000000000E+00 -0.74505805969E-08  0.93827000000E+00  0.93827000000E+00 0.  1.
     999902    2    1    2    0    0  0.20690096697E-01 -0.54257282842E-02  0.95043374948E-02  0.10205237816E+01  0.10202553297E+01 0.  0.
     999903    2    3    3    0    0 -0.10708246138E+00  0.64180356358E-01 -0.14330477648E-01  0.12825760381E+00  0.25668631975E-01 0.  0.
         14    1    1    2    0    0 -0.20690096697E-01  0.54257282842E-02 -0.95043374948E-02  0.23406218404E-01  0.00000000000E+00 0.  1.
     999901    1    3    3    0    0  0.12777255807E+00 -0.69606084643E-01  0.23834815142E-01  0.89226617779E+00  0.88000000000E+00 0. -1.
        -11    1    4    4    0    0 -0.28443330044E-01  0.31065849424E-01 -0.43388900306E-02  0.42346158174E-01  0.51100000000E-03 0.  1.
         11    1    4    4    0    0 -0.78639131334E-01  0.33114506934E-01 -0.99915876169E-02  0.85911445632E-01  0.51100000000E-03 0. -1.
</event>
<event>
 8    1  0.1061721E+005  0.1043930E+01  0.7957747E-01            NaN
         13   -1    0    0    0    0  0.00000000000E+00  0.00000000000E+00  0.74505805969E-08  0.10566000000E+00  0.10566000000E+00 0.  1.
     999900   -1    0    0    0    0 -0.00000000000E+00 -0.00000000000E+00 -0.74505805969E-08  0.93827000000E+00  0.93827000000E+00 0.  1.
     999902    2    1    2    0    0  0.19517355100E-01  0.75860280140E-02  0.11205239108E-01  0.10201806346E+01  0.10199041597E+01 0.  0.
     999903    2    3    3    0    0 -0.12446047998E+00  0.48318914018E-02 -0.20918922574E-01  0.12789751589E+00  0.20159737041E-01 0.  0.
         14    1    1    2    0    0 -0.19517355100E-01 -0.75860280140E-02 -0.11205239108E-01  0.23749365351E-01  0.00000000000E+00 0. -1.
     999901    1    3    3    0    0  0.14397783508E+00  0.27541366122E-02  0.32124161682E-01  0.89228311876E+00  0.88000000000E+00 0. -1.
        -11    1    4    4    0    0 -0.68815488246E-01 -0.31000484813E-02 -0.19801332117E-01  0.71676604257E-01  0.51100000000E-03 0.  1.
         11    1    4    4    0    0 -0.55644991733E-01  0.79319398831E-02 -0.11175904575E-02  0.56220911631E-01  0.51100000000E-03 0. -1.
</event>
<event>
 8    1  0.1061721E+005  0.1043930E+01  0.7957747E-01            NaN
         13   -1    0    0    0    0  0.00000000000E+00  0.00000000000E+00  0.74505805969E-08  0.10566000000E+00  0.10566000000E+00 0.  1.
     999900   -1    0    0    0    0 -0.00000000000E+00 -0.00000000000E+00 -0.74505805969E-08  0.93827000000E+00  0.93827000000E+00 0.  1.
     999902    2    1    2    0    0  0.43281463588E-02 -0.13864771503E-01  0.22170348205E-01  0.10174254895E+01  0.10170802021E+01 0.  0.
     999903    2    3    3    0    0  0.12186773108E+00  0.28420582124E-01  0.21231350508E-01  0.12860352369E+00  0.20703204896E-01 0.  0.
         14    1    1    2    0    0 -0.43281463588E-02  0.13864771503E-01 -0.22170348205E-01  0.26504510546E-01  0.00000000000E+00 0. -1.
     999901    1    3    3    0    0 -0.11753958473E+00 -0.42285353628E-01  0.93899769698E-03  0.88882196576E+00  0.88000000000E+00 0.  1.
        -11    1    4    4    0    0  0.25093844963E-01  0.13702425301E-01  0.88594409752E-02  0.29936738793E-01  0.51100000000E-03 0.  1.
         11    1    4    4    0    0  0.96773886122E-01  0.14718156824E-01  0.12371909533E-01  0.98666784897E-01  0.51100000000E-03 0. -1.
</event>
<event>
 8    1  0.1061721E+005  0.1043930E+01  0.7957747E-01            NaN
         13   -1    0    0    0    0  0.00000000000E+00  0.00000000000E+00  0.74505805969E-08  0.10566000000E+00  0.10566000000E+00 0.  1.
     999900   -1    0    0    0    0 -0.00000000000E+00 -0.00000000000E+00 -0.74505805969E-08  0.93827000000E+00  0.93827000000E+00 0. -1.
     999902    2    1    2    0    0 -0.29447025125E-02  0.20370128457E-02 -0.22709843388E-01  0.10209396176E+01  0.10206807264E+01 0.  0.
     999903    2    3    3    0    0  0.83923030172E-01  0.23546764816E-01 -0.98577934683E-01  0.13315324712E+00  0.20363027412E-01 0.  0.
         14    1    1    2    0    0  0.29447025125E-02 -0.20370128457E-02  0.22709843388E-01  0.22990382357E-01  0.00000000000E+00 0.  1.
     999901    1    3    3    0    0 -0.86867732684E-01 -0.21509751970E-01  0.75868091296E-01  0.88778637052E+00  0.88000000000E+00 0.  1.
        -11    1    4    4    0    0  0.42194295415E-01  0.19283701399E-02 -0.51840539672E-01  0.66871367950E-01  0.51100000000E-03 0. -1.
         11    1    4    4    0    0  0.41728734757E-01  0.21618394676E-01 -0.46737395011E-01  0.66281879169E-01  0.51100000000E-03 0.  1.
</event>
<event>
 8    1  0.1061721E+005  0.1043930E+01  0.7957747E-01            NaN
         13   -1    0    0    0    0  0.00000000000E+00  0.00000000000E+00  0.74505805969E-08  0.10566000000E+00  0.10566000000E+00 0.  1.
     999900   -1    0    0    0    0 -0.00000000000E+00 -0.00000000000E+00 -0.74505805969E-08  0.93827000000E+00  0.93827000000E+00 0. -1.
     999902    2    1    2    0    0 -0.48718725061E-02 -0.22949733029E-01 -0.38526464518E-02  0.10201546289E+01  0.10198775409E+01 0.  0.
     999903    2    3    3    0    0  0.75815479319E-01 -0.95534268518E-01  0.46467436605E-01  0.13206056048E+00  0.20149084482E-01 0.  0.
         14    1    1    2    0    0  0.48718725061E-02  0.22949733029E-01  0.38526464518E-02  0.23775371133E-01  0.00000000000E+00 0.  1.
     999901    1    3    3    0    0 -0.80687351825E-01  0.72584535489E-01 -0.50320083056E-01  0.88809406838E+00  0.88000000000E+00 0. -1.
        -11    1    4    4    0    0  0.24316374497E-01 -0.33136076818E-01  0.58111138653E-02  0.41512839230E-01  0.51100000000E-03 0.  1.
         11    1    4    4    0    0  0.51499104821E-01 -0.62398191700E-01  0.40656322739E-01  0.90547721255E-01  0.51100000000E-03 0. -1.
</event>
<event>
 8    1  0.1061721E+005  0.1043930E+01  0.7957747E-01            NaN
         13   -1    0    0    0    0  0.00000000000E+00  0.00000000000E+00  0.74505805969E-08  0.10566000000E+00  0.10566000000E+00 0. -1.
     999900   -1    0    0    0    0 -0.00000000000E+00 -0.00000000000E+00 -0.74505805969E-08  0.93827000000E+00  0.93827000000E+00 0. -1.
     999902    2    1    2    0    0  0.22954675677E-01  0.39842914476E-02  0.10378506885E-02  0.10206090041E+01  0.10203425261E+01 0.  0.
     999903    2    3    3    0    0  0.41600159380E-01 -0.12187845702E+00 -0.11424497934E-01  0.13137090574E+00  0.23299445822E-01 0.  0.
         14    1    1    2    0    0 -0.22954675677E-01 -0.39842914476E-02 -0.10378506885E-02  0.23320995858E-01  0.00000000000E+00 0. -1.
     999901    1    3    3    0    0 -0.18645483703E-01  0.12586274847E+00  0.12462348622E-01  0.88923809840E+00  0.88000000000E+00 0.  1.
        -11    1    4    4    0    0  0.34597329255E-01 -0.10334076739E+00 -0.18062131817E-01  0.11046624427E+00  0.51100000000E-03 0. -1.
         11    1    4    4    0    0  0.70028301249E-02 -0.18537689633E-01  0.66376338828E-02  0.20904661471E-01  0.51100000000E-03 0.  1.
</event>
<event>
 8    1  0.1061721E+005  0.1043930E+01  0.7957747E-01            NaN
         13   -1    0    0    0    0  0.00000000000E+00  0.00000000000E+00  0.74505805969E-08  0.10566000000E+00  0.10566000000E+00 0. -1.
     999900   -1    0    0    0    0 -0.00000000000E+00 -0.00000000000E+00 -0.74505805969E-08  0.93827000000E+00  0.93827000000E+00 0.  1.
     999902    2    1    2    0    0  0.14578997150E-02  0.11204563311E-01 -0.21847949851E-01  0.10193332396E+01  0.10190364334E+01 0.  0.
     999903    2    3    3    0    0 -0.15552006952E-01 -0.96194097166E-01  0.78853031013E-01  0.12694067084E+00  0.20024089561E-01 0.  0.
         14    1    1    2    0    0 -0.14578997150E-02 -0.11204563311E-01  0.21847949851E-01  0.24596760422E-01  0.00000000000E+00 0. -1.
     999901    1    3    3    0    0  0.17009906667E-01  0.10739866048E+00 -0.10070098086E+00  0.89239256874E+00  0.88000000000E+00 0.  1.
        -11    1    4    4    0    0 -0.80382546506E-02 -0.43532520196E-01  0.23315406477E-01  0.50035618840E-01  0.51100000000E-03 0.  1.
         11    1    4    4    0    0 -0.75137523015E-02 -0.52661576969E-01  0.55537624536E-01  0.76905051997E-01  0.51100000000E-03 0. -1.
</event>
<event>
 8    1  0.1061721E+005  0.1043930E+01  0.7957747E-01            NaN
         13   -1    0    0    0    0  0.00000000000E+00  0.00000000000E+00  0.74505805969E-08  0.10566000000E+00  0.10566000000E+00 0.  1.
     999900   -1    0    0    0    0 -0.00000000000E+00 -0.00000000000E+00 -0.74505805969E-08  0.93827000000E+00  0.93827000000E+00 0.  1.
     999902    2    1    2    0    0  0.11579652287E-01 -0.42157414792E-02 -0.20556230313E-01  0.10199629512E+01  0.10196813239E+01 0.  0.
     999903    2    3    3    0    0 -0.70804614866E-01  0.51804258398E-01  0.89904805736E-01  0.12747931082E+00  0.21705435244E-01 0.  0.
         14    1    1    2    0    0 -0.11579652287E-01  0.42157414792E-02  0.20556230313E-01  0.23967048796E-01  0.00000000000E+00 0.  1.
     999901    1    3    3    0    0  0.82384267153E-01 -0.56019999877E-01 -0.11046103605E+00  0.89248364038E+00  0.88000000000E+00 0.  1.
        -11    1    4    4    0    0 -0.19147045891E-01  0.20480910106E-01  0.41398328541E-01  0.50001597696E-01  0.51100000000E-03 0.  1.
         11    1    4    4    0    0 -0.51657568976E-01  0.31323348291E-01  0.48506477195E-01  0.77477713128E-01  0.51100000000E-03 0. -1.
</event>
<event>
 8    1  0.1061721E+005  0.1043930E+01  0.7957747E-01            NaN
         13   -1    0    0    0    0  0.00000000000E+00  0.00000000000E+00  0.74505805969E-08  0.10566000000E+00  0.10566000000E+00 0. -1.
     999900   -1    0    0    0    0 -0.00000000000E+00 -0.00000000000E+00 -0.74505805969E-08  0.93827000000E+00  0.93827000000E+00 0.  1.
     999902    2    1    2    0    0 -0.55134073799E-02  0.56508548252E-02  0.21912233267E-01  0.10206388904E+01  0.10203731027E+01 0.  0.
     999903    2    3    3    0    0  0.33080382317E-01 -0.11137255371E+00  0.57784526965E-01  0.13132973141E+00  0.20255601261E-01 0.  0.
         14    1    1    2    0    0  0.55134073799E-02 -0.56508548252E-02 -0.21912233267E-01  0.23291109633E-01  0.00000000000E+00 0.  1.
     999901    1    3    3    0    0 -0.38593789697E-01  0.11702340853E+00 -0.35872293698E-01  0.88930915896E+00  0.88000000000E+00 0.  1.
        -11    1    4    4    0    0  0.15278225782E-01 -0.42736940450E-01  0.33371016599E-01  0.56336099722E-01  0.51100000000E-03 0.  1.
         11    1    4    4    0    0  0.17802156535E-01 -0.68635613258E-01  0.24413510366E-01  0.74993631690E-01  0.51100000000E-03 0. -1.
</event>
<event>
 8    1  0.1061721E+005  0.1043930E+01  0.7957747E-01            NaN
         13   -1    0    0    0    0  0.00000000000E+00  0.00000000000E+00  0.74505805969E-08  0.10566000000E+00  0.10566000000E+00 0. -1.
     999900   -1    0    0    0    0 -0.00000000000E+00 -0.00000000000E+00 -0.74505805969E-08  0.93827000000E+00  0.93827000000E+00 0.  1.
     999902    2    1    2    0    0  0.92445574029E-02 -0.59642771950E-02 -0.21823522669E-01  0.10194902663E+01  0.10191972834E+01 0.  0.
     999903    2    3    3    0    0 -0.25044914937E-01 -0.53613496012E-01 -0.11715090896E+00  0.13239752784E+00  0.17410203567E-01 0.  0.
         14    1    1    2    0    0 -0.92445574029E-02  0.59642771950E-02  0.21823522669E-01  0.24439733749E-01  0.00000000000E+00 0. -1.
     999901    1    3    3    0    0  0.34289472340E-01  0.47649218817E-01  0.95327386293E-01  0.88709273841E+00  0.88000000000E+00 0. -1.
        -11    1    4    4    0    0 -0.25924046786E-01 -0.40169699936E-01 -0.84800002860E-01  0.97349692351E-01  0.51100000000E-03 0.  1.
         11    1    4    4    0    0  0.87913184969E-03 -0.13443796076E-01 -0.32350906102E-01  0.35047835487E-01  0.51100000000E-03 0. -1.
</event>
<event>
 8    1  0.1061721E+005  0.1043930E+01  0.7957747E-01            NaN
         13   -1    0    0    0    0  0.00000000000E+00  0.00000000000E+00  0.74505805969E-08  0.10566000000E+00  0.10566000000E+00 0.  1.
     999900   -1    0    0    0    0 -0.00000000000E+00 -0.00000000000E+00 -0.74505805969E-08  0.93827000000E+00  0.93827000000E+00 0. -1.
     999902    2    1    2    0    0  0.16561445296E-01  0.61903015935E-02  0.14960775578E-01  0.10207691254E+01  0.10205063358E+01 0.  0.
     999903    2    3    3    0    0  0.84425242580E-01  0.97072341701E-01  0.27212633377E-01  0.13340496784E+00  0.22487705970E-01 0.  0.
         14    1    1    2    0    0 -0.16561445296E-01 -0.61903015935E-02 -0.14960775578E-01  0.23160874552E-01  0.00000000000E+00 0. -1.
     999901    1    3    3    0    0 -0.67863797285E-01 -0.90882040108E-01 -0.12251857799E-01  0.88736415761E+00  0.88000000000E+00 0.  1.
        -11    1    4    4    0    0  0.48159359990E-01  0.45872263176E-01  0.23532212672E-01  0.70552212140E-01  0.51100000000E-03 0. -1.
         11    1    4    4    0    0  0.36265882590E-01  0.51200078525E-01  0.36804207053E-02  0.62852755696E-01  0.51100000000E-03 0.  1.
</event>
<event>
 8    1  0.1061721E+005  0.1043930E+01  0.7957747E-01            NaN
         13   -1    0    0    0    0  0.00000000000E+00  0.00000000000E+00  0.74505805969E-08  0.10566000000E+00  0.10566000000E+00 0. -1.
     999900   -1    0    0    0    0 -0.00000000000E+00 -0.00000000000E+00 -0.74505805969E-08  0.93827000000E+00  0.93827000000E+00 0.  1.
     999902    2    1    2    0    0  0.17063430056E-02 -0.23285698971E-01 -0.50149633539E-02  0.10200493543E+01  0.10197697779E+01 0.  0.
     999903    2    3    3    0    0  0.26984111299E-01  0.63664961307E-01  0.10627869631E+00  0.12842966989E+00  0.20436468822E-01 0.  0.
         14    1    1    2    0    0 -0.17063430056E-02  0.23285698971E-01  0.50149633539E-02  0.23880645729E-01  0.00000000000E+00 0. -1.
     999901    1    3    3    0    0 -0.25277768293E-01 -0.86950660278E-01 -0.11129365966E+00  0.89161968438E+00  0.88000000000E+00 0.  1.
        -11    1    4    4    0    0  0.11866601629E-01  0.18301857393E-01  0.50168000147E-01  0.54707070639E-01  0.51100000000E-03 0.  1.
         11    1    4    4    0    0  0.15117509670E-01  0.45363103914E-01  0.56110696164E-01  0.73722599251E-01  0.51100000000E-03 0. -1.
</event>
<event>
 8    1  0.1061721E+005  0.1043930E+01  0.7957747E-01            NaN
         13   -1    0    0    0    0  0.00000000000E+00  0.00000000000E+00  0.74505805969E-08  0.10566000000E+00  0.10566000000E+00 0.  1.
     999900   -1    0    0    0    0 -0.00000000000E+00 -0.00000000000E+00 -0.74505805969E-08  0.93827000000E+00  0.93827000000E+00 0. -1.
     999902    2    1    2    0    0  0.20130146252E-01  0.32247793323E-01 -0.28621929238E-02  0.10058073675E+01  0.10050846359E+01 0.  0.
     999903    2    3    3    0    0 -0.10292385951E+00 -0.43677622923E-01 -0.85869860917E-02  0.11398915146E+00  0.20463008542E-01 0.  0.
         14    1    1    2    0    0 -0.20130146252E-01 -0.32247793323E-01  0.28621929238E-02  0.38122632525E-01  0.00000000000E+00 0.  1.
     999901    1    3    3    0    0  0.12305400576E+00  0.75925416246E-01  0.57247931678E-02  0.89181821602E+00  0.88000000000E+00 0. -1.
        -11    1    4    4    0    0 -0.61274066042E-01 -0.17768570019E-01  0.18936302654E-02  0.63828521889E-01  0.51100000000E-03 0. -1.
         11    1    4    4    0    0 -0.41649793469E-01 -0.25909052904E-01 -0.10480616357E-01  0.50160629567E-01  0.51100000000E-03 0.  1.
</event>
<event>
 8    1  0.1061721E+005  0.1043930E+01  0.7957747E-01            NaN
         13   -1    0    0    0    0  0.00000000000E+00  0.00000000000E+00  0.74505805969E-08  0.10566000000E+00  0.10566000000E+00 0.  1.
     999900   -1    0    0    0    0 -0.00000000000E+00 -0.00000000000E+00 -0.74505805969E-08  0.93827000000E+00  0.93827000000E+00 0.  1.
     999902    2    1    2    0    0 -0.39722419043E-02  0.23659941174E-01 -0.29770761450E-02  0.10197549198E+01  0.10194683231E+01 0.  0.
     999903    2    3    3    0    0 -0.64967187069E-01  0.67371863815E-01  0.90586511797E-01  0.13161908527E+00  0.18919938138E-01 0.  0.
         14    1    1    2    0    0  0.39722419043E-02 -0.23659941174E-01  0.29770761450E-02  0.24175080237E-01  0.00000000000E+00 0.  1.
     999901    1    3    3    0    0  0.60994945164E-01 -0.43711922641E-01 -0.93563587942E-01  0.88813583449E+00  0.88000000000E+00 0.  1.
        -11    1    4    4    0    0 -0.49482163334E-01  0.43797844128E-01  0.72555919030E-01  0.98139483113E-01  0.51100000000E-03 0. -1.
         11    1    4    4    0    0 -0.15485023735E-01  0.23574019687E-01  0.18030592767E-01  0.33479602160E-01  0.51100000000E-03 0.  1.
</event>
<event>
 8    1  0.1061721E+005  0.1043930E+01  0.7957747E-01            NaN
         13   -1    0    0    0    0  0.00000000000E+00  0.00000000000E+00  0.74505805969E-08  0.10566000000E+00  0.10566000000E+00 0.  1.
     999900   -1    0    0    0    0 -0.00000000000E+00 -0.00000000000E+00 -0.74505805969E-08  0.93827000000E+00  0.93827000000E+00 0.  1.
     999902    2    1    2    0    0  0.66367015983E-02 -0.10176875267E-01 -0.20389185213E-01  0.10201953529E+01  0.10199192246E+01 0.  0.
     999903    2    3    3    0    0  0.38182383549E-01 -0.12441384006E+00  0.71303850602E-02  0.13182463024E+00  0.19753296791E-01 0.  0.
         14    1    1    2    0    0 -0.66367015983E-02  0.10176875267E-01  0.20389185213E-01  0.23734647079E-01  0.00000000000E+00 0.  1.
     999901    1    3    3    0    0 -0.31545681951E-01  0.11423696479E+00 -0.27519570274E-01  0.88837072268E+00  0.88000000000E+00 0.  1.
        -11    1    4    4    0    0  0.50799963540E-02 -0.39671635993E-01  0.82381560056E-02  0.40838381465E-01  0.51100000000E-03 0. -1.
         11    1    4    4    0    0  0.33102387195E-01 -0.84742204066E-01 -0.11077709454E-02  0.90986248771E-01  0.51100000000E-03 0.  1.
</event>
<event>
 8    1  0.1061721E+005  0.1043930E+01  0.7957747E-01            NaN
         13   -1    0    0    0    0  0.00000000000E+00  0.00000000000E+00  0.74505805969E-08  0.10566000000E+00  0.10566000000E+00 0.  1.
     999900   -1    0    0    0    0 -0.00000000000E+00 -0.00000000000E+00 -0.74505805969E-08  0.93827000000E+00  0.93827000000E+00 0. -1.
     999902    2    1    2    0    0  0.19781926504E-01 -0.10842829712E-02  0.13016457105E-01  0.10202249701E+01  0.10199495386E+01 0.  0.
     999903    2    3    3    0    0  0.11331478567E+00  0.22912596508E-01  0.63570847266E-01  0.13350066555E+00  0.20394787305E-01 0.  0.
         14    1    1    2    0    0 -0.19781926504E-01  0.10842829712E-02 -0.13016457105E-01  0.23705029874E-01  0.00000000000E+00 0. -1.
     999901    1    3    3    0    0 -0.93532859165E-01 -0.23996879479E-01 -0.50554390161E-01  0.88672430458E+00  0.88000000000E+00 0. -1.
        -11    1    4    4    0    0  0.47773416549E-01  0.11117946837E-01  0.15770335154E-01  0.51525456451E-01  0.51100000000E-03 0.  1.
         11    1    4    4    0    0  0.65541369120E-01  0.11794649671E-01  0.47800512112E-01  0.81975209095E-01  0.51100000000E-03 0. -1.
</event>
<event>
 8    1  0.1206820E+005  0.1043930E+01  0.7957747E-01            NaN
         13   -1    0    0    0    0  0.00000000000E+00  0.00000000000E+00  0.74505805969E-08  0.10566000000E+00  0.10566000000E+00 0.  1.
     999900   -1    0    0    0    0 -0.00000000000E+00 -0.00000000000E+00 -0.74505805969E-08  0.93827000000E+00  0.93827000000E+00 0.  1.
     999902    2    1    2    0    0  0.12341279628E-01  0.72625203056E-02 -0.19273457440E-01  0.10199192202E+01  0.10196365520E+01 0.  0.
     999903    2    3    3    0    0  0.69734413208E-01 -0.56503563885E-03 -0.11150707389E+00  0.13320490184E+00  0.21130799722E-01 0.  0.
         14    1    1    2    0    0 -0.12341279628E-01 -0.72625203056E-02  0.19273457440E-01  0.24010779782E-01  0.00000000000E+00 0.  1.
     999901    1    3    3    0    0 -0.57393133580E-01  0.78275559444E-02  0.92233616445E-01  0.88671431838E+00  0.88000000000E+00 0. -1.
        -11    1    4    4    0    0  0.44021668402E-01 -0.24210828585E-02 -0.50902043569E-01  0.67342765697E-01  0.51100000000E-03 0. -1.
         11    1    4    4    0    0  0.25712744806E-01  0.18560472197E-02 -0.60605030316E-01  0.65862136143E-01  0.51100000000E-03 0.  1.
</event>
<event>
 8    1  0.1061721E+005  0.1043930E+01  0.7957747E-01            NaN
         13   -1    0    0    0    0  0.00000000000E+00  0.00000000000E+00  0.74505805969E-08  0.10566000000E+00  0.10566000000E+00 0.  1.
     999900   -1    0    0    0    0 -0.00000000000E+00 -0.00000000000E+00 -0.74505805969E-08  0.93827000000E+00  0.93827000000E+00 0. -1.
     999902    2    1    2    0    0  0.13107124560E-01 -0.19546636472E-02  0.19443748162E-01  0.10203996628E+01  0.10201283229E+01 0.  0.
     999903    2    3    3    0    0 -0.10628961185E+00 -0.68264503199E-01 -0.17150143289E-01  0.12911312733E+00  0.20458451794E-01 0.  0.
         14    1    1    2    0    0 -0.13107124560E-01  0.19546636472E-02 -0.19443748162E-01  0.23530337158E-01  0.00000000000E+00 0. -1.
     999901    1    3    3    0    0  0.11939673641E+00  0.66309839552E-01  0.36593891451E-01  0.89128653551E+00  0.88000000000E+00 0. -1.
        -11    1    4    4    0    0 -0.74840565561E-01 -0.45742222237E-01 -0.21131600660E-01  0.90223427202E-01  0.51100000000E-03 0.  1.
         11    1    4    4    0    0 -0.31449046293E-01 -0.22522280962E-01  0.39814573704E-02  0.38889700131E-01  0.51100000000E-03 0. -1.
</event>
<event>
 8    1  0.1061721E+005  0.1043930E+01  0.7957747E-01            NaN
         13   -1    0    0    0    0  0.00000000000E+00  0.00000000000E+00  0.74505805969E-08  0.10566000000E+00  0.10566000000E+00 0.  1.
     999900   -1    0    0    0    0 -0.00000000000E+00 -0.00000000000E+00 -0.74505805969E-08  0.93827000000E+00  0.93827000000E+00 0.  1.
     999902    2    1    2    0    0  0.43743664001E-02  0.21840649784E-01  0.92625884887E-02  0.10198064719E+01  0.10195211108E+01 0.  0.
     999903    2    3    3    0    0  0.11269462601E+00 -0.56364060203E-01 -0.20498720784E-01  0.12922520615E+00  0.20049197899E-01 0.  0.
         14    1    1    2    0    0 -0.43743664001E-02 -0.21840649784E-01 -0.92625884887E-02  0.24123528140E-01  0.00000000000E+00 0.  1.
     999901    1    3    3    0    0 -0.10832025961E+00  0.78204709987E-01  0.29761309272E-01  0.89058126571E+00  0.88000000000E+00 0. -1.
        -11    1    4    4    0    0  0.87954460335E-01 -0.52794991699E-01 -0.16123439126E-01  0.10384375114E+00  0.51100000000E-03 0. -1.
         11    1    4    4    0    0  0.24740165675E-01 -0.35690685038E-02 -0.43752816579E-02  0.25381455005E-01  0.51100000000E-03 0.  1.
</event>
<event>
 8    1  0.1061721E+005  0.1043930E+01  0.7957747E-01            NaN
         13   -1    0    0    0    0  0.00000000000E+00  0.00000000000E+00  0.74505805969E-08  0.10566000000E+00  0.10566000000E+00 0.  1.
     999900   -1    0    0    0    0 -0.00000000000E+00 -0.00000000000E+00 -0.74505805969E-08  0.93827000000E+00  0.93827000000E+00 0.  1.
     999902    2    1    2    0    0  0.73189602499E-02  0.13522093336E-01  0.17957943615E-01  0.10202888933E+01  0.10200149626E+01 0.  0.
     999903    2    3    3    0    0 -0.38804225120E-01 -0.10962924079E+00 -0.49325802422E-01  0.12797689528E+00  0.20511280228E-01 0.  0.
         14    1    1    2    0    0 -0.73189602499E-02 -0.13522093336E-01 -0.17957943615E-01  0.23641106704E-01  0.00000000000E+00 0. -1.
     999901    1    3    3    0    0  0.46123185370E-01  0.12315133413E+00  0.67283746037E-01  0.89231199802E+00  0.88000000000E+00 0. -1.
        -11    1    4    4    0    0 -0.28596954123E-01 -0.92933843786E-01 -0.47780758594E-01  0.10834088387E+00  0.51100000000E-03 0. -1.
         11    1    4    4    0    0 -0.10207270997E-01 -0.16695397006E-01 -0.15450438285E-02  0.19636011403E-01  0.51100000000E-03 0.  1.
</event>
<event>
 8    1  0.1061721E+005  0.1043930E+01  0.7957747E-01            NaN
         13   -1    0    0    0    0  0.00000000000E+00  0.00000000000E+00  0.74505805969E-08  0.10566000000E+00  0.10566000000E+00 0.  1.
     999900   -1    0    0    0    0 -0.00000000000E+00 -0.00000000000E+00 -0.74505805969E-08  0.93827000000E+00  0.93827000000E+00 0.  1.
     999902    2    1    2    0    0 -0.66353948520E-02  0.40123490958E-02  0.22464925781E-01  0.10201644724E+01  0.10198876166E+01 0.  0.
     999903    2    3    3    0    0 -0.72071882195E-01 -0.86547880466E-01 -0.60037994328E-01  0.12927176235E+00  0.20536210990E-01 0.  0.
         14    1    1    2    0    0  0.66353948520E-02 -0.40123490958E-02 -0.22464925781E-01  0.23765527566E-01  0.00000000000E+00 0. -1.
     999901    1    3    3    0    0  0.65436487343E-01  0.90560229562E-01  0.82502920110E-01  0.89089271008E+00  0.88000000000E+00 0. -1.
        -11    1    4    4    0    0 -0.23231459112E-01 -0.14558084926E-01 -0.12503536691E-01  0.30136988569E-01  0.51100000000E-03 0. -1.
         11    1    4    4    0    0 -0.48840423083E-01 -0.71989795541E-01 -0.47534457637E-01  0.99134773782E-01  0.51100000000E-03 0.  1.
</event>
<event>
 8    1  0.1061721E+005  0.1043930E+01  0.7957747E-01            NaN
         13   -1    0    0    0    0  0.00000000000E+00  0.00000000000E+00  0.74505805969E-08  0.10566000000E+00  0.10566000000E+00 0.  1.
     999900   -1    0    0    0    0 -0.00000000000E+00 -0.00000000000E+00 -0.74505805969E-08  0.93827000000E+00  0.93827000000E+00 0.  1.
     999902    2    1    2    0    0  0.22167364204E-01  0.18572000703E-02  0.92704402814E-02  0.10198305749E+01  0.10195457906E+01 0.  0.
     999903    2    3    3    0    0 -0.11760240041E+00 -0.34468046625E-01  0.30271168140E-01  0.12781255869E+00  0.20033365108E-01 0.  0.
         14    1    1    2    0    0 -0.22167364204E-01 -0.18572000703E-02 -0.92704402814E-02  0.24099425115E-01  0.00000000000E+00 0.  1.
     999901    1    3    3    0    0  0.13976976461E+00  0.36325246695E-01 -0.21000727859E-01  0.89201801620E+00  0.88000000000E+00 0.  1.
        -11    1    4    4    0    0 -0.17920315797E-01  0.12153107620E-02  0.77358442891E-02  0.19563207978E-01  0.51100000000E-03 0. -1.
         11    1    4    4    0    0 -0.99682084614E-01 -0.35683357387E-01  0.22535323851E-01  0.10824935071E+00  0.51100000000E-03 0.  1.
</event>
<event>
 8    1  0.1061721E+005  0.1043930E+01  0.7957747E-01            NaN
         13   -1    0    0    0    0  0.00000000000E+00  0.00000000000E+00  0.74505805969E-08  0.10566000000E+00  0.10566000000E+00 0.  1.
     999900   -1    0    0    0    0 -0.00000000000E+00 -0.00000000000E+00 -0.74505805969E-08  0.93827000000E+00  0.93827000000E+00 0.  1.
     999902    2    1    2    0    0  0.76391506052E-02 -0.12358738313E-01  0.11648015865E-01  0.10253082034E+01  0.10251390836E+01 0.  0.
     999903    2    3    3    0    0  0.12704738811E+00  0.34529594636E-01 -0.23468899624E-01  0.13531379854E+00  0.20632573635E-01 0.  0.
         14    1    1    2    0    0 -0.76391506052E-02  0.12358738313E-01 -0.11648015865E-01  0.18621796590E-01  0.00000000000E+00 0. -1.
     999901    1    3    3    0    0 -0.11940823750E+00 -0.46888332949E-01  0.35116915489E-01  0.88999440487E+00  0.88000000000E+00 0. -1.
        -11    1    4    4    0    0  0.68196451192E-01  0.15856024392E-01 -0.22561350060E-01  0.73562525121E-01  0.51100000000E-03 0. -1.
         11    1    4    4    0    0  0.58850936914E-01  0.18673570243E-01 -0.90754956386E-03  0.61751273416E-01  0.51100000000E-03 0.  1.
</event>
<event>
 8    1  0.1061721E+005  0.1043930E+01  0.7957747E-01            NaN
         13   -1    0    0    0    0  0.00000000000E+00  0.00000000000E+00  0.74505805969E-08  0.10566000000E+00  0.10566000000E+00 0. -1.
     999900   -1    0    0    0    0 -0.00000000000E+00 -0.00000000000E+00 -0.74505805969E-08  0.93827000000E+00  0.93827000000E+00 0.  1.
     999902    2    1    2    0    0 -0.15962592228E-02  0.16693346514E-02  0.23286276982E-01  0.10205294569E+01  0.10202611367E+01 0.  0.
     999903    2    3    3    0    0  0.25477758131E-01  0.68793780061E-01  0.10995346268E+00  0.13331477337E+00  0.17359853396E-01 0.  0.
         14    1    1    2    0    0  0.15962592228E-02 -0.16693346514E-02 -0.23286276982E-01  0.23400543100E-01  0.00000000000E+00 0.  1.
     999901    1    3    3    0    0 -0.27074017354E-01 -0.67124445409E-01 -0.86667185698E-01  0.88721468353E+00  0.88000000000E+00 0.  1.
        -11    1    4    4    0    0  0.20096316856E-01  0.31529604046E-01  0.48474135373E-01  0.61220754680E-01  0.51100000000E-03 0. -1.
         11    1    4    4    0    0  0.53814412756E-02  0.37264176015E-01  0.61479327307E-01  0.72094018694E-01  0.51100000000E-03 0.  1.
</event>
<event>
 8    1  0.1061721E+005  0.1043930E+01  0.7957747E-01            NaN
         13   -1    0    0    0    0  0.00000000000E+00  0.00000000000E+00  0.74505805969E-08  0.10566000000E+00  0.10566000000E+00 0. -1.
     999900   -1    0    0    0    0 -0.00000000000E+00 -0.00000000000E+00 -0.74505805969E-08  0.93827000000E+00  0.93827000000E+00 0. -1.
     999902    2    1    2    0    0  0.22727076168E-01 -0.78316094077E-02 -0.45023251458E-02  0.10194734052E+01  0.10191800130E+01 0.  0.
     999903    2    3    3    0    0 -0.86593325850E-01  0.31097720996E-02 -0.92403610861E-01  0.12829592560E+00  0.20330825405E-01 0.  0.
         14    1    1    2    0    0 -0.22727076168E-01  0.78316094077E-02  0.45023251458E-02  0.24456594792E-01  0.00000000000E+00 0.  1.
     999901    1    3    3    0    0  0.10932040202E+00 -0.10941381507E-01  0.87901285715E-01  0.89117747961E+00  0.88000000000E+00 0.  1.
        -11    1    4    4    0    0 -0.63691011992E-01 -0.64281564953E-02 -0.70085562751E-01  0.94921617304E-01  0.51100000000E-03 0.  1.
         11    1    4    4    0    0 -0.22902313858E-01  0.95379285949E-02 -0.22318048111E-01  0.33374308299E-01  0.51100000000E-03 0. -1.
</event>
<event>
 8    1  0.1061721E+005  0.1043930E+01  0.7957747E-01            NaN
         13   -1    0    0    0    0  0.00000000000E+00  0.00000000000E+00  0.74505805969E-08  0.10566000000E+00  0.10566000000E+00 0. -1.
     999900   -1    0    0    0    0 -0.00000000000E+00 -0.00000000000E+00 -0.74505805969E-08  0.93827000000E+00  0.93827000000E+00 0.  1.
     999902    2    1    2    0    0  0.17850740397E-01  0.19733896430E-01 -0.58707857082E-02  0.10166803812E+01  0.10163151360E+01 0.  0.
     999903    2    3    3    0    0  0.59471182403E-01 -0.10906003779E+00  0.11884515594E-01  0.12615503656E+00  0.18518589530E-01 0.  0.
         14    1    1    2    0    0 -0.17850740397E-01 -0.19733896430E-01  0.58707857082E-02  0.27249618821E-01  0.00000000000E+00 0. -1.
     999901    1    3    3    0    0 -0.41620442006E-01  0.12879393422E+00 -0.17755301302E-01  0.89052534462E+00  0.88000000000E+00 0. -1.
        -11    1    4    4    0    0  0.22447934804E-01 -0.47626471759E-01  0.13684729498E-01  0.54403341181E-01  0.51100000000E-03 0. -1.
         11    1    4    4    0    0  0.37023247599E-01 -0.61433566036E-01 -0.18002139037E-02  0.71751695379E-01  0.51100000000E-03 0.  1.
</event>
<event>
 8    1  0.1061721E+005  0.1043930E+01  0.7957747E-01            NaN
         13   -1    0    0    0    0  0.00000000000E+00  0.00000000000E+00  0.74505805969E-08  0.10566000000E+00  0.10566000000E+00 0.  1.
     999900   -1    0    0    0    0 -0.00000000000E+00 -0.00000000000E+00 -0.74505805969E-08  0.93827000000E+00  0.93827000000E+00 0. -1.
     999902    2    1    2    0    0 -0.40843068715E-02 -0.74161181316E-02  0.21532727142E-01  0.10207926123E+01  0.10205303615E+01 0.  0.
     999903    2    3    3    0    0 -0.10816837212E+00 -0.48112759018E-01 -0.51468984879E-01  0.13072578382E+00  0.20614069080E-01 0.  0.
         14    1    1    2    0    0  0.40843068715E-02  0.74161181316E-02 -0.21532727142E-01  0.23137387686E-01  0.00000000000E+00 0. -1.
     999901    1    3    3    0    0  0.10408406525E+00  0.40696640886E-01  0.73001712021E-01  0.89006682849E+00  0.88000000000E+00 0. -1.
        -11    1    4    4    0    0 -0.34052680468E-01 -0.23931567783E-01 -0.24108323102E-01  0.48101739546E-01  0.51100000000E-03 0.  1.
         11    1    4    4    0    0 -0.74115691655E-01 -0.24181191235E-01 -0.27360661777E-01  0.82624044278E-01  0.51100000000E-03 0. -1.
</event>
<event>
 8    1  0.1061721E+005  0.1043930E+01  0.7957747E-01            NaN
         13   -1    0    0    0    0  0.00000000000E+00  0.00000000000E+00  0.74505805969E-08  0.10566000000E+00  0.10566000000E+00 0.  1.
     999900   -1    0    0    0    0 -0.00000000000E+00 -0.00000000000E+00 -0.74505805969E-08  0.93827000000E+00  0.93827000000E+00 0. -1.
     999902    2    1    2    0    0 -0.19372131320E-02  0.17412199051E-01  0.23771764391E-01  0.10143997739E+01  0.10139698551E+01 0.  0.
     999903    2    3    3    0    0  0.78218479050E-01 -0.49079250967E-01  0.83622196455E-01  0.12623980964E+00  0.20418483248E-01 0.  0.
         14    1    1    2    0    0  0.19372131320E-02 -0.17412199051E-01 -0.23771764391E-01  0.29530226087E-01  0.00000000000E+00 0.  1.
     999901    1    3    3    0    0 -0.80155692182E-01  0.66491450018E-01 -0.59850432064E-01  0.88815996427E+00  0.88000000000E+00 0. -1.
        -11    1    4    4    0    0  0.70490179803E-01 -0.37622824675E-01  0.64761655850E-01  0.10285268871E+00  0.51100000000E-03 0.  1.
         11    1    4    4    0    0  0.77282992471E-02 -0.11456426292E-01  0.18860540606E-01  0.23387120934E-01  0.51100000000E-03 0. -1.
</event>
<event>
 8    1  0.1061721E+005  0.1043930E+01  0.7957747E-01            NaN
         13   -1    0    0    0    0  0.00000000000E+00  0.00000000000E+00  0.74505805969E-08  0.10566000000E+00  0.10566000000E+00 0. -1.
     999900   -1    0    0    0    0 -0.00000000000E+00 -0.00000000000E+00 -0.74505805969E-08  0.93827000000E+00  0.93827000000E+00 0. -1.
     999902    2    1    2    0    0  0.27803770878E-01  0.48807957024E-02 -0.64925957394E-02  0.10149640607E+01  0.10145506487E+01 0.  0.
     999903    2    3    3    0    0  0.91463325530E-01  0.61578912919E-01 -0.64450278134E-01  0.12894695681E+00  0.17775738655E-01 0.  0.
         14    1    1    2    0    0 -0.27803770878E-01 -0.48807957024E-02  0.64925957394E-02  0.28965939328E-01  0.00000000000E+00 0.  1.
     999901    1    3    3    0    0 -0.63659554652E-01 -0.56698117217E-01  0.57957682394E-01  0.88601710387E+00  0.88000000000E+00 0.  1.
        -11    1    4    4    0    0  0.21955636811E-01  0.75271605157E-02 -0.90554764278E-02  0.24919287862E-01  0.51100000000E-03 0.  1.
         11    1    4    4    0    0  0.69507688719E-01  0.54051752403E-01 -0.55394801706E-01  0.10402766894E+00  0.51100000000E-03 0. -1.
</event>
<event>
 8    1  0.1061721E+005  0.1043930E+01  0.7957747E-01            NaN
         13   -1    0    0    0    0  0.00000000000E+00  0.00000000000E+00  0.74505805969E-08  0.10566000000E+00  0.10566000000E+00 0.  1.
     999900   -1    0    0    0    0 -0.00000000000E+00 -0.00000000000E+00 -0.74505805969E-08  0.93827000000E+00  0.93827000000E+00 0.  1.
     999902    2    1    2    0    0 -0.20348118432E-01 -0.16747763563E-02 -0.12106785711E-01  0.10201934236E+01  0.10199172498E+01 0.  0.
     999903    2    3    3    0    0 -0.45993814677E-01 -0.14948876614E-01 -0.12206808978E+00  0.13287984211E+00  0.20433648682E-01 0.  0.
         14    1    1    2    0    0  0.20348118432E-01  0.16747763563E-02  0.12106785711E-01  0.23736576413E-01  0.00000000000E+00 0. -1.
     999901    1    3    3    0    0  0.25645696245E-01  0.13274100258E-01  0.10996130407E+00  0.88731358147E+00  0.88000000000E+00 0. -1.
        -11    1    4    4    0    0 -0.36643030286E-01 -0.30603706922E-02 -0.76828999051E-01  0.85176485919E-01  0.51100000000E-03 0. -1.
         11    1    4    4    0    0 -0.93507843910E-02 -0.11888505922E-01 -0.45239090725E-01  0.47703356196E-01  0.51100000000E-03 0.  1.
</event>
<event>
 8    1  0.1061721E+005  0.1043930E+01  0.7957747E-01            NaN
         13   -1    0    0    0    0  0.00000000000E+00  0.00000000000E+00  0.74505805969E-08  0.10566000000E+00  0.10566000000E+00 0.  1.
     999900   -1    0    0    0    0 -0.00000000000E+00 -0.00000000000E+00 -0.74505805969E-08  0.93827000000E+00  0.93827000000E+00 0. -1.
     999902    2    1    2    0    0  0.17336243112E-01 -0.10787706366E-01 -0.49819431734E-02  0.10229123957E+01  0.10226964503E+01 0.  0.
     999903    2    3    3    0    0 -0.27502534893E-01  0.10916963998E+00 -0.65113620810E-01  0.13161216589E+00  0.20188582797E-01 0.  0.
         14    1    1    2    0    0 -0.17336243112E-01  0.10787706366E-01  0.49819431734E-02  0.21017604327E-01  0.00000000000E+00 0.  1.
     999901    1    3    3    0    0  0.44838778005E-01 -0.11995734635E+00  0.60131677637E-01  0.89130022978E+00  0.88000000000E+00 0. -1.
        -11    1    4    4    0    0 -0.11086223030E-01  0.28091397748E-01 -0.27066132391E-01  0.40556967492E-01  0.51100000000E-03 0. -1.
         11    1    4    4    0    0 -0.16416311864E-01  0.81078242236E-01 -0.38047488419E-01  0.91055198398E-01  0.51100000000E-03 0.  1.
</event>
<event>
 8    1  0.1061721E+005  0.1043930E+01  0.7957747E-01            NaN
         13   -1    0    0    0    0  0.00000000000E+00  0.00000000000E+00  0.74505805969E-08  0.10566000000E+00  0.10566000000E+00 0.  1.
     999900   -1    0    0    0    0 -0.00000000000E+00 -0.00000000000E+00 -0.74505805969E-08  0.93827000000E+00  0.93827000000E+00 0. -1.
     999902    2    1    2    0    0  0.19170243757E-01 -0.12665229271E-01 -0.47914792009E-02  0.10204594961E+01  0.10201895504E+01 0.  0.
     999903    2    3    3    0    0 -0.25826314277E-01 -0.11306608402E+00 -0.59574973249E-01  0.13191785217E+00  0.20055034742E-01 0.  0.
         14    1    1    2    0    0 -0.19170243757E-01  0.12665229271E-01  0.47914792009E-02  0.23470503853E-01  0.00000000000E+00 0. -1.
     999901    1    3    3    0    0  0.44996558034E-01  0.10040085475E+00  0.54783494048E-01  0.88854164398E+00  0.88000000000E+00 0. -1.
        -11    1    4    4    0    0 -0.19020800212E-01 -0.75899363742E-01 -0.29506650117E-01  0.83626597320E-01  0.51100000000E-03 0.  1.
         11    1    4    4    0    0 -0.68055140648E-02 -0.37166720274E-01 -0.30068323132E-01  0.48291254846E-01  0.51100000000E-03 0. -1.
</event>
<event>
 8    1  0.1061721E+005  0.1043930E+01  0.7957747E-01            NaN
         13   -1    0    0    0    0  0.00000000000E+00  0.00000000000E+00  0.74505805969E-08  0.10566000000E+00  0.10566000000E+00 0. -1.
     999900   -1    0    0    0    0 -0.00000000000E+00 -0.00000000000E+00 -0.74505805969E-08  0.93827000000E+00  0.93827000000E+00 0. -1.
     999902    2    1    2    0    0  0.84486739107E-02 -0.38135079565E-03  0.21123891056E-01  0.10211760049E+01  0.10209224695E+01 0.  0.
     999903    2    3    3    0    0  0.11425504605E+00 -0.43508365813E-02  0.66172880337E-01  0.13368507164E+00  0.20486653187E-01 0.  0.
         14    1    1    2    0    0 -0.84486739107E-02  0.38135079565E-03 -0.21123891056E-01  0.22753995092E-01  0.00000000000E+00 0.  1.
     999901    1    3    3    0    0 -0.10580637214E+00  0.39694857856E-02 -0.45048989281E-01  0.88749093327E+00  0.88000000000E+00 0.  1.
        -11    1    4    4    0    0  0.90124150564E-01 -0.11794154859E-01  0.51187340128E-01  0.10431619967E+00  0.51100000000E-03 0.  1.
         11    1    4    4    0    0  0.24130895490E-01  0.74433182775E-02  0.14985540209E-01  0.29368871965E-01  0.51100000000E-03 0. -1.
</event>
<event>
 8    1  0.1061721E+005  0.1043930E+01  0.7957747E-01            NaN
         13   -1    0    0    0    0  0.00000000000E+00  0.00000000000E+00  0.74505805969E-08  0.10566000000E+00  0.10566000000E+00 0.  1.
     999900   -1    0    0    0    0 -0.00000000000E+00 -0.00000000000E+00 -0.74505805969E-08  0.93827000000E+00  0.93827000000E+00 0. -1.
     999902    2    1    2    0    0 -0.13607949863E-01  0.59292219705E-02  0.13609407780E-01  0.10237917788E+01  0.10235936979E+01 0.  0.
     999903    2    3    3    0    0  0.12087219695E+00  0.12216076010E-01 -0.46392846935E-01  0.13153357347E+00  0.19734847194E-01 0.  0.
         14    1    1    2    0    0  0.13607949863E-01 -0.59292219705E-02 -0.13609407780E-01  0.20138221192E-01  0.00000000000E+00 0.  1.
     999901    1    3    3    0    0 -0.13448014682E+00 -0.62868540397E-02  0.60002254716E-01  0.89225820534E+00  0.88000000000E+00 0.  1.
        -11    1    4    4    0    0  0.22361215495E-01  0.47275077292E-02 -0.12038123626E-02  0.22892871662E-01  0.51100000000E-03 0.  1.
         11    1    4    4    0    0  0.98510981458E-01  0.74885682809E-02 -0.45189034573E-01  0.10864070181E+00  0.51100000000E-03 0. -1.
</event>
<event>
 8    1  0.1061721E+005  0.1043930E+01  0.7957747E-01            NaN
         13   -1    0    0    0    0  0.00000000000E+00  0.00000000000E+00  0.74505805969E-08  0.10566000000E+00  0.10566000000E+00 0. -1.
     999900   -1    0    0    0    0 -0.00000000000E+00 -0.00000000000E+00 -0.74505805969E-08  0.93827000000E+00  0.93827000000E+00 0. -1.
     999902    2    1    2    0    0  0.16302398016E-01 -0.30250078238E-02  0.17836141176E-01  0.10195774481E+01  0.10192865769E+01 0.  0.
     999903    2    3    3    0    0  0.71311400732E-01  0.45622811144E-01 -0.95900952408E-01  0.12922430065E+00  0.18307660529E-01 0.  0.
         14    1    1    2    0    0 -0.16302398016E-01  0.30250078238E-02 -0.17836141176E-01  0.24352551929E-01  0.00000000000E+00 0.  1.
     999901    1    3    3    0    0 -0.55009002716E-01 -0.48647818967E-01  0.11373709358E+00  0.89035314742E+00  0.88000000000E+00 0.  1.
        -11    1    4    4    0    0  0.61419424167E-01  0.40774970859E-01 -0.72719930495E-01  0.10355381850E+00  0.51100000000E-03 0.  1.
         11    1    4    4    0    0  0.98919765654E-02  0.48478402846E-02 -0.23181021914E-01  0.25670482149E-01  0.51100000000E-03 0. -1.
</event>
<event>
 8    1  0.1061721E+005  0.1043930E+01  0.7957747E-01            NaN
         13   -1    0    0    0    0  0.00000000000E+00  0.00000000000E+00  0.74505805969E-08  0.10566000000E+00  0.10566000000E+00 0.  1.
     999900   -1    0    0    0    0 -0.00000000000E+00 -0.00000000000E+00 -0.74505805969E-08  0.93827000000E+00  0.93827000000E+00 0. -1.
     999902    2    1    2    0    0 -0.16044867705E-01 -0.13387313472E-01 -0.11162447389E-01  0.10202391120E+01  0.10199640129E+01 0.  0.
     999903    2    3    3    0    0 -0.14053025558E-01  0.20716305864E-01  0.12501404024E+00  0.12911001920E+00  0.20352738035E-01 0.  0.
         14    1    1    2    0    0  0.16044867705E-01  0.13387313472E-01  0.11162447389E-01  0.23690887982E-01  0.00000000000E+00 0.  1.
     999901    1    3    3    0    0 -0.19918421476E-02 -0.34103619335E-01 -0.13617648762E+00  0.89112909282E+00  0.88000000000E+00 0. -1.
        -11    1    4    4    0    0 -0.35094622663E-02  0.14085695121E-02  0.66270624787E-01  0.66380397891E-01  0.51100000000E-03 0.  1.
         11    1    4    4    0    0 -0.10543563291E-01  0.19307736351E-01  0.58743415449E-01  0.62729621308E-01  0.51100000000E-03 0. -1.
</event>
<event>
 8    1  0.1061721E+005  0.1043930E+01  0.7957747E-01            NaN
         13   -1    0    0    0    0  0.00000000000E+00  0.00000000000E+00  0.74505805969E-08  0.10566000000E+00  0.10566000000E+00 0.  1.
     999900   -1    0    0    0    0 -0.00000000000E+00 -0.00000000000E+00 -0.74505805969E-08  0.93827000000E+00  0.93827000000E+00 0.  1.
     999902    2    1    2    0    0  0.18067780841E-01  0.88473180735E-02  0.15926548825E-01  0.10182711867E+01  0.10179478548E+01 0.  0.
     999903    2    3    3    0    0  0.10018767079E-01 -0.12090033246E+00 -0.33695122908E-01  0.12733822081E+00  0.19036677426E-01 0.  0.
         14    1    1    2    0    0 -0.18067780841E-01 -0.88473180735E-02 -0.15926548825E-01  0.25658813283E-01  0.00000000000E+00 0. -1.
     999901    1    3    3    0    0  0.80490137612E-02  0.12974765053E+00  0.49621671733E-01  0.89093296591E+00  0.88000000000E+00 0.  1.
        -11    1    4    4    0    0  0.11825842852E-01 -0.10595190944E+00 -0.23568165160E-01  0.10918505943E+00  0.51100000000E-03 0.  1.
         11    1    4    4    0    0 -0.18070757730E-02 -0.14948423022E-01 -0.10126957748E-01  0.18153161376E-01  0.51100000000E-03 0. -1.
</event>
<event>
 8    1  0.1061721E+005  0.1043930E+01  0.7957747E-01            NaN
         13   -1    0    0    0    0  0.00000000000E+00  0.00000000000E+00  0.74505805969E-08  0.10566000000E+00  0.10566000000E+00 0. -1.
     999900   -1    0    0    0    0 -0.00000000000E+00 -0.00000000000E+00 -0.74505805969E-08  0.93827000000E+00  0.93827000000E+00 0.  1.
     999902    2    1    2    0    0  0.96258127630E-03 -0.23289803447E-01  0.36690931115E-03  0.10206174255E+01  0.10203511421E+01 0.  0.
     999903    2    3    3    0    0 -0.64011774055E-01  0.10924633946E+00  0.65131212417E-02  0.12830286664E+00  0.19670661820E-01 0.  0.
         14    1    1    2    0    0 -0.96258127630E-03  0.23289803447E-01 -0.36690931115E-03  0.23312574499E-01  0.00000000000E+00 0. -1.
     999901    1    3    3    0    0  0.64974355331E-01 -0.13253614291E+00 -0.61462119305E-02  0.89231455886E+00  0.88000000000E+00 0. -1.
        -11    1    4    4    0    0 -0.26353697495E-01  0.27743362578E-01  0.40902993432E-02  0.38486402904E-01  0.51100000000E-03 0. -1.
         11    1    4    4    0    0 -0.37658076560E-01  0.81502976887E-01  0.24228218985E-02  0.89816463739E-01  0.51100000000E-03 0.  1.
</event>
<event>
 8    1  0.1061721E+005  0.1043930E+01  0.7957747E-01            NaN
         13   -1    0    0    0    0  0.00000000000E+00  0.00000000000E+00  0.74505805969E-08  0.10566000000E+00  0.10566000000E+00 0. -1.
     999900   -1    0    0    0    0 -0.00000000000E+00 -0.00000000000E+00 -0.74505805969E-08  0.93827000000E+00  0.93827000000E+00 0.  1.
     999902    2    1    2    0    0 -0.43425661640E-02 -0.18042935408E-01 -0.16100634068E-01  0.10193609989E+01  0.10190648705E+01 0.  0.
     999903    2    3    3    0    0 -0.46234643440E-01 -0.10769262604E+00  0.54633105519E-01  0.13099436562E+00  0.20961957131E-01 0.  0.
         14    1    1    2    0    0  0.43425661640E-02  0.18042935408E-01  0.16100634068E-01  0.24569001127E-01  0.00000000000E+00 0.  1.
     999901    1    3    3    0    0  0.41892077276E-01  0.89649690633E-01 -0.70733739587E-01  0.88836663326E+00  0.88000000000E+00 0.  1.
        -11    1    4    4    0    0 -0.72741147573E-03 -0.20467615120E-01  0.12247387289E-01  0.23868640778E-01  0.51100000000E-03 0.  1.
         11    1    4    4    0    0 -0.45507231965E-01 -0.87225010920E-01  0.42385718230E-01  0.10712572484E+00  0.51100000000E-03 0. -1.
</event>
<event>
 8    1  0.1061721E+005  0.1043930E+01  0.7957747E-01            NaN
         13   -1    0    0    0    0  0.00000000000E+00  0.00000000000E+00  0.74505805969E-08  0.10566000000E+00  0.10566000000E+00 0. -1.
     999900   -1    0    0    0    0 -0.00000000000E+00 -0.00000000000E+00 -0.74505805969E-08  0.93827000000E+00  0.93827000000E+00 0. -1.
     999902    2    1    2    0    0  0.38612396624E-02 -0.21866359795E-01  0.10166261065E-01  0.10195087034E+01  0.10192161678E+01 0.  0.
     999903    2    3    3    0    0 -0.11662884788E+00 -0.46093279777E-01 -0.28112497405E-01  0.13014372312E+00  0.20498720907E-01 0.  0.
         14    1    1    2    0    0 -0.38612396624E-02  0.21866359795E-01 -0.10166261065E-01  0.24421296576E-01  0.00000000000E+00 0.  1.
     999901    1    3    3    0    0  0.12049008754E+00  0.24226919982E-01  0.38278758470E-01  0.88936498031E+00  0.88000000000E+00 0.  1.
        -11    1    4    4    0    0 -0.17527277020E-01 -0.30483702597E-02 -0.10517334720E-01  0.20673012639E-01  0.51100000000E-03 0. -1.
         11    1    4    4    0    0 -0.99101570856E-01 -0.43044909517E-01 -0.17595162685E-01  0.10947071048E+00  0.51100000000E-03 0.  1.
</event>
<event>
 8    1  0.1061721E+005  0.1043930E+01  0.7957747E-01            NaN
         13   -1    0    0    0    0  0.00000000000E+00  0.00000000000E+00  0.74505805969E-08  0.10566000000E+00  0.10566000000E+00 0.  1.
     999900   -1    0    0    0    0 -0.00000000000E+00 -0.00000000000E+00 -0.74505805969E-08  0.93827000000E+00  0.93827000000E+00 0. -1.
     999902    2    1    2    0    0  0.23578724129E-02 -0.55592576805E-03  0.21647636049E-01  0.10221472370E+01  0.10219151068E+01 0.  0.
     999903    2    3    3    0    0 -0.47784280217E-01  0.19928477824E-01 -0.11711463076E+00  0.12962899468E+00  0.20183108264E-01 0.  0.
         14    1    1    2    0    0 -0.23578724129E-02  0.55592576805E-03 -0.21647636049E-01  0.21782762962E-01  0.00000000000E+00 0. -1.
     999901    1    3    3    0    0  0.50142152630E-01 -0.20484403592E-01  0.13876226680E+00  0.89251824236E+00  0.88000000000E+00 0.  1.
        -11    1    4    4    0    0 -0.32312321562E-01  0.29765056658E-02 -0.73355057856E-01  0.80213286585E-01  0.51100000000E-03 0.  1.
         11    1    4    4    0    0 -0.15471958655E-01  0.16951972158E-01 -0.43759572900E-01  0.49415708090E-01  0.51100000000E-03 0. -1.
</event>
<event>
 8    1  0.1061721E+005  0.1043930E+01  0.7957747E-01            NaN
         13   -1    0    0    0    0  0.00000000000E+00  0.00000000000E+00  0.74505805969E-08  0.10566000000E+00  0.10566000000E+00 0.  1.
     999900   -1    0    0    0    0 -0.00000000000E+00 -0.00000000000E+00 -0.74505805969E-08  0.93827000000E+00  0.93827000000E+00 0.  1.
     999902    2    1    2    0    0 -0.22350390102E-01 -0.16657473431E-03 -0.25439225130E-02  0.10214346843E+01  0.10211869443E+01 0.  0.
     999903    2    3    3    0    0  0.11325896235E+00 -0.19486575109E-01 -0.55185894124E-01  0.12928316354E+00  0.21478694168E-01 0.  0.
         14    1    1    2    0    0  0.22350390102E-01  0.16657473431E-03  0.25439225130E-02  0.22495315659E-01  0.00000000000E+00 0. -1.
     999901    1    3    3    0    0 -0.13560935245E+00  0.19320000374E-01  0.52641971611E-01  0.89215152080E+00  0.88000000000E+00 0. -1.
        -11    1    4    4    0    0  0.93167439760E-01 -0.82645094670E-02 -0.40143873663E-01  0.10178539022E+00  0.51100000000E-03 0. -1.
         11    1    4    4    0    0  0.20091522591E-01 -0.11222065642E-01 -0.15042020461E-01  0.27497773325E-01  0.51100000000E-03 0.  1.
</event>
<event>
 8    1  0.1061721E+005  0.1043930E+01  0.7957747E-01            NaN
         13   -1    0    0    0    0  0.00000000000E+00  0.00000000000E+00  0.74505805969E-08  0.10566000000E+00  0.10566000000E+00 0. -1.
     999900   -1    0    0    0    0 -0.00000000000E+00 -0.00000000000E+00 -0.74505805969E-08  0.93827000000E+00  0.93827000000E+00 0.  1.
     999902    2    1    2    0    0  0.74132360306E-02  0.34481511894E-03 -0.23043217041E-01  0.10197212244E+01  0.10194338187E+01 0.  0.
     999903    2    3    3    0    0 -0.25577371784E-01  0.12014949719E+00 -0.40584635790E-01  0.13081783062E+00  0.19393001901E-01 0.  0.
         14    1    1    2    0    0 -0.74132360306E-02 -0.34481511894E-03  0.23043217041E-01  0.24208775630E-01  0.00000000000E+00 0. -1.
     999901    1    3    3    0    0  0.32990607814E-01 -0.11980468207E+00  0.17541418749E-01  0.88890339375E+00  0.88000000000E+00 0. -1.
        -11    1    4    4    0    0 -0.14584309649E-01  0.78964726832E-01 -0.16937586710E-01  0.82068709848E-01  0.51100000000E-03 0.  1.
         11    1    4    4    0    0 -0.10993062135E-01  0.41184770360E-01 -0.23647049080E-01  0.48749120771E-01  0.51100000000E-03 0. -1.
</event>
<event>
 8    1  0.1061721E+005  0.1043930E+01  0.7957747E-01            NaN
         13   -1    0    0    0    0  0.00000000000E+00  0.00000000000E+00  0.74505805969E-08  0.10566000000E+00  0.10566000000E+00 0.  1.
     999900   -1    0    0    0    0 -0.00000000000E+00 -0.00000000000E+00 -0.74505805969E-08  0.93827000000E+00  0.93827000000E+00 0.  1.
     999902    2    1    2    0    0  0.18200601400E-01 -0.14530552610E-01  0.17108443896E-02  0.10205777873E+01  0.10203105870E+01 0.  0.
     999903    2    3    3    0    0  0.17595608735E-01 -0.69118297643E-02  0.12847765444E+00  0.13146123975E+00  0.20449230554E-01 0.  0.
         14    1    1    2    0    0 -0.18200601400E-01  0.14530552610E-01 -0.17108443896E-02  0.23352212722E-01  0.00000000000E+00 0.  1.
     999901    1    3    3    0    0  0.60499266521E-03 -0.76187228460E-02 -0.12676681005E+00  0.88911654753E+00  0.88000000000E+00 0.  1.
        -11    1    4    4    0    0  0.76089062408E-02 -0.13514433049E-01  0.82568188132E-01  0.84013702259E-01  0.51100000000E-03 0.  1.
         11    1    4    4    0    0  0.99867024943E-02  0.66026032845E-02  0.45909466305E-01  0.47447537494E-01  0.51100000000E-03 0. -1.
</event>
<event>
 8    1  0.1061721E+005  0.1043930E+01  0.7957747E-01            NaN
         13   -1    0    0    0    0  0.00000000000E+00  0.00000000000E+00  0.74505805969E-08  0.10566000000E+00  0.10566000000E+00 0. -1.
     999900   -1    0    0    0    0 -0.00000000000E+00 -0.00000000000E+00 -0.74505805969E-08  0.93827000000E+00  0.93827000000E+00 0.  1.
     999902    2    1    2    0    0 -0.48800076098E-02  0.18841114714E-01  0.10735137709E-01  0.10217028711E+01  0.10214610671E+01 0.  0.
     999903    2    3    3    0    0  0.75007873059E-01 -0.19864316971E-01  0.10466684558E+00  0.13226296325E+00  0.22750181847E-01 0.  0.
         14    1    1    2    0    0  0.48800076098E-02 -0.18841114714E-01 -0.10735137709E-01  0.22227128910E-01  0.00000000000E+00 0.  1.
     999901    1    3    3    0    0 -0.79887880668E-01  0.38705431685E-01 -0.93931707870E-01  0.88943990784E+00  0.88000000000E+00 0.  1.
        -11    1    4    4    0    0  0.43016810206E-01 -0.11649963990E-01  0.41106802689E-01  0.60631658146E-01  0.51100000000E-03 0. -1.
         11    1    4    4    0    0  0.31991062853E-01 -0.82143529809E-02  0.63560042890E-01  0.71631305101E-01  0.51100000000E-03 0.  1.
</event>
<event>
 8    1  0.1061721E+005  0.1043930E+01  0.7957747E-01            NaN
         13   -1    0    0    0    0  0.00000000000E+00  0.00000000000E+00  0.74505805969E-08  0.10566000000E+00  0.10566000000E+00 0.  1.
     999900   -1    0    0    0    0 -0.00000000000E+00 -0.00000000000E+00 -0.74505805969E-08  0.93827000000E+00  0.93827000000E+00 0.  1.
     999902    2    1    2    0    0 -0.74976071150E-02 -0.20924883025E-01 -0.71663174518E-02  0.10205757510E+01  0.10203085036E+01 0.  0.
     999903    2    3    3    0    0 -0.12754385976E-01 -0.52198436720E-01  0.11817693772E+00  0.13112839418E+00  0.18480151332E-01 0.  0.
         14    1    1    2    0    0  0.74976071150E-02  0.20924883025E-01  0.71663174518E-02  0.23354249033E-01  0.00000000000E+00 0.  1.
     999901    1    3    3    0    0  0.52567788614E-02  0.31273553694E-01 -0.12534325517E+00  0.88944735679E+00  0.88000000000E+00 0.  1.
        -11    1    4    4    0    0 -0.11289769988E-01 -0.21391153407E-01  0.36200344505E-01  0.43540399789E-01  0.51100000000E-03 0. -1.
         11    1    4    4    0    0 -0.14646159885E-02 -0.30807283313E-01  0.81976593213E-01  0.87587994388E-01  0.51100000000E-03 0.  1.
</event>
<event>
 8    1  0.1061721E+005  0.1043930E+01  0.7957747E-01            NaN
         13   -1    0    0    0    0  0.00000000000E+00  0.00000000000E+00  0.74505805969E-08  0.10566000000E+00  0.10566000000E+00 0. -1.
     999900   -1    0    0    0    0 -0.00000000000E+00 -0.00000000000E+00 -0.74505805969E-08  0.93827000000E+00  0.93827000000E+00 0. -1.
     999902    2    1    2    0    0 -0.22559390779E-01  0.47747140449E-02 -0.27195259246E-02  0.10207110459E+01  0.10204469214E+01 0.  0.
     999903    2    3    3    0    0 -0.24133370166E-01  0.91254525175E-01 -0.90256687491E-01  0.13214816701E+00  0.20175740084E-01 0.  0.
         14    1    1    2    0    0  0.22559390779E-01 -0.47747140449E-02  0.27195259246E-02  0.23218954063E-01  0.00000000000E+00 0. -1.
     999901    1    3    3    0    0  0.15739793877E-02 -0.86479811130E-01  0.87537161567E-01  0.88856287892E+00  0.88000000000E+00 0.  1.
        -11    1    4    4    0    0 -0.13903921887E-01  0.36875941062E-01 -0.25378382379E-01  0.46877259799E-01  0.51100000000E-03 0. -1.
         11    1    4    4    0    0 -0.10229448279E-01  0.54378584113E-01 -0.64878305112E-01  0.85270907216E-01  0.51100000000E-03 0.  1.
</event>
<event>
 8    1  0.1061721E+005  0.1043930E+01  0.7957747E-01            NaN
         13   -1    0    0    0    0  0.00000000000E+00  0.00000000000E+00  0.74505805969E-08  0.10566000000E+00  0.10566000000E+00 0. -1.
     999900   -1    0    0    0    0 -0.00000000000E+00 -0.00000000000E+00 -0.74505805969E-08  0.93827000000E+00  0.93827000000E+00 0. -1.
     999902    2    1    2    0    0  0.20683156518E-01  0.11195061324E-01 -0.39061258322E-02  0.10200892747E+01  0.10198106433E+01 0.  0.
     999903    2    3    3    0    0 -0.97543467033E-01 -0.47887179680E-01  0.63621991831E-01  0.12766096256E+00  0.21015555631E-01 0.  0.
         14    1    1    2    0    0 -0.20683156518E-01 -0.11195061324E-01  0.39061258322E-02  0.23840725253E-01  0.00000000000E+00 0. -1.
     999901    1    3    3    0    0  0.11822662355E+00  0.59082241004E-01 -0.67528117663E-01  0.89242831219E+00  0.88000000000E+00 0. -1.
        -11    1    4    4    0    0 -0.12670796511E-01  0.70518577035E-03  0.50836038836E-02  0.13680296804E-01  0.51100000000E-03 0.  1.
         11    1    4    4    0    0 -0.84872670522E-01 -0.48592365450E-01  0.58538387947E-01  0.11398066576E+00  0.51100000000E-03 0. -1.
</event>
<event>
 8    1  0.1061721E+005  0.1043930E+01  0.7957747E-01            NaN
         13   -1    0    0    0    0  0.00000000000E+00  0.00000000000E+00  0.74505805969E-08  0.10566000000E+00  0.10566000000E+00 0.  1.
     999900   -1    0    0    0    0 -0.00000000000E+00 -0.00000000000E+00 -0.74505805969E-08  0.93827000000E+00  0.93827000000E+00 0. -1.
     999902    2    1    2    0    0  0.56808956030E-02  0.29117234774E-02 -0.22752825714E-01  0.10202986271E+01  0.10200249245E+01 0.  0.
     999903    2    3    3    0    0  0.44703836199E-01  0.90141970928E-01 -0.84711673616E-01  0.13295945584E+00  0.19445857091E-01 0.  0.
         14    1    1    2    0    0 -0.56808956030E-02 -0.29117234774E-02  0.22752825714E-01  0.23631372927E-01  0.00000000000E+00 0.  1.
     999901    1    3    3    0    0 -0.39022940596E-01 -0.87230247450E-01  0.61958847903E-01  0.88733917123E+00  0.88000000000E+00 0.  1.
        -11    1    4    4    0    0  0.30451427546E-01  0.53099798867E-01 -0.62459832690E-01  0.87454959265E-01  0.51100000000E-03 0.  1.
         11    1    4    4    0    0  0.14252408652E-01  0.37042172061E-01 -0.22251840926E-01  0.45504496580E-01  0.51100000000E-03 0. -1.
</event>
<event>
 8    1  0.1061721E+005  0.1043930E+01  0.7957747E-01            NaN
         13   -1    0    0    0    0  0.00000000000E+00  0.00000000000E+00  0.74505805969E-08  0.10566000000E+00  0.10566000000E+00 0.  1.
     999900   -1    0    0    0    0 -0.00000000000E+00 -0.00000000000E+00 -0.74505805969E-08  0.93827000000E+00  0.93827000000E+00 0. -1.
     999902    2    1    2    0    0  0.72731379723E-02 -0.59606199525E-02 -0.22910132166E-01  0.10191650715E+01  0.10188641427E+01 0.  0.
     999903    2    3    3    0    0  0.38869441697E-01 -0.95365222969E-01 -0.80438017113E-01  0.13220342242E+00  0.20052706859E-01 0.  0.
         14    1    1    2    0    0 -0.72731379723E-02  0.59606199525E-02  0.22910132166E-01  0.24764928469E-01  0.00000000000E+00 0.  1.
     999901    1    3    3    0    0 -0.31596303724E-01  0.89404603017E-01  0.57527884947E-01  0.88696164911E+00  0.88000000000E+00 0. -1.
        -11    1    4    4    0    0  0.32428859012E-02 -0.11319041374E-01 -0.18330400399E-01  0.21792239591E-01  0.51100000000E-03 0. -1.
         11    1    4    4    0    0  0.35626555796E-01 -0.84046181595E-01 -0.62107616714E-01  0.11041118283E+00  0.51100000000E-03 0.  1.
</event>
<event>
 8    1  0.1061721E+005  0.1043930E+01  0.7957747E-01            NaN
         13   -1    0    0    0    0  0.00000000000E+00  0.00000000000E+00  0.74505805969E-08  0.10566000000E+00  0.10566000000E+00 0.  1.
     999900   -1    0    0    0    0 -0.00000000000E+00 -0.00000000000E+00 -0.74505805969E-08  0.93827000000E+00  0.93827000000E+00 0. -1.
     999902    2    1    2    0    0 -0.26629614976E-02 -0.23044259199E-01  0.46474097616E-02  0.10202714357E+01  0.10199970955E+01 0.  0.
     999903    2    3    3    0    0  0.65623045114E-01  0.36401358140E-01 -0.10322594991E+00  0.12907369008E+00  0.19312633486E-01 0.  0.
         14    1    1    2    0    0  0.26629614976E-02  0.23044259199E-01 -0.46474097616E-02  0.23658564273E-01  0.00000000000E+00 0. -1.
     999901    1    3    3    0    0 -0.68286006611E-01 -0.59445617338E-01  0.10787335967E+00  0.89119774565E+00  0.88000000000E+00 0.  1.
        -11    1    4    4    0    0  0.36081695583E-01  0.13513380246E-01 -0.39397661485E-01  0.55108411820E-01  0.51100000000E-03 0. -1.
         11    1    4    4    0    0  0.29541349530E-01  0.22887977894E-01 -0.63828288423E-01  0.73965278260E-01  0.51100000000E-03 0.  1.
</event>
<event>
 8    1  0.1061721E+005  0.1043930E+01  0.7957747E-01            NaN
         13   -1    0    0    0    0  0.00000000000E+00  0.00000000000E+00  0.74505805969E-08  0.10566000000E+00  0.10566000000E+00 0. -1.
     999900   -1    0    0    0    0 -0.00000000000E+00 -0.00000000000E+00 -0.74505805969E-08  0.93827000000E+00  0.93827000000E+00 0.  1.
     999902    2    1    2    0    0  0.86278820243E-02  0.10051951324E-01 -0.18636252654E-01  0.10210653551E+01  0.10208093198E+01 0.  0.
     999903    2    3    3    0    0  0.20805224820E-01  0.35139887049E-01 -0.12607644448E+00  0.13409236395E+00  0.20440723459E-01 0.  0.
         14    1    1    2    0    0 -0.86278820243E-02 -0.10051951324E-01  0.18636252654E-01  0.22864644905E-01  0.00000000000E+00 0. -1.
     999901    1    3    3    0    0 -0.12177342795E-01 -0.25087935726E-01  0.10744019183E+00  0.88697299114E+00  0.88000000000E+00 0. -1.
        -11    1    4    4    0    0  0.24930649478E-01  0.29640604291E-01 -0.10496709968E+00  0.11188590546E+00  0.51100000000E-03 0.  1.
         11    1    4    4    0    0 -0.41254246579E-02  0.54992827582E-02 -0.21109344805E-01  0.22206458488E-01  0.51100000000E-03 0. -1.
</event>
<event>
 8    1  0.1061721E+005  0.1043930E+01  0.7957747E-01            NaN
         13   -1    0    0    0    0  0.00000000000E+00  0.00000000000E+00  0.74505805969E-08  0.10566000000E+00  0.10566000000E+00 0. -1.
     999900   -1    0    0    0    0 -0.00000000000E+00 -0.00000000000E+00 -0.74505805969E-08  0.93827000000E+00  0.93827000000E+00 0.  1.
     999902    2    1    2    0    0 -0.10110537611E-01  0.20870034623E-01 -0.29305146036E-03  0.10207380360E+01  0.10204745322E+01 0.  0.
     999903    2    3    3    0    0 -0.56192488530E-01  0.11899873892E+00  0.15411257245E-01  0.13394639522E+00  0.19642665573E-01 0.  0.
         14    1    1    2    0    0  0.10110537611E-01 -0.20870034623E-01  0.29305146036E-03  0.23191964020E-01  0.00000000000E+00 0.  1.
     999901    1    3    3    0    0  0.46081950919E-01 -0.98128704298E-01 -0.15704308705E-01  0.88679164076E+00  0.88000000000E+00 0.  1.
        -11    1    4    4    0    0 -0.29764514912E-01  0.71448912098E-01 -0.95460600842E-06  0.77402419277E-01  0.51100000000E-03 0.  1.
         11    1    4    4    0    0 -0.26427973618E-01  0.47549826823E-01  0.15412211851E-01  0.56543975944E-01  0.51100000000E-03 0. -1.
</event>
<event>
 8    1  0.1061721E+005  0.1043930E+01  0.7957747E-01            NaN
         13   -1    0    0    0    0  0.00000000000E+00  0.00000000000E+00  0.74505805969E-08  0.10566000000E+00  0.10566000000E+00 0. -1.
     999900   -1    0    0    0    0 -0.00000000000E+00 -0.00000000000E+00 -0.74505805969E-08  0.93827000000E+00  0.93827000000E+00 0.  1.
     999902    2    1    2    0    0 -0.72617790288E-02 -0.68465279062E-02 -0.21203505333E-01  0.10204950471E+01  0.10202259280E+01 0.  0.
     999903    2    3    3    0    0  0.94906649736E-01  0.70578701175E-01  0.46377716287E-01  0.12864288701E+00  0.20235478433E-01 0.  0.
         14    1    1    2    0    0  0.72617790288E-02  0.68465279062E-02  0.21203505333E-01  0.23434952901E-01  0.00000000000E+00 0.  1.
     999901    1    3    3    0    0 -0.10216842877E+00 -0.77425229081E-01 -0.67581221620E-01  0.89185216009E+00  0.88000000000E+00 0. -1.
        -11    1    4    4    0    0  0.47564581348E-01  0.27913463967E-01  0.12852280902E-01  0.56630319749E-01  0.51100000000E-03 0. -1.
         11    1    4    4    0    0  0.47342068388E-01  0.42665237208E-01  0.33525435385E-01  0.72012567265E-01  0.51100000000E-03 0.  1.
</event>
<event>
 8    1  0.1061721E+005  0.1043930E+01  0.7957747E-01            NaN
         13   -1    0    0    0    0  0.00000000000E+00  0.00000000000E+00  0.74505805969E-08  0.10566000000E+00  0.10566000000E+00 0.  1.
     999900   -1    0    0    0    0 -0.00000000000E+00 -0.00000000000E+00 -0.74505805969E-08  0.93827000000E+00  0.93827000000E+00 0. -1.
     999902    2    1    2    0    0  0.15506956220E-02  0.20003976973E-01  0.13479918298E-01  0.10197582820E+01  0.10194717661E+01 0.  0.
     999903    2    3    3    0    0 -0.34346033098E-01  0.58195607066E-01 -0.10891596480E+00  0.12974259233E+00  0.20101597059E-01 0.  0.
         14    1    1    2    0    0 -0.15506956220E-02 -0.20003976973E-01 -0.13479918298E-01  0.24171717957E-01  0.00000000000E+00 0. -1.
     999901    1    3    3    0    0  0.35896728720E-01 -0.38191630092E-01  0.12239588310E+00  0.89001568972E+00  0.88000000000E+00 0.  1.
        -11    1    4    4    0    0 -0.91902733919E-02  0.26362463781E-01 -0.29860955348E-01  0.40882494994E-01  0.51100000000E-03 0. -1.
         11    1    4    4    0    0 -0.25155759706E-01  0.31833143285E-01 -0.79055009451E-01  0.88860097333E-01  0.51100000000E-03 0.  1.
</event>
<event>
 8    1  0.1061721E+005  0.1043930E+01  0.7957747E-01            NaN
         13   -1    0    0    0    0  0.00000000000E+00  0.00000000000E+00  0.74505805969E-08  0.10566000000E+00  0.10566000000E+00 0.  1.
     999900   -1    0    0    0    0 -0.00000000000E+00 -0.00000000000E+00 -0.74505805969E-08  0.93827000000E+00  0.93827000000E+00 0. -1.
     999902    2    1    2    0    0 -0.37485623697E-02 -0.22638753261E-01 -0.95348642637E-02  0.10190808852E+01  0.10187778816E+01 0.  0.
     999903    2    3    3    0    0  0.97426206073E-01  0.56105234497E-01 -0.58401746714E-01  0.12844913102E+00  0.21183773817E-01 0.  0.
         14    1    1    2    0    0  0.37485623697E-02  0.22638753261E-01  0.95348642637E-02  0.24849114785E-01  0.00000000000E+00 0. -1.
     999901    1    3    3    0    0 -0.10117476844E+00 -0.78743987758E-01  0.48866882450E-01  0.89063175419E+00  0.88000000000E+00 0. -1.
        -11    1    4    4    0    0  0.65310814960E-01  0.48409862856E-01 -0.43672081403E-01  0.92285043141E-01  0.51100000000E-03 0.  1.
         11    1    4    4    0    0  0.32115391113E-01  0.76953716411E-02 -0.14729665311E-01  0.36164087880E-01  0.51100000000E-03 0. -1.
</event>
<event>
 8    1  0.1061721E+005  0.1043930E+01  0.7957747E-01            NaN
         13   -1    0    0    0    0  0.00000000000E+00  0.00000000000E+00  0.74505805969E-08  0.10566000000E+00  0.10566000000E+00 0.  1.
     999900   -1    0    0    0    0 -0.00000000000E+00 -0.00000000000E+00 -0.74505805969E-08  0.93827000000E+00  0.93827000000E+00 0. -1.
     999902    2    1    2    0    0 -0.14585178589E-01  0.15902761796E-01 -0.87202912967E-02  0.10206562219E+01  0.10203908342E+01 0.  0.
     999903    2    3    3    0    0 -0.44107934702E-01 -0.19068890110E-01 -0.12154066259E+00  0.13227395859E+00  0.20374861624E-01 0.  0.
         14    1    1    2    0    0  0.14585178589E-01 -0.15902761796E-01  0.87202912967E-02  0.23273778110E-01  0.00000000000E+00 0.  1.
     999901    1    3    3    0    0  0.29522756112E-01  0.34971651905E-01  0.11282037129E+00  0.88838226330E+00  0.88000000000E+00 0.  1.
        -11    1    4    4    0    0 -0.20771324882E-01 -0.45765095617E-02 -0.77486138385E-01  0.80353936680E-01  0.51100000000E-03 0.  1.
         11    1    4    4    0    0 -0.23336609820E-01 -0.14492380548E-01 -0.44054524200E-01  0.51920021912E-01  0.51100000000E-03 0. -1.
</event>
<event>
 8    1  0.1061721E+005  0.1043930E+01  0.7957747E-01            NaN
         13   -1    0    0    0    0  0.00000000000E+00  0.00000000000E+00  0.74505805969E-08  0.10566000000E+00  0.10566000000E+00 0.  1.
     999900   -1    0    0    0    0 -0.00000000000E+00 -0.00000000000E+00 -0.74505805969E-08  0.93827000000E+00  0.93827000000E+00 0. -1.
     999902    2    1    2    0    0 -0.37886584044E-02  0.13494028520E-01  0.20273070038E-01  0.10192836999E+01  0.10189856824E+01 0.  0.
     999903    2    3    3    0    0  0.12310314522E+00  0.17147632291E-01 -0.26666455378E-01  0.12893646560E+00  0.21565867994E-01 0.  0.
         14    1    1    2    0    0  0.37886584044E-02 -0.13494028520E-01 -0.20273070038E-01  0.24646300066E-01  0.00000000000E+00 0. -1.
     999901    1    3    3    0    0 -0.12689180362E+00 -0.36536037715E-02  0.46939525416E-01  0.89034723434E+00  0.88000000000E+00 0. -1.
        -11    1    4    4    0    0  0.95051125372E-01  0.92977442904E-02 -0.11811528628E-01  0.96233766490E-01  0.51100000000E-03 0.  1.
         11    1    4    4    0    0  0.28052019845E-01  0.78498880009E-02 -0.14854926751E-01  0.32702699105E-01  0.51100000000E-03 0. -1.
</event>
<event>
 8    1  0.1201769E+005  0.1043930E+01  0.7957747E-01            NaN
         13   -1    0    0    0    0  0.00000000000E+00  0.00000000000E+00  0.74505805969E-08  0.10566000000E+00  0.10566000000E+00 0. -1.
     999900   -1    0    0    0    0 -0.00000000000E+00 -0.00000000000E+00 -0.74505805969E-08  0.93827000000E+00  0.93827000000E+00 0. -1.
     999902    2    1    2    0    0 -0.91617545198E-02 -0.11547653621E-01  0.18715996189E-01  0.10201061766E+01  0.10198279447E+01 0.  0.
     999903    2    3    3    0    0  0.45150134505E-01  0.10988934549E+00 -0.43093148055E-01  0.12796431768E+00  0.20090900737E-01 0.  0.
         14    1    1    2    0    0  0.91617545198E-02  0.11547653621E-01 -0.18715996189E-01  0.23823823442E-01  0.00000000000E+00 0.  1.
     999901    1    3    3    0    0 -0.54311889024E-01 -0.12143699911E+00  0.61809144244E-01  0.89214185887E+00  0.88000000000E+00 0.  1.
        -11    1    4    4    0    0  0.11654851821E-01  0.54387974607E-01 -0.18309609678E-01  0.58560996238E-01  0.51100000000E-03 0.  1.
         11    1    4    4    0    0  0.33495282683E-01  0.55501370886E-01 -0.24783538378E-01  0.69403321446E-01  0.51100000000E-03 0. -1.
</event>
<event>
 8    1  0.1061721E+005  0.1043930E+01  0.7957747E-01            NaN
         13   -1    0    0    0    0  0.00000000000E+00  0.00000000000E+00  0.74505805969E-08  0.10566000000E+00  0.10566000000E+00 0. -1.
     999900   -1    0    0    0    0 -0.00000000000E+00 -0.00000000000E+00 -0.74505805969E-08  0.93827000000E+00  0.93827000000E+00 0. -1.
     999902    2    1    2    0    0  0.12620761038E-01  0.14899738278E-01 -0.11942751766E-01  0.10210408076E+01  0.10207842160E+01 0.  0.
     999903    2    3    3    0    0 -0.78217891132E-01  0.34904412479E-01  0.95254025588E-01  0.12966939409E+00  0.20111336810E-01 0.  0.
         14    1    1    2    0    0 -0.12620761038E-01 -0.14899738278E-01  0.11942751766E-01  0.22889192421E-01  0.00000000000E+00 0.  1.
     999901    1    3    3    0    0  0.90838652170E-01 -0.20004674201E-01 -0.10719677735E+00  0.89137141349E+00  0.88000000000E+00 0. -1.
        -11    1    4    4    0    0 -0.48189311120E-01  0.12376825536E-01  0.46201653000E-01  0.67898817203E-01  0.51100000000E-03 0. -1.
         11    1    4    4    0    0 -0.30028580011E-01  0.22527586943E-01  0.49052372587E-01  0.61770576883E-01  0.51100000000E-03 0.  1.
</event>
<event>
 8    1  0.1061721E+005  0.1043930E+01  0.7957747E-01            NaN
         13   -1    0    0    0    0  0.00000000000E+00  0.00000000000E+00  0.74505805969E-08  0.10566000000E+00  0.10566000000E+00 0. -1.
     999900   -1    0    0    0    0 -0.00000000000E+00 -0.00000000000E+00 -0.74505805969E-08  0.93827000000E+00  0.93827000000E+00 0. -1.
     999902    2    1    2    0    0 -0.11219444445E-02 -0.25765976650E-01  0.13280776573E-01  0.10149209783E+01  0.10145063178E+01 0.  0.
     999903    2    3    3    0    0 -0.87838647805E-01 -0.91081775200E-01 -0.15234715360E-02  0.12812612835E+00  0.20061554751E-01 0.  0.
         14    1    1    2    0    0  0.11219444445E-02  0.25765976650E-01 -0.13280776573E-01  0.29009021673E-01  0.00000000000E+00 0. -1.
     999901    1    3    3    0    0  0.86716703360E-01  0.65315798550E-01  0.14804248109E-01  0.88679484998E+00  0.88000000000E+00 0.  1.
        -11    1    4    4    0    0 -0.24557384473E-01 -0.14970353706E-01  0.37150862486E-02  0.29004130897E-01  0.51100000000E-03 0.  1.
         11    1    4    4    0    0 -0.63281263332E-01 -0.76111421494E-01 -0.52385577846E-02  0.99121997454E-01  0.51100000000E-03 0. -1.
</event>
<event>
 8    1  0.1061721E+005  0.1043930E+01  0.7957747E-01            NaN
         13   -1    0    0    0    0  0.00000000000E+00  0.00000000000E+00  0.74505805969E-08  0.10566000000E+00  0.10566000000E+00 0.  1.
     999900   -1    0    0    0    0 -0.00000000000E+00 -0.00000000000E+00 -0.74505805969E-08  0.93827000000E+00  0.93827000000E+00 0.  1.
     999902    2    1    2    0    0 -0.10172343498E-01  0.58927138682E-03  0.21359385931E-01  0.10202646840E+01  0.10199901854E+01 0.  0.
     999903    2    3    3    0    0  0.11577960752E+00  0.32447554765E-02 -0.50400669628E-01  0.12840121289E+00  0.23047733487E-01 0.  0.
         14    1    1    2    0    0  0.10172343498E-01 -0.58927138682E-03 -0.21359385931E-01  0.23665315978E-01  0.00000000000E+00 0. -1.
     999901    1    3    3    0    0 -0.12595195101E+00 -0.26554840896E-02  0.71760055559E-01  0.89186347113E+00  0.88000000000E+00 0. -1.
        -11    1    4    4    0    0  0.38270274892E-01 -0.86437604808E-02 -0.22099348090E-01  0.45032997263E-01  0.51100000000E-03 0.  1.
         11    1    4    4    0    0  0.77509332624E-01  0.11888515957E-01 -0.28301321538E-01  0.83368215629E-01  0.51100000000E-03 0. -1.
</event>
<event>
 8    1  0.1061721E+005  0.1043930E+01  0.7957747E-01            NaN
         13   -1    0    0    0    0  0.00000000000E+00  0.00000000000E+00  0.74505805969E-08  0.10566000000E+00  0.10566000000E+00 0.  1.
     999900   -1    0    0    0    0 -0.00000000000E+00 -0.00000000000E+00 -0.74505805969E-08  0.93827000000E+00  0.93827000000E+00 0. -1.
     999902    2    1    2    0    0 -0.13493165543E-01  0.10918833496E-01  0.18895524329E-01  0.10182721107E+01  0.10179488024E+01 0.  0.
     999903    2    3    3    0    0  0.11240340637E+00 -0.46254221862E-01  0.31832265579E-01  0.12738150896E+00  0.20947001929E-01 0.  0.
         14    1    1    2    0    0  0.13493165543E-01 -0.10918833496E-01 -0.18895524329E-01  0.25657889253E-01  0.00000000000E+00 0. -1.
     999901    1    3    3    0    0 -0.12589657191E+00  0.57173055357E-01 -0.12936741250E-01  0.89089060179E+00  0.88000000000E+00 0.  1.
        -11    1    4    4    0    0  0.20740680451E-01 -0.12172554259E-01 -0.13980529357E-02  0.24094866170E-01  0.51100000000E-03 0. -1.
         11    1    4    4    0    0  0.91662725917E-01 -0.34081667603E-01  0.33230318515E-01  0.10328664279E+00  0.51100000000E-03 0.  1.
</event>
<event>
 8    1  0.1061721E+005  0.1043930E+01  0.7957747E-01            NaN
         13   -1    0    0    0    0  0.00000000000E+00  0.00000000000E+00  0.74505805969E-08  0.10566000000E+00  0.10566000000E+00 0.  1.
     999900   -1    0    0    0    0 -0.00000000000E+00 -0.00000000000E+00 -0.74505805969E-08  0.93827000000E+00  0.93827000000E+00 0. -1.
     999902    2    1    2    0    0 -0.19814472362E-01  0.82820100144E-02 -0.88292203436E-02  0.10207101779E+01  0.10204460335E+01 0.  0.
     999903    2    3    3    0    0  0.20170704245E-01 -0.17922713767E-01  0.12493929042E+00  0.12931827963E+00  0.19629319312E-01 0.  0.
         14    1    1    2    0    0  0.19814472362E-01 -0.82820100144E-02  0.88292203436E-02  0.23219822065E-01  0.00000000000E+00 0.  1.
     999901    1    3    3    0    0 -0.39985176607E-01  0.26204723781E-01 -0.13376851076E+00  0.89139189831E+00  0.88000000000E+00 0. -1.
        -11    1    4    4    0    0  0.10604423136E-01 -0.16200401439E-02  0.77641330360E-01  0.78380581914E-01  0.51100000000E-03 0.  1.
         11    1    4    4    0    0  0.95662811090E-02 -0.16302673623E-01  0.47297960060E-01  0.50937697713E-01  0.51100000000E-03 0. -1.
</event>
<event>
 8    1  0.1061721E+005  0.1043930E+01  0.7957747E-01            NaN
         13   -1    0    0    0    0  0.00000000000E+00  0.00000000000E+00  0.74505805969E-08  0.10566000000E+00  0.10566000000E+00 0. -1.
     999900   -1    0    0    0    0 -0.00000000000E+00 -0.00000000000E+00 -0.74505805969E-08  0.93827000000E+00  0.93827000000E+00 0.  1.
     999902    2    1    2    0    0  0.10123704315E-01  0.81485841942E-02 -0.19533936527E-01  0.10204680416E+01  0.10201982947E+01 0.  0.
     999903    2    3    3    0    0  0.24398816312E-01  0.93214251072E-01  0.84935096764E-01  0.13010085592E+00  0.20689688466E-01 0.  0.
         14    1    1    2    0    0 -0.10123704315E-01 -0.81485841942E-02  0.19533936527E-01  0.23461958351E-01  0.00000000000E+00 0. -1.
     999901    1    3    3    0    0 -0.14275111996E-01 -0.85065666877E-01 -0.10446903329E+00  0.89036718573E+00  0.88000000000E+00 0.  1.
        -11    1    4    4    0    0  0.24759086714E-01  0.59034125041E-01  0.50079506912E-01  0.81278892880E-01  0.51100000000E-03 0. -1.
         11    1    4    4    0    0 -0.36027040248E-03  0.34180126031E-01  0.34855589852E-01  0.48821963041E-01  0.51100000000E-03 0.  1.
</event>
<event>
 8    1  0.1061721E+005  0.1043930E+01  0.7957747E-01            NaN
         13   -1    0    0    0    0  0.00000000000E+00  0.00000000000E+00  0.74505805969E-08  0.10566000000E+00  0.10566000000E+00 0.  1.
     999900   -1    0    0    0    0 -0.00000000000E+00 -0.00000000000E+00 -0.74505805969E-08  0.93827000000E+00  0.93827000000E+00 0.  1.
     999902    2    1    2    0    0 -0.22013022210E-02 -0.74823166939E-02  0.23852728917E-01  0.10188345129E+01  0.10185253955E+01 0.  0.
     999903    2    3    3    0    0 -0.10668333381E+00  0.66147196841E-01  0.25182240875E-01  0.12959912914E+00  0.20124702584E-01 0.  0.
         14    1    1    2    0    0  0.22013022210E-02  0.74823166939E-02 -0.23852728917E-01  0.25095487071E-01  0.00000000000E+00 0. -1.
     999901    1    3    3    0    0  0.10448203159E+00 -0.73629513534E-01 -0.13295119588E-02  0.88923538379E+00  0.88000000000E+00 0.  1.
        -11    1    4    4    0    0 -0.31594893483E-01  0.95419733501E-02  0.44704667083E-02  0.33309649401E-01  0.51100000000E-03 0.  1.
         11    1    4    4    0    0 -0.75088440329E-01  0.56605223491E-01  0.20711774167E-01  0.96289479735E-01  0.51100000000E-03 0. -1.
</event>
<event>
 8    1  0.1061721E+005  0.1043930E+01  0.7957747E-01            NaN
         13   -1    0    0    0    0  0.00000000000E+00  0.00000000000E+00  0.74505805969E-08  0.10566000000E+00  0.10566000000E+00 0.  1.
     999900   -1    0    0    0    0 -0.00000000000E+00 -0.00000000000E+00 -0.74505805969E-08  0.93827000000E+00  0.93827000000E+00 0. -1.
     999902    2    1    2    0    0 -0.18790510406E-01  0.15290715426E-02  0.14710763103E-01  0.10200170769E+01  0.10197367353E+01 0.  0.
     999903    2    3    3    0    0  0.71785339340E-01  0.98473388356E-01  0.39871269471E-01  0.12971643316E+00  0.19659393302E-01 0.  0.
         14    1    1    2    0    0  0.18790510406E-01 -0.15290715426E-02 -0.14710763103E-01  0.23912923121E-01  0.00000000000E+00 0. -1.
     999901    1    3    3    0    0 -0.90575849747E-01 -0.96944316813E-01 -0.25160506368E-01  0.89030064372E+00  0.88000000000E+00 0. -1.
        -11    1    4    4    0    0  0.98174380561E-02  0.10879296812E-01 -0.14537620630E-02  0.14734847615E-01  0.51100000000E-03 0. -1.
         11    1    4    4    0    0  0.61967901284E-01  0.87594091544E-01  0.41325031534E-01  0.11498158555E+00  0.51100000000E-03 0.  1.
</event>
<event>
 8    1  0.1061721E+005  0.1043930E+01  0.7957747E-01            NaN
         13   -1    0    0    0    0  0.00000000000E+00  0.00000000000E+00  0.74505805969E-08  0.10566000000E+00  0.10566000000E+00 0. -1.
     999900   -1    0    0    0    0 -0.00000000000E+00 -0.00000000000E+00 -0.74505805969E-08  0.93827000000E+00  0.93827000000E+00 0.  1.
     999902    2    1    2    0    0  0.13224790764E-01 -0.16526452495E-01 -0.10635015372E-01  0.10202419804E+01  0.10199669486E+01 0.  0.
     999903    2    3    3    0    0  0.10993904458E+00 -0.13895352619E-03  0.69409876783E-01  0.13118102531E+00  0.17438967185E-01 0.  0.
         14    1    1    2    0    0 -0.13224790764E-01  0.16526452495E-01  0.10635015372E-01  0.23688019647E-01  0.00000000000E+00 0.  1.
     999901    1    3    3    0    0 -0.96714253816E-01 -0.16387498969E-01 -0.80044892155E-01  0.88906095504E+00  0.88000000000E+00 0. -1.
        -11    1    4    4    0    0  0.64819827296E-01 -0.11371887174E-02  0.30753445495E-01  0.71756105940E-01  0.51100000000E-03 0.  1.
         11    1    4    4    0    0  0.45119217284E-01  0.99823519124E-03  0.38656431288E-01  0.59424919375E-01  0.51100000000E-03 0. -1.
</event>
<event>
 8    1  0.1061721E+005  0.1043930E+01  0.7957747E-01            NaN
         13   -1    0    0    0    0  0.00000000000E+00  0.00000000000E+00  0.74505805969E-08  0.10566000000E+00  0.10566000000E+00 0.  1.
     999900   -1    0    0    0    0 -0.00000000000E+00 -0.00000000000E+00 -0.74505805969E-08  0.93827000000E+00  0.93827000000E+00 0. -1.
     999902    2    1    2    0    0  0.30767032031E-02 -0.16636839505E-01  0.15284080521E-01  0.10211297007E+01  0.10208751207E+01 0.  0.
     999903    2    3    3    0    0 -0.63573816933E-01  0.10861825086E+00 -0.20332232419E-01  0.12905366624E+00  0.20047305949E-01 0.  0.
         14    1    1    2    0    0 -0.30767032031E-02  0.16636839505E-01 -0.15284080521E-01  0.22800299311E-01  0.00000000000E+00 0. -1.
     999901    1    3    3    0    0  0.66650520136E-01 -0.12525509036E+00  0.35616312940E-01  0.89207603445E+00  0.88000000000E+00 0. -1.
        -11    1    4    4    0    0 -0.20739744149E-01  0.39666042415E-01 -0.16764521448E-01  0.47800023102E-01  0.51100000000E-03 0.  1.
         11    1    4    4    0    0 -0.42834072784E-01  0.68952208441E-01 -0.35677109712E-02  0.81253643135E-01  0.51100000000E-03 0. -1.
</event>
<event>
 8    1  0.1061721E+005  0.1043930E+01  0.7957747E-01            NaN
         13   -1    0    0    0    0  0.00000000000E+00  0.00000000000E+00  0.74505805969E-08  0.10566000000E+00  0.10566000000E+00 0.  1.
     999900   -1    0    0    0    0 -0.00000000000E+00 -0.00000000000E+00 -0.74505805969E-08  0.93827000000E+00  0.93827000000E+00 0.  1.
     999902    2    1    2    0    0 -0.11154649343E-01  0.17822976993E-01  0.98643163600E-02  0.10207052406E+01  0.10204409825E+01 0.  0.
     999903    2    3    3    0    0 -0.12138399750E+00 -0.45248772722E-01 -0.10362120384E-01  0.13135847836E+00  0.19135046779E-01 0.  0.
         14    1    1    2    0    0  0.11154649343E-01 -0.17822976993E-01 -0.98643163600E-02  0.23224759376E-01  0.00000000000E+00 0.  1.
     999901    1    3    3    0    0  0.11022934816E+00  0.63071749715E-01  0.20226436744E-01  0.88934676226E+00  0.88000000000E+00 0. -1.
        -11    1    4    4    0    0 -0.53135404106E-01 -0.28035310701E-01  0.83412139320E-03  0.60085827739E-01  0.51100000000E-03 0. -1.
         11    1    4    4    0    0 -0.68248593397E-01 -0.17213462022E-01 -0.11196241777E-01  0.71272650620E-01  0.51100000000E-03 0.  1.
</event>
<event>
 8    1  0.1061721E+005  0.1043930E+01  0.7957747E-01            NaN
         13   -1    0    0    0    0  0.00000000000E+00  0.00000000000E+00  0.74505805969E-08  0.10566000000E+00  0.10566000000E+00 0.  1.
     999900   -1    0    0    0    0 -0.00000000000E+00 -0.00000000000E+00 -0.74505805969E-08  0.93827000000E+00  0.93827000000E+00 0.  1.
     999902    2    1    2    0    0  0.18167381251E-01 -0.11935190760E-01  0.46513777878E-02  0.10217007887E+01  0.10214589389E+01 0.  0.
     999903    2    3    3    0    0  0.93857384441E-01 -0.36230415876E-01 -0.85284212986E-01  0.13355235232E+00  0.20999575629E-01 0.  0.
         14    1    1    2    0    0 -0.18167381251E-01  0.11935190760E-01 -0.46513777878E-02  0.22229211307E-01  0.00000000000E+00 0. -1.
     999901    1    3    3    0    0 -0.75690003190E-01  0.24295225116E-01  0.89935590774E-01  0.88814843637E+00  0.88000000000E+00 0. -1.
        -11    1    4    4    0    0  0.35987379428E-01 -0.36446680198E-02 -0.26290352972E-01  0.44719334336E-01  0.51100000000E-03 0.  1.
         11    1    4    4    0    0  0.57870005012E-01 -0.32585747856E-01 -0.58993860015E-01  0.88833017983E-01  0.51100000000E-03 0. -1.
</event>
<event>
 8    1  0.1061721E+005  0.1043930E+01  0.7957747E-01            NaN
         13   -1    0    0    0    0  0.00000000000E+00  0.00000000000E+00  0.74505805969E-08  0.10566000000E+00  0.10566000000E+00 0.  1.
     999900   -1    0    0    0    0 -0.00000000000E+00 -0.00000000000E+00 -0.74505805969E-08  0.93827000000E+00  0.93827000000E+00 0.  1.
     999902    2    1    2    0    0 -0.17224035738E-01  0.15130857706E-01 -0.18598430961E-03  0.10210030540E+01  0.10207456057E+01 0.  0.
     999903    2    3    3    0    0 -0.69582395109E-01 -0.27616696523E-01 -0.10686361167E+00  0.13198738072E+00  0.19910940050E-01 0.  0.
         14    1    1    2    0    0  0.17224035738E-01 -0.15130857706E-01  0.18598430961E-03  0.22926945984E-01  0.00000000000E+00 0.  1.
     999901    1    3    3    0    0  0.52358359371E-01  0.42747554229E-01  0.10667762736E+00  0.88901567330E+00  0.88000000000E+00 0. -1.
        -11    1    4    4    0    0 -0.48543365840E-01 -0.20745001902E-01 -0.58510460088E-01  0.78807033517E-01  0.51100000000E-03 0.  1.
         11    1    4    4    0    0 -0.21039029269E-01 -0.68716946214E-02 -0.48353151582E-01  0.53180347202E-01  0.51100000000E-03 0. -1.
</event>
<event>
 8    1  0.1061721E+005  0.1043930E+01  0.7957747E-01            NaN
         13   -1    0    0    0    0  0.00000000000E+00  0.00000000000E+00  0.74505805969E-08  0.10566000000E+00  0.10566000000E+00 0.  1.
     999900   -1    0    0    0    0 -0.00000000000E+00 -0.00000000000E+00 -0.74505805969E-08  0.93827000000E+00  0.93827000000E+00 0.  1.
     999902    2    1    2    0    0 -0.16733877985E-01  0.13183038731E-01  0.10381782384E-01  0.10202319708E+01  0.10199567038E+01 0.  0.
     999903    2    3    3    0    0  0.11153675908E+00  0.61975085710E-01 -0.74286029797E-02  0.12941704613E+00  0.20303394138E-01 0.  0.
         14    1    1    2    0    0  0.16733877985E-01 -0.13183038731E-01 -0.10381782384E-01  0.23698029202E-01  0.00000000000E+00 0. -1.
     999901    1    3    3    0    0 -0.12827063706E+00 -0.48792046979E-01  0.17810385363E-01  0.89081492467E+00  0.88000000000E+00 0. -1.
        -11    1    4    4    0    0  0.85870773767E-01  0.51441530862E-01 -0.13513970642E-01  0.10100945207E+00  0.51100000000E-03 0. -1.
         11    1    4    4    0    0  0.25665985309E-01  0.10533554848E-01  0.60853676621E-02  0.28407594058E-01  0.51100000000E-03 0.  1.
</event>
<event>
 8    1  0.1061721E+005  0.1043930E+01  0.7957747E-01            NaN
         13   -1    0    0    0    0  0.00000000000E+00  0.00000000000E+00  0.74505805969E-08  0.10566000000E+00  0.10566000000E+00 0. -1.
     999900   -1    0    0    0    0 -0.00000000000E+00 -0.00000000000E+00 -0.74505805969E-08  0.93827000000E+00  0.93827000000E+00 0.  1.
     999902    2    1    2    0    0 -0.80613304051E-02 -0.82091580102E-02 -0.21383859272E-01  0.10196473980E+01  0.10193582155E+01 0.  0.
     999903    2    3    3    0    0  0.76825407156E-02 -0.11282099651E+00 -0.65551388362E-01  0.13221161053E+00  0.19882825702E-01 0.  0.
         14    1    1    2    0    0  0.80613304051E-02  0.82091580102E-02  0.21383859272E-01  0.24282602012E-01  0.00000000000E+00 0. -1.
     999901    1    3    3    0    0 -0.15743871121E-01  0.10461183850E+00  0.44167529091E-01  0.88743578746E+00  0.88000000000E+00 0.  1.
        -11    1    4    4    0    0  0.11657032915E-01 -0.75921254392E-01 -0.36321869168E-01  0.84967420731E-01  0.51100000000E-03 0.  1.
         11    1    4    4    0    0 -0.39744921995E-02 -0.36899742117E-01 -0.29229519194E-01  0.47244189801E-01  0.51100000000E-03 0. -1.
</event>
<event>
 8    1  0.1061721E+005  0.1043930E+01  0.7957747E-01            NaN
         13   -1    0    0    0    0  0.00000000000E+00  0.00000000000E+00  0.74505805969E-08  0.10566000000E+00  0.10566000000E+00 0.  1.
     999900   -1    0    0    0    0 -0.00000000000E+00 -0.00000000000E+00 -0.74505805969E-08  0.93827000000E+00  0.93827000000E+00 0. -1.
     999902    2    1    2    0    0 -0.12755134661E-02  0.10007517436E-01 -0.22838192424E-01  0.10189628141E+01  0.10186568883E+01 0.  0.
     999903    2    3    3    0    0  0.82686413188E-01  0.96825919424E-01 -0.21848103802E-01  0.13071283781E+00  0.19904892155E-01 0.  0.
         14    1    1    2    0    0  0.12755134661E-02 -0.10007517436E-01  0.22838192424E-01  0.24967185925E-01  0.00000000000E+00 0.  1.
     999901    1    3    3    0    0 -0.83961926654E-01 -0.86818401988E-01 -0.99008862155E-03  0.88824997626E+00  0.88000000000E+00 0. -1.
        -11    1    4    4    0    0  0.20144178644E-01  0.12998864614E-01 -0.59622830055E-03  0.23986976127E-01  0.51100000000E-03 0. -1.
         11    1    4    4    0    0  0.62542234544E-01  0.83827054809E-01 -0.21251875502E-01  0.10672586169E+00  0.51100000000E-03 0.  1.
</event>
<event>
 8    1  0.1061721E+005  0.1043930E+01  0.7957747E-01            NaN
         13   -1    0    0    0    0  0.00000000000E+00  0.00000000000E+00  0.74505805969E-08  0.10566000000E+00  0.10566000000E+00 0. -1.
     999900   -1    0    0    0    0 -0.00000000000E+00 -0.00000000000E+00 -0.74505805969E-08  0.93827000000E+00  0.93827000000E+00 0. -1.
     999902    2    1    2    0    0 -0.20669746501E-01  0.82450822588E-02  0.34652573949E-02  0.10214082814E+01  0.10211599529E+01 0.  0.
     999903    2    3    3    0    0  0.11561973432E+00  0.29971544775E-01  0.44376990960E-01  0.12971291202E+00  0.24287975552E-01 0.  0.
         14    1    1    2    0    0  0.20669746501E-01 -0.82450822588E-02 -0.34652573949E-02  0.22521718644E-01  0.00000000000E+00 0.  1.
     999901    1    3    3    0    0 -0.13628948082E+00 -0.21726462516E-01 -0.40911733565E-01  0.89169536934E+00  0.88000000000E+00 0. -1.
        -11    1    4    4    0    0  0.27483802134E-01  0.16764407601E-01  0.63490527776E-02  0.32817317595E-01  0.51100000000E-03 0.  1.
         11    1    4    4    0    0  0.88135932189E-01  0.13207137173E-01  0.38027938182E-01  0.96895594422E-01  0.51100000000E-03 0. -1.
</event>
<event>
 8    1  0.1061721E+005  0.1043930E+01  0.7957747E-01            NaN
         13   -1    0    0    0    0  0.00000000000E+00  0.00000000000E+00  0.74505805969E-08  0.10566000000E+00  0.10566000000E+00 0.  1.
     999900   -1    0    0    0    0 -0.00000000000E+00 -0.00000000000E+00 -0.74505805969E-08  0.93827000000E+00  0.93827000000E+00 0.  1.
     999902    2    1    2    0    0 -0.12444820443E-01  0.11172908516E-01 -0.19711510319E-01  0.10180794472E+01  0.10177512023E+01 0.  0.
     999903    2    3    3    0    0 -0.51939011366E-01 -0.11436117437E+00  0.11590975638E-01  0.12774330692E+00  0.20195609426E-01 0.  0.
         14    1    1    2    0    0  0.12444820443E-01 -0.11172908516E-01  0.19711510319E-01  0.25850552791E-01  0.00000000000E+00 0.  1.
     999901    1    3    3    0    0  0.39494190922E-01  0.12553408289E+00 -0.31302485957E-01  0.89033614029E+00  0.88000000000E+00 0. -1.
        -11    1    4    4    0    0 -0.18370487650E-02 -0.20056345396E-01 -0.12478858008E-02  0.20185392708E-01  0.51100000000E-03 0. -1.
         11    1    4    4    0    0 -0.50101962601E-01 -0.94304828977E-01  0.12838861439E-01  0.10755791421E+00  0.51100000000E-03 0.  1.
</event>
<event>
 8    1  0.1061721E+005  0.1043930E+01  0.7957747E-01            NaN
         13   -1    0    0    0    0  0.00000000000E+00  0.00000000000E+00  0.74505805969E-08  0.10566000000E+00  0.10566000000E+00 0. -1.
     999900   -1    0    0    0    0 -0.00000000000E+00 -0.00000000000E+00 -0.74505805969E-08  0.93827000000E+00  0.93827000000E+00 0.  1.
     999902    2    1    2    0    0  0.22125876148E-01  0.12320142332E-01 -0.26114900200E-02  0.10184710098E+01  0.10181527575E+01 0.  0.
     999903    2    3    3    0    0 -0.96341189751E-01  0.80517967243E-01 -0.13692159569E-01  0.12784865982E+00  0.19825153042E-01 0.  0.
         14    1    1    2    0    0 -0.22125876148E-01 -0.12320142332E-01  0.26114900200E-02  0.25458990210E-01  0.00000000000E+00 0. -1.
     999901    1    3    3    0    0  0.11846706590E+00 -0.68197824911E-01  0.11080669549E-01  0.89062234997E+00  0.88000000000E+00 0.  1.
        -11    1    4    4    0    0 -0.27468349040E-01  0.28540076484E-01 -0.12547549177E-01  0.41554160755E-01  0.51100000000E-03 0.  1.
         11    1    4    4    0    0 -0.68872840711E-01  0.51977890759E-01 -0.11446103921E-02  0.86294499067E-01  0.51100000000E-03 0. -1.
</event>
<event>
 8    1  0.1061721E+005  0.1043930E+01  0.7957747E-01            NaN
         13   -1    0    0    0    0  0.00000000000E+00  0.00000000000E+00  0.74505805969E-08  0.10566000000E+00  0.10566000000E+00 0. -1.
     999900   -1    0    0    0    0 -0.00000000000E+00 -0.00000000000E+00 -0.74505805969E-08  0.93827000000E+00  0.93827000000E+00 0.  1.
     999902    2    1    2    0    0  0.19859170968E-01  0.32436959049E-02 -0.11991889513E-01  0.10205053624E+01  0.10202364829E+01 0.  0.
     999903    2    3    3    0    0 -0.12532919626E-01 -0.78224917801E-01 -0.10287362915E+00  0.13149137307E+00  0.20755379489E-01 0.  0.
         14    1    1    2    0    0 -0.19859170968E-01 -0.32436959049E-02  0.11991889513E-01  0.23424637644E-01  0.00000000000E+00 0.  1.
     999901    1    3    3    0    0  0.32392090594E-01  0.81468613706E-01  0.90881739635E-01  0.88901398929E+00  0.88000000000E+00 0. -1.
        -11    1    4    4    0    0 -0.16733400420E-01 -0.40286787418E-01 -0.58035499264E-01  0.72604491775E-01  0.51100000000E-03 0.  1.
         11    1    4    4    0    0  0.42004807939E-02 -0.37938130383E-01 -0.44838129884E-01  0.58886881292E-01  0.51100000000E-03 0. -1.
</event>
<event>
 8    1  0.1061721E+005  0.1043930E+01  0.7957747E-01            NaN
         13   -1    0    0    0    0  0.00000000000E+00  0.00000000000E+00  0.74505805969E-08  0.10566000000E+00  0.10566000000E+00 0.  1.
     999900   -1    0    0    0    0 -0.00000000000E+00 -0.00000000000E+00 -0.74505805969E-08  0.93827000000E+00  0.93827000000E+00 0. -1.
     999902    2    1    2    0    0  0.13278630639E-01 -0.88860355682E-02  0.18709211060E-01  0.10193267840E+01  0.10190298201E+01 0.  0.
     999903    2    3    3    0    0 -0.82371913253E-01 -0.90190121642E-01 -0.34299510692E-01  0.12883854401E+00  0.22439337183E-01 0.  0.
         14    1    1    2    0    0 -0.13278630639E-01  0.88860355682E-02 -0.18709211060E-01  0.24603216015E-01  0.00000000000E+00 0. -1.
     999901    1    3    3    0    0  0.95650543892E-01  0.81304086073E-01  0.53008721752E-01  0.89048823998E+00  0.88000000000E+00 0.  1.
        -11    1    4    4    0    0 -0.64078241371E-01 -0.82091124764E-01 -0.27627161071E-01  0.10774272566E+00  0.51100000000E-03 0.  1.
         11    1    4    4    0    0 -0.18293671882E-01 -0.80989968779E-02 -0.66723496216E-02  0.21095818349E-01  0.51100000000E-03 0. -1.
</event>
<event>
 8    1  0.1061721E+005  0.1043930E+01  0.7957747E-01            NaN
         13   -1    0    0    0    0  0.00000000000E+00  0.00000000000E+00  0.74505805969E-08  0.10566000000E+00  0.10566000000E+00 0. -1.
     999900   -1    0    0    0    0 -0.00000000000E+00 -0.00000000000E+00 -0.74505805969E-08  0.93827000000E+00  0.93827000000E+00 0. -1.
     999902    2    1    2    0    0 -0.69623630230E-02 -0.21645406308E-01  0.17963186771E-03  0.10211916979E+01  0.10209385161E+01 0.  0.
     999903    2    3    3    0    0 -0.42315286289E-01 -0.64224221019E-01  0.10669149123E+00  0.13304330897E+00  0.20052773913E-01 0.  0.
         14    1    1    2    0    0  0.69623630230E-02  0.21645406308E-01 -0.17963186771E-03  0.22738302063E-01  0.00000000000E+00 0. -1.
     999901    1    3    3    0    0  0.35352923266E-01  0.42578814712E-01 -0.10651185936E+00  0.88814838897E+00  0.88000000000E+00 0. -1.
        -11    1    4    4    0    0 -0.34177578970E-01 -0.34485602852E-01  0.62125292984E-01  0.78849076455E-01  0.51100000000E-03 0. -1.
         11    1    4    4    0    0 -0.81377073187E-02 -0.29738618167E-01  0.44566198242E-01  0.54194232513E-01  0.51100000000E-03 0.  1.
</event>
<event>
 8    1  0.1061721E+005  0.1043930E+01  0.7957747E-01            NaN
         13   -1    0    0    0    0  0.00000000000E+00  0.00000000000E+00  0.74505805969E-08  0.10566000000E+00  0.10566000000E+00 0.  1.
     999900   -1    0    0    0    0 -0.00000000000E+00 -0.00000000000E+00 -0.74505805969E-08  0.93827000000E+00  0.93827000000E+00 0.  1.
     999902    2    1    2    0    0 -0.19417743077E-01  0.76103416570E-02 -0.12033344717E-01  0.10198516398E+01  0.10195673591E+01 0.  0.
     999903    2    3    3    0    0  0.53019688185E-01 -0.11257530432E+00  0.23309981502E-01  0.12803275588E+00  0.19098294790E-01 0.  0.
         14    1    1    2    0    0  0.19417743077E-01 -0.76103416570E-02  0.12033344717E-01  0.24078360231E-01  0.00000000000E+00 0.  1.
     999901    1    3    3    0    0 -0.72437431262E-01  0.12018564598E+00 -0.35343326219E-01  0.89181888389E+00  0.88000000000E+00 0.  1.
        -11    1    4    4    0    0  0.43294075641E-01 -0.90442960390E-01  0.10926966893E-01  0.10086607852E+00  0.51100000000E-03 0.  1.
         11    1    4    4    0    0  0.97256125442E-02 -0.22132343929E-01  0.12383014609E-01  0.27166677363E-01  0.51100000000E-03 0. -1.
</event>
<event>
 8    1  0.1061721E+005  0.1043930E+01  0.7957747E-01            NaN
         13   -1    0    0    0    0  0.00000000000E+00  0.00000000000E+00  0.74505805969E-08  0.10566000000E+00  0.10566000000E+00 0. -1.
     999900   -1    0    0    0    0 -0.00000000000E+00 -0.00000000000E+00 -0.74505805969E-08  0.93827000000E+00  0.93827000000E+00 0.  1.
     999902    2    1    2    0    0  0.92359273804E-02  0.28745760358E-02  0.21386894065E-01  0.10204573610E+01  0.10201873656E+01 0.  0.
     999903    2    3    3    0    0 -0.94231937759E-01 -0.84525110819E-01  0.22041931876E-01  0.13009522491E+00  0.20365861908E-01 0.  0.
         14    1    1    2    0    0 -0.92359273804E-02 -0.28745760358E-02 -0.21386894065E-01  0.23472638959E-01  0.00000000000E+00 0.  1.
     999901    1    3    3    0    0  0.10346786514E+00  0.87399686855E-01 -0.65503781084E-03  0.89036213613E+00  0.88000000000E+00 0. -1.
        -11    1    4    4    0    0 -0.60475175092E-01 -0.49318869479E-01  0.41780482586E-02  0.78149311560E-01  0.51100000000E-03 0.  1.
         11    1    4    4    0    0 -0.33756762667E-01 -0.35206241340E-01  0.17863883617E-01  0.51945913351E-01  0.51100000000E-03 0. -1.
</event>
<event>
 8    1  0.1061721E+005  0.1043930E+01  0.7957747E-01            NaN
         13   -1    0    0    0    0  0.00000000000E+00  0.00000000000E+00  0.74505805969E-08  0.10566000000E+00  0.10566000000E+00 0.  1.
     999900   -1    0    0    0    0 -0.00000000000E+00 -0.00000000000E+00 -0.74505805969E-08  0.93827000000E+00  0.93827000000E+00 0. -1.
     999902    2    1    2    0    0  0.10100298236E-01  0.21228704141E-01 -0.78394928623E-02  0.10191483222E+01  0.10188469812E+01 0.  0.
     999903    2    3    3    0    0 -0.84323275211E-01  0.25580432842E-01 -0.92839293276E-01  0.13001407207E+00  0.22798054164E-01 0.  0.
         14    1    1    2    0    0 -0.10100298236E-01 -0.21228704141E-01  0.78394928623E-02  0.24781677754E-01  0.00000000000E+00 0.  1.
     999901    1    3    3    0    0  0.94423573447E-01 -0.43517287007E-02  0.84999800413E-01  0.88913425018E+00  0.88000000000E+00 0.  1.
        -11    1    4    4    0    0 -0.59401800390E-01  0.73162063210E-02 -0.65838510345E-01  0.88977926082E-01  0.51100000000E-03 0. -1.
         11    1    4    4    0    0 -0.24921474821E-01  0.18264226521E-01 -0.27000782931E-01  0.41036145988E-01  0.51100000000E-03 0.  1.
</event>
<event>
 8    1  0.1061721E+005  0.1043930E+01  0.7957747E-01            NaN
         13   -1    0    0    0    0  0.00000000000E+00  0.00000000000E+00  0.74505805969E-08  0.10566000000E+00  0.10566000000E+00 0. -1.
     999900   -1    0    0    0    0 -0.00000000000E+00 -0.00000000000E+00 -0.74505805969E-08  0.93827000000E+00  0.93827000000E+00 0.  1.
     999902    2    1    2    0    0  0.48457526194E-03  0.57753653634E-02  0.22792591569E-01  0.10204120943E+01  0.10201410443E+01 0.  0.
     999903    2    3    3    0    0 -0.38622344136E-01  0.89277630045E-01  0.88799468025E-01  0.13313598897E+00  0.19433613745E-01 0.  0.
         14    1    1    2    0    0 -0.48457526194E-03 -0.57753653634E-02 -0.22792591569E-01  0.23517905704E-01  0.00000000000E+00 0.  1.
     999901    1    3    3    0    0  0.39106919398E-01 -0.83502264682E-01 -0.66006876456E-01  0.88727610533E+00  0.88000000000E+00 0.  1.
        -11    1    4    4    0    0 -0.90558976929E-02  0.11169890954E-01  0.21531892151E-01  0.25897089558E-01  0.51100000000E-03 0.  1.
         11    1    4    4    0    0 -0.29566446443E-01  0.78107739091E-01  0.67267575874E-01  0.10723889941E+00  0.51100000000E-03 0. -1.
</event>
<event>
 8    1  0.1061721E+005  0.1043930E+01  0.7957747E-01            NaN
         13   -1    0    0    0    0  0.00000000000E+00  0.00000000000E+00  0.74505805969E-08  0.10566000000E+00  0.10566000000E+00 0.  1.
     999900   -1    0    0    0    0 -0.00000000000E+00 -0.00000000000E+00 -0.74505805969E-08  0.93827000000E+00  0.93827000000E+00 0. -1.
     999902    2    1    2    0    0 -0.15140215557E-01 -0.10567000056E-02 -0.19551623713E-01  0.10191790660E+01  0.10188784814E+01 0.  0.
     999903    2    3    3    0    0  0.95416293477E-01 -0.83157554243E-01  0.38467101287E-02  0.12816235801E+00  0.19782440305E-01 0.  0.
         14    1    1    2    0    0  0.15140215557E-01  0.10567000056E-02  0.19551623713E-01  0.24750933959E-01  0.00000000000E+00 0.  1.
     999901    1    3    3    0    0 -0.11055650903E+00  0.82100854238E-01 -0.23398333842E-01  0.89101670803E+00  0.88000000000E+00 0. -1.
        -11    1    4    4    0    0  0.10148132466E-01 -0.83636659292E-02 -0.56903047731E-02  0.14337928363E-01  0.51100000000E-03 0. -1.
         11    1    4    4    0    0  0.85268161011E-01 -0.74793888314E-01  0.95370149019E-02  0.11382442965E+00  0.51100000000E-03 0.  1.
</event>
<event>
 8    1  0.1061721E+005  0.1043930E+01  0.7957747E-01            NaN
         13   -1    0    0    0    0  0.00000000000E+00  0.00000000000E+00  0.74505805969E-08  0.10566000000E+00  0.10566000000E+00 0.  1.
     999900   -1    0    0    0    0 -0.00000000000E+00 -0.00000000000E+00 -0.74505805969E-08  0.93827000000E+00  0.93827000000E+00 0.  1.
     999902    2    1    2    0    0 -0.18317287352E-01  0.86993871350E-02 -0.10363928854E-01  0.10211569156E+01  0.10209029498E+01 0.  0.
     999903    2    3    3    0    0 -0.46535423315E-01  0.29950681126E-01 -0.11996519495E+00  0.13365462363E+00  0.20231695305E-01 0.  0.
         14    1    1    2    0    0  0.18317287352E-01 -0.86993871350E-02  0.10363928854E-01  0.22773084415E-01  0.00000000000E+00 0.  1.
     999901    1    3    3    0    0  0.28218135962E-01 -0.21251293991E-01  0.10960126610E+00  0.88750229195E+00  0.88000000000E+00 0. -1.
        -11    1    4    4    0    0 -0.38184675416E-01  0.32072892104E-01 -0.95961468947E-01  0.10814621809E+00  0.51100000000E-03 0. -1.
         11    1    4    4    0    0 -0.83507478984E-02 -0.21222109772E-02 -0.24003726005E-01  0.25508405537E-01  0.51100000000E-03 0.  1.
</event>
<event>
 8    1  0.1061721E+005  0.1043930E+01  0.7957747E-01            NaN
         13   -1    0    0    0    0  0.00000000000E+00  0.00000000000E+00  0.74505805969E-08  0.10566000000E+00  0.10566000000E+00 0.  1.
     999900   -1    0    0    0    0 -0.00000000000E+00 -0.00000000000E+00 -0.74505805969E-08  0.93827000000E+00  0.93827000000E+00 0.  1.
     999902    2    1    2    0    0  0.17251956575E-01  0.14589616376E-01  0.60618449713E-02  0.10205369909E+01  0.10202688454E+01 0.  0.
     999903    2    3    3    0    0 -0.52329988913E-01  0.74553395171E-01  0.92434810189E-01  0.13155015687E+00  0.21554887306E-01 0.  0.
         14    1    1    2    0    0 -0.17251956575E-01 -0.14589616376E-01 -0.60618449713E-02  0.23393009130E-01  0.00000000000E+00 0. -1.
     999901    1    3    3    0    0  0.69581945488E-01 -0.59963778795E-01 -0.86372965217E-01  0.88898683400E+00  0.88000000000E+00 0. -1.
        -11    1    4    4    0    0 -0.30813540080E-01  0.53856354578E-01  0.73514602294E-01  0.96201034569E-01  0.51100000000E-03 0.  1.
         11    1    4    4    0    0 -0.21516448833E-01  0.20697040593E-01  0.18920207895E-01  0.35349122301E-01  0.51100000000E-03 0. -1.
</event>
<event>
 8    1  0.1061721E+005  0.1043930E+01  0.7957747E-01            NaN
         13   -1    0    0    0    0  0.00000000000E+00  0.00000000000E+00  0.74505805969E-08  0.10566000000E+00  0.10566000000E+00 0.  1.
     999900   -1    0    0    0    0 -0.00000000000E+00 -0.00000000000E+00 -0.74505805969E-08  0.93827000000E+00  0.93827000000E+00 0. -1.
     999902    2    1    2    0    0  0.15464038096E-01 -0.17628488488E-01 -0.14977065545E-02  0.10204322723E+01  0.10201616927E+01 0.  0.
     999903    2    3    3    0    0  0.60636503248E-01 -0.37484162118E-01  0.10976192988E+00  0.13205537817E+00  0.17581061276E-01 0.  0.
         14    1    1    2    0    0 -0.15464038096E-01  0.17628488488E-01  0.14977065545E-02  0.23497727667E-01  0.00000000000E+00 0. -1.
     999901    1    3    3    0    0 -0.45172465153E-01  0.19855673631E-01 -0.11125963644E+00  0.88837689416E+00  0.88000000000E+00 0. -1.
        -11    1    4    4    0    0  0.30757817176E-01 -0.17856158536E-01  0.39063722138E-01  0.52831063053E-01  0.51100000000E-03 0. -1.
         11    1    4    4    0    0  0.29878686073E-01 -0.19628003583E-01  0.70698207746E-01  0.79224315116E-01  0.51100000000E-03 0.  1.
</event>
<event>
 8    1  0.1061721E+005  0.1043930E+01  0.7957747E-01            NaN
         13   -1    0    0    0    0  0.00000000000E+00  0.00000000000E+00  0.74505805969E-08  0.10566000000E+00  0.10566000000E+00 0.  1.
     999900   -1    0    0    0    0 -0.00000000000E+00 -0.00000000000E+00 -0.74505805969E-08  0.93827000000E+00  0.93827000000E+00 0. -1.
     999902    2    1    2    0    0  0.74952137876E-02  0.15597641754E-01 -0.15542276021E-01  0.10206700129E+01  0.10204049432E+01 0.  0.
     999903    2    3    3    0    0  0.38339558725E-01  0.12531209084E+00 -0.13465856391E-01  0.13331836584E+00  0.20479636392E-01 0.  0.
         14    1    1    2    0    0 -0.74952137876E-02 -0.15597641754E-01  0.15542276021E-01  0.23259987143E-01  0.00000000000E+00 0.  1.
     999901    1    3    3    0    0 -0.30844344937E-01 -0.10971444909E+00 -0.20764196296E-02  0.88735164702E+00  0.88000000000E+00 0. -1.
        -11    1    4    4    0    0 -0.23476871586E-03  0.21245074780E-01  0.16024404345E-02  0.21312842492E-01  0.51100000000E-03 0.  1.
         11    1    4    4    0    0  0.38574327441E-01  0.10406701606E+00 -0.15068296825E-01  0.11200552334E+00  0.51100000000E-03 0. -1.
</event>
<event>
 8    1  0.1061721E+005  0.1043930E+01  0.7957747E-01            NaN
         13   -1    0    0    0    0  0.00000000000E+00  0.00000000000E+00  0.74505805969E-08  0.10566000000E+00  0.10566000000E+00 0. -1.
     999900   -1    0    0    0    0 -0.00000000000E+00 -0.00000000000E+00 -0.74505805969E-08  0.93827000000E+00  0.93827000000E+00 0. -1.
     999902    2    1    2    0    0  0.21097416405E-01 -0.82830418964E-02 -0.78815508507E-02  0.10199335710E+01  0.10196512446E+01 0.  0.
     999903    2    3    3    0    0 -0.71790328239E-01  0.79807102357E-01  0.66823315112E-01  0.12753857793E+00  0.16664591271E-01 0.  0.
         14    1    1    2    0    0 -0.21097416405E-01  0.82830418964E-02  0.78815508507E-02  0.23996429022E-01  0.00000000000E+00 0.  1.
     999901    1    3    3    0    0  0.92887744644E-01 -0.88090144254E-01 -0.74704865963E-01  0.89239499305E+00  0.88000000000E+00 0.  1.
        -11    1    4    4    0    0 -0.62296785581E-01  0.67789353829E-01  0.49948654855E-01  0.10474452362E+00  0.51100000000E-03 0.  1.
         11    1    4    4    0    0 -0.94935426583E-02  0.12017748529E-01  0.16874660257E-01  0.22794054306E-01  0.51100000000E-03 0. -1.
</event>
<event>
 8    1  0.1061721E+005  0.1043930E+01  0.7957747E-01            NaN
         13   -1    0    0    0    0  0.00000000000E+00  0.00000000000E+00  0.74505805969E-08  0.10566000000E+00  0.10566000000E+00 0.  1.
     999900   -1    0    0    0    0 -0.00000000000E+00 -0.00000000000E+00 -0.74505805969E-08  0.93827000000E+00  0.93827000000E+00 0.  1.
     999902    2    1    2    0    0 -0.15267312283E-01 -0.13810630704E-01 -0.11066228499E-01  0.10205572433E+01  0.10202895672E+01 0.  0.
     999903    2    3    3    0    0  0.31811781085E-01 -0.10321553562E+00 -0.74171850774E-01  0.13253021798E+00  0.19933866193E-01 0.  0.
         14    1    1    2    0    0  0.15267312283E-01  0.13810630704E-01  0.11066228499E-01  0.23372756748E-01  0.00000000000E+00 0.  1.
     999901    1    3    3    0    0 -0.47079093368E-01  0.89404904913E-01  0.63105622276E-01  0.88802702527E+00  0.88000000000E+00 0. -1.
        -11    1    4    4    0    0  0.33927379887E-01 -0.85842900952E-01 -0.61492848026E-01  0.11091303904E+00  0.51100000000E-03 0.  1.
         11    1    4    4    0    0 -0.21155988027E-02 -0.17372634665E-01 -0.12679002748E-01  0.21617178937E-01  0.51100000000E-03 0. -1.
</event>
<event>
 8    1  0.1061721E+005  0.1043930E+01  0.7957747E-01            NaN
         13   -1    0    0    0    0  0.00000000000E+00  0.00000000000E+00  0.74505805969E-08  0.10566000000E+00  0.10566000000E+00 0.  1.
     999900   -1    0    0    0    0 -0.00000000000E+00 -0.00000000000E+00 -0.74505805969E-08  0.93827000000E+00  0.93827000000E+00 0. -1.
     999902    2    1    2    0    0  0.11921385671E-01 -0.22775476200E-01  0.52283440267E-02  0.10176968657E+01  0.10173587043E+01 0.  0.
     999903    2    3    3    0    0  0.38543806671E-01  0.24362519944E-01 -0.11758938981E+00  0.12751995088E+00  0.18839210891E-01 0.  0.
         14    1    1    2    0    0 -0.11921385671E-01  0.22775476200E-01 -0.52283440267E-02  0.26233134271E-01  0.00000000000E+00 0.  1.
     999901    1    3    3    0    0 -0.26622421000E-01 -0.47137996143E-01  0.12281773383E+00  0.89017691485E+00  0.88000000000E+00 0.  1.
        -11    1    4    4    0    0  0.26928653578E-01  0.18203065865E-01 -0.57937936319E-01  0.66434701597E-01  0.51100000000E-03 0. -1.
         11    1    4    4    0    0  0.11615153093E-01  0.61594540791E-02 -0.59651453489E-01  0.61085249285E-01  0.51100000000E-03 0.  1.
</event>
<event>
 8    1  0.1061721E+005  0.1043930E+01  0.7957747E-01            NaN
         13   -1    0    0    0    0  0.00000000000E+00  0.00000000000E+00  0.74505805969E-08  0.10566000000E+00  0.10566000000E+00 0. -1.
     999900   -1    0    0    0    0 -0.00000000000E+00 -0.00000000000E+00 -0.74505805969E-08  0.93827000000E+00  0.93827000000E+00 0.  1.
     999902    2    1    2    0    0 -0.15073975235E-01 -0.25136937206E-01  0.65303459659E-02  0.10139010846E+01  0.10134563008E+01 0.  0.
     999903    2    3    3    0    0  0.86162335352E-01  0.38986420103E-01  0.76082252158E-01  0.12305987362E+00  0.20281381010E-01 0.  0.
         14    1    1    2    0    0  0.15073975235E-01  0.25136937206E-01 -0.65303459659E-02  0.30028915398E-01  0.00000000000E+00 0.  1.
     999901    1    3    3    0    0 -0.10123631059E+00 -0.64123357309E-01 -0.69551906192E-01  0.89084121098E+00  0.88000000000E+00 0.  1.
        -11    1    4    4    0    0  0.80604467714E-01  0.32241342404E-01  0.62784394380E-01  0.10713881497E+00  0.51100000000E-03 0. -1.
         11    1    4    4    0    0  0.55578676382E-02  0.67450776984E-02  0.13297857778E-01  0.15921058644E-01  0.51100000000E-03 0.  1.
</event>
<event>
 8    1  0.1061721E+005  0.1043930E+01  0.7957747E-01            NaN
         13   -1    0    0    0    0  0.00000000000E+00  0.00000000000E+00  0.74505805969E-08  0.10566000000E+00  0.10566000000E+00 0.  1.
     999900   -1    0    0    0    0 -0.00000000000E+00 -0.00000000000E+00 -0.74505805969E-08  0.93827000000E+00  0.93827000000E+00 0. -1.
     999902    2    1    2    0    0  0.19233370272E-02 -0.21985242070E-01 -0.12201154571E-01  0.10187125801E+01  0.10184004137E+01 0.  0.
     999903    2    3    3    0    0  0.92069305654E-01 -0.68577732419E-01 -0.60998650092E-01  0.13153821651E+00  0.20045065793E-01 0.  0.
         14    1    1    2    0    0 -0.19233370272E-02  0.21985242070E-01  0.12201154571E-01  0.25217419912E-01  0.00000000000E+00 0.  1.
     999901    1    3    3    0    0 -0.90145968627E-01  0.46592490350E-01  0.48797495521E-01  0.88717436358E+00  0.88000000000E+00 0.  1.
        -11    1    4    4    0    0  0.34222713703E-01 -0.19184584831E-01 -0.30027014070E-01  0.49407743556E-01  0.51100000000E-03 0.  1.
         11    1    4    4    0    0  0.57846591951E-01 -0.49393147589E-01 -0.30971636022E-01  0.82130472956E-01  0.51100000000E-03 0. -1.
</event>
<event>
 8    1  0.1061721E+005  0.1043930E+01  0.7957747E-01            NaN
         13   -1    0    0    0    0  0.00000000000E+00  0.00000000000E+00  0.74505805969E-08  0.10566000000E+00  0.10566000000E+00 0.  1.
     999900   -1    0    0    0    0 -0.00000000000E+00 -0.00000000000E+00 -0.74505805969E-08  0.93827000000E+00  0.93827000000E+00 0. -1.
     999902    2    1    2    0    0  0.12577620405E-01 -0.23693945858E-01  0.19664044746E-02  0.10170326702E+01  0.10166769329E+01 0.  0.
     999903    2    3    3    0    0  0.99297780719E-02  0.10265700780E+00 -0.67415230641E-01  0.12530099200E+00  0.22769794257E-01 0.  0.
         14    1    1    2    0    0 -0.12577620405E-01  0.23693945858E-01 -0.19664044746E-02  0.26897329829E-01  0.00000000000E+00 0. -1.
     999901    1    3    3    0    0  0.26478423332E-02 -0.12635095366E+00  0.69381635116E-01  0.89173167817E+00  0.88000000000E+00 0.  1.
        -11    1    4    4    0    0  0.15806129376E-01  0.75830741832E-01 -0.43259109461E-01  0.88722865176E-01  0.51100000000E-03 0.  1.
         11    1    4    4    0    0 -0.58763513041E-02  0.26826265970E-01 -0.24156121180E-01  0.36578126825E-01  0.51100000000E-03 0. -1.
</event>
<event>
 8    1  0.1061721E+005  0.1043930E+01  0.7957747E-01            NaN
         13   -1    0    0    0    0  0.00000000000E+00  0.00000000000E+00  0.74505805969E-08  0.10566000000E+00  0.10566000000E+00 0.  1.
     999900   -1    0    0    0    0 -0.00000000000E+00 -0.00000000000E+00 -0.74505805969E-08  0.93827000000E+00  0.93827000000E+00 0. -1.
     999902    2    1    2    0    0 -0.11302984264E-02 -0.82999842045E-02 -0.22716207811E-01  0.10197185686E+01  0.10194310991E+01 0.  0.
     999903    2    3    3    0    0  0.91086098024E-02 -0.12650432723E+00  0.24140735624E-01  0.13052079809E+00  0.19146593375E-01 0.  0.
         14    1    1    2    0    0  0.11302984264E-02  0.82999842045E-02  0.22716207811E-01  0.24211431384E-01  0.00000000000E+00 0.  1.
     999901    1    3    3    0    0 -0.10238908229E-01  0.11820434303E+00 -0.46856943435E-01  0.88919777052E+00  0.88000000000E+00 0. -1.
        -11    1    4    4    0    0  0.14190289784E-01 -0.10576606594E+00  0.17398520171E-01  0.10812397817E+00  0.51100000000E-03 0. -1.
         11    1    4    4    0    0 -0.50816799813E-02 -0.20738261289E-01  0.67422154531E-02  0.22396819929E-01  0.51100000000E-03 0.  1.
</event>
<event>
 8    1  0.1061721E+005  0.1043930E+01  0.7957747E-01            NaN
         13   -1    0    0    0    0  0.00000000000E+00  0.00000000000E+00  0.74505805969E-08  0.10566000000E+00  0.10566000000E+00 0. -1.
     999900   -1    0    0    0    0 -0.00000000000E+00 -0.00000000000E+00 -0.74505805969E-08  0.93827000000E+00  0.93827000000E+00 0. -1.
     999902    2    1    2    0    0  0.29546816291E-02 -0.15560231807E-01  0.16932166691E-01  0.10207448921E+01  0.10204815459E+01 0.  0.
     999903    2    3    3    0    0 -0.20174321195E-02 -0.83349859549E-01 -0.98732669100E-01  0.13057720582E+00  0.18734930266E-01 0.  0.
         14    1    1    2    0    0 -0.29546816291E-02  0.15560231807E-01 -0.16932166691E-01  0.23185107855E-01  0.00000000000E+00 0. -1.
     999901    1    3    3    0    0  0.49721137486E-02  0.67789627742E-01  0.11566483579E+00  0.89016768633E+00  0.88000000000E+00 0.  1.
        -11    1    4    4    0    0 -0.83458598846E-02 -0.60135008986E-01 -0.77754461223E-01  0.98650342342E-01  0.51100000000E-03 0. -1.
         11    1    4    4    0    0  0.63284277651E-02 -0.23214850563E-01 -0.20978207877E-01  0.31926863475E-01  0.51100000000E-03 0.  1.
</event>
<event>
 8    1  0.1061721E+005  0.1043930E+01  0.7957747E-01            NaN
         13   -1    0    0    0    0  0.00000000000E+00  0.00000000000E+00  0.74505805969E-08  0.10566000000E+00  0.10566000000E+00 0.  1.
     999900   -1    0    0    0    0 -0.00000000000E+00 -0.00000000000E+00 -0.74505805969E-08  0.93827000000E+00  0.93827000000E+00 0. -1.
     999902    2    1    2    0    0 -0.85762759568E-02 -0.14303442152E-01 -0.16786686489E-01  0.10202670794E+01  0.10199926370E+01 0.  0.
     999903    2    3    3    0    0 -0.59072594706E-01 -0.37940273313E-01  0.10695536180E+00  0.12986229928E+00  0.22265030241E-01 0.  0.
         14    1    1    2    0    0  0.85762759568E-02  0.14303442152E-01  0.16786686489E-01  0.23662920571E-01  0.00000000000E+00 0.  1.
     999901    1    3    3    0    0  0.50496318749E-01  0.23636831161E-01 -0.12374204829E+00  0.89040478015E+00  0.88000000000E+00 0. -1.
        -11    1    4    4    0    0 -0.41283235012E-01 -0.37348138779E-01  0.84729915941E-01  0.10138347370E+00  0.51100000000E-03 0.  1.
         11    1    4    4    0    0 -0.17789359694E-01 -0.59213453442E-03  0.22225445863E-01  0.28478825580E-01  0.51100000000E-03 0. -1.
</event>
<event>
 8    1  0.1061721E+005  0.1043930E+01  0.7957747E-01            NaN
         13   -1    0    0    0    0  0.00000000000E+00  0.00000000000E+00  0.74505805969E-08  0.10566000000E+00  0.10566000000E+00 0.  1.
     999900   -1    0    0    0    0 -0.00000000000E+00 -0.00000000000E+00 -0.74505805969E-08  0.93827000000E+00  0.93827000000E+00 0.  1.
     999902    2    1    2    0    0  0.67637393622E-02 -0.17699573975E-01  0.17427146168E-01  0.10181864860E+01  0.10178609884E+01 0.  0.
     999903    2    3    3    0    0 -0.24308570507E-01 -0.64961684745E-01 -0.10551709638E+00  0.12784133814E+00  0.19965545948E-01 0.  0.
         14    1    1    2    0    0 -0.67637393622E-02  0.17699573975E-01 -0.17427146168E-01  0.25743513991E-01  0.00000000000E+00 0. -1.
     999901    1    3    3    0    0  0.31072309869E-01  0.47262110770E-01  0.12294424255E+00  0.89034514787E+00  0.88000000000E+00 0. -1.
        -11    1    4    4    0    0 -0.75918237390E-02 -0.27959876336E-01 -0.27801331140E-01  0.40156762899E-01  0.51100000000E-03 0. -1.
         11    1    4    4    0    0 -0.16716746768E-01 -0.37001808409E-01 -0.77715765237E-01  0.87684575243E-01  0.51100000000E-03 0.  1.
</event>
<event>
 8    1  0.1061721E+005  0.1043930E+01  0.7957747E-01            NaN
         13   -1    0    0    0    0  0.00000000000E+00  0.00000000000E+00  0.74505805969E-08  0.10566000000E+00  0.10566000000E+00 0. -1.
     999900   -1    0    0    0    0 -0.00000000000E+00 -0.00000000000E+00 -0.74505805969E-08  0.93827000000E+00  0.93827000000E+00 0. -1.
     999902    2    1    2    0    0 -0.15657953307E-01 -0.87254621919E-02  0.94679750820E-02  0.10236581539E+01  0.10234574091E+01 0.  0.
     999903    2    3    3    0    0 -0.36513200393E-01 -0.25393914249E-01  0.12630242213E+00  0.13553481413E+00  0.20959945646E-01 0.  0.
         14    1    1    2    0    0  0.15657953307E-01  0.87254621919E-02 -0.94679750820E-02  0.20271846102E-01  0.00000000000E+00 0. -1.
     999901    1    3    3    0    0  0.20855247086E-01  0.16668452057E-01 -0.11683444705E+00  0.88812333977E+00  0.88000000000E+00 0. -1.
        -11    1    4    4    0    0 -0.24749244657E-01 -0.25842921796E-01  0.78026647863E-01  0.85841718388E-01  0.51100000000E-03 0.  1.
         11    1    4    4    0    0 -0.11763955736E-01  0.44900754728E-03  0.48275774267E-01  0.49693095742E-01  0.51100000000E-03 0. -1.
</event>
<event>
 8    1  0.1061721E+005  0.1043930E+01  0.7957747E-01            NaN
         13   -1    0    0    0    0  0.00000000000E+00  0.00000000000E+00  0.74505805969E-08  0.10566000000E+00  0.10566000000E+00 0.  1.
     999900   -1    0    0    0    0 -0.00000000000E+00 -0.00000000000E+00 -0.74505805969E-08  0.93827000000E+00  0.93827000000E+00 0.  1.
     999902    2    1    2    0    0 -0.20042877759E-01  0.12389100929E-01  0.32661708073E-02  0.10201418802E+01  0.10198644916E+01 0.  0.
     999903    2    3    3    0    0 -0.11286103873E+00  0.64853138811E-01  0.22489911426E-01  0.13349807436E+00  0.19297566305E-01 0.  0.
         14    1    1    2    0    0  0.20042877759E-01 -0.12389100929E-01 -0.32661708073E-02  0.23788119775E-01  0.00000000000E+00 0.  1.
     999901    1    3    3    0    0  0.92818160970E-01 -0.52464037882E-01 -0.19223740619E-01  0.88664380587E+00  0.88000000000E+00 0. -1.
        -11    1    4    4    0    0 -0.52396849592E-01  0.34644087088E-01  0.19757177171E-01  0.65850207198E-01  0.51100000000E-03 0. -1.
         11    1    4    4    0    0 -0.60464189137E-01  0.30209051723E-01  0.27327342547E-02  0.67647867161E-01  0.51100000000E-03 0.  1.
</event>
<event>
 8    1  0.1061721E+005  0.1043930E+01  0.7957747E-01            NaN
         13   -1    0    0    0    0  0.00000000000E+00  0.00000000000E+00  0.74505805969E-08  0.10566000000E+00  0.10566000000E+00 0.  1.
     999900   -1    0    0    0    0 -0.00000000000E+00 -0.00000000000E+00 -0.74505805969E-08  0.93827000000E+00  0.93827000000E+00 0. -1.
     999902    2    1    2    0    0  0.90602280811E-02 -0.52173686782E-02 -0.21217047603E-01  0.10202768442E+01  0.10200026309E+01 0.  0.
     999903    2    3    3    0    0  0.86123750030E-01 -0.34239169488E-01 -0.93831528686E-01  0.13345447521E+00  0.20399022800E-01 0.  0.
         14    1    1    2    0    0 -0.90602280811E-02  0.52173686782E-02  0.21217047603E-01  0.23653155768E-01  0.00000000000E+00 0.  1.
     999901    1    3    3    0    0 -0.77063521949E-01  0.29021800810E-01  0.72614481083E-01  0.88682236902E+00  0.88000000000E+00 0.  1.
        -11    1    4    4    0    0  0.45787380481E-01 -0.19755671264E-01 -0.64443181433E-01  0.81485922174E-01  0.51100000000E-03 0.  1.
         11    1    4    4    0    0  0.40336369549E-01 -0.14483498224E-01 -0.29388347253E-01  0.51968553034E-01  0.51100000000E-03 0. -1.
</event>
<event>
 8    1  0.1061721E+005  0.1043930E+01  0.7957747E-01            NaN
         13   -1    0    0    0    0  0.00000000000E+00  0.00000000000E+00  0.74505805969E-08  0.10566000000E+00  0.10566000000E+00 0. -1.
     999900   -1    0    0    0    0 -0.00000000000E+00 -0.00000000000E+00 -0.74505805969E-08  0.93827000000E+00  0.93827000000E+00 0.  1.
     999902    2    1    2    0    0  0.32900996779E-02  0.45109524258E-02  0.21067090397E-01  0.10221356029E+01  0.10219032219E+01 0.  0.
     999903    2    3    3    0    0  0.99463280611E-01  0.85490138219E-01 -0.44853821377E-02  0.13283259597E+00  0.20563851208E-01 0.  0.
         14    1    1    2    0    0 -0.32900996779E-02 -0.45109524258E-02 -0.21067090397E-01  0.21794397112E-01  0.00000000000E+00 0.  1.
     999901    1    3    3    0    0 -0.96173180933E-01 -0.80979185793E-01  0.25552472535E-01  0.88930300692E+00  0.88000000000E+00 0. -1.
        -11    1    4    4    0    0  0.46981710352E-01  0.40813162944E-01 -0.12387813357E-01  0.63456397769E-01  0.51100000000E-03 0. -1.
         11    1    4    4    0    0  0.52481570259E-01  0.44676975275E-01  0.79024312189E-02  0.69376198200E-01  0.51100000000E-03 0.  1.
</event>
<event>
 8    1  0.1061721E+005  0.1043930E+01  0.7957747E-01            NaN
         13   -1    0    0    0    0  0.00000000000E+00  0.00000000000E+00  0.74505805969E-08  0.10566000000E+00  0.10566000000E+00 0.  1.
     999900   -1    0    0    0    0 -0.00000000000E+00 -0.00000000000E+00 -0.74505805969E-08  0.93827000000E+00  0.93827000000E+00 0.  1.
     999902    2    1    2    0    0 -0.16725815764E-01 -0.88407565983E-02  0.12235940747E-01  0.10213993512E+01  0.10211508236E+01 0.  0.
     999903    2    3    3    0    0 -0.19033459641E-01  0.84388386864E-01 -0.95056601402E-01  0.12999109005E+00  0.19448742872E-01 0.  0.
         14    1    1    2    0    0  0.16725815764E-01  0.88407565983E-02 -0.12235940747E-01  0.22530648818E-01  0.00000000000E+00 0. -1.
     999901    1    3    3    0    0  0.23076438776E-02 -0.93229143463E-01  0.10729254215E+00  0.89140826113E+00  0.88000000000E+00 0. -1.
        -11    1    4    4    0    0  0.28761010829E-02  0.28247779421E-01 -0.29988466183E-01  0.41301068081E-01  0.51100000000E-03 0.  1.
         11    1    4    4    0    0 -0.21909560724E-01  0.56140607443E-01 -0.65068135219E-01  0.88690021970E-01  0.51100000000E-03 0. -1.
</event>
<event>
 8    1  0.1061721E+005  0.1043930E+01  0.7957747E-01            NaN
         13   -1    0    0    0    0  0.00000000000E+00  0.00000000000E+00  0.74505805969E-08  0.10566000000E+00  0.10566000000E+00 0.  1.
     999900   -1    0    0    0    0 -0.00000000000E+00 -0.00000000000E+00 -0.74505805969E-08  0.93827000000E+00  0.93827000000E+00 0.  1.
     999902    2    1    2    0    0 -0.13956666490E-02  0.10441864841E-01 -0.20936503750E-01  0.10204924742E+01  0.10202232953E+01 0.  0.
     999903    2    3    3    0    0 -0.15682726717E-01  0.30354786660E-01  0.12273946206E+00  0.12850400583E+00  0.16761353633E-01 0.  0.
         14    1    1    2    0    0  0.13956666490E-02 -0.10441864841E-01  0.20936503750E-01  0.23437525808E-01  0.00000000000E+00 0.  1.
     999901    1    3    3    0    0  0.14287060068E-01 -0.19912921819E-01 -0.14367596581E+00  0.89198846836E+00  0.88000000000E+00 0.  1.
        -11    1    4    4    0    0 -0.12681037713E-01  0.69822095804E-02  0.47237289334E-01  0.49408325136E-01  0.51100000000E-03 0. -1.
         11    1    4    4    0    0 -0.30016890044E-02  0.23372577079E-01  0.75502172730E-01  0.79095680692E-01  0.51100000000E-03 0.  1.
</event>
<event>
 8    1  0.1061721E+005  0.1043930E+01  0.7957747E-01            NaN
         13   -1    0    0    0    0  0.00000000000E+00  0.00000000000E+00  0.74505805969E-08  0.10566000000E+00  0.10566000000E+00 0.  1.
     999900   -1    0    0    0    0 -0.00000000000E+00 -0.00000000000E+00 -0.74505805969E-08  0.93827000000E+00  0.93827000000E+00 0.  1.
     999902    2    1    2    0    0 -0.61573007117E-02 -0.68021951520E-02 -0.23846659403E-01  0.10183791610E+01  0.10180585789E+01 0.  0.
     999903    2    3    3    0    0  0.10781851565E+00  0.45149638613E-01  0.44918857699E-01  0.12685340357E+00  0.20267215830E-01 0.  0.
         14    1    1    2    0    0  0.61573007117E-02  0.68021951520E-02  0.23846659403E-01  0.25550839039E-01  0.00000000000E+00 0.  1.
     999901    1    3    3    0    0 -0.11397581636E+00 -0.51951833765E-01 -0.68765517102E-01  0.89152575739E+00  0.88000000000E+00 0.  1.
        -11    1    4    4    0    0  0.93398821826E-01  0.46110306649E-01  0.40014162156E-01  0.11158357671E+00  0.51100000000E-03 0.  1.
         11    1    4    4    0    0  0.14419693821E-01 -0.96066803537E-03  0.49046955436E-02  0.15269826860E-01  0.51100000000E-03 0. -1.
</event>
<event>
 8    1  0.1061721E+005  0.1043930E+01  0.7957747E-01            NaN
         13   -1    0    0    0    0  0.00000000000E+00  0.00000000000E+00  0.74505805969E-08  0.10566000000E+00  0.10566000000E+00 0. -1.
     999900   -1    0    0    0    0 -0.00000000000E+00 -0.00000000000E+00 -0.74505805969E-08  0.93827000000E+00  0.93827000000E+00 0.  1.
     999902    2    1    2    0    0 -0.17774100862E-02  0.18725511689E-01 -0.13056501437E-01  0.10210329215E+01  0.10207761511E+01 0.  0.
     999903    2    3    3    0    0  0.27364183300E-01  0.10624759437E+00 -0.74457242501E-01  0.13408343114E+00  0.19928264081E-01 0.  0.
         14    1    1    2    0    0  0.17774100862E-02 -0.18725511689E-01  0.13056501437E-01  0.22897078512E-01  0.00000000000E+00 0. -1.
     999901    1    3    3    0    0 -0.29141593386E-01 -0.87522082680E-01  0.61400741064E-01  0.88694949035E+00  0.88000000000E+00 0. -1.
        -11    1    4    4    0    0  0.13923366643E-01  0.38631231668E-01 -0.38665905907E-01  0.56405191246E-01  0.51100000000E-03 0. -1.
         11    1    4    4    0    0  0.13440816657E-01  0.67616362700E-01 -0.35791336593E-01  0.77678239896E-01  0.51100000000E-03 0.  1.
</event>
<event>
 8    1  0.1061721E+005  0.1043930E+01  0.7957747E-01            NaN
         13   -1    0    0    0    0  0.00000000000E+00  0.00000000000E+00  0.74505805969E-08  0.10566000000E+00  0.10566000000E+00 0.  1.
     999900   -1    0    0    0    0 -0.00000000000E+00 -0.00000000000E+00 -0.74505805969E-08  0.93827000000E+00  0.93827000000E+00 0.  1.
     999902    2    1    2    0    0 -0.75138235973E-02  0.17312723938E-01  0.14283685535E-01  0.10202612098E+01  0.10199866297E+01 0.  0.
     999903    2    3    3    0    0 -0.21724274417E-01  0.11155596694E+00  0.67306639276E-01  0.13352835301E+00  0.19569351249E-01 0.  0.
         14    1    1    2    0    0  0.75138235973E-02 -0.17312723938E-01 -0.14283685535E-01  0.23668790161E-01  0.00000000000E+00 0. -1.
     999901    1    3    3    0    0  0.14210450819E-01 -0.94243242997E-01 -0.53022953741E-01  0.88673285683E+00  0.88000000000E+00 0.  1.
        -11    1    4    4    0    0 -0.73036187320E-02  0.74445255537E-01  0.50811076380E-01  0.90429339942E-01  0.51100000000E-03 0. -1.
         11    1    4    4    0    0 -0.14420655685E-01  0.37110711398E-01  0.16495562896E-01  0.43099013064E-01  0.51100000000E-03 0.  1.
</event>
<event>
 8    1  0.1061721E+005  0.1043930E+01  0.7957747E-01            NaN
         13   -1    0    0    0    0  0.00000000000E+00  0.00000000000E+00  0.74505805969E-08  0.10566000000E+00  0.10566000000E+00 0.  1.
     999900   -1    0    0    0    0 -0.00000000000E+00 -0.00000000000E+00 -0.74505805969E-08  0.93827000000E+00  0.93827000000E+00 0. -1.
     999902    2    1    2    0    0  0.20308074137E-01 -0.68909686426E-02  0.88800391070E-02  0.10207188299E+01  0.10204548845E+01 0.  0.
     999903    2    3    3    0    0  0.38231736075E-01  0.10967039810E+00 -0.56124228895E-01  0.13047539983E+00  0.19612216334E-01 0.  0.
         14    1    1    2    0    0 -0.20308074137E-01  0.68909686426E-02 -0.88800391070E-02  0.23211170124E-01  0.00000000000E+00 0.  1.
     999901    1    3    3    0    0 -0.17923661938E-01 -0.11656136674E+00  0.65004268002E-01  0.89024343004E+00  0.88000000000E+00 0. -1.
        -11    1    4    4    0    0  0.59293408983E-02  0.32032641348E-01 -0.23961686132E-01  0.40443426147E-01  0.51100000000E-03 0.  1.
         11    1    4    4    0    0  0.32302395177E-01  0.77637756754E-01 -0.32162542763E-01  0.90031973687E-01  0.51100000000E-03 0. -1.
</event>
<event>
 8    1  0.1061721E+005  0.1043930E+01  0.7957747E-01            NaN
         13   -1    0    0    0    0  0.00000000000E+00  0.00000000000E+00  0.74505805969E-08  0.10566000000E+00  0.10566000000E+00 0. -1.
     999900   -1    0    0    0    0 -0.00000000000E+00 -0.00000000000E+00 -0.74505805969E-08  0.93827000000E+00  0.93827000000E+00 0. -1.
     999902    2    1    2    0    0 -0.43894095380E-02  0.50670606429E-02  0.22666812734E-01  0.10202926055E+01  0.10200187618E+01 0.  0.
     999903    2    3    3    0    0 -0.11846708361E+00  0.23713282246E-01  0.50287245498E-01  0.13230370601E+00  0.19460059371E-01 0.  0.
         14    1    1    2    0    0  0.43894095380E-02 -0.50670606429E-02 -0.22666812734E-01  0.23637394509E-01  0.00000000000E+00 0.  1.
     999901    1    3    3    0    0  0.11407767407E+00 -0.18646221603E-01 -0.27620432765E-01  0.88798889948E+00  0.88000000000E+00 0.  1.
        -11    1    4    4    0    0 -0.93293334881E-01  0.25125520786E-01  0.44776735821E-01  0.10649016537E+00  0.51100000000E-03 0.  1.
         11    1    4    4    0    0 -0.25173748724E-01 -0.14122385404E-02  0.55105096771E-02  0.25813540641E-01  0.51100000000E-03 0. -1.
</event>
<event>
 8    1  0.1061721E+005  0.1043930E+01  0.7957747E-01            NaN
         13   -1    0    0    0    0  0.00000000000E+00  0.00000000000E+00  0.74505805969E-08  0.10566000000E+00  0.10566000000E+00 0. -1.
     999900   -1    0    0    0    0 -0.00000000000E+00 -0.00000000000E+00 -0.74505805969E-08  0.93827000000E+00  0.93827000000E+00 0.  1.
     999902    2    1    2    0    0  0.58058715474E-02 -0.20881947745E-01  0.10385863122E-01  0.10198960648E+01  0.10196128447E+01 0.  0.
     999903    2    3    3    0    0 -0.11657866017E+00 -0.47797456305E-01 -0.26417332554E-01  0.13025743405E+00  0.19847993053E-01 0.  0.
         14    1    1    2    0    0 -0.58058715474E-02  0.20881947745E-01 -0.10385863122E-01  0.24033935151E-01  0.00000000000E+00 0.  1.
     999901    1    3    3    0    0  0.12238453172E+00  0.26915508560E-01  0.36803195677E-01  0.88963863080E+00  0.88000000000E+00 0. -1.
        -11    1    4    4    0    0 -0.40160400296E-01 -0.25366939334E-01 -0.14896822735E-01  0.49784694552E-01  0.51100000000E-03 0. -1.
         11    1    4    4    0    0 -0.76418259876E-01 -0.22430516972E-01 -0.11520509819E-01  0.80472739493E-01  0.51100000000E-03 0.  1.
</event>
<event>
 8    1  0.1061721E+005  0.1043930E+01  0.7957747E-01            NaN
         13   -1    0    0    0    0  0.00000000000E+00  0.00000000000E+00  0.74505805969E-08  0.10566000000E+00  0.10566000000E+00 0.  1.
     999900   -1    0    0    0    0 -0.00000000000E+00 -0.00000000000E+00 -0.74505805969E-08  0.93827000000E+00  0.93827000000E+00 0. -1.
     999902    2    1    2    0    0 -0.64872954229E-02  0.23775604035E-01 -0.93596445268E-02  0.10175677676E+01  0.10172262258E+01 0.  0.
     999903    2    3    3    0    0 -0.86592652252E-01 -0.82916739765E-01  0.34598353838E-01  0.12642668452E+00  0.20327009428E-01 0.  0.
         14    1    1    2    0    0  0.64872954229E-02 -0.23775604035E-01  0.93596445268E-02  0.26362232356E-01  0.00000000000E+00 0.  1.
     999901    1    3    3    0    0  0.80105356829E-01  0.10669234380E+00 -0.43957998365E-01  0.89114108313E+00  0.88000000000E+00 0. -1.
        -11    1    4    4    0    0 -0.27996339781E-01 -0.20613394283E-01  0.17795948700E-02  0.34815731270E-01  0.51100000000E-03 0. -1.
         11    1    4    4    0    0 -0.58596312471E-01 -0.62303345482E-01  0.32818758968E-01  0.91610953246E-01  0.51100000000E-03 0.  1.
</event>
<event>
 8    1  0.1061721E+005  0.1043930E+01  0.7957747E-01            NaN
         13   -1    0    0    0    0  0.00000000000E+00  0.00000000000E+00  0.74505805969E-08  0.10566000000E+00  0.10566000000E+00 0.  1.
     999900   -1    0    0    0    0 -0.00000000000E+00 -0.00000000000E+00 -0.74505805969E-08  0.93827000000E+00  0.93827000000E+00 0. -1.
     999902    2    1    2    0    0  0.10398784431E-01  0.14297512660E-01 -0.17337583108E-01  0.10191682276E+01  0.10188673764E+01 0.  0.
     999903    2    3    3    0    0 -0.11572261771E+00 -0.18568738545E-01  0.45598334138E-01  0.12734552757E+00  0.20028804654E-01 0.  0.
         14    1    1    2    0    0 -0.10398784431E-01 -0.14297512660E-01  0.17337583108E-01  0.24761772431E-01  0.00000000000E+00 0.  1.
     999901    1    3    3    0    0  0.12612140214E+00  0.32866251206E-01 -0.62935917246E-01  0.89182269999E+00  0.88000000000E+00 0. -1.
        -11    1    4    4    0    0 -0.98226769481E-01 -0.13647813396E-01  0.45625343545E-01  0.10916361183E+00  0.51100000000E-03 0. -1.
         11    1    4    4    0    0 -0.17495848230E-01 -0.49209251498E-02 -0.27009406700E-04  0.18181915744E-01  0.51100000000E-03 0.  1.
</event>
<event>
 8    1  0.1061721E+005  0.1043930E+01  0.7957747E-01            NaN
         13   -1    0    0    0    0  0.00000000000E+00  0.00000000000E+00  0.74505805969E-08  0.10566000000E+00  0.10566000000E+00 0.  1.
     999900   -1    0    0    0    0 -0.00000000000E+00 -0.00000000000E+00 -0.74505805969E-08  0.93827000000E+00  0.93827000000E+00 0. -1.
     999902    2    1    2    0    0 -0.70790167338E-02  0.26091079533E-02 -0.22040145783E-01  0.10206343363E+01  0.10203684435E+01 0.  0.
     999903    2    3    3    0    0 -0.45118054580E-01  0.19920244647E-02  0.11885084424E+00  0.12861549104E+00  0.19411706423E-01 0.  0.
         14    1    1    2    0    0  0.70790167338E-02 -0.26091079533E-02  0.22040145783E-01  0.23295663725E-01  0.00000000000E+00 0.  1.
     999901    1    3    3    0    0  0.38039037846E-01  0.61708348867E-03 -0.14089099003E+00  0.89201884524E+00  0.88000000000E+00 0. -1.
        -11    1    4    4    0    0 -0.42092624483E-01 -0.40527525291E-02  0.99621118702E-01  0.10822588531E+00  0.51100000000E-03 0. -1.
         11    1    4    4    0    0 -0.30254300968E-02  0.60447769938E-02  0.19229725542E-01  0.20389605724E-01  0.51100000000E-03 0.  1.
</event>
<event>
 8    1  0.1061721E+005  0.1043930E+01  0.7957747E-01            NaN
         13   -1    0    0    0    0  0.00000000000E+00  0.00000000000E+00  0.74505805969E-08  0.10566000000E+00  0.10566000000E+00 0.  1.
     999900   -1    0    0    0    0 -0.00000000000E+00 -0.00000000000E+00 -0.74505805969E-08  0.93827000000E+00  0.93827000000E+00 0. -1.
     999902    2    1    2    0    0 -0.39482794119E-02 -0.18744687483E-01 -0.12341948304E-01  0.10211423738E+01  0.10208880799E+01 0.  0.
     999903    2    3    3    0    0  0.91905714096E-01  0.51199136037E-01  0.72103377930E-01  0.12917200455E+00  0.20457219680E-01 0.  0.
         14    1    1    2    0    0  0.39482794119E-02  0.18744687483E-01  0.12341948304E-01  0.22787626183E-01  0.00000000000E+00 0.  1.
     999901    1    3    3    0    0 -0.95853993508E-01 -0.69943823520E-01 -0.84445326234E-01  0.89197036926E+00  0.88000000000E+00 0. -1.
        -11    1    4    4    0    0  0.48223263822E-01  0.32688618262E-01  0.50243244987E-01  0.76932917047E-01  0.51100000000E-03 0. -1.
         11    1    4    4    0    0  0.43682450274E-01  0.18510517775E-01  0.21860132943E-01  0.52239087507E-01  0.51100000000E-03 0.  1.
</event>
<event>
 8    1  0.1061721E+005  0.1043930E+01  0.7957747E-01            NaN
         13   -1    0    0    0    0  0.00000000000E+00  0.00000000000E+00  0.74505805969E-08  0.10566000000E+00  0.10566000000E+00 0.  1.
     999900   -1    0    0    0    0 -0.00000000000E+00 -0.00000000000E+00 -0.74505805969E-08  0.93827000000E+00  0.93827000000E+00 0. -1.
     999902    2    1    2    0    0  0.19912630999E-01 -0.10723650436E-01  0.44769454990E-02  0.10208745756E+01  0.10206142007E+01 0.  0.
     999903    2    3    3    0    0  0.51817895053E-02  0.81057016486E-01 -0.99396140355E-01  0.12990302363E+00  0.19952743309E-01 0.  0.
         14    1    1    2    0    0 -0.19912630999E-01  0.10723650436E-01 -0.44769454990E-02  0.23055424372E-01  0.00000000000E+00 0.  1.
     999901    1    3    3    0    0  0.14730841493E-01 -0.91780666923E-01  0.10387308585E+00  0.89097155200E+00  0.88000000000E+00 0.  1.
        -11    1    4    4    0    0 -0.69956066557E-02  0.42242141205E-01 -0.47301135766E-01  0.63804353863E-01  0.51100000000E-03 0. -1.
         11    1    4    4    0    0  0.12177396161E-01  0.38814875281E-01 -0.52095004589E-01  0.66098669763E-01  0.51100000000E-03 0.  1.
</event>
<event>
 8    1  0.1061721E+005  0.1043930E+01  0.7957747E-01            NaN
         13   -1    0    0    0    0  0.00000000000E+00  0.00000000000E+00  0.74505805969E-08  0.10566000000E+00  0.10566000000E+00 0.  1.
     999900   -1    0    0    0    0 -0.00000000000E+00 -0.00000000000E+00 -0.74505805969E-08  0.93827000000E+00  0.93827000000E+00 0. -1.
     999902    2    1    2    0    0 -0.12593172128E-01 -0.17710815975E-01  0.11645790486E-01  0.10192746675E+01  0.10189764287E+01 0.  0.
     999903    2    3    3    0    0 -0.12663848573E+00  0.24448454943E-01 -0.23701527969E-02  0.13080396769E+00  0.21657038626E-01 0.  0.
         14    1    1    2    0    0  0.12593172128E-01  0.17710815975E-01 -0.11645790486E-01  0.24655332542E-01  0.00000000000E+00 0.  1.
     999901    1    3    3    0    0  0.11404531360E+00 -0.42159270917E-01  0.14015943283E-01  0.88847069977E+00  0.88000000000E+00 0. -1.
        -11    1    4    4    0    0 -0.11157163603E+00  0.14436220489E-01  0.34912351635E-03  0.11250341078E+00  0.51100000000E-03 0. -1.
         11    1    4    4    0    0 -0.15066849702E-01  0.10012234453E-01 -0.27192763132E-02  0.18300556914E-01  0.51100000000E-03 0.  1.
</event>
<event>
 8    1  0.1061721E+005  0.1043930E+01  0.7957747E-01            NaN
         13   -1    0    0    0    0  0.00000000000E+00  0.00000000000E+00  0.74505805969E-08  0.10566000000E+00  0.10566000000E+00 0.  1.
     999900   -1    0    0    0    0 -0.00000000000E+00 -0.00000000000E+00 -0.74505805969E-08  0.93827000000E+00  0.93827000000E+00 0. -1.
     999902    2    1    2    0    0 -0.68100147847E-02 -0.17512070583E-01 -0.15200900901E-01  0.10197615018E+01  0.10194750631E+01 0.  0.
     999903    2    3    3    0    0  0.73147070637E-01 -0.87296350702E-01 -0.64310338463E-01  0.13202577641E+00  0.17995533189E-01 0.  0.
         14    1    1    2    0    0  0.68100147847E-02  0.17512070583E-01  0.15200900901E-01  0.24168498209E-01  0.00000000000E+00 0. -1.
     999901    1    3    3    0    0 -0.79957085422E-01  0.69784280118E-01  0.49109437562E-01  0.88773572538E+00  0.88000000000E+00 0.  1.
        -11    1    4    4    0    0  0.27487959043E-01 -0.46443710026E-01 -0.32305034389E-01  0.62900576000E-01  0.51100000000E-03 0. -1.
         11    1    4    4    0    0  0.45659111594E-01 -0.40852640676E-01 -0.32005304074E-01  0.69125200409E-01  0.51100000000E-03 0.  1.
</event>
<event>
 8    1  0.1061721E+005  0.1043930E+01  0.7957747E-01            NaN
         13   -1    0    0    0    0  0.00000000000E+00  0.00000000000E+00  0.74505805969E-08  0.10566000000E+00  0.10566000000E+00 0. -1.
     999900   -1    0    0    0    0 -0.00000000000E+00 -0.00000000000E+00 -0.74505805969E-08  0.93827000000E+00  0.93827000000E+00 0.  1.
     999902    2    1    2    0    0 -0.49949085357E-02 -0.24879979733E-02 -0.23150347772E-01  0.10201166036E+01  0.10198386182E+01 0.  0.
     999903    2    3    3    0    0 -0.60132671814E-01 -0.10912326309E+00 -0.36868629163E-01  0.13186019697E+00  0.22449743058E-01 0.  0.
         14    1    1    2    0    0  0.49949085357E-02  0.24879979733E-02  0.23150347772E-01  0.23813396381E-01  0.00000000000E+00 0. -1.
     999901    1    3    3    0    0  0.55137763279E-01  0.10663526511E+00  0.13718281390E-01  0.88825640665E+00  0.88000000000E+00 0. -1.
        -11    1    4    4    0    0 -0.37635050538E-01 -0.87187084847E-01 -0.30957498569E-01  0.99882994707E-01  0.51100000000E-03 0.  1.
         11    1    4    4    0    0 -0.22497621276E-01 -0.21936178239E-01 -0.59111305938E-02  0.31977202265E-01  0.51100000000E-03 0. -1.
</event>
<event>
 8    1  0.1061721E+005  0.1043930E+01  0.7957747E-01            NaN
         13   -1    0    0    0    0  0.00000000000E+00  0.00000000000E+00  0.74505805969E-08  0.10566000000E+00  0.10566000000E+00 0. -1.
     999900   -1    0    0    0    0 -0.00000000000E+00 -0.00000000000E+00 -0.74505805969E-08  0.93827000000E+00  0.93827000000E+00 0.  1.
     999902    2    1    2    0    0  0.51429940736E-02  0.34151028739E-02 -0.23014663750E-01  0.10201016962E+01  0.10198233585E+01 0.  0.
     999903    2    3    3    0    0 -0.73069139656E-01 -0.60675758079E-02  0.10190648155E+00  0.12779437714E+00  0.23886339205E-01 0.  0.
         14    1    1    2    0    0 -0.51429940736E-02 -0.34151028739E-02  0.23014663750E-01  0.23828303826E-01  0.00000000000E+00 0. -1.
     999901    1    3    3    0    0  0.78212133729E-01  0.94826786818E-02 -0.12492114530E+00  0.89230731903E+00  0.88000000000E+00 0.  1.
        -11    1    4    4    0    0 -0.25950359107E-01 -0.12537238385E-01  0.47167322022E-01  0.55277670644E-01  0.51100000000E-03 0.  1.
         11    1    4    4    0    0 -0.47118780549E-01  0.64696625775E-02  0.54739159529E-01  0.72516706497E-01  0.51100000000E-03 0. -1.
</event>
<event>
 8    1  0.1061721E+005  0.1043930E+01  0.7957747E-01            NaN
         13   -1    0    0    0    0  0.00000000000E+00  0.00000000000E+00  0.74505805969E-08  0.10566000000E+00  0.10566000000E+00 0.  1.
     999900   -1    0    0    0    0 -0.00000000000E+00 -0.00000000000E+00 -0.74505805969E-08  0.93827000000E+00  0.93827000000E+00 0.  1.
     999902    2    1    2    0    0  0.20234402610E-01 -0.80177594063E-02 -0.95088906851E-02  0.10201784839E+01  0.10199019583E+01 0.  0.
     999903    2    3    3    0    0  0.64783456409E-01  0.44119076058E-01  0.10242336988E+00  0.13044161338E+00  0.19521237348E-01 0.  0.
         14    1    1    2    0    0 -0.20234402610E-01  0.80177594063E-02  0.95088906851E-02  0.23751516098E-01  0.00000000000E+00 0.  1.
     999901    1    3    3    0    0 -0.44549053799E-01 -0.52136835464E-01 -0.11193226057E+00  0.88973687052E+00  0.88000000000E+00 0.  1.
        -11    1    4    4    0    0  0.51299501421E-01  0.33709128616E-01  0.65466296030E-01  0.89744310321E-01  0.51100000000E-03 0.  1.
         11    1    4    4    0    0  0.13483954987E-01  0.10409947442E-01  0.36957073852E-01  0.40697303062E-01  0.51100000000E-03 0. -1.
</event>
<event>
 8    1  0.1061721E+005  0.1043930E+01  0.7957747E-01            NaN
         13   -1    0    0    0    0  0.00000000000E+00  0.00000000000E+00  0.74505805969E-08  0.10566000000E+00  0.10566000000E+00 0. -1.
     999900   -1    0    0    0    0 -0.00000000000E+00 -0.00000000000E+00 -0.74505805969E-08  0.93827000000E+00  0.93827000000E+00 0. -1.
     999902    2    1    2    0    0 -0.38065585674E-02  0.21516439206E-01  0.91296939594E-02  0.10202488185E+01  0.10199739474E+01 0.  0.
     999903    2    3    3    0    0 -0.48098226588E-01  0.53020612187E-01 -0.10756978256E+00  0.13088217164E+00  0.20838906300E-01 0.  0.
         14    1    1    2    0    0  0.38065585674E-02 -0.21516439206E-01 -0.91296939594E-02  0.23681181474E-01  0.00000000000E+00 0.  1.
     999901    1    3    3    0    0  0.44291668021E-01 -0.31504172981E-01  0.11669947652E+00  0.88936664688E+00  0.88000000000E+00 0.  1.
        -11    1    4    4    0    0 -0.94966724069E-02  0.24894863102E-01 -0.42485981669E-01  0.50152375368E-01  0.51100000000E-03 0.  1.
         11    1    4    4    0    0 -0.38601554182E-01  0.28125749084E-01 -0.65083800892E-01  0.80729796273E-01  0.51100000000E-03 0. -1.
</event>
<event>
 8    1  0.1061721E+005  0.1043930E+01  0.7957747E-01            NaN
         13   -1    0    0    0    0  0.00000000000E+00  0.00000000000E+00  0.74505805969E-08  0.10566000000E+00  0.10566000000E+00 0. -1.
     999900   -1    0    0    0    0 -0.00000000000E+00 -0.00000000000E+00 -0.74505805969E-08  0.93827000000E+00  0.93827000000E+00 0. -1.
     999902    2    1    2    0    0 -0.20765806027E-01  0.13272272090E-01 -0.39324203967E-02  0.10189733208E+01  0.10186676557E+01 0.  0.
     999903    2    3    3    0    0 -0.11765414308E+00  0.44639199240E-01 -0.35757623182E-01  0.13252869337E+00  0.21215359023E-01 0.  0.
         14    1    1    2    0    0  0.20765806027E-01 -0.13272272090E-01  0.39324203967E-02  0.24956679197E-01  0.00000000000E+00 0. -1.
     999901    1    3    3    0    0  0.96888337049E-01 -0.31366927150E-01  0.31825202785E-01  0.88644462743E+00  0.88000000000E+00 0.  1.
        -11    1    4    4    0    0 -0.17655207379E-01  0.81495618135E-02  0.20602169700E-02  0.19560861952E-01  0.51100000000E-03 0. -1.
         11    1    4    4    0    0 -0.99998935698E-01  0.36489637426E-01 -0.37817840152E-01  0.11296783142E+00  0.51100000000E-03 0.  1.
</event>
<event>
 8    1  0.1061721E+005  0.1043930E+01  0.7957747E-01            NaN
         13   -1    0    0    0    0  0.00000000000E+00  0.00000000000E+00  0.74505805969E-08  0.10566000000E+00  0.10566000000E+00 0.  1.
     999900   -1    0    0    0    0 -0.00000000000E+00 -0.00000000000E+00 -0.74505805969E-08  0.93827000000E+00  0.93827000000E+00 0. -1.
     999902    2    1    2    0    0  0.23877124172E-01 -0.49675044725E-02 -0.95008800769E-02  0.10177563514E+01  0.10174197418E+01 0.  0.
     999903    2    3    3    0    0 -0.12350375550E+00  0.51867088176E-02  0.46544292928E-02  0.12533010540E+00  0.20146762477E-01 0.  0.
         14    1    1    2    0    0 -0.23877124172E-01  0.49675044725E-02  0.95008800769E-02  0.26173648612E-01  0.00000000000E+00 0.  1.
     999901    1    3    3    0    0  0.14738087967E+00 -0.10154213290E-01 -0.14155309370E-01  0.89242624598E+00  0.88000000000E+00 0.  1.
        -11    1    4    4    0    0 -0.67201714497E-01 -0.31939048696E-02  0.10547372211E-01  0.68101245518E-01  0.51100000000E-03 0.  1.
         11    1    4    4    0    0 -0.56302041000E-01  0.83806136873E-02 -0.58929429178E-02  0.57228859885E-01  0.51100000000E-03 0. -1.
</event>
<event>
 8    1  0.1061721E+005  0.1043930E+01  0.7957747E-01            NaN
         13   -1    0    0    0    0  0.00000000000E+00  0.00000000000E+00  0.74505805969E-08  0.10566000000E+00  0.10566000000E+00 0. -1.
     999900   -1    0    0    0    0 -0.00000000000E+00 -0.00000000000E+00 -0.74505805969E-08  0.93827000000E+00  0.93827000000E+00 0.  1.
     999902    2    1    2    0    0 -0.19901831856E-01 -0.13723013737E-01  0.24423041179E-03  0.10197543166E+01  0.10194677055E+01 0.  0.
     999903    2    3    3    0    0 -0.88089466408E-01 -0.54943257429E-01 -0.79587151608E-01  0.13255551618E+00  0.21408749117E-01 0.  0.
         14    1    1    2    0    0  0.19901831856E-01  0.13723013737E-01 -0.24423041179E-03  0.24175683356E-01  0.00000000000E+00 0.  1.
     999901    1    3    3    0    0  0.68187634551E-01  0.41220243692E-01  0.79831382020E-01  0.88719880047E+00  0.88000000000E+00 0. -1.
        -11    1    4    4    0    0 -0.40363515958E-01 -0.18954402993E-01 -0.45648913462E-01  0.63816668939E-01  0.51100000000E-03 0. -1.
         11    1    4    4    0    0 -0.47725950450E-01 -0.35988854436E-01 -0.33938238146E-01  0.68738847237E-01  0.51100000000E-03 0.  1.
</event>
<event>
 8    1  0.1061721E+005  0.1043930E+01  0.7957747E-01            NaN
         13   -1    0    0    0    0  0.00000000000E+00  0.00000000000E+00  0.74505805969E-08  0.10566000000E+00  0.10566000000E+00 0.  1.
     999900   -1    0    0    0    0 -0.00000000000E+00 -0.00000000000E+00 -0.74505805969E-08  0.93827000000E+00  0.93827000000E+00 0. -1.
     999902    2    1    2    0    0  0.17506697905E-01 -0.16713602018E-01 -0.79238564686E-02  0.10184620502E+01  0.10181435711E+01 0.  0.
     999903    2    3    3    0    0  0.25686599453E-01  0.10641246830E+00 -0.63311789974E-01  0.12812797633E+00  0.20615061666E-01 0.  0.
         14    1    1    2    0    0 -0.17506697905E-01  0.16713602018E-01  0.79238564686E-02  0.25467949766E-01  0.00000000000E+00 0.  1.
     999901    1    3    3    0    0 -0.81799015481E-02 -0.12312607032E+00  0.55387933505E-01  0.89033407391E+00  0.88000000000E+00 0.  1.
        -11    1    4    4    0    0  0.19045377951E-01  0.72191651023E-01 -0.31869159314E-01  0.81180449217E-01  0.51100000000E-03 0.  1.
         11    1    4    4    0    0  0.66412215022E-02  0.34220817274E-01 -0.31442630660E-01  0.46947527110E-01  0.51100000000E-03 0. -1.
</event>
<event>
 8    1  0.1061721E+005  0.1043930E+01  0.7957747E-01            NaN
         13   -1    0    0    0    0  0.00000000000E+00  0.00000000000E+00  0.74505805969E-08  0.10566000000E+00  0.10566000000E+00 0.  1.
     999900   -1    0    0    0    0 -0.00000000000E+00 -0.00000000000E+00 -0.74505805969E-08  0.93827000000E+00  0.93827000000E+00 0.  1.
     999902    2    1    2    0    0  0.17431480383E-01 -0.97230646953E-02  0.12684339967E-01  0.10202807511E+01  0.10200066294E+01 0.  0.
     999903    2    3    3    0    0  0.11379379311E+00 -0.48942423677E-01 -0.42508647514E-01  0.13243497655E+00  0.19688822099E-01 0.  0.
         14    1    1    2    0    0 -0.17431480383E-01  0.97230646953E-02 -0.12684339967E-01  0.23649248948E-01  0.00000000000E+00 0. -1.
     999901    1    3    3    0    0 -0.96362312724E-01  0.39219358981E-01  0.55192987481E-01  0.88784577450E+00  0.88000000000E+00 0.  1.
        -11    1    4    4    0    0  0.96016646627E-01 -0.33367638942E-01 -0.36877596213E-01  0.10813331578E+00  0.51100000000E-03 0.  1.
         11    1    4    4    0    0  0.17777146479E-01 -0.15574784734E-01 -0.56310513003E-02  0.24301660771E-01  0.51100000000E-03 0. -1.
</event>
<event>
 8    1  0.1061721E+005  0.1043930E+01  0.7957747E-01            NaN
         13   -1    0    0    0    0  0.00000000000E+00  0.00000000000E+00  0.74505805969E-08  0.10566000000E+00  0.10566000000E+00 0. -1.
     999900   -1    0    0    0    0 -0.00000000000E+00 -0.00000000000E+00 -0.74505805969E-08  0.93827000000E+00  0.93827000000E+00 0.  1.
     999902    2    1    2    0    0  0.14632923642E-01 -0.19174836051E-01 -0.23915601709E-02  0.10196912634E+01  0.10194031373E+01 0.  0.
     999903    2    3    3    0    0 -0.77983873188E-01 -0.99356413114E-01 -0.27696671043E-01  0.13084521093E+00  0.20004557785E-01 0.  0.
         14    1    1    2    0    0 -0.14632923642E-01  0.19174836051E-01  0.23915601709E-02  0.24238736600E-01  0.00000000000E+00 0. -1.
     999901    1    3    3    0    0  0.92616796830E-01  0.80181577063E-01  0.25305110872E-01  0.88884605247E+00  0.88000000000E+00 0.  1.
        -11    1    4    4    0    0 -0.35148983942E-01 -0.50429651287E-01 -0.23040864961E-01  0.65648635783E-01  0.51100000000E-03 0.  1.
         11    1    4    4    0    0 -0.42834889246E-01 -0.48926761828E-01 -0.46558060828E-02  0.65196575147E-01  0.51100000000E-03 0. -1.
</event>
<event>
 8    1  0.1061721E+005  0.1043930E+01  0.7957747E-01            NaN
         13   -1    0    0    0    0  0.00000000000E+00  0.00000000000E+00  0.74505805969E-08  0.10566000000E+00  0.10566000000E+00 0.  1.
     999900   -1    0    0    0    0 -0.00000000000E+00 -0.00000000000E+00 -0.74505805969E-08  0.93827000000E+00  0.93827000000E+00 0.  1.
     999902    2    1    2    0    0 -0.10448346446E-02 -0.53530683214E-02 -0.20012875075E-01  0.10231872377E+01  0.10229769602E+01 0.  0.
     999903    2    3    3    0    0 -0.67891995928E-01  0.65033572593E-01 -0.94346955386E-01  0.13473443776E+00  0.20330569409E-01 0.  0.
         14    1    1    2    0    0  0.10448346446E-02  0.53530683214E-02  0.20012875075E-01  0.20742762320E-01  0.00000000000E+00 0.  1.
     999901    1    3    3    0    0  0.66847161284E-01 -0.70386640914E-01  0.74334080311E-01  0.88845279992E+00  0.88000000000E+00 0. -1.
        -11    1    4    4    0    0 -0.16275784781E-01  0.88439779787E-02 -0.28254727872E-01  0.33789168159E-01  0.51100000000E-03 0.  1.
         11    1    4    4    0    0 -0.51616211147E-01  0.56189594614E-01 -0.66092227514E-01  0.10094526960E+00  0.51100000000E-03 0. -1.
</event>
<event>
 8    1  0.1061721E+005  0.1043930E+01  0.7957747E-01            NaN
         13   -1    0    0    0    0  0.00000000000E+00  0.00000000000E+00  0.74505805969E-08  0.10566000000E+00  0.10566000000E+00 0. -1.
     999900   -1    0    0    0    0 -0.00000000000E+00 -0.00000000000E+00 -0.74505805969E-08  0.93827000000E+00  0.93827000000E+00 0.  1.
     999902    2    1    2    0    0 -0.14763158959E-01 -0.15244796880E-01  0.10343025142E-01  0.10203221017E+01  0.10200489490E+01 0.  0.
     999903    2    3    3    0    0 -0.68331189324E-01  0.10754592280E+00  0.17895096807E-01  0.13015125936E+00  0.19591806423E-01 0.  0.
         14    1    1    2    0    0  0.14763158959E-01  0.15244796880E-01 -0.10343025142E-01  0.23607898328E-01  0.00000000000E+00 0. -1.
     999901    1    3    3    0    0  0.53568030365E-01 -0.12279071968E+00 -0.75520716652E-02  0.89017084231E+00  0.88000000000E+00 0.  1.
        -11    1    4    4    0    0 -0.12212913681E-01  0.18942536703E-01  0.10889373548E-01  0.25036264390E-01  0.51100000000E-03 0.  1.
         11    1    4    4    0    0 -0.56118275643E-01  0.88603386093E-01  0.70057232588E-02  0.10511499497E+00  0.51100000000E-03 0. -1.
</event>
<event>
 8    1  0.1061721E+005  0.1043930E+01  0.7957747E-01            NaN
         13   -1    0    0    0    0  0.00000000000E+00  0.00000000000E+00  0.74505805969E-08  0.10566000000E+00  0.10566000000E+00 0. -1.
     999900   -1    0    0    0    0 -0.00000000000E+00 -0.00000000000E+00 -0.74505805969E-08  0.93827000000E+00  0.93827000000E+00 0.  1.
     999902    2    1    2    0    0  0.19448996464E-01 -0.92719877931E-02  0.28493047228E-02  0.10221963450E+01  0.10219652714E+01 0.  0.
     999903    2    3    3    0    0  0.11078989312E+00 -0.66405991292E-01  0.34065222440E-01  0.13507634904E+00  0.20025598485E-01 0.  0.
         14    1    1    2    0    0 -0.19448996464E-01  0.92719877931E-02 -0.28493047228E-02  0.21733654973E-01  0.00000000000E+00 0.  1.
     999901    1    3    3    0    0 -0.91340896652E-01  0.57134003498E-01 -0.31215917717E-01  0.88711999598E+00  0.88000000000E+00 0.  1.
        -11    1    4    4    0    0  0.14694556566E-01 -0.95574332455E-02  0.12039882246E-01  0.21271915955E-01  0.51100000000E-03 0. -1.
         11    1    4    4    0    0  0.96095336550E-01 -0.56848558046E-01  0.22025340194E-01  0.11380443309E+00  0.51100000000E-03 0.  1.
</event>
<event>
 8    1  0.1061721E+005  0.1043930E+01  0.7957747E-01            NaN
         13   -1    0    0    0    0  0.00000000000E+00  0.00000000000E+00  0.74505805969E-08  0.10566000000E+00  0.10566000000E+00 0. -1.
     999900   -1    0    0    0    0 -0.00000000000E+00 -0.00000000000E+00 -0.74505805969E-08  0.93827000000E+00  0.93827000000E+00 0. -1.
     999902    2    1    2    0    0 -0.11436012291E-02 -0.90048430145E-02 -0.21918732336E-01  0.10202060490E+01  0.10199301724E+01 0.  0.
     999903    2    3    3    0    0  0.63166565482E-01 -0.20432919466E-01  0.10837454374E+00  0.12821796826E+00  0.16949526918E-01 0.  0.
         14    1    1    2    0    0  0.11436012291E-02  0.90048430145E-02  0.21918732336E-01  0.23723950951E-01  0.00000000000E+00 0. -1.
     999901    1    3    3    0    0 -0.64310166711E-01  0.11428076451E-01 -0.13029327607E+00  0.89198808079E+00  0.88000000000E+00 0. -1.
        -11    1    4    4    0    0  0.26415279349E-01 -0.15772178290E-01  0.40173140135E-01  0.50603072045E-01  0.51100000000E-03 0.  1.
         11    1    4    4    0    0  0.36751286133E-01 -0.46607411760E-02  0.68201403602E-01  0.77614896218E-01  0.51100000000E-03 0. -1.
</event>
<event>
 8    1  0.1061721E+005  0.1043930E+01  0.7957747E-01            NaN
         13   -1    0    0    0    0  0.00000000000E+00  0.00000000000E+00  0.74505805969E-08  0.10566000000E+00  0.10566000000E+00 0. -1.
     999900   -1    0    0    0    0 -0.00000000000E+00 -0.00000000000E+00 -0.74505805969E-08  0.93827000000E+00  0.93827000000E+00 0. -1.
     999902    2    1    2    0    0  0.71554938421E-02 -0.94060337990E-02  0.20152674544E-01  0.10205675332E+01  0.10203000955E+01 0.  0.
     999903    2    3    3    0    0  0.17673208518E-01  0.12699968921E+00  0.35094813245E-02  0.12984078527E+00  0.20125846601E-01 0.  0.
         14    1    1    2    0    0 -0.71554938421E-02  0.94060337990E-02 -0.20152674544E-01  0.23362466805E-01  0.00000000000E+00 0.  1.
     999901    1    3    3    0    0 -0.10517714676E-01 -0.13640572301E+00  0.16643193220E-01  0.89072674793E+00  0.88000000000E+00 0.  1.
        -11    1    4    4    0    0  0.11478390288E-01  0.87920632031E-01  0.11684679588E-01  0.89434802166E-01  0.51100000000E-03 0. -1.
         11    1    4    4    0    0  0.61948182301E-02  0.39079057177E-01 -0.81751982639E-02  0.40405983102E-01  0.51100000000E-03 0.  1.
</event>
<event>
 8    1  0.1061721E+005  0.1043930E+01  0.7957747E-01            NaN
         13   -1    0    0    0    0  0.00000000000E+00  0.00000000000E+00  0.74505805969E-08  0.10566000000E+00  0.10566000000E+00 0.  1.
     999900   -1    0    0    0    0 -0.00000000000E+00 -0.00000000000E+00 -0.74505805969E-08  0.93827000000E+00  0.93827000000E+00 0.  1.
     999902    2    1    2    0    0  0.23125996335E-01 -0.21299240513E-02  0.54464323144E-02  0.10200760295E+01  0.10197970848E+01 0.  0.
     999903    2    3    3    0    0 -0.41050954445E-01  0.79561796868E-01  0.92030220648E-01  0.12974520859E+00  0.18681468329E-01 0.  0.
         14    1    1    2    0    0 -0.23125996335E-01  0.21299240513E-02 -0.54464323144E-02  0.23853970486E-01  0.00000000000E+00 0.  1.
     999901    1    3    3    0    0  0.64176950781E-01 -0.81691720919E-01 -0.86583788334E-01  0.89033082092E+00  0.88000000000E+00 0.  1.
        -11    1    4    4    0    0 -0.18387680743E-01  0.38094282151E-01  0.56687992476E-01  0.70732388251E-01  0.51100000000E-03 0. -1.
         11    1    4    4    0    0 -0.22663273703E-01  0.41467514717E-01  0.35342228172E-01  0.59012820343E-01  0.51100000000E-03 0.  1.
</event>
<event>
 8    1  0.1061721E+005  0.1043930E+01  0.7957747E-01            NaN
         13   -1    0    0    0    0  0.00000000000E+00  0.00000000000E+00  0.74505805969E-08  0.10566000000E+00  0.10566000000E+00 0.  1.
     999900   -1    0    0    0    0 -0.00000000000E+00 -0.00000000000E+00 -0.74505805969E-08  0.93827000000E+00  0.93827000000E+00 0.  1.
     999902    2    1    2    0    0  0.17073011285E-01 -0.64916158452E-02 -0.83575663497E-02  0.10238432455E+01  0.10236461858E+01 0.  0.
     999903    2    3    3    0    0  0.21542498439E-01 -0.13109203317E+00 -0.12552335208E-01  0.13504471018E+00  0.20743968543E-01 0.  0.
         14    1    1    2    0    0 -0.17073011285E-01  0.64916158452E-02  0.83575663497E-02  0.20086754489E-01  0.00000000000E+00 0.  1.
     999901    1    3    3    0    0 -0.44694871542E-02  0.12460041732E+00  0.41947688585E-02  0.88879853533E+00  0.88000000000E+00 0. -1.
        -11    1    4    4    0    0 -0.15990481446E-02 -0.24163471912E-01  0.34819925482E-02  0.24470711532E-01  0.51100000000E-03 0. -1.
         11    1    4    4    0    0  0.23141546583E-01 -0.10692856126E+00 -0.16034327756E-01  0.11057399865E+00  0.51100000000E-03 0.  1.
</event>
<event>
 8    1  0.1061721E+005  0.1043930E+01  0.7957747E-01            NaN
         13   -1    0    0    0    0  0.00000000000E+00  0.00000000000E+00  0.74505805969E-08  0.10566000000E+00  0.10566000000E+00 0. -1.
     999900   -1    0    0    0    0 -0.00000000000E+00 -0.00000000000E+00 -0.74505805969E-08  0.93827000000E+00  0.93827000000E+00 0. -1.
     999902    2    1    2    0    0 -0.17345758337E-01 -0.11034394226E-01  0.11764880591E-01  0.10202435988E+01  0.10199686050E+01 0.  0.
     999903    2    3    3    0    0 -0.33714196281E-01  0.11045597093E+00 -0.54496322922E-01  0.12927873881E+00  0.20148810174E-01 0.  0.
         14    1    1    2    0    0  0.17345758337E-01  0.11034394226E-01 -0.11764880591E-01  0.23686401236E-01  0.00000000000E+00 0.  1.
     999901    1    3    3    0    0  0.16368437944E-01 -0.12149036515E+00  0.66261203512E-01  0.89096485996E+00  0.88000000000E+00 0.  1.
        -11    1    4    4    0    0 -0.18300830207E-01  0.74920717464E-01 -0.26761439363E-01  0.81636205506E-01  0.51100000000E-03 0. -1.
         11    1    4    4    0    0 -0.15413366074E-01  0.35535253463E-01 -0.27734883559E-01  0.47642533302E-01  0.51100000000E-03 0.  1.
</event>
<event>
 8    1  0.1061721E+005  0.1043930E+01  0.7957747E-01            NaN
         13   -1    0    0    0    0  0.00000000000E+00  0.00000000000E+00  0.74505805969E-08  0.10566000000E+00  0.10566000000E+00 0.  1.
     999900   -1    0    0    0    0 -0.00000000000E+00 -0.00000000000E+00 -0.74505805969E-08  0.93827000000E+00  0.93827000000E+00 0.  1.
     999902    2    1    2    0    0  0.90583597313E-02  0.15443514160E-01 -0.15435679467E-01  0.10202907062E+01  0.10200168180E+01 0.  0.
     999903    2    3    3    0    0  0.42136939242E-01 -0.53496945628E-01 -0.10962761178E+00  0.13196694792E+00  0.27561154529E-01 0.  0.
         14    1    1    2    0    0 -0.90583597313E-02 -0.15443514160E-01  0.15435679467E-01  0.23639293797E-01  0.00000000000E+00 0.  1.
     999901    1    3    3    0    0 -0.33078579511E-01  0.68940459788E-01  0.94191932311E-01  0.88832375828E+00  0.88000000000E+00 0. -1.
        -11    1    4    4    0    0  0.41415368901E-01 -0.37968142432E-01 -0.72585350575E-01  0.91791649185E-01  0.51100000000E-03 0.  1.
         11    1    4    4    0    0  0.72157034141E-03 -0.15528803195E-01 -0.37042261203E-01  0.40175298735E-01  0.51100000000E-03 0. -1.
</event>
<event>
 8    1  0.1061721E+005  0.1043930E+01  0.7957747E-01            NaN
         13   -1    0    0    0    0  0.00000000000E+00  0.00000000000E+00  0.74505805969E-08  0.10566000000E+00  0.10566000000E+00 0.  1.
     999900   -1    0    0    0    0 -0.00000000000E+00 -0.00000000000E+00 -0.74505805969E-08  0.93827000000E+00  0.93827000000E+00 0. -1.
     999902    2    1    2    0    0 -0.85348048016E-02 -0.20717783327E-01  0.81839474109E-02  0.10200753058E+01  0.10197963439E+01 0.  0.
     999903    2    3    3    0    0 -0.21457205977E-01 -0.10995964219E+00  0.69598058866E-01  0.13333814583E+00  0.19586646904E-01 0.  0.
         14    1    1    2    0    0  0.85348048016E-02  0.20717783327E-01 -0.81839474109E-02  0.23854694176E-01  0.00000000000E+00 0. -1.
     999901    1    3    3    0    0  0.12922401176E-01  0.89241858863E-01 -0.61414111455E-01  0.88673715999E+00  0.88000000000E+00 0. -1.
        -11    1    4    4    0    0 -0.50307688536E-02 -0.67800123487E-01  0.47814136136E-01  0.83118097401E-01  0.51100000000E-03 0.  1.
         11    1    4    4    0    0 -0.16426437124E-01 -0.42159518704E-01  0.21783922729E-01  0.50220048431E-01  0.51100000000E-03 0. -1.
</event>
<event>
 8    1  0.1061721E+005  0.1043930E+01  0.7957747E-01            NaN
         13   -1    0    0    0    0  0.00000000000E+00  0.00000000000E+00  0.74505805969E-08  0.10566000000E+00  0.10566000000E+00 0.  1.
     999900   -1    0    0    0    0 -0.00000000000E+00 -0.00000000000E+00 -0.74505805969E-08  0.93827000000E+00  0.93827000000E+00 0. -1.
     999902    2    1    2    0    0  0.42011587279E-02  0.51456358176E-02  0.22521480936E-01  0.10204492759E+01  0.10201790922E+01 0.  0.
     999903    2    3    3    0    0 -0.10439140785E-02 -0.12089303177E+00 -0.41007067691E-01  0.12918661367E+00  0.19783494750E-01 0.  0.
         14    1    1    2    0    0 -0.42011587279E-02 -0.51456358176E-02 -0.22521480936E-01  0.23480724141E-01  0.00000000000E+00 0. -1.
     999901    1    3    3    0    0  0.52450728064E-02  0.12603866759E+00  0.63528548628E-01  0.89126266219E+00  0.88000000000E+00 0.  1.
        -11    1    4    4    0    0 -0.19567180333E-02 -0.55807526869E-01 -0.87048569707E-02  0.56518531975E-01  0.51100000000E-03 0. -1.
         11    1    4    4    0    0  0.91280395482E-03 -0.65085504901E-01 -0.32302210721E-01  0.72668081698E-01  0.51100000000E-03 0.  1.
</event>
<event>
 8    1  0.1061721E+005  0.1043930E+01  0.7957747E-01            NaN
         13   -1    0    0    0    0  0.00000000000E+00  0.00000000000E+00  0.74505805969E-08  0.10566000000E+00  0.10566000000E+00 0.  1.
     999900   -1    0    0    0    0 -0.00000000000E+00 -0.00000000000E+00 -0.74505805969E-08  0.93827000000E+00  0.93827000000E+00 0.  1.
     999902    2    1    2    0    0  0.13028497150E-01 -0.11734474600E-01  0.15741314796E-01  0.10203667103E+01  0.10200946009E+01 0.  0.
     999903    2    3    3    0    0 -0.65478051211E-01 -0.37150247853E-01  0.10637636951E+00  0.13187137948E+00  0.20164638082E-01 0.  0.
         14    1    1    2    0    0 -0.13028497150E-01  0.11734474600E-01 -0.15741314796E-01  0.23563289745E-01  0.00000000000E+00 0. -1.
     999901    1    3    3    0    0  0.78506548360E-01  0.25415773253E-01 -0.90635054719E-01  0.88849533078E+00  0.88000000000E+00 0.  1.
        -11    1    4    4    0    0 -0.15241948431E-01 -0.19293287389E-01  0.35172297367E-01  0.42917357251E-01  0.51100000000E-03 0.  1.
         11    1    4    4    0    0 -0.50236102780E-01 -0.17856960463E-01  0.71204072147E-01  0.88954022229E-01  0.51100000000E-03 0. -1.
</event>
<event>
 8    1  0.1061721E+005  0.1043930E+01  0.7957747E-01            NaN
         13   -1    0    0    0    0  0.00000000000E+00  0.00000000000E+00  0.74505805969E-08  0.10566000000E+00  0.10566000000E+00 0. -1.
     999900   -1    0    0    0    0 -0.00000000000E+00 -0.00000000000E+00 -0.74505805969E-08  0.93827000000E+00  0.93827000000E+00 0. -1.
     999902    2    1    2    0    0 -0.15509747754E-01 -0.96507325659E-02  0.14381699719E-01  0.10206808667E+01  0.10204160472E+01 0.  0.
     999903    2    3    3    0    0 -0.68346192863E-02 -0.12834407286E+00  0.26193961108E-01  0.13259140247E+00  0.19376360606E-01 0.  0.
         14    1    1    2    0    0  0.15509747754E-01  0.96507325659E-02 -0.14381699719E-01  0.23249133344E-01  0.00000000000E+00 0.  1.
     999901    1    3    3    0    0 -0.86751284672E-02  0.11869334029E+00 -0.11812261389E-01  0.88808946419E+00  0.88000000000E+00 0. -1.
        -11    1    4    4    0    0 -0.88741990502E-02 -0.63168946015E-01  0.21071976277E-01  0.67181518698E-01  0.51100000000E-03 0. -1.
         11    1    4    4    0    0  0.20395797639E-02 -0.65175126846E-01  0.51219848310E-02  0.65409883769E-01  0.51100000000E-03 0.  1.
</event>
<event>
 8    1  0.1061721E+005  0.1043930E+01  0.7957747E-01            NaN
         13   -1    0    0    0    0  0.00000000000E+00  0.00000000000E+00  0.74505805969E-08  0.10566000000E+00  0.10566000000E+00 0. -1.
     999900   -1    0    0    0    0 -0.00000000000E+00 -0.00000000000E+00 -0.74505805969E-08  0.93827000000E+00  0.93827000000E+00 0.  1.
     999902    2    1    2    0    0  0.51516021886E-02 -0.22602940638E-01  0.53220561898E-02  0.10201443696E+01  0.10198670397E+01 0.  0.
     999903    2    3    3    0    0 -0.89389771468E-01 -0.59527850577E-01 -0.72122923344E-01  0.13093165875E+00  0.20181351660E-01 0.  0.
         14    1    1    2    0    0 -0.51516021886E-02  0.22602940638E-01 -0.53220561898E-02  0.23785630383E-01  0.00000000000E+00 0.  1.
     999901    1    3    3    0    0  0.94541373657E-01  0.36924909939E-01  0.77444979534E-01  0.88921271086E+00  0.88000000000E+00 0. -1.
        -11    1    4    4    0    0 -0.78796378020E-01 -0.45675638576E-01 -0.54530029285E-01  0.10615516174E+00  0.51100000000E-03 0.  1.
         11    1    4    4    0    0 -0.10593393448E-01 -0.13852212001E-01 -0.17592894059E-01  0.24776497017E-01  0.51100000000E-03 0. -1.
</event>
<event>
 8    1  0.1061721E+005  0.1043930E+01  0.7957747E-01            NaN
         13   -1    0    0    0    0  0.00000000000E+00  0.00000000000E+00  0.74505805969E-08  0.10566000000E+00  0.10566000000E+00 0.  1.
     999900   -1    0    0    0    0 -0.00000000000E+00 -0.00000000000E+00 -0.74505805969E-08  0.93827000000E+00  0.93827000000E+00 0.  1.
     999902    2    1    2    0    0  0.18406776064E-01  0.98856845016E-02  0.13224581974E-01  0.10192029757E+01  0.10189029787E+01 0.  0.
     999903    2    3    3    0    0  0.12566853320E+00  0.34905304644E-01 -0.61005499535E-02  0.13212658289E+00  0.20230093087E-01 0.  0.
         14    1    1    2    0    0 -0.18406776064E-01 -0.98856845016E-02 -0.13224581974E-01  0.24727024316E-01  0.00000000000E+00 0. -1.
     999901    1    3    3    0    0 -0.10726175714E+00 -0.25019620142E-01  0.19325131927E-01  0.88707639280E+00  0.88000000000E+00 0.  1.
        -11    1    4    4    0    0  0.60334739051E-01  0.75828582084E-02 -0.76511187144E-02  0.61290955398E-01  0.51100000000E-03 0.  1.
         11    1    4    4    0    0  0.65333794149E-01  0.27322446435E-01  0.15505687609E-02  0.70835627488E-01  0.51100000000E-03 0. -1.
</event>
<event>
 8    1  0.1061721E+005  0.1043930E+01  0.7957747E-01            NaN
         13   -1    0    0    0    0  0.00000000000E+00  0.00000000000E+00  0.74505805969E-08  0.10566000000E+00  0.10566000000E+00 0. -1.
     999900   -1    0    0    0    0 -0.00000000000E+00 -0.00000000000E+00 -0.74505805969E-08  0.93827000000E+00  0.93827000000E+00 0. -1.
     999902    2    1    2    0    0 -0.98913801035E-02 -0.84922248087E-02  0.18300440170E-01  0.10214608346E+01  0.10212136766E+01 0.  0.
     999903    2    3    3    0    0 -0.11214530284E+00 -0.34351161993E-01  0.61830165976E-01  0.13409428895E+00  0.20043393520E-01 0.  0.
         14    1    1    2    0    0  0.98913801035E-02  0.84922248087E-02 -0.18300440170E-01  0.22469165382E-01  0.00000000000E+00 0.  1.
     999901    1    3    3    0    0  0.10225392274E+00  0.25858937184E-01 -0.43529725806E-01  0.88736654567E+00  0.88000000000E+00 0. -1.
        -11    1    4    4    0    0 -0.79751865779E-01 -0.23588177446E-01  0.33239730699E-01  0.89565077058E-01  0.51100000000E-03 0. -1.
         11    1    4    4    0    0 -0.32393437062E-01 -0.10762984547E-01  0.28590435277E-01  0.44529211888E-01  0.51100000000E-03 0.  1.
</event>
<event>
 8    1  0.1061721E+005  0.1043930E+01  0.7957747E-01            NaN
         13   -1    0    0    0    0  0.00000000000E+00  0.00000000000E+00  0.74505805969E-08  0.10566000000E+00  0.10566000000E+00 0. -1.
     999900   -1    0    0    0    0 -0.00000000000E+00 -0.00000000000E+00 -0.74505805969E-08  0.93827000000E+00  0.93827000000E+00 0.  1.
     999902    2    1    2    0    0  0.18541030453E-01 -0.78103482772E-02  0.31515411269E-02  0.10235657283E+01  0.10233631304E+01 0.  0.
     999903    2    3    3    0    0  0.10498073606E+00  0.41804400616E-01 -0.70648562284E-01  0.13487011040E+00  0.20740406699E-01 0.  0.
         14    1    1    2    0    0 -0.18541030453E-01  0.78103482772E-02 -0.31515411269E-02  0.20364271702E-01  0.00000000000E+00 0. -1.
     999901    1    3    3    0    0 -0.86439705612E-01 -0.49614748893E-01  0.73800103411E-01  0.88869561790E+00  0.88000000000E+00 0.  1.
        -11    1    4    4    0    0  0.64487779527E-01  0.22463389641E-01 -0.53789404325E-01  0.86930079496E-01  0.51100000000E-03 0. -1.
         11    1    4    4    0    0  0.40492956538E-01  0.19341010974E-01 -0.16859157959E-01  0.47940030901E-01  0.51100000000E-03 0.  1.
</event>
<event>
 8    1  0.1061721E+005  0.1043930E+01  0.7957747E-01            NaN
         13   -1    0    0    0    0  0.00000000000E+00  0.00000000000E+00  0.74505805969E-08  0.10566000000E+00  0.10566000000E+00 0. -1.
     999900   -1    0    0    0    0 -0.00000000000E+00 -0.00000000000E+00 -0.74505805969E-08  0.93827000000E+00  0.93827000000E+00 0. -1.
     999902    2    1    2    0    0  0.30817123770E-02  0.23726986658E-01  0.52169512896E-03  0.10199980337E+01  0.10197172401E+01 0.  0.
     999903    2    3    3    0    0  0.56339794773E-01  0.97271001275E-01  0.68432434724E-01  0.13272298387E+00  0.17221270608E-01 0.  0.
         14    1    1    2    0    0 -0.30817123770E-02 -0.23726986658E-01 -0.52169512896E-03  0.23931966339E-01  0.00000000000E+00 0.  1.
     999901    1    3    3    0    0 -0.53258082396E-01 -0.73544014616E-01 -0.67910739595E-01  0.88727504979E+00  0.88000000000E+00 0. -1.
        -11    1    4    4    0    0  0.35423668938E-01  0.73874218336E-01  0.44365098718E-01  0.93170593864E-01  0.51100000000E-03 0.  1.
         11    1    4    4    0    0  0.20916125834E-01  0.23396782939E-01  0.24067336006E-01  0.39552390007E-01  0.51100000000E-03 0. -1.
</event>
<event>
 8    1  0.1061721E+005  0.1043930E+01  0.7957747E-01            NaN
         13   -1    0    0    0    0  0.00000000000E+00  0.00000000000E+00  0.74505805969E-08  0.10566000000E+00  0.10566000000E+00 0. -1.
     999900   -1    0    0    0    0 -0.00000000000E+00 -0.00000000000E+00 -0.74505805969E-08  0.93827000000E+00  0.93827000000E+00 0.  1.
     999902    2    1    2    0    0  0.20009337391E-01  0.24338980684E-02 -0.13590277979E-01  0.10196196504E+01  0.10193297986E+01 0.  0.
     999903    2    3    3    0    0 -0.96610725903E-01  0.78614610754E-01 -0.24849868121E-01  0.12859186265E+00  0.20111235959E-01 0.  0.
         14    1    1    2    0    0 -0.20009337391E-01 -0.24338980684E-02  0.13590277979E-01  0.24310349610E-01  0.00000000000E+00 0.  1.
     999901    1    3    3    0    0  0.11662006329E+00 -0.76180712685E-01  0.11259590142E-01  0.89102778774E+00  0.88000000000E+00 0. -1.
        -11    1    4    4    0    0 -0.82630802029E-01  0.58055066582E-01 -0.16294275501E-01  0.10229371796E+00  0.51100000000E-03 0.  1.
         11    1    4    4    0    0 -0.13979923873E-01  0.20559544171E-01 -0.85555926195E-02  0.26298144690E-01  0.51100000000E-03 0. -1.
</event>
<event>
 8    1  0.1061721E+005  0.1043930E+01  0.7957747E-01            NaN
         13   -1    0    0    0    0  0.00000000000E+00  0.00000000000E+00  0.74505805969E-08  0.10566000000E+00  0.10566000000E+00 0.  1.
     999900   -1    0    0    0    0 -0.00000000000E+00 -0.00000000000E+00 -0.74505805969E-08  0.93827000000E+00  0.93827000000E+00 0. -1.
     999902    2    1    2    0    0 -0.15966839787E-01  0.16653003316E-01  0.40079237857E-02  0.10205136394E+01  0.10202449521E+01 0.  0.
     999903    2    3    3    0    0  0.43545070618E-01 -0.50112669509E-01  0.10953009343E+00  0.12970824489E+00  0.20492305986E-01 0.  0.
         14    1    1    2    0    0  0.15966839787E-01 -0.16653003316E-01 -0.40079237857E-02  0.23416360633E-01  0.00000000000E+00 0.  1.
     999901    1    3    3    0    0 -0.59511910405E-01  0.66765672825E-01 -0.10552216964E+00  0.89080539448E+00  0.88000000000E+00 0. -1.
        -11    1    4    4    0    0  0.21205602383E-01 -0.38932986521E-01  0.65797373481E-01  0.79341102147E-01  0.51100000000E-03 0.  1.
         11    1    4    4    0    0  0.22339468235E-01 -0.11179682988E-01  0.43732719949E-01  0.50367142741E-01  0.51100000000E-03 0. -1.
</event>
<event>
 8    1  0.1061721E+005  0.1043930E+01  0.7957747E-01            NaN
         13   -1    0    0    0    0  0.00000000000E+00  0.00000000000E+00  0.74505805969E-08  0.10566000000E+00  0.10566000000E+00 0. -1.
     999900   -1    0    0    0    0 -0.00000000000E+00 -0.00000000000E+00 -0.74505805969E-08  0.93827000000E+00  0.93827000000E+00 0. -1.
     999902    2    1    2    0    0  0.49336503697E-02  0.19934504035E-01  0.12009511966E-01  0.10201402178E+01  0.10198627900E+01 0.  0.
     999903    2    3    3    0    0 -0.11114620059E-03 -0.51979981611E-01  0.11829124837E+00  0.13081859396E+00  0.20463485617E-01 0.  0.
         14    1    1    2    0    0 -0.49336503697E-02 -0.19934504035E-01 -0.12009511966E-01  0.23789782150E-01  0.00000000000E+00 0.  1.
     999901    1    3    3    0    0  0.50447965702E-02  0.71914485646E-01 -0.10628173641E+00  0.88932162389E+00  0.88000000000E+00 0. -1.
        -11    1    4    4    0    0  0.40432228803E-02 -0.41189080395E-01  0.71489340852E-01  0.82606748946E-01  0.51100000000E-03 0. -1.
         11    1    4    4    0    0 -0.41543690809E-02 -0.10790901217E-01  0.46801907520E-01  0.48211845018E-01  0.51100000000E-03 0.  1.
</event>
<event>
 8    1  0.1061721E+005  0.1043930E+01  0.7957747E-01            NaN
         13   -1    0    0    0    0  0.00000000000E+00  0.00000000000E+00  0.74505805969E-08  0.10566000000E+00  0.10566000000E+00 0. -1.
     999900   -1    0    0    0    0 -0.00000000000E+00 -0.00000000000E+00 -0.74505805969E-08  0.93827000000E+00  0.93827000000E+00 0. -1.
     999902    2    1    2    0    0  0.16691188187E-01  0.56449560193E-02 -0.15009831721E-01  0.10207835891E+01  0.10205211313E+01 0.  0.
     999903    2    3    3    0    0  0.43455308429E-01 -0.11908148289E+00  0.24186919917E-01  0.13072213722E+00  0.20844823519E-01 0.  0.
         14    1    1    2    0    0 -0.16691188187E-01 -0.56449560193E-02  0.15009831721E-01  0.23146410949E-01  0.00000000000E+00 0. -1.
     999901    1    3    3    0    0 -0.26764120242E-01  0.12472643891E+00 -0.39196751638E-01  0.89006145183E+00  0.88000000000E+00 0. -1.
        -11    1    4    4    0    0  0.18435133521E-02 -0.10189844173E-01  0.78625366405E-02  0.13011997125E-01  0.51100000000E-03 0. -1.
         11    1    4    4    0    0  0.41611795077E-01 -0.10889163871E+00  0.16324383276E-01  0.11771014010E+00  0.51100000000E-03 0.  1.
</event>
<event>
 8    1  0.1061721E+005  0.1043930E+01  0.7957747E-01            NaN
         13   -1    0    0    0    0  0.00000000000E+00  0.00000000000E+00  0.74505805969E-08  0.10566000000E+00  0.10566000000E+00 0.  1.
     999900   -1    0    0    0    0 -0.00000000000E+00 -0.00000000000E+00 -0.74505805969E-08  0.93827000000E+00  0.93827000000E+00 0. -1.
     999902    2    1    2    0    0  0.16025540372E-01  0.14028785229E-01 -0.11934232305E-01  0.10195158512E+01  0.10192234889E+01 0.  0.
     999903    2    3    3    0    0 -0.87266020389E-02 -0.12708223164E+00 -0.76290021249E-02  0.12791979772E+00  0.89008872586E-02 0.  0.
         14    1    1    2    0    0 -0.16025540372E-01 -0.14028785229E-01  0.11934232305E-01  0.24414148765E-01  0.00000000000E+00 0.  1.
     999901    1    3    3    0    0  0.24752142411E-01  0.14111101687E+00 -0.43052301800E-02  0.89159605351E+00  0.88000000000E+00 0. -1.
        -11    1    4    4    0    0  0.14616037086E-02 -0.36332605457E-01 -0.16442419370E-02  0.36402735574E-01  0.51100000000E-03 0.  1.
         11    1    4    4    0    0 -0.10188205748E-01 -0.90749626181E-01 -0.59847601879E-02  0.91517062146E-01  0.51100000000E-03 0. -1.
</event>
<event>
 8    1  0.1061721E+005  0.1043930E+01  0.7957747E-01            NaN
         13   -1    0    0    0    0  0.00000000000E+00  0.00000000000E+00  0.74505805969E-08  0.10566000000E+00  0.10566000000E+00 0. -1.
     999900   -1    0    0    0    0 -0.00000000000E+00 -0.00000000000E+00 -0.74505805969E-08  0.93827000000E+00  0.93827000000E+00 0.  1.
     999902    2    1    2    0    0 -0.41532790668E-03  0.17543476405E-01  0.16227772994E-01  0.10200283959E+01  0.10197483228E+01 0.  0.
     999903    2    3    3    0    0  0.52739805122E-01 -0.48534893325E-01  0.10806231030E+00  0.13119466492E+00  0.19936255405E-01 0.  0.
         14    1    1    2    0    0  0.41532790668E-03 -0.17543476405E-01 -0.16227772994E-01  0.23901604088E-01  0.00000000000E+00 0.  1.
     999901    1    3    3    0    0 -0.53155133029E-01  0.66078369730E-01 -0.91834537311E-01  0.88883373100E+00  0.88000000000E+00 0.  1.
        -11    1    4    4    0    0  0.16166051326E-01 -0.71462740430E-02  0.38527173448E-01  0.42391209738E-01  0.51100000000E-03 0.  1.
         11    1    4    4    0    0  0.36573753796E-01 -0.41388619282E-01  0.69535136857E-01  0.88803455178E-01  0.51100000000E-03 0. -1.
</event>
<event>
 8    1  0.1061721E+005  0.1043930E+01  0.7957747E-01            NaN
         13   -1    0    0    0    0  0.00000000000E+00  0.00000000000E+00  0.74505805969E-08  0.10566000000E+00  0.10566000000E+00 0.  1.
     999900   -1    0    0    0    0 -0.00000000000E+00 -0.00000000000E+00 -0.74505805969E-08  0.93827000000E+00  0.93827000000E+00 0. -1.
     999902    2    1    2    0    0 -0.57277115820E-02  0.16254213525E-01 -0.16498526056E-01  0.10200719301E+01  0.10197928883E+01 0.  0.
     999903    2    3    3    0    0 -0.24973360712E-01 -0.94217008563E-01 -0.84114140719E-01  0.13038313211E+00  0.20592693433E-01 0.  0.
         14    1    1    2    0    0  0.57277115820E-02 -0.16254213525E-01  0.16498526056E-01  0.23858069899E-01  0.00000000000E+00 0. -1.
     999901    1    3    3    0    0  0.19245649130E-01  0.11047122209E+00  0.67615614662E-01  0.88968879799E+00  0.88000000000E+00 0.  1.
        -11    1    4    4    0    0 -0.37376812935E-02 -0.29262196871E-01 -0.14663431728E-01  0.32947287873E-01  0.51100000000E-03 0.  1.
         11    1    4    4    0    0 -0.21235679419E-01 -0.64954811692E-01 -0.69450708990E-01  0.97435844239E-01  0.51100000000E-03 0. -1.
</event>
<event>
 8    1  0.1061721E+005  0.1043930E+01  0.7957747E-01            NaN
         13   -1    0    0    0    0  0.00000000000E+00  0.00000000000E+00  0.74505805969E-08  0.10566000000E+00  0.10566000000E+00 0.  1.
     999900   -1    0    0    0    0 -0.00000000000E+00 -0.00000000000E+00 -0.74505805969E-08  0.93827000000E+00  0.93827000000E+00 0.  1.
     999902    2    1    2    0    0  0.20326526841E-01 -0.88171608124E-03  0.11721783708E-01  0.10204492562E+01  0.10201790721E+01 0.  0.
     999903    2    3    3    0    0 -0.35056736462E-01 -0.64900008840E-01  0.10686524151E+00  0.13128227231E+00  0.19335699105E-01 0.  0.
         14    1    1    2    0    0 -0.20326526841E-01  0.88171608124E-03 -0.11721783708E-01  0.23480743812E-01  0.00000000000E+00 0. -1.
     999901    1    3    3    0    0  0.55383263303E-01  0.64018292759E-01 -0.95143457803E-01  0.88916698388E+00  0.88000000000E+00 0.  1.
        -11    1    4    4    0    0 -0.18807390621E-02 -0.15290586009E-01  0.13604022157E-01  0.20558933332E-01  0.51100000000E-03 0.  1.
         11    1    4    4    0    0 -0.33175997400E-01 -0.49609422831E-01  0.93261219354E-01  0.11072333897E+00  0.51100000000E-03 0. -1.
</event>
<event>
 8    1  0.1061721E+005  0.1043930E+01  0.7957747E-01            NaN
         13   -1    0    0    0    0  0.00000000000E+00  0.00000000000E+00  0.74505805969E-08  0.10566000000E+00  0.10566000000E+00 0.  1.
     999900   -1    0    0    0    0 -0.00000000000E+00 -0.00000000000E+00 -0.74505805969E-08  0.93827000000E+00  0.93827000000E+00 0.  1.
     999902    2    1    2    0    0 -0.23608950098E-01 -0.19623601125E-02 -0.38265732660E-02  0.10199325825E+01  0.10196502326E+01 0.  0.
     999903    2    3    3    0    0  0.86121313500E-01 -0.80093717782E-01 -0.48073825695E-01  0.12858357168E+00  0.19767597805E-01 0.  0.
         14    1    1    2    0    0  0.23608950098E-01  0.19623601125E-02  0.38265732660E-02  0.23997417463E-01  0.00000000000E+00 0.  1.
     999901    1    3    3    0    0 -0.10973026360E+00  0.78131357669E-01  0.44247252429E-01  0.89134901085E+00  0.88000000000E+00 0.  1.
        -11    1    4    4    0    0  0.58117545145E-01 -0.52920294568E-01 -0.21907470132E-01  0.81599050236E-01  0.51100000000E-03 0. -1.
         11    1    4    4    0    0  0.28003768355E-01 -0.27173423214E-01 -0.26166355563E-01  0.46984521448E-01  0.51100000000E-03 0.  1.
</event>
<event>
 8    1  0.1061721E+005  0.1043930E+01  0.7957747E-01            NaN
         13   -1    0    0    0    0  0.00000000000E+00  0.00000000000E+00  0.74505805969E-08  0.10566000000E+00  0.10566000000E+00 0.  1.
     999900   -1    0    0    0    0 -0.00000000000E+00 -0.00000000000E+00 -0.74505805969E-08  0.93827000000E+00  0.93827000000E+00 0.  1.
     999902    2    1    2    0    0  0.50107112736E-02 -0.11424925233E-01  0.18960496465E-01  0.10212333798E+01  0.10209811357E+01 0.  0.
     999903    2    3    3    0    0 -0.12208019403E+00  0.40346702681E-01 -0.60673828372E-02  0.13024584090E+00  0.19893108001E-01 0.  0.
         14    1    1    2    0    0 -0.50107112736E-02  0.11424925233E-01 -0.18960496465E-01  0.22696620239E-01  0.00000000000E+00 0. -1.
     999901    1    3    3    0    0  0.12709090530E+00 -0.51771627914E-01  0.25027879302E-01  0.89098753886E+00  0.88000000000E+00 0.  1.
        -11    1    4    4    0    0 -0.66551352909E-01  0.15059862150E-01 -0.10625679338E-01  0.69058295696E-01  0.51100000000E-03 0.  1.
         11    1    4    4    0    0 -0.55528841117E-01  0.25286840531E-01  0.45582965006E-02  0.61187545202E-01  0.51100000000E-03 0. -1.
</event>
<event>
 8    1  0.1061721E+005  0.1043930E+01  0.7957747E-01            NaN
         13   -1    0    0    0    0  0.00000000000E+00  0.00000000000E+00  0.74505805969E-08  0.10566000000E+00  0.10566000000E+00 0. -1.
     999900   -1    0    0    0    0 -0.00000000000E+00 -0.00000000000E+00 -0.74505805969E-08  0.93827000000E+00  0.93827000000E+00 0. -1.
     999902    2    1    2    0    0  0.15996235646E-01 -0.10800657668E-01 -0.57600982877E-02  0.10237876939E+01  0.10235895319E+01 0.  0.
     999903    2    3    3    0    0  0.76432630822E-01  0.93658278386E-01 -0.54552068310E-01  0.13421201784E+00  0.20569817954E-01 0.  0.
         14    1    1    2    0    0 -0.15996235646E-01  0.10800657668E-01  0.57600982877E-02  0.20142306054E-01  0.00000000000E+00 0. -1.
     999901    1    3    3    0    0 -0.60436395176E-01 -0.10445893605E+00  0.48791970022E-01  0.88957567611E+00  0.88000000000E+00 0. -1.
        -11    1    4    4    0    0  0.49280775407E-01  0.74734222435E-01 -0.40306657516E-01  0.98176812888E-01  0.51100000000E-03 0.  1.
         11    1    4    4    0    0  0.27151855415E-01  0.18924055951E-01 -0.14245410794E-01  0.36035204950E-01  0.51100000000E-03 0. -1.
</event>
<event>
 8    1  0.1061721E+005  0.1043930E+01  0.7957747E-01            NaN
         13   -1    0    0    0    0  0.00000000000E+00  0.00000000000E+00  0.74505805969E-08  0.10566000000E+00  0.10566000000E+00 0.  1.
     999900   -1    0    0    0    0 -0.00000000000E+00 -0.00000000000E+00 -0.74505805969E-08  0.93827000000E+00  0.93827000000E+00 0. -1.
     999902    2    1    2    0    0  0.54879614952E-02 -0.21357650741E-01  0.56068012006E-02  0.10211769082E+01  0.10209233931E+01 0.  0.
     999903    2    3    3    0    0 -0.10713124341E+00 -0.69385263662E-01  0.29336322275E-01  0.13238400371E+00  0.19325798925E-01 0.  0.
         14    1    1    2    0    0 -0.54879614952E-02  0.21357650741E-01 -0.56068012006E-02  0.22753091796E-01  0.00000000000E+00 0. -1.
     999901    1    3    3    0    0  0.11261920491E+00  0.48027612920E-01 -0.23729521074E-01  0.88879290450E+00  0.88000000000E+00 0. -1.
        -11    1    4    4    0    0 -0.49352695764E-01 -0.22070159952E-01  0.75519700644E-02  0.54590053237E-01  0.51100000000E-03 0.  1.
         11    1    4    4    0    0 -0.57778547648E-01 -0.47315103710E-01  0.21784352211E-01  0.77793950469E-01  0.51100000000E-03 0. -1.
</event>
<event>
 8    1  0.1061721E+005  0.1043930E+01  0.7957747E-01            NaN
         13   -1    0    0    0    0  0.00000000000E+00  0.00000000000E+00  0.74505805969E-08  0.10566000000E+00  0.10566000000E+00 0. -1.
     999900   -1    0    0    0    0 -0.00000000000E+00 -0.00000000000E+00 -0.74505805969E-08  0.93827000000E+00  0.93827000000E+00 0. -1.
     999902    2    1    2    0    0 -0.75875460838E-02 -0.20544337930E-01  0.49569197399E-02  0.10214753406E+01  0.10212285051E+01 0.  0.
     999903    2    3    3    0    0 -0.35688291750E-01 -0.11775702612E+00  0.50848361310E-01  0.13448831527E+00  0.19004729097E-01 0.  0.
         14    1    1    2    0    0  0.75875460838E-02  0.20544337930E-01 -0.49569197399E-02  0.22454659424E-01  0.00000000000E+00 0. -1.
     999901    1    3    3    0    0  0.28100745666E-01  0.97212688187E-01 -0.45891441570E-01  0.88698702531E+00  0.88000000000E+00 0. -1.
        -11    1    4    4    0    0 -0.13058607763E-01 -0.72409384250E-01  0.34217317099E-01  0.81146362054E-01  0.51100000000E-03 0.  1.
         11    1    4    4    0    0 -0.22629683987E-01 -0.45347641867E-01  0.16631044211E-01  0.53341953215E-01  0.51100000000E-03 0. -1.
</event>
<event>
 8    1  0.1061721E+005  0.1043930E+01  0.7957747E-01            NaN
         13   -1    0    0    0    0  0.00000000000E+00  0.00000000000E+00  0.74505805969E-08  0.10566000000E+00  0.10566000000E+00 0. -1.
     999900   -1    0    0    0    0 -0.00000000000E+00 -0.00000000000E+00 -0.74505805969E-08  0.93827000000E+00  0.93827000000E+00 0. -1.
     999902    2    1    2    0    0 -0.16349717923E-01 -0.22636941773E-01  0.25967296373E-02  0.10158856171E+01  0.10154984488E+01 0.  0.
     999903    2    3    3    0    0 -0.73193391659E-02  0.12128946918E+00  0.15178139007E-01  0.12405903563E+00  0.19888699236E-01 0.  0.
         14    1    1    2    0    0  0.16349717923E-01  0.22636941773E-01 -0.25967296373E-02  0.28044382927E-01  0.00000000000E+00 0.  1.
     999901    1    3    3    0    0 -0.90303787567E-02 -0.14392641095E+00 -0.12581409370E-01  0.89182658145E+00  0.88000000000E+00 0.  1.
        -11    1    4    4    0    0  0.66613798073E-02  0.32142075418E-01  0.57581553032E-02  0.33330233521E-01  0.51100000000E-03 0.  1.
         11    1    4    4    0    0 -0.13980718973E-01  0.89147393763E-01  0.94199837042E-02  0.90728802106E-01  0.51100000000E-03 0. -1.
</event>
<event>
 8    1  0.1061721E+005  0.1043930E+01  0.7957747E-01            NaN
         13   -1    0    0    0    0  0.00000000000E+00  0.00000000000E+00  0.74505805969E-08  0.10566000000E+00  0.10566000000E+00 0. -1.
     999900   -1    0    0    0    0 -0.00000000000E+00 -0.00000000000E+00 -0.74505805969E-08  0.93827000000E+00  0.93827000000E+00 0.  1.
     999902    2    1    2    0    0  0.66727310405E-02  0.22118817911E-01 -0.57508121737E-02  0.10201216131E+01  0.10198437460E+01 0.  0.
     999903    2    3    3    0    0  0.11690467771E+00 -0.25355450287E-02 -0.56457851962E-01  0.13145400171E+00  0.20482501265E-01 0.  0.
         14    1    1    2    0    0 -0.66727310405E-02 -0.22118817911E-01  0.57508121737E-02  0.23808386883E-01  0.00000000000E+00 0.  1.
     999901    1    3    3    0    0 -0.11023194667E+00  0.24654362940E-01  0.50707039789E-01  0.88866761141E+00  0.88000000000E+00 0.  1.
        -11    1    4    4    0    0  0.70177964394E-01  0.54597609063E-02 -0.25674118872E-01  0.74927813103E-01  0.51100000000E-03 0.  1.
         11    1    4    4    0    0  0.46726713318E-01 -0.79953059350E-02 -0.30783733090E-01  0.56526188607E-01  0.51100000000E-03 0. -1.
</event>
<event>
 8    1  0.1061721E+005  0.1043930E+01  0.7957747E-01            NaN
         13   -1    0    0    0    0  0.00000000000E+00  0.00000000000E+00  0.74505805969E-08  0.10566000000E+00  0.10566000000E+00 0.  1.
     999900   -1    0    0    0    0 -0.00000000000E+00 -0.00000000000E+00 -0.74505805969E-08  0.93827000000E+00  0.93827000000E+00 0.  1.
     999902    2    1    2    0    0  0.22989900002E-02 -0.19099593618E-01  0.13951697109E-01  0.10201659582E+01  0.10198891374E+01 0.  0.
     999903    2    3    3    0    0 -0.12799619225E+00 -0.21816305881E-02 -0.11514919327E-01  0.13004708941E+00  0.19795639769E-01 0.  0.
         14    1    1    2    0    0 -0.22989900002E-02  0.19099593618E-01 -0.13951697109E-01  0.23764041820E-01  0.00000000000E+00 0. -1.
     999901    1    3    3    0    0  0.13029518225E+00 -0.16917963030E-01  0.25466616436E-01  0.89011886877E+00  0.88000000000E+00 0.  1.
        -11    1    4    4    0    0 -0.58839205051E-01 -0.15329833061E-02  0.45727805596E-02  0.59038746022E-01  0.51100000000E-03 0.  1.
         11    1    4    4    0    0 -0.69156987200E-01 -0.64864728199E-03 -0.16087699886E-01  0.71008343386E-01  0.51100000000E-03 0. -1.
</event>
<event>
 8    1  0.1061721E+005  0.1043930E+01  0.7957747E-01            NaN
         13   -1    0    0    0    0  0.00000000000E+00  0.00000000000E+00  0.74505805969E-08  0.10566000000E+00  0.10566000000E+00 0. -1.
     999900   -1    0    0    0    0 -0.00000000000E+00 -0.00000000000E+00 -0.74505805969E-08  0.93827000000E+00  0.93827000000E+00 0. -1.
     999902    2    1    2    0    0 -0.26898658959E-03  0.20794299172E-01 -0.11735520808E-01  0.10200511876E+01  0.10197716547E+01 0.  0.
     999903    2    3    3    0    0 -0.97566456010E-01 -0.74037014370E-01  0.33375257579E-01  0.12848248140E+00  0.19827944277E-01 0.  0.
         14    1    1    2    0    0  0.26898658959E-03 -0.20794299172E-01  0.11735520808E-01  0.23878812376E-01  0.00000000000E+00 0. -1.
     999901    1    3    3    0    0  0.97297469421E-01  0.94831313541E-01 -0.45110778387E-01  0.89156870622E+00  0.88000000000E+00 0.  1.
        -11    1    4    4    0    0 -0.23398036469E-01 -0.11928650183E-01  0.14198179303E-01  0.29859842972E-01  0.51100000000E-03 0. -1.
         11    1    4    4    0    0 -0.74168419541E-01 -0.62108364187E-01  0.19177078276E-01  0.98622638433E-01  0.51100000000E-03 0.  1.
</event>
<event>
 8    1  0.1061721E+005  0.1043930E+01  0.7957747E-01            NaN
         13   -1    0    0    0    0  0.00000000000E+00  0.00000000000E+00  0.74505805969E-08  0.10566000000E+00  0.10566000000E+00 0. -1.
     999900   -1    0    0    0    0 -0.00000000000E+00 -0.00000000000E+00 -0.74505805969E-08  0.93827000000E+00  0.93827000000E+00 0.  1.
     999902    2    1    2    0    0  0.21358199032E-01  0.14427549405E-02  0.13719896504E-01  0.10185038369E+01  0.10181864152E+01 0.  0.
     999903    2    3    3    0    0 -0.12243554731E-01 -0.10035824720E+00 -0.74720856194E-01  0.12759739481E+00  0.21822153841E-01 0.  0.
         14    1    1    2    0    0 -0.21358199032E-01 -0.14427549405E-02 -0.13719896504E-01  0.25426163057E-01  0.00000000000E+00 0. -1.
     999901    1    3    3    0    0  0.33601753763E-01  0.10180100214E+00  0.88440752698E-01  0.89090644213E+00  0.88000000000E+00 0. -1.
        -11    1    4    4    0    0 -0.10340040572E-01 -0.82244888937E-01 -0.70676234365E-01  0.10893360097E+00  0.51100000000E-03 0.  1.
         11    1    4    4    0    0 -0.19035141585E-02 -0.18113358266E-01 -0.40446218289E-02  0.18663793842E-01  0.51100000000E-03 0. -1.
</event>
<event>
 8    1  0.1061721E+005  0.1043930E+01  0.7957747E-01            NaN
         13   -1    0    0    0    0  0.00000000000E+00  0.00000000000E+00  0.74505805969E-08  0.10566000000E+00  0.10566000000E+00 0. -1.
     999900   -1    0    0    0    0 -0.00000000000E+00 -0.00000000000E+00 -0.74505805969E-08  0.93827000000E+00  0.93827000000E+00 0. -1.
     999902    2    1    2    0    0 -0.13679757227E-02 -0.17938175632E-01 -0.21825405313E-01  0.10156457673E+01  0.10152518539E+01 0.  0.
     999903    2    3    3    0    0 -0.87774963480E-01 -0.87113561454E-01 -0.29295927547E-01  0.12868059874E+00  0.20179898838E-01 0.  0.
         14    1    1    2    0    0  0.13679757227E-02  0.17938175632E-01  0.21825405313E-01  0.28284232704E-01  0.00000000000E+00 0. -1.
     999901    1    3    3    0    0  0.86406987757E-01  0.69175385822E-01  0.74705222342E-02  0.88696516856E+00  0.88000000000E+00 0.  1.
        -11    1    4    4    0    0 -0.48020686648E-01 -0.33553425605E-01 -0.14658632953E-01  0.60390026966E-01  0.51100000000E-03 0. -1.
         11    1    4    4    0    0 -0.39754276833E-01 -0.53560135848E-01 -0.14637294594E-01  0.68290571769E-01  0.51100000000E-03 0.  1.
</event>
<event>
 8    1  0.1061721E+005  0.1043930E+01  0.7957747E-01            NaN
         13   -1    0    0    0    0  0.00000000000E+00  0.00000000000E+00  0.74505805969E-08  0.10566000000E+00  0.10566000000E+00 0.  1.
     999900   -1    0    0    0    0 -0.00000000000E+00 -0.00000000000E+00 -0.74505805969E-08  0.93827000000E+00  0.93827000000E+00 0.  1.
     999902    2    1    2    0    0 -0.16413813938E-01 -0.14647514270E-01  0.39373121843E-03  0.10219273187E+01  0.10216904260E+01 0.  0.
     999903    2    3    3    0    0  0.88563069575E-02  0.76349187367E-01  0.10435337964E+00  0.13078951381E+00  0.17568053274E-01 0.  0.
         14    1    1    2    0    0  0.16413813938E-01  0.14647514270E-01 -0.39373121843E-03  0.22002681349E-01  0.00000000000E+00 0.  1.
     999901    1    3    3    0    0 -0.25270120896E-01 -0.90996701637E-01 -0.10395964842E+00  0.89113780484E+00  0.88000000000E+00 0.  1.
        -11    1    4    4    0    0  0.13345077618E-01  0.50672554883E-01  0.75480712909E-01  0.91887964703E-01  0.51100000000E-03 0.  1.
         11    1    4    4    0    0 -0.44887706604E-02  0.25676632484E-01  0.28872666730E-01  0.38901549106E-01  0.51100000000E-03 0. -1.
</event>
<event>
 8    1  0.1061721E+005  0.1043930E+01  0.7957747E-01            NaN
         13   -1    0    0    0    0  0.00000000000E+00  0.00000000000E+00  0.74505805969E-08  0.10566000000E+00  0.10566000000E+00 0. -1.
     999900   -1    0    0    0    0 -0.00000000000E+00 -0.00000000000E+00 -0.74505805969E-08  0.93827000000E+00  0.93827000000E+00 0. -1.
     999902    2    1    2    0    0 -0.19124098045E-01  0.13481694299E-01 -0.36736446733E-02  0.10202449230E+01  0.10199699604E+01 0.  0.
     999903    2    3    3    0    0 -0.81111899317E-02  0.65573038233E-01 -0.11240470834E+00  0.13195598551E+00  0.20296524571E-01 0.  0.
         14    1    1    2    0    0  0.19124098045E-01 -0.13481694299E-01  0.36736446733E-02  0.23685076998E-01  0.00000000000E+00 0.  1.
     999901    1    3    3    0    0 -0.11012908113E-01 -0.52091343933E-01  0.10873106367E+00  0.88828893749E+00  0.88000000000E+00 0.  1.
        -11    1    4    4    0    0 -0.12331796258E-01  0.24010910424E-01 -0.50660944310E-01  0.57405482471E-01  0.51100000000E-03 0. -1.
         11    1    4    4    0    0  0.42206063261E-02  0.41562127809E-01 -0.61743764034E-01  0.74550503042E-01  0.51100000000E-03 0.  1.
</event>
<event>
 8    1  0.1061721E+005  0.1043930E+01  0.7957747E-01            NaN
         13   -1    0    0    0    0  0.00000000000E+00  0.00000000000E+00  0.74505805969E-08  0.10566000000E+00  0.10566000000E+00 0.  1.
     999900   -1    0    0    0    0 -0.00000000000E+00 -0.00000000000E+00 -0.74505805969E-08  0.93827000000E+00  0.93827000000E+00 0. -1.
     999902    2    1    2    0    0 -0.10072143447E-01 -0.20703321927E-01  0.57986278707E-02  0.10201876392E+01  0.10199113292E+01 0.  0.
     999903    2    3    3    0    0 -0.70155266517E-01 -0.10337210477E+00 -0.41490281251E-01  0.13301214906E+00  0.19058722280E-01 0.  0.
         14    1    1    2    0    0  0.10072143447E-01  0.20703321927E-01 -0.57986278707E-02  0.23742360827E-01  0.00000000000E+00 0.  1.
     999901    1    3    3    0    0  0.60083123069E-01  0.82668782840E-01  0.47288909121E-01  0.88717549011E+00  0.88000000000E+00 0.  1.
        -11    1    4    4    0    0 -0.63943802378E-01 -0.94658733373E-01 -0.43266639605E-01  0.12215297332E+00  0.51100000000E-03 0.  1.
         11    1    4    4    0    0 -0.62114641387E-02 -0.87133713944E-02  0.17763583545E-02  0.10859175742E-01  0.51100000000E-03 0. -1.
</event>
<event>
 8    1  0.1061721E+005  0.1043930E+01  0.7957747E-01            NaN
         13   -1    0    0    0    0  0.00000000000E+00  0.00000000000E+00  0.74505805969E-08  0.10566000000E+00  0.10566000000E+00 0.  1.
     999900   -1    0    0    0    0 -0.00000000000E+00 -0.00000000000E+00 -0.74505805969E-08  0.93827000000E+00  0.93827000000E+00 0.  1.
     999902    2    1    2    0    0 -0.52526593702E-02 -0.19687475971E-01  0.16469926033E-01  0.10177298931E+01  0.10173925936E+01 0.  0.
     999903    2    3    3    0    0  0.39303627291E-01 -0.50330110610E-01  0.11289653558E+00  0.13081257742E+00  0.16982564983E-01 0.  0.
         14    1    1    2    0    0  0.52526593702E-02  0.19687475971E-01 -0.16469926033E-01  0.26200106948E-01  0.00000000000E+00 0. -1.
     999901    1    3    3    0    0 -0.44556286661E-01  0.30642634639E-01 -0.96426609545E-01  0.88691731563E+00  0.88000000000E+00 0.  1.
        -11    1    4    4    0    0  0.21841065408E-01 -0.31192506657E-01  0.82532313255E-01  0.90894710857E-01  0.51100000000E-03 0.  1.
         11    1    4    4    0    0  0.17462561883E-01 -0.19137603953E-01  0.30364222324E-01  0.39917866563E-01  0.51100000000E-03 0. -1.
</event>
<event>
 8    1  0.1061721E+005  0.1043930E+01  0.7957747E-01            NaN
         13   -1    0    0    0    0  0.00000000000E+00  0.00000000000E+00  0.74505805969E-08  0.10566000000E+00  0.10566000000E+00 0. -1.
     999900   -1    0    0    0    0 -0.00000000000E+00 -0.00000000000E+00 -0.74505805969E-08  0.93827000000E+00  0.93827000000E+00 0.  1.
     999902    2    1    2    0    0 -0.64161432400E-03 -0.27635771125E-02  0.23255737993E-01  0.10205018465E+01  0.10202328853E+01 0.  0.
     999903    2    3    3    0    0  0.52480281831E-02  0.62501222296E-01 -0.10981246844E+00  0.12808864091E+00  0.20346427617E-01 0.  0.
         14    1    1    2    0    0  0.64161432400E-03  0.27635771125E-02 -0.23255737993E-01  0.23428153513E-01  0.00000000000E+00 0.  1.
     999901    1    3    3    0    0 -0.58896425071E-02 -0.65264799408E-01  0.13306820643E+00  0.89241320558E+00  0.88000000000E+00 0. -1.
        -11    1    4    4    0    0 -0.61567499602E-02  0.40386785035E-01 -0.72938203550E-01  0.83601678414E-01  0.51100000000E-03 0. -1.
         11    1    4    4    0    0  0.11404778143E-01  0.22114437261E-01 -0.36874264888E-01  0.44486962494E-01  0.51100000000E-03 0.  1.
</event>
<event>
 8    1  0.1061721E+005  0.1043930E+01  0.7957747E-01            NaN
         13   -1    0    0    0    0  0.00000000000E+00  0.00000000000E+00  0.74505805969E-08  0.10566000000E+00  0.10566000000E+00 0.  1.
     999900   -1    0    0    0    0 -0.00000000000E+00 -0.00000000000E+00 -0.74505805969E-08  0.93827000000E+00  0.93827000000E+00 0. -1.
     999902    2    1    2    0    0  0.11871197965E-01  0.62009247005E-02  0.19678891002E-01  0.10201258920E+01  0.10198481259E+01 0.  0.
     999903    2    3    3    0    0  0.11777775109E+00  0.54726071800E-01 -0.11896591156E-01  0.13188724218E+00  0.19651315039E-01 0.  0.
         14    1    1    2    0    0 -0.11871197965E-01 -0.62009247005E-02 -0.19678891002E-01  0.23804108035E-01  0.00000000000E+00 0. -1.
     999901    1    3    3    0    0 -0.10590655312E+00 -0.48525147099E-01  0.31575482157E-01  0.88823864978E+00  0.88000000000E+00 0.  1.
        -11    1    4    4    0    0  0.53148279598E-01  0.18512760580E-01 -0.13121349129E-01  0.57791806102E-01  0.51100000000E-03 0.  1.
         11    1    4    4    0    0  0.64629471492E-01  0.36213311220E-01  0.12247579732E-02  0.74095436080E-01  0.51100000000E-03 0. -1.
</event>
<event>
 8    1  0.1061721E+005  0.1043930E+01  0.7957747E-01            NaN
         13   -1    0    0    0    0  0.00000000000E+00  0.00000000000E+00  0.74505805969E-08  0.10566000000E+00  0.10566000000E+00 0. -1.
     999900   -1    0    0    0    0 -0.00000000000E+00 -0.00000000000E+00 -0.74505805969E-08  0.93827000000E+00  0.93827000000E+00 0. -1.
     999902    2    1    2    0    0 -0.22785427090E-01  0.33576954207E-02  0.59828057305E-02  0.10201341228E+01  0.10198565511E+01 0.  0.
     999903    2    3    3    0    0 -0.16713318029E-01 -0.11519596859E+00  0.56243367065E-01  0.13074221495E+00  0.19513181548E-01 0.  0.
         14    1    1    2    0    0  0.22785427090E-01 -0.33576954207E-02 -0.59828057305E-02  0.23795877177E-01  0.00000000000E+00 0.  1.
     999901    1    3    3    0    0 -0.60721090620E-02  0.11855366401E+00 -0.50260561334E-01  0.88939190787E+00  0.88000000000E+00 0. -1.
        -11    1    4    4    0    0 -0.14308555234E-01 -0.56192892901E-01  0.36292252841E-01  0.68408805740E-01  0.51100000000E-03 0.  1.
         11    1    4    4    0    0 -0.24047627945E-02 -0.59003075685E-01  0.19951114223E-01  0.62333409214E-01  0.51100000000E-03 0. -1.
</event>
<event>
 8    1  0.1061721E+005  0.1043930E+01  0.7957747E-01            NaN
         13   -1    0    0    0    0  0.00000000000E+00  0.00000000000E+00  0.74505805969E-08  0.10566000000E+00  0.10566000000E+00 0. -1.
     999900   -1    0    0    0    0 -0.00000000000E+00 -0.00000000000E+00 -0.74505805969E-08  0.93827000000E+00  0.93827000000E+00 0. -1.
     999902    2    1    2    0    0 -0.31599324319E-03 -0.21654626473E-01  0.99303096090E-02  0.10201049345E+01  0.10198266733E+01 0.  0.
     999903    2    3    3    0    0  0.76787461922E-01 -0.10627081361E+00 -0.33387317488E-02  0.13259104195E+00  0.19479146374E-01 0.  0.
         14    1    1    2    0    0  0.31599324319E-03  0.21654626473E-01 -0.99303096090E-02  0.23825065548E-01  0.00000000000E+00 0.  1.
     999901    1    3    3    0    0 -0.77103455165E-01  0.84616187132E-01  0.13269041358E-01  0.88751389250E+00  0.88000000000E+00 0.  1.
        -11    1    4    4    0    0  0.61055404116E-01 -0.92424645237E-01  0.26012135292E-02  0.11080209769E+00  0.51100000000E-03 0.  1.
         11    1    4    4    0    0  0.15732057805E-01 -0.13846168368E-01 -0.59399452781E-02  0.21788944265E-01  0.51100000000E-03 0. -1.
</event>
<event>
 8    1  0.1061721E+005  0.1043930E+01  0.7957747E-01            NaN
         13   -1    0    0    0    0  0.00000000000E+00  0.00000000000E+00  0.74505805969E-08  0.10566000000E+00  0.10566000000E+00 0.  1.
     999900   -1    0    0    0    0 -0.00000000000E+00 -0.00000000000E+00 -0.74505805969E-08  0.93827000000E+00  0.93827000000E+00 0. -1.
     999902    2    1    2    0    0 -0.13543142241E-01  0.14077157605E-01 -0.16018090167E-01  0.10186681259E+01  0.10183548441E+01 0.  0.
     999903    2    3    3    0    0 -0.16373089141E-01 -0.40380633612E-01  0.11751349322E+00  0.12692581822E+00  0.20051648904E-01 0.  0.
         14    1    1    2    0    0  0.13543142241E-01 -0.14077157605E-01  0.16018090167E-01  0.25261874051E-01  0.00000000000E+00 0.  1.
     999901    1    3    3    0    0  0.28299468995E-02  0.54457791217E-01 -0.13353158339E+00  0.89174230772E+00  0.88000000000E+00 0. -1.
        -11    1    4    4    0    0 -0.10703875278E-01 -0.11751156886E-01  0.64242184879E-01  0.66181432994E-01  0.51100000000E-03 0. -1.
         11    1    4    4    0    0 -0.56692138628E-02 -0.28629476726E-01  0.53271308342E-01  0.60744385230E-01  0.51100000000E-03 0.  1.
</event>
<event>
 8    1  0.1061721E+005  0.1043930E+01  0.7957747E-01            NaN
         13   -1    0    0    0    0  0.00000000000E+00  0.00000000000E+00  0.74505805969E-08  0.10566000000E+00  0.10566000000E+00 0.  1.
     999900   -1    0    0    0    0 -0.00000000000E+00 -0.00000000000E+00 -0.74505805969E-08  0.93827000000E+00  0.93827000000E+00 0. -1.
     999902    2    1    2    0    0 -0.12488113631E-01  0.20670427445E-01 -0.93636476185E-03  0.10197619150E+01  0.10194754862E+01 0.  0.
     999903    2    3    3    0    0 -0.47024617928E-01  0.54925135628E-01 -0.10841390212E+00  0.13188941505E+00  0.20326298558E-01 0.  0.
         14    1    1    2    0    0  0.12488113631E-01 -0.20670427445E-01  0.93636476185E-03  0.24168084983E-01  0.00000000000E+00 0.  1.
     999901    1    3    3    0    0  0.34536504298E-01 -0.34254708183E-01  0.10747753736E+00  0.88787249997E+00  0.88000000000E+00 0.  1.
        -11    1    4    4    0    0 -0.45628497013E-01  0.54448348932E-01 -0.96263217815E-01  0.11963883427E+00  0.51100000000E-03 0.  1.
         11    1    4    4    0    0 -0.13961209158E-02  0.47678669575E-03 -0.12150684309E-01  0.12250580776E-01  0.51100000000E-03 0. -1.
</event>
<event>
 8    1  0.1242031E+005  0.1043930E+01  0.7957747E-01            NaN
         13   -1    0    0    0    0  0.00000000000E+00  0.00000000000E+00  0.74505805969E-08  0.10566000000E+00  0.10566000000E+00 0.  1.
     999900   -1    0    0    0    0 -0.00000000000E+00 -0.00000000000E+00 -0.74505805969E-08  0.93827000000E+00  0.93827000000E+00 0.  1.
     999902    2    1    2    0    0 -0.51519106436E-02  0.14535477126E-01  0.18123007785E-01  0.10201336623E+01  0.10198560796E+01 0.  0.
     999903    2    3    3    0    0 -0.18400069290E-01 -0.23739204288E-01 -0.12279983278E+00  0.12800154652E+00  0.20062019085E-01 0.  0.
         14    1    1    2    0    0  0.51519106436E-02 -0.14535477126E-01 -0.18123007785E-01  0.23796337738E-01  0.00000000000E+00 0.  1.
     999901    1    3    3    0    0  0.13248158647E-01  0.38274681415E-01  0.14092284057E+00  0.89213211574E+00  0.88000000000E+00 0.  1.
        -11    1    4    4    0    0 -0.61567893649E-03 -0.14615638008E-01 -0.70642301815E-01  0.72142857316E-01  0.51100000000E-03 0.  1.
         11    1    4    4    0    0 -0.17784390354E-01 -0.91235662805E-02 -0.52157530968E-01  0.55858689204E-01  0.51100000000E-03 0. -1.
</event>
<event>
 8    1  0.1061721E+005  0.1043930E+01  0.7957747E-01            NaN
         13   -1    0    0    0    0  0.00000000000E+00  0.00000000000E+00  0.74505805969E-08  0.10566000000E+00  0.10566000000E+00 0.  1.
     999900   -1    0    0    0    0 -0.00000000000E+00 -0.00000000000E+00 -0.74505805969E-08  0.93827000000E+00  0.93827000000E+00 0.  1.
     999902    2    1    2    0    0 -0.81923599957E-02  0.11369173875E-02  0.21884698141E-01  0.10205345441E+01  0.10202663419E+01 0.  0.
     999903    2    3    3    0    0  0.15702809508E-01  0.44729384008E-01  0.12298790141E+00  0.13335184591E+00  0.20233509247E-01 0.  0.
         14    1    1    2    0    0  0.81923599957E-02 -0.11369173875E-02 -0.21884698141E-01  0.23395455887E-01  0.00000000000E+00 0. -1.
     999901    1    3    3    0    0 -0.23895169504E-01 -0.43592466621E-01 -0.10110320326E+00  0.88718269820E+00  0.88000000000E+00 0.  1.
        -11    1    4    4    0    0  0.83400316912E-02  0.42214435148E-01  0.94888780256E-01  0.10419096123E+00  0.51100000000E-03 0. -1.
         11    1    4    4    0    0  0.73627778169E-02  0.25149488602E-02  0.28099121149E-01  0.29160884680E-01  0.51100000000E-03 0.  1.
</event>
<event>
 8    1  0.1061721E+005  0.1043930E+01  0.7957747E-01            NaN
         13   -1    0    0    0    0  0.00000000000E+00  0.00000000000E+00  0.74505805969E-08  0.10566000000E+00  0.10566000000E+00 0.  1.
     999900   -1    0    0    0    0 -0.00000000000E+00 -0.00000000000E+00 -0.74505805969E-08  0.93827000000E+00  0.93827000000E+00 0. -1.
     999902    2    1    2    0    0  0.12914986502E-01  0.12700645589E-01  0.14921483645E-01  0.10204618525E+01  0.10201919615E+01 0.  0.
     999903    2    3    3    0    0  0.39890776617E-01 -0.12130702821E+00 -0.89215555599E-02  0.12958911160E+00  0.20176088328E-01 0.  0.
         14    1    1    2    0    0 -0.12914986502E-01 -0.12700645589E-01 -0.14921483645E-01  0.23468147539E-01  0.00000000000E+00 0.  1.
     999901    1    3    3    0    0 -0.26975790115E-01  0.13400767380E+00  0.23843039205E-01  0.89087274086E+00  0.88000000000E+00 0.  1.
        -11    1    4    4    0    0  0.97226604537E-02 -0.54841382136E-01  0.22566681414E-02  0.55744605057E-01  0.51100000000E-03 0.  1.
         11    1    4    4    0    0  0.30168116163E-01 -0.66465646072E-01 -0.11178223701E-01  0.73844506544E-01  0.51100000000E-03 0. -1.
</event>
<event>
 8    1  0.1061721E+005  0.1043930E+01  0.7957747E-01            NaN
         13   -1    0    0    0    0  0.00000000000E+00  0.00000000000E+00  0.74505805969E-08  0.10566000000E+00  0.10566000000E+00 0.  1.
     999900   -1    0    0    0    0 -0.00000000000E+00 -0.00000000000E+00 -0.74505805969E-08  0.93827000000E+00  0.93827000000E+00 0.  1.
     999902    2    1    2    0    0 -0.10134978463E-01  0.14882448932E-01 -0.15970860920E-01  0.10198618993E+01  0.10195778637E+01 0.  0.
     999903    2    3    3    0    0 -0.11743997719E+00  0.46197054059E-01 -0.35369422544E-01  0.13257881510E+00  0.19995752421E-01 0.  0.
         14    1    1    2    0    0  0.10134978463E-01 -0.14882448932E-01  0.15970860920E-01  0.24068100739E-01  0.00000000000E+00 0.  1.
     999901    1    3    3    0    0  0.10730499873E+00 -0.31314605126E-01  0.19398561624E-01  0.88728308416E+00  0.88000000000E+00 0.  1.
        -11    1    4    4    0    0 -0.65083164167E-01  0.31524533966E-01 -0.11632914223E-01  0.73247527699E-01  0.51100000000E-03 0.  1.
         11    1    4    4    0    0 -0.52356813027E-01  0.14672520093E-01 -0.23736508320E-01  0.59331287399E-01  0.51100000000E-03 0. -1.
</event>
<event>
 8    1  0.1061721E+005  0.1043930E+01  0.7957747E-01            NaN
         13   -1    0    0    0    0  0.00000000000E+00  0.00000000000E+00  0.74505805969E-08  0.10566000000E+00  0.10566000000E+00 0.  1.
     999900   -1    0    0    0    0 -0.00000000000E+00 -0.00000000000E+00 -0.74505805969E-08  0.93827000000E+00  0.93827000000E+00 0. -1.
     999902    2    1    2    0    0 -0.22496061429E-01  0.10220436663E-02  0.80160676237E-02  0.10200265548E+01  0.10197464380E+01 0.  0.
     999903    2    3    3    0    0  0.74223595968E-01 -0.10320623692E+00  0.59088566701E-03  0.12858201925E+00  0.19295517416E-01 0.  0.
         14    1    1    2    0    0  0.22496061429E-01 -0.10220436663E-02 -0.80160676237E-02  0.23903445217E-01  0.00000000000E+00 0. -1.
     999901    1    3    3    0    0 -0.96719657398E-01  0.10422828058E+00  0.74251819567E-02  0.89144453553E+00  0.88000000000E+00 0. -1.
        -11    1    4    4    0    0  0.41242840898E-01 -0.72975212805E-01  0.12592026555E-02  0.83834362416E-01  0.51100000000E-03 0. -1.
         11    1    4    4    0    0  0.32980755071E-01 -0.30231024111E-01 -0.66831698850E-03  0.44747656837E-01  0.51100000000E-03 0.  1.
</event>
<event>
 8    1  0.1061721E+005  0.1043930E+01  0.7957747E-01            NaN
         13   -1    0    0    0    0  0.00000000000E+00  0.00000000000E+00  0.74505805969E-08  0.10566000000E+00  0.10566000000E+00 0.  1.
     999900   -1    0    0    0    0 -0.00000000000E+00 -0.00000000000E+00 -0.74505805969E-08  0.93827000000E+00  0.93827000000E+00 0.  1.
     999902    2    1    2    0    0 -0.17574124965E-01  0.81683991825E-02 -0.13172145866E-01  0.10204975857E+01  0.10202285256E+01 0.  0.
     999903    2    3    3    0    0 -0.40526861474E-01  0.90600364956E-01  0.83186681615E-01  0.13111190966E+00  0.20480630520E-01 0.  0.
         14    1    1    2    0    0  0.17574124965E-01 -0.81683991825E-02  0.13172145866E-01  0.23432414306E-01  0.00000000000E+00 0.  1.
     999901    1    3    3    0    0  0.22952736509E-01 -0.82431965773E-01 -0.96358827481E-01  0.88938567603E+00  0.88000000000E+00 0.  1.
        -11    1    4    4    0    0 -0.10628520551E-01  0.14380476946E-01  0.68057612716E-02  0.19140090746E-01  0.51100000000E-03 0. -1.
         11    1    4    4    0    0 -0.29898340924E-01  0.76219888010E-01  0.76380920344E-01  0.11197181892E+00  0.51100000000E-03 0.  1.
</event>
<event>
 8    1  0.1061721E+005  0.1043930E+01  0.7957747E-01            NaN
         13   -1    0    0    0    0  0.00000000000E+00  0.00000000000E+00  0.74505805969E-08  0.10566000000E+00  0.10566000000E+00 0. -1.
     999900   -1    0    0    0    0 -0.00000000000E+00 -0.00000000000E+00 -0.74505805969E-08  0.93827000000E+00  0.93827000000E+00 0. -1.
     999902    2    1    2    0    0 -0.14662109776E-01  0.18277697858E-01  0.12160197416E-02  0.10204666156E+01  0.10201968355E+01 0.  0.
     999903    2    3    3    0    0 -0.11243904017E+00 -0.30830371445E-01  0.58031839727E-01  0.13187223798E+00  0.20725423264E-01 0.  0.
         14    1    1    2    0    0  0.14662109776E-01 -0.18277697858E-01 -0.12160197416E-02  0.23463384370E-01  0.00000000000E+00 0. -1.
     999901    1    3    3    0    0  0.97776930397E-01  0.49108069303E-01 -0.56815819986E-01  0.88859437765E+00  0.88000000000E+00 0. -1.
        -11    1    4    4    0    0 -0.83029081105E-01 -0.31861112924E-01  0.45258734966E-01  0.99787639704E-01  0.51100000000E-03 0.  1.
         11    1    4    4    0    0 -0.29409959068E-01  0.10307414787E-02  0.12773104762E-01  0.32084598277E-01  0.51100000000E-03 0. -1.
</event>
<event>
 8    1  0.1061721E+005  0.1043930E+01  0.7957747E-01            NaN
         13   -1    0    0    0    0  0.00000000000E+00  0.00000000000E+00  0.74505805969E-08  0.10566000000E+00  0.10566000000E+00 0. -1.
     999900   -1    0    0    0    0 -0.00000000000E+00 -0.00000000000E+00 -0.74505805969E-08  0.93827000000E+00  0.93827000000E+00 0.  1.
     999902    2    1    2    0    0  0.54262939447E-02  0.16596837189E-01  0.16960144214E-01  0.10195877289E+01  0.10192971062E+01 0.  0.
     999903    2    3    3    0    0  0.12401368282E+00  0.16329311947E-01 -0.30756084823E-01  0.13035217018E+00  0.19992787781E-01 0.  0.
         14    1    1    2    0    0 -0.54262939447E-02 -0.16596837189E-01 -0.16960144214E-01  0.24342271102E-01  0.00000000000E+00 0. -1.
     999901    1    3    3    0    0 -0.11858738887E+00  0.26752524169E-03  0.47716229038E-01  0.88923555871E+00  0.88000000000E+00 0. -1.
        -11    1    4    4    0    0  0.55032395962E-01  0.70201319431E-02 -0.23890854386E-01  0.60405967438E-01  0.51100000000E-03 0.  1.
         11    1    4    4    0    0  0.68981286854E-01  0.93091800040E-02 -0.68652304376E-02  0.69946202745E-01  0.51100000000E-03 0. -1.
</event>
<event>
 8    1  0.1061721E+005  0.1043930E+01  0.7957747E-01            NaN
         13   -1    0    0    0    0  0.00000000000E+00  0.00000000000E+00  0.74505805969E-08  0.10566000000E+00  0.10566000000E+00 0.  1.
     999900   -1    0    0    0    0 -0.00000000000E+00 -0.00000000000E+00 -0.74505805969E-08  0.93827000000E+00  0.93827000000E+00 0. -1.
     999902    2    1    2    0    0  0.11974819734E-01 -0.20717406098E-01 -0.39263354571E-02  0.10196808076E+01  0.10193924298E+01 0.  0.
     999903    2    3    3    0    0 -0.45255998694E-01  0.85729572530E-01  0.80493543834E-01  0.12741793047E+00  0.18932865155E-01 0.  0.
         14    1    1    2    0    0 -0.11974819734E-01  0.20717406098E-01  0.39263354571E-02  0.24249192424E-01  0.00000000000E+00 0. -1.
     999901    1    3    3    0    0  0.57230818428E-01 -0.10644697863E+00 -0.84419879291E-01  0.89226287710E+00  0.88000000000E+00 0. -1.
        -11    1    4    4    0    0 -0.18183193590E-01  0.35785952156E-01  0.45571503213E-01  0.60731259883E-01  0.51100000000E-03 0.  1.
         11    1    4    4    0    0 -0.27072805104E-01  0.49943620373E-01  0.34922040622E-01  0.66686670590E-01  0.51100000000E-03 0. -1.
</event>
<event>
 8    1  0.1061721E+005  0.1043930E+01  0.7957747E-01            NaN
         13   -1    0    0    0    0  0.00000000000E+00  0.00000000000E+00  0.74505805969E-08  0.10566000000E+00  0.10566000000E+00 0. -1.
     999900   -1    0    0    0    0 -0.00000000000E+00 -0.00000000000E+00 -0.74505805969E-08  0.93827000000E+00  0.93827000000E+00 0. -1.
     999902    2    1    2    0    0 -0.21884987853E-01  0.64065347113E-02 -0.93054870885E-02  0.10193009832E+01  0.10190033885E+01 0.  0.
     999903    2    3    3    0    0 -0.10882935469E+00 -0.70713198071E-01  0.10450630944E-01  0.13144002541E+00  0.17974419837E-01 0.  0.
         14    1    1    2    0    0  0.21884987853E-01 -0.64065347113E-02  0.93054870885E-02  0.24629016836E-01  0.00000000000E+00 0. -1.
     999901    1    3    3    0    0  0.86944366836E-01  0.77119732782E-01 -0.19756118032E-01  0.88786095776E+00  0.88000000000E+00 0. -1.
        -11    1    4    4    0    0 -0.59055605843E-01 -0.46196058990E-01  0.11989951871E-01  0.75931946601E-01  0.51100000000E-03 0. -1.
         11    1    4    4    0    0 -0.49773748846E-01 -0.24517139081E-01 -0.15393209267E-02  0.55508078807E-01  0.51100000000E-03 0.  1.
</event>
<event>
 8    1  0.1061721E+005  0.1043930E+01  0.7957747E-01            NaN
         13   -1    0    0    0    0  0.00000000000E+00  0.00000000000E+00  0.74505805969E-08  0.10566000000E+00  0.10566000000E+00 0.  1.
     999900   -1    0    0    0    0 -0.00000000000E+00 -0.00000000000E+00 -0.74505805969E-08  0.93827000000E+00  0.93827000000E+00 0.  1.
     999902    2    1    2    0    0 -0.34419484881E-02 -0.64456869580E-02 -0.21910593623E-01  0.10208330737E+01  0.10205717498E+01 0.  0.
     999903    2    3    3    0    0 -0.10411286112E-01  0.96166422956E-01  0.82468042953E-01  0.12871608783E+00  0.20260241261E-01 0.  0.
         14    1    1    2    0    0  0.34419484881E-02  0.64456869580E-02  0.21910593623E-01  0.23096926260E-01  0.00000000000E+00 0.  1.
     999901    1    3    3    0    0  0.69693376243E-02 -0.10261210991E+00 -0.10437863658E+00  0.89211698591E+00  0.88000000000E+00 0.  1.
        -11    1    4    4    0    0  0.44720847948E-02  0.52331336968E-01  0.43060486871E-01  0.67919327307E-01  0.51100000000E-03 0. -1.
         11    1    4    4    0    0 -0.14883370907E-01  0.43835085988E-01  0.39407556082E-01  0.60796760527E-01  0.51100000000E-03 0.  1.
</event>
<event>
 8    1  0.1061721E+005  0.1043930E+01  0.7957747E-01            NaN
         13   -1    0    0    0    0  0.00000000000E+00  0.00000000000E+00  0.74505805969E-08  0.10566000000E+00  0.10566000000E+00 0. -1.
     999900   -1    0    0    0    0 -0.00000000000E+00 -0.00000000000E+00 -0.74505805969E-08  0.93827000000E+00  0.93827000000E+00 0. -1.
     999902    2    1    2    0    0 -0.45193444236E-02  0.37511892109E-03  0.23110945594E-01  0.10203783335E+01  0.10201064957E+01 0.  0.
     999903    2    3    3    0    0  0.41509887138E-01 -0.11975514825E+00 -0.19765573838E-01  0.12999169437E+00  0.21042728753E-01 0.  0.
         14    1    1    2    0    0  0.45193444236E-02 -0.37511892109E-03 -0.23110945594E-01  0.23551666490E-01  0.00000000000E+00 0.  1.
     999901    1    3    3    0    0 -0.46029231561E-01  0.12013026717E+00  0.42876519432E-01  0.89038663914E+00  0.88000000000E+00 0.  1.
        -11    1    4    4    0    0  0.29012797666E-01 -0.51872322488E-01 -0.10225945670E-01  0.60310126468E-01  0.51100000000E-03 0. -1.
         11    1    4    4    0    0  0.12497089472E-01 -0.67882825758E-01 -0.95396281683E-02  0.69681567898E-01  0.51100000000E-03 0.  1.
</event>
<event>
 8    1  0.1061721E+005  0.1043930E+01  0.7957747E-01            NaN
         13   -1    0    0    0    0  0.00000000000E+00  0.00000000000E+00  0.74505805969E-08  0.10566000000E+00  0.10566000000E+00 0. -1.
     999900   -1    0    0    0    0 -0.00000000000E+00 -0.00000000000E+00 -0.74505805969E-08  0.93827000000E+00  0.93827000000E+00 0. -1.
     999902    2    1    2    0    0 -0.12876022130E-01  0.39850991477E-03 -0.21052054559E-01  0.10192492432E+01  0.10189503815E+01 0.  0.
     999903    2    3    3    0    0 -0.60480604465E-01 -0.92708760311E-01  0.63146454156E-01  0.12906693101E+00  0.20444565372E-01 0.  0.
         14    1    1    2    0    0  0.12876022130E-01 -0.39850991477E-03  0.21052054559E-01  0.24680756820E-01  0.00000000000E+00 0. -1.
     999901    1    3    3    0    0  0.47604582335E-01  0.93107270225E-01 -0.84198508716E-01  0.89018231217E+00  0.88000000000E+00 0. -1.
        -11    1    4    4    0    0 -0.46474355903E-01 -0.62509073403E-01  0.53169460405E-01  0.94310670950E-01  0.51100000000E-03 0. -1.
         11    1    4    4    0    0 -0.14006248562E-01 -0.30199686908E-01  0.99769937516E-02  0.34756260061E-01  0.51100000000E-03 0.  1.
</event>
<event>
 8    1  0.1061721E+005  0.1043930E+01  0.7957747E-01            NaN
         13   -1    0    0    0    0  0.00000000000E+00  0.00000000000E+00  0.74505805969E-08  0.10566000000E+00  0.10566000000E+00 0. -1.
     999900   -1    0    0    0    0 -0.00000000000E+00 -0.00000000000E+00 -0.74505805969E-08  0.93827000000E+00  0.93827000000E+00 0. -1.
     999902    2    1    2    0    0 -0.44873692139E-02  0.22628039637E-01  0.53491681564E-02  0.10202492428E+01  0.10199743817E+01 0.  0.
     999903    2    3    3    0    0  0.12147334015E+00  0.17271788163E-01  0.39641550040E-01  0.13060282026E+00  0.20773953304E-01 0.  0.
         14    1    1    2    0    0  0.44873692139E-02 -0.22628039637E-01 -0.53491681564E-02  0.23680757172E-01  0.00000000000E+00 0.  1.
     999901    1    3    3    0    0 -0.12596070937E+00  0.53562514741E-02 -0.34292381883E-01  0.88964642257E+00  0.88000000000E+00 0. -1.
        -11    1    4    4    0    0  0.48931315632E-01  0.45565535364E-02  0.55910088746E-02  0.49462676139E-01  0.51100000000E-03 0. -1.
         11    1    4    4    0    0  0.72542024521E-01  0.12715234627E-01  0.34050541165E-01  0.81140144120E-01  0.51100000000E-03 0.  1.
</event>
<event>
 8    1  0.1061721E+005  0.1043930E+01  0.7957747E-01            NaN
         13   -1    0    0    0    0  0.00000000000E+00  0.00000000000E+00  0.74505805969E-08  0.10566000000E+00  0.10566000000E+00 0.  1.
     999900   -1    0    0    0    0 -0.00000000000E+00 -0.00000000000E+00 -0.74505805969E-08  0.93827000000E+00  0.93827000000E+00 0. -1.
     999902    2    1    2    0    0 -0.47745227574E-02 -0.21857629712E-01  0.15846068360E-02  0.10215009335E+01  0.10212546667E+01 0.  0.
     999903    2    3    3    0    0 -0.57415640945E-01  0.43152555189E-01  0.10770598690E+00  0.13118685480E+00  0.21229988555E-01 0.  0.
         14    1    1    2    0    0  0.47745227574E-02  0.21857629712E-01 -0.15846068360E-02  0.22429066477E-01  0.00000000000E+00 0. -1.
     999901    1    3    3    0    0  0.52641118187E-01 -0.65010184901E-01 -0.10612138006E+00  0.89031407872E+00  0.88000000000E+00 0. -1.
        -11    1    4    4    0    0 -0.14907518755E-01  0.23652852651E-01  0.36179340834E-01  0.45726331344E-01  0.51100000000E-03 0.  1.
         11    1    4    4    0    0 -0.42508122190E-01  0.19499702538E-01  0.71526646066E-01  0.85460523457E-01  0.51100000000E-03 0. -1.
</event>
<event>
 8    1  0.1061721E+005  0.1043930E+01  0.7957747E-01            NaN
         13   -1    0    0    0    0  0.00000000000E+00  0.00000000000E+00  0.74505805969E-08  0.10566000000E+00  0.10566000000E+00 0.  1.
     999900   -1    0    0    0    0 -0.00000000000E+00 -0.00000000000E+00 -0.74505805969E-08  0.93827000000E+00  0.93827000000E+00 0. -1.
     999902    2    1    2    0    0  0.22449011275E-01  0.76405047223E-02 -0.23766039201E-02  0.10200975921E+01  0.10198191574E+01 0.  0.
     999903    2    3    3    0    0  0.11683684444E+00 -0.59327384915E-01 -0.10491368634E-02  0.13251913166E+00  0.19739117201E-01 0.  0.
         14    1    1    2    0    0 -0.22449011275E-01 -0.76405047223E-02  0.23766039201E-02  0.23832407890E-01  0.00000000000E+00 0.  1.
     999901    1    3    3    0    0 -0.94387833162E-01  0.66967889637E-01 -0.13274670567E-02  0.88757846045E+00  0.88000000000E+00 0.  1.
        -11    1    4    4    0    0  0.33392542403E-01 -0.98386076296E-02  0.56492861368E-02  0.35270889457E-01  0.51100000000E-03 0. -1.
         11    1    4    4    0    0  0.83444302034E-01 -0.49488777285E-01 -0.66984230002E-02  0.97248242199E-01  0.51100000000E-03 0.  1.
</event>
<event>
 8    1  0.1061721E+005  0.1043930E+01  0.7957747E-01            NaN
         13   -1    0    0    0    0  0.00000000000E+00  0.00000000000E+00  0.74505805969E-08  0.10566000000E+00  0.10566000000E+00 0.  1.
     999900   -1    0    0    0    0 -0.00000000000E+00 -0.00000000000E+00 -0.74505805969E-08  0.93827000000E+00  0.93827000000E+00 0. -1.
     999902    2    1    2    0    0  0.10391060139E-01  0.17453103280E-01  0.10862071751E-01  0.10208959047E+01  0.10206360167E+01 0.  0.
     999903    2    3    3    0    0  0.36775953890E-01  0.73758789614E-01  0.10374781123E+00  0.13382530233E+00  0.18782262366E-01 0.  0.
         14    1    1    2    0    0 -0.10391060139E-01 -0.17453103280E-01 -0.10862071751E-01  0.23034095329E-01  0.00000000000E+00 0. -1.
     999901    1    3    3    0    0 -0.26384893751E-01 -0.56305686334E-01 -0.92885739480E-01  0.88707060234E+00  0.88000000000E+00 0. -1.
        -11    1    4    4    0    0 -0.62357711302E-03  0.14029226965E-01  0.16702574852E-01  0.21827624363E-01  0.51100000000E-03 0.  1.
         11    1    4    4    0    0  0.37399531003E-01  0.59729562650E-01  0.87045236379E-01  0.11199767797E+00  0.51100000000E-03 0. -1.
</event>
<event>
 8    1  0.1061721E+005  0.1043930E+01  0.7957747E-01            NaN
         13   -1    0    0    0    0  0.00000000000E+00  0.00000000000E+00  0.74505805969E-08  0.10566000000E+00  0.10566000000E+00 0. -1.
     999900   -1    0    0    0    0 -0.00000000000E+00 -0.00000000000E+00 -0.74505805969E-08  0.93827000000E+00  0.93827000000E+00 0. -1.
     999902    2    1    2    0    0 -0.94197217036E-02 -0.22765475626E-01 -0.11417600263E-02  0.10192662279E+01  0.10189677825E+01 0.  0.
     999903    2    3    3    0    0 -0.78395243726E-01  0.90392617644E-01 -0.42130144948E-01  0.12840011878E+00  0.19874652845E-01 0.  0.
         14    1    1    2    0    0  0.94197217036E-02  0.22765475626E-01  0.11417600263E-02  0.24663772084E-01  0.00000000000E+00 0.  1.
     999901    1    3    3    0    0  0.68975522022E-01 -0.11315809327E+00  0.40988384922E-01  0.89086610914E+00  0.88000000000E+00 0.  1.
        -11    1    4    4    0    0 -0.11500114066E-01  0.12421057413E-01  0.10290102310E-02  0.16966298178E-01  0.51100000000E-03 0.  1.
         11    1    4    4    0    0 -0.66895129659E-01  0.77971560230E-01 -0.43159155179E-01  0.11143382060E+00  0.51100000000E-03 0. -1.
</event>
<event>
 8    1  0.1061721E+005  0.1043930E+01  0.7957747E-01            NaN
         13   -1    0    0    0    0  0.00000000000E+00  0.00000000000E+00  0.74505805969E-08  0.10566000000E+00  0.10566000000E+00 0. -1.
     999900   -1    0    0    0    0 -0.00000000000E+00 -0.00000000000E+00 -0.74505805969E-08  0.93827000000E+00  0.93827000000E+00 0. -1.
     999902    2    1    2    0    0  0.22020169085E-01  0.15858710248E-02 -0.64988491465E-02  0.10209161374E+01  0.10206567110E+01 0.  0.
     999903    2    3    3    0    0  0.71928692021E-01  0.59090054675E-01  0.91662436689E-01  0.13219051613E+00  0.20173223749E-01 0.  0.
         14    1    1    2    0    0 -0.22020169085E-01 -0.15858710248E-02  0.64988491465E-02  0.23013862641E-01  0.00000000000E+00 0. -1.
     999901    1    3    3    0    0 -0.49908522936E-01 -0.57504183650E-01 -0.98161285836E-01  0.88872562123E+00  0.88000000000E+00 0.  1.
        -11    1    4    4    0    0  0.54662331236E-01  0.35488884653E-01  0.71018011338E-01  0.96391132609E-01  0.51100000000E-03 0. -1.
         11    1    4    4    0    0  0.17266360785E-01  0.23601170021E-01  0.20644425351E-01  0.35799383517E-01  0.51100000000E-03 0.  1.
</event>
<event>
 8    1  0.1061721E+005  0.1043930E+01  0.7957747E-01            NaN
         13   -1    0    0    0    0  0.00000000000E+00  0.00000000000E+00  0.74505805969E-08  0.10566000000E+00  0.10566000000E+00 0.  1.
     999900   -1    0    0    0    0 -0.00000000000E+00 -0.00000000000E+00 -0.74505805969E-08  0.93827000000E+00  0.93827000000E+00 0. -1.
     999902    2    1    2    0    0  0.17939949111E-01  0.15363749828E-01 -0.45958010864E-02  0.10198674155E+01  0.10195835117E+01 0.  0.
     999903    2    3    3    0    0 -0.98297571583E-01  0.74292536469E-01  0.34384226854E-01  0.12941629073E+00  0.19608867786E-01 0.  0.
         14    1    1    2    0    0 -0.17939949111E-01 -0.15363749828E-01  0.45958010864E-02  0.24062584451E-01  0.00000000000E+00 0.  1.
     999901    1    3    3    0    0  0.11623752069E+00 -0.58928786641E-01 -0.38980027940E-01  0.89045112482E+00  0.88000000000E+00 0. -1.
        -11    1    4    4    0    0 -0.44468473446E-02  0.72914576076E-02  0.65906927231E-02  0.10799914672E-01  0.51100000000E-03 0. -1.
         11    1    4    4    0    0 -0.93850724239E-01  0.67001078861E-01  0.27793534131E-01  0.11861637606E+00  0.51100000000E-03 0.  1.
</event>
<event>
 8    1  0.1061721E+005  0.1043930E+01  0.7957747E-01            NaN
         13   -1    0    0    0    0  0.00000000000E+00  0.00000000000E+00  0.74505805969E-08  0.10566000000E+00  0.10566000000E+00 0. -1.
     999900   -1    0    0    0    0 -0.00000000000E+00 -0.00000000000E+00 -0.74505805969E-08  0.93827000000E+00  0.93827000000E+00 0.  1.
     999902    2    1    2    0    0 -0.21847187196E-01  0.96055301403E-02 -0.61732421535E-02  0.10192789409E+01  0.10189808068E+01 0.  0.
     999903    2    3    3    0    0  0.73154212367E-02 -0.34599241216E-01 -0.12395203201E+00  0.12985420382E+00  0.15728481473E-01 0.  0.
         14    1    1    2    0    0  0.21847187196E-01 -0.96055301403E-02  0.61732421535E-02  0.24651059132E-01  0.00000000000E+00 0. -1.
     999901    1    3    3    0    0 -0.29162608432E-01  0.44204771356E-01  0.11777878985E+00  0.88942473705E+00  0.88000000000E+00 0. -1.
        -11    1    4    4    0    0 -0.16559755139E-02 -0.19483381605E-02 -0.27624386295E-01  0.27747182121E-01  0.51100000000E-03 0. -1.
         11    1    4    4    0    0  0.89713967506E-02 -0.32650903055E-01 -0.96327645712E-01  0.10210702169E+00  0.51100000000E-03 0.  1.
</event>
<event>
 8    1  0.1061721E+005  0.1043930E+01  0.7957747E-01            NaN
         13   -1    0    0    0    0  0.00000000000E+00  0.00000000000E+00  0.74505805969E-08  0.10566000000E+00  0.10566000000E+00 0.  1.
     999900   -1    0    0    0    0 -0.00000000000E+00 -0.00000000000E+00 -0.74505805969E-08  0.93827000000E+00  0.93827000000E+00 0. -1.
     999902    2    1    2    0    0 -0.10979698692E-01  0.20778326372E-01 -0.89208267278E-02  0.10187929003E+01  0.10184827441E+01 0.  0.
     999903    2    3    3    0    0  0.10798510158E+00 -0.52037340953E-01  0.35979102076E-01  0.12667701732E+00  0.19593466136E-01 0.  0.
         14    1    1    2    0    0  0.10979698692E-01 -0.20778326372E-01  0.89208267278E-02  0.25137099667E-01  0.00000000000E+00 0. -1.
     999901    1    3    3    0    0 -0.11896480027E+00  0.72815667325E-01 -0.44899928804E-01  0.89211588301E+00  0.88000000000E+00 0. -1.
        -11    1    4    4    0    0  0.28595262326E-01 -0.46108490432E-02  0.93587156410E-02  0.30443318410E-01  0.51100000000E-03 0.  1.
         11    1    4    4    0    0  0.79389839253E-01 -0.47426491910E-01  0.26620386435E-01  0.96233698913E-01  0.51100000000E-03 0. -1.
</event>
<event>
 8    1  0.1061721E+005  0.1043930E+01  0.7957747E-01            NaN
         13   -1    0    0    0    0  0.00000000000E+00  0.00000000000E+00  0.74505805969E-08  0.10566000000E+00  0.10566000000E+00 0.  1.
     999900   -1    0    0    0    0 -0.00000000000E+00 -0.00000000000E+00 -0.74505805969E-08  0.93827000000E+00  0.93827000000E+00 0. -1.
     999902    2    1    2    0    0  0.14899903814E-01  0.17403357874E-03 -0.18772904428E-02  0.10289112903E+01  0.10288016727E+01 0.  0.
     999903    2    3    3    0    0 -0.49951539545E-01 -0.72139019796E-02 -0.12660258092E+00  0.13772293234E+00  0.19803936807E-01 0.  0.
         14    1    1    2    0    0 -0.14899903814E-01 -0.17403357874E-03  0.18772904428E-02  0.15018709690E-01  0.00000000000E+00 0. -1.
     999901    1    3    3    0    0  0.64851443358E-01  0.73879355583E-02  0.12472529047E+00  0.89118835797E+00  0.88000000000E+00 0.  1.
        -11    1    4    4    0    0 -0.19974564826E-01 -0.12714973182E-01 -0.58325010611E-01  0.62950153032E-01  0.51100000000E-03 0.  1.
         11    1    4    4    0    0 -0.29976974719E-01  0.55010712021E-02 -0.68277570306E-01  0.74772779309E-01  0.51100000000E-03 0. -1.
</event>
<event>
 8    1  0.1061721E+005  0.1043930E+01  0.7957747E-01            NaN
         13   -1    0    0    0    0  0.00000000000E+00  0.00000000000E+00  0.74505805969E-08  0.10566000000E+00  0.10566000000E+00 0.  1.
     999900   -1    0    0    0    0 -0.00000000000E+00 -0.00000000000E+00 -0.74505805969E-08  0.93827000000E+00  0.93827000000E+00 0. -1.
     999902    2    1    2    0    0 -0.79911461528E-02 -0.21855125002E-01  0.14553905742E-01  0.10164833048E+01  0.10161126846E+01 0.  0.
     999903    2    3    3    0    0  0.11529408511E+00  0.44280434805E-01  0.82793896383E-02  0.12540949748E+00  0.20137298658E-01 0.  0.
         14    1    1    2    0    0  0.79911461528E-02  0.21855125002E-01 -0.14553905742E-01  0.27446695211E-01  0.00000000000E+00 0. -1.
     999901    1    3    3    0    0 -0.12328523126E+00 -0.66135559807E-01  0.62745161033E-02  0.89107380731E+00  0.88000000000E+00 0.  1.
        -11    1    4    4    0    0  0.39073768120E-01  0.65660596830E-02  0.76957946879E-02  0.40365317685E-01  0.51100000000E-03 0.  1.
         11    1    4    4    0    0  0.76220316991E-01  0.37714375122E-01  0.58359495046E-03  0.85044179796E-01  0.51100000000E-03 0. -1.
</event>
<event>
 8    1  0.1061721E+005  0.1043930E+01  0.7957747E-01            NaN
         13   -1    0    0    0    0  0.00000000000E+00  0.00000000000E+00  0.74505805969E-08  0.10566000000E+00  0.10566000000E+00 0.  1.
     999900   -1    0    0    0    0 -0.00000000000E+00 -0.00000000000E+00 -0.74505805969E-08  0.93827000000E+00  0.93827000000E+00 0. -1.
     999902    2    1    2    0    0  0.18944378984E-01  0.13978400250E-01  0.13995137553E-02  0.10203451785E+01  0.10200725657E+01 0.  0.
     999903    2    3    3    0    0  0.12146396518E+00  0.45404044987E-01  0.24845044494E-01  0.13352640914E+00  0.19924948220E-01 0.  0.
         14    1    1    2    0    0 -0.18944378984E-01 -0.13978400250E-01 -0.13995137553E-02  0.23584821547E-01  0.00000000000E+00 0.  1.
     999901    1    3    3    0    0 -0.10251958620E+00 -0.31425644737E-01 -0.23445530739E-01  0.88681876932E+00  0.88000000000E+00 0. -1.
        -11    1    4    4    0    0  0.80151805938E-01  0.33861821248E-01  0.25336319001E-01  0.90626293728E-01  0.51100000000E-03 0.  1.
         11    1    4    4    0    0  0.41312159246E-01  0.11542223738E-01 -0.49127450709E-03  0.42900115408E-01  0.51100000000E-03 0. -1.
</event>
<event>
 8    1  0.1061721E+005  0.1043930E+01  0.7957747E-01            NaN
         13   -1    0    0    0    0  0.00000000000E+00  0.00000000000E+00  0.74505805969E-08  0.10566000000E+00  0.10566000000E+00 0.  1.
     999900   -1    0    0    0    0 -0.00000000000E+00 -0.00000000000E+00 -0.74505805969E-08  0.93827000000E+00  0.93827000000E+00 0. -1.
     999902    2    1    2    0    0 -0.22389138336E-01  0.55295146893E-02  0.50038130130E-02  0.10203315426E+01  0.10200586109E+01 0.  0.
     999903    2    3    3    0    0 -0.68391527622E-01 -0.85927355582E-01  0.71344466046E-01  0.13191628990E+00  0.15841818650E-01 0.  0.
         14    1    1    2    0    0  0.22389138336E-01 -0.55295146893E-02 -0.50038130130E-02  0.23598457424E-01  0.00000000000E+00 0. -1.
     999901    1    3    3    0    0  0.46002389286E-01  0.91456870272E-01 -0.66340653033E-01  0.88841525267E+00  0.88000000000E+00 0. -1.
        -11    1    4    4    0    0 -0.40935751492E-01 -0.57654406691E-01  0.37912891606E-01  0.80233501931E-01  0.51100000000E-03 0. -1.
         11    1    4    4    0    0 -0.27455776129E-01 -0.28272948892E-01  0.33431574441E-01  0.51682787971E-01  0.51100000000E-03 0.  1.
</event>
<event>
 8    1  0.1061721E+005  0.1043930E+01  0.7957747E-01            NaN
         13   -1    0    0    0    0  0.00000000000E+00  0.00000000000E+00  0.74505805969E-08  0.10566000000E+00  0.10566000000E+00 0. -1.
     999900   -1    0    0    0    0 -0.00000000000E+00 -0.00000000000E+00 -0.74505805969E-08  0.93827000000E+00  0.93827000000E+00 0. -1.
     999902    2    1    2    0    0  0.23808334776E-01  0.16738328666E-02  0.17872933439E-02  0.10199960714E+01  0.10197152312E+01 0.  0.
     999903    2    3    3    0    0 -0.26576566449E-02  0.78258533502E-01 -0.10213298384E+00  0.13018424348E+00  0.19629815524E-01 0.  0.
         14    1    1    2    0    0 -0.23808334776E-01 -0.16738328666E-02 -0.17872933439E-02  0.23933928611E-01  0.00000000000E+00 0.  1.
     999901    1    3    3    0    0  0.26465991421E-01 -0.76584700635E-01  0.10392027719E+00  0.88981182791E+00  0.88000000000E+00 0.  1.
        -11    1    4    4    0    0 -0.63600501092E-02  0.73482807803E-01 -0.88121115173E-01  0.11491634062E+00  0.51100000000E-03 0.  1.
         11    1    4    4    0    0  0.37023934642E-02  0.47757256985E-02 -0.14011868670E-01  0.15267902866E-01  0.51100000000E-03 0. -1.
</event>
<event>
 8    1  0.1061721E+005  0.1043930E+01  0.7957747E-01            NaN
         13   -1    0    0    0    0  0.00000000000E+00  0.00000000000E+00  0.74505805969E-08  0.10566000000E+00  0.10566000000E+00 0.  1.
     999900   -1    0    0    0    0 -0.00000000000E+00 -0.00000000000E+00 -0.74505805969E-08  0.93827000000E+00  0.93827000000E+00 0. -1.
     999902    2    1    2    0    0  0.77863445785E-02 -0.13438292152E-01  0.15837019084E-01  0.10217483402E+01  0.10215075353E+01 0.  0.
     999903    2    3    3    0    0  0.11350846741E+00  0.63642959765E-01 -0.56701461517E-02  0.13181505910E+00  0.20210411890E-01 0.  0.
         14    1    1    2    0    0 -0.77863445785E-02  0.13438292152E-01 -0.15837019084E-01  0.22181659797E-01  0.00000000000E+00 0. -1.
     999901    1    3    3    0    0 -0.10572212283E+00 -0.77081251917E-01  0.21507165236E-01  0.88993328110E+00  0.88000000000E+00 0.  1.
        -11    1    4    4    0    0  0.52567239148E-01  0.26417012971E-01  0.71273581076E-02  0.59264100098E-01  0.51100000000E-03 0. -1.
         11    1    4    4    0    0  0.60941228258E-01  0.37225946794E-01 -0.12797504259E-01  0.72550959005E-01  0.51100000000E-03 0.  1.
</event>
<event>
 8    1  0.1061721E+005  0.1043930E+01  0.7957747E-01            NaN
         13   -1    0    0    0    0  0.00000000000E+00  0.00000000000E+00  0.74505805969E-08  0.10566000000E+00  0.10566000000E+00 0. -1.
     999900   -1    0    0    0    0 -0.00000000000E+00 -0.00000000000E+00 -0.74505805969E-08  0.93827000000E+00  0.93827000000E+00 0.  1.
     999902    2    1    2    0    0 -0.12367358736E-01 -0.20109347983E-01 -0.22104407667E-02  0.10202187477E+01  0.10199431698E+01 0.  0.
     999903    2    3    3    0    0  0.50743934151E-01 -0.34571244336E-01 -0.11398077807E+00  0.13078927322E+00  0.18549890321E-01 0.  0.
         14    1    1    2    0    0  0.12367358736E-01  0.20109347983E-01  0.22104407667E-02  0.23711252324E-01  0.00000000000E+00 0.  1.
     999901    1    3    3    0    0 -0.63111292886E-01  0.14461896354E-01  0.11177033730E+00  0.88942947446E+00  0.88000000000E+00 0. -1.
        -11    1    4    4    0    0  0.13552312437E-01 -0.20059595993E-01 -0.43589353890E-01  0.49863267616E-01  0.51100000000E-03 0.  1.
         11    1    4    4    0    0  0.37191621713E-01 -0.14511648343E-01 -0.70391424181E-01  0.80926005601E-01  0.51100000000E-03 0. -1.
</event>
<event>
 8    1  0.1061721E+005  0.1043930E+01  0.7957747E-01            NaN
         13   -1    0    0    0    0  0.00000000000E+00  0.00000000000E+00  0.74505805969E-08  0.10566000000E+00  0.10566000000E+00 0. -1.
     999900   -1    0    0    0    0 -0.00000000000E+00 -0.00000000000E+00 -0.74505805969E-08  0.93827000000E+00  0.93827000000E+00 0.  1.
     999902    2    1    2    0    0 -0.13251281153E-01 -0.18801421782E-01 -0.64344787375E-02  0.10200450166E+01  0.10197653375E+01 0.  0.
     999903    2    3    3    0    0 -0.44195097502E-01  0.60372487350E-01  0.10324928751E+00  0.12917097603E+00  0.20656277649E-01 0.  0.
         14    1    1    2    0    0  0.13251281153E-01  0.18801421782E-01  0.64344787375E-02  0.23884983355E-01  0.00000000000E+00 0. -1.
     999901    1    3    3    0    0  0.30943816349E-01 -0.79173909132E-01 -0.10968376625E+00  0.89087404061E+00  0.88000000000E+00 0.  1.
        -11    1    4    4    0    0 -0.17969047712E-01  0.37989160986E-01  0.67395178384E-01  0.79425652145E-01  0.51100000000E-03 0. -1.
         11    1    4    4    0    0 -0.26226049790E-01  0.22383326364E-01  0.35854109124E-01  0.49745323889E-01  0.51100000000E-03 0.  1.
</event>
<event>
 8    1  0.1061721E+005  0.1043930E+01  0.7957747E-01            NaN
         13   -1    0    0    0    0  0.00000000000E+00  0.00000000000E+00  0.74505805969E-08  0.10566000000E+00  0.10566000000E+00 0. -1.
     999900   -1    0    0    0    0 -0.00000000000E+00 -0.00000000000E+00 -0.74505805969E-08  0.93827000000E+00  0.93827000000E+00 0.  1.
     999902    2    1    2    0    0 -0.13062726050E-01 -0.72835826775E-02 -0.19072079076E-01  0.10196930532E+01  0.10194049702E+01 0.  0.
     999903    2    3    3    0    0  0.69289710616E-01  0.10373565013E+00 -0.21718775999E-01  0.12889891378E+00  0.24105510514E-01 0.  0.
         14    1    1    2    0    0  0.13062726050E-01  0.72835826775E-02  0.19072079076E-01  0.24236946770E-01  0.00000000000E+00 0. -1.
     999901    1    3    3    0    0 -0.82352436666E-01 -0.11101923281E+00  0.26466969230E-02  0.89079413945E+00  0.88000000000E+00 0.  1.
        -11    1    4    4    0    0  0.76142227889E-02  0.29843170488E-01 -0.49801916074E-02  0.31203439600E-01  0.51100000000E-03 0. -1.
         11    1    4    4    0    0  0.61675487827E-01  0.73892479641E-01 -0.16738584392E-01  0.97695474177E-01  0.51100000000E-03 0.  1.
</event>
<event>
 8    1  0.1061721E+005  0.1043930E+01  0.7957747E-01            NaN
         13   -1    0    0    0    0  0.00000000000E+00  0.00000000000E+00  0.74505805969E-08  0.10566000000E+00  0.10566000000E+00 0. -1.
     999900   -1    0    0    0    0 -0.00000000000E+00 -0.00000000000E+00 -0.74505805969E-08  0.93827000000E+00  0.93827000000E+00 0. -1.
     999902    2    1    2    0    0  0.87463079766E-03  0.18264811889E-01  0.14775353751E-01  0.10204208654E+01  0.10201500199E+01 0.  0.
     999903    2    3    3    0    0  0.46892070384E-01  0.62620840967E-01 -0.10287264499E+00  0.13029384429E+00  0.16536891558E-01 0.  0.
         14    1    1    2    0    0 -0.87463079766E-03 -0.18264811889E-01 -0.14775353751E-01  0.23509134626E-01  0.00000000000E+00 0.  1.
     999901    1    3    3    0    0 -0.46017439586E-01 -0.44356029077E-01  0.11764799875E+00  0.89012702109E+00  0.88000000000E+00 0.  1.
        -11    1    4    4    0    0  0.39329475217E-01  0.41453073199E-01 -0.78989887241E-01  0.97492708988E-01  0.51100000000E-03 0.  1.
         11    1    4    4    0    0  0.75625951669E-02  0.21167767767E-01 -0.23882757754E-01  0.32801135298E-01  0.51100000000E-03 0. -1.
</event>
<event>
 8    1  0.1061721E+005  0.1043930E+01  0.7957747E-01            NaN
         13   -1    0    0    0    0  0.00000000000E+00  0.00000000000E+00  0.74505805969E-08  0.10566000000E+00  0.10566000000E+00 0.  1.
     999900   -1    0    0    0    0 -0.00000000000E+00 -0.00000000000E+00 -0.74505805969E-08  0.93827000000E+00  0.93827000000E+00 0. -1.
     999902    2    1    2    0    0  0.11138296374E-01 -0.97418771840E-02 -0.12266790657E-01  0.10247091787E+01  0.10245288971E+01 0.  0.
     999903    2    3    3    0    0  0.86056085313E-01  0.58109877756E-01 -0.85599466956E-01  0.13589299011E+00  0.18900484253E-01 0.  0.
         14    1    1    2    0    0 -0.11138296374E-01  0.97418771840E-02  0.12266790657E-01  0.19220821267E-01  0.00000000000E+00 0.  1.
     999901    1    3    3    0    0 -0.74917788939E-01 -0.67851754940E-01  0.73332676300E-01  0.88881618862E+00  0.88000000000E+00 0.  1.
        -11    1    4    4    0    0  0.21143300551E-01  0.12904321271E-01 -0.31422120430E-01  0.40014640308E-01  0.51100000000E-03 0. -1.
         11    1    4    4    0    0  0.64912784762E-01  0.45205556486E-01 -0.54177346526E-01  0.95878349800E-01  0.51100000000E-03 0.  1.
</event>
<event>
 8    1  0.1061721E+005  0.1043930E+01  0.7957747E-01            NaN
         13   -1    0    0    0    0  0.00000000000E+00  0.00000000000E+00  0.74505805969E-08  0.10566000000E+00  0.10566000000E+00 0. -1.
     999900   -1    0    0    0    0 -0.00000000000E+00 -0.00000000000E+00 -0.74505805969E-08  0.93827000000E+00  0.93827000000E+00 0. -1.
     999902    2    1    2    0    0  0.21169005077E-01  0.41432264437E-02  0.11426038092E-01  0.10195200134E+01  0.10192277519E+01 0.  0.
     999903    2    3    3    0    0  0.37825667325E-01  0.97837466928E-01 -0.74601549358E-01  0.13021871408E+00  0.19712211615E-01 0.  0.
         14    1    1    2    0    0 -0.21169005077E-01 -0.41432264437E-02 -0.11426038092E-01  0.24409986640E-01  0.00000000000E+00 0. -1.
     999901    1    3    3    0    0 -0.16656662248E-01 -0.93694240484E-01  0.86027587450E-01  0.88930129928E+00  0.88000000000E+00 0.  1.
        -11    1    4    4    0    0  0.40059747654E-03  0.29371338787E-02  0.10803765595E-02  0.31961802624E-02  0.51100000000E-03 0. -1.
         11    1    4    4    0    0  0.37425069848E-01  0.94900333049E-01 -0.75681925917E-01  0.12702253382E+00  0.51100000000E-03 0.  1.
</event>
<event>
 8    1  0.1061721E+005  0.1043930E+01  0.7957747E-01            NaN
         13   -1    0    0    0    0  0.00000000000E+00  0.00000000000E+00  0.74505805969E-08  0.10566000000E+00  0.10566000000E+00 0. -1.
     999900   -1    0    0    0    0 -0.00000000000E+00 -0.00000000000E+00 -0.74505805969E-08  0.93827000000E+00  0.93827000000E+00 0. -1.
     999902    2    1    2    0    0 -0.15002961168E-01 -0.14930863927E-01 -0.34909049276E-02  0.10224775885E+01  0.10222525192E+01 0.  0.
     999903    2    3    3    0    0 -0.34141462574E-01 -0.11994009459E+00  0.46589204182E-01  0.13461428930E+00  0.19979669201E-01 0.  0.
         14    1    1    2    0    0  0.15002961168E-01  0.14930863927E-01  0.34909049276E-02  0.21452411487E-01  0.00000000000E+00 0. -1.
     999901    1    3    3    0    0  0.19138501407E-01  0.10500923066E+00 -0.50080109110E-01  0.88786329921E+00  0.88000000000E+00 0. -1.
        -11    1    4    4    0    0 -0.43583319644E-02 -0.44772173597E-01  0.22166813875E-01  0.50151483971E-01  0.51100000000E-03 0.  1.
         11    1    4    4    0    0 -0.29783130610E-01 -0.75167920989E-01  0.24422390307E-01  0.84462805329E-01  0.51100000000E-03 0. -1.
</event>
<event>
 8    1  0.1061721E+005  0.1043930E+01  0.7957747E-01            NaN
         13   -1    0    0    0    0  0.00000000000E+00  0.00000000000E+00  0.74505805969E-08  0.10566000000E+00  0.10566000000E+00 0.  1.
     999900   -1    0    0    0    0 -0.00000000000E+00 -0.00000000000E+00 -0.74505805969E-08  0.93827000000E+00  0.93827000000E+00 0. -1.
     999902    2    1    2    0    0 -0.13688035883E-01  0.18518180266E-01 -0.96778071602E-02  0.10189511033E+01  0.10186448870E+01 0.  0.
     999903    2    3    3    0    0  0.19117045434E-01 -0.11004753743E+00  0.56158741122E-01  0.12657238990E+00  0.19769768835E-01 0.  0.
         14    1    1    2    0    0  0.13688035883E-01 -0.18518180266E-01  0.96778071602E-02  0.24978896656E-01  0.00000000000E+00 0. -1.
     999901    1    3    3    0    0 -0.32805081317E-01  0.12856571769E+00 -0.65836548283E-01  0.89237871345E+00  0.88000000000E+00 0. -1.
        -11    1    4    4    0    0 -0.12281876262E-03 -0.56875502947E-01  0.27530063426E-01  0.63190216277E-01  0.51100000000E-03 0.  1.
         11    1    4    4    0    0  0.19239864197E-01 -0.53172034479E-01  0.28628677697E-01  0.63382173619E-01  0.51100000000E-03 0. -1.
</event>
<event>
 8    1  0.1061721E+005  0.1043930E+01  0.7957747E-01            NaN
         13   -1    0    0    0    0  0.00000000000E+00  0.00000000000E+00  0.74505805969E-08  0.10566000000E+00  0.10566000000E+00 0.  1.
     999900   -1    0    0    0    0 -0.00000000000E+00 -0.00000000000E+00 -0.74505805969E-08  0.93827000000E+00  0.93827000000E+00 0.  1.
     999902    2    1    2    0    0 -0.21386496147E-01  0.20429453243E-02  0.11878293082E-01  0.10193810756E+01  0.10190854368E+01 0.  0.
     999903    2    3    3    0    0 -0.82699589645E-01 -0.99607099420E-01 -0.74917801602E-02  0.13119909718E+00  0.19906781503E-01 0.  0.
         14    1    1    2    0    0  0.21386496147E-01 -0.20429453243E-02 -0.11878293082E-01  0.24548924408E-01  0.00000000000E+00 0.  1.
     999901    1    3    3    0    0  0.61313093498E-01  0.10165004474E+00  0.19370073243E-01  0.88818197841E+00  0.88000000000E+00 0. -1.
        -11    1    4    4    0    0 -0.39470793632E-01 -0.34700093389E-01 -0.82962315367E-02  0.53208350942E-01  0.51100000000E-03 0.  1.
         11    1    4    4    0    0 -0.43228796012E-01 -0.64907006031E-01  0.80445137654E-03  0.77990746243E-01  0.51100000000E-03 0. -1.
</event>
<event>
 8    1  0.1061721E+005  0.1043930E+01  0.7957747E-01            NaN
         13   -1    0    0    0    0  0.00000000000E+00  0.00000000000E+00  0.74505805969E-08  0.10566000000E+00  0.10566000000E+00 0.  1.
     999900   -1    0    0    0    0 -0.00000000000E+00 -0.00000000000E+00 -0.74505805969E-08  0.93827000000E+00  0.93827000000E+00 0. -1.
     999902    2    1    2    0    0 -0.33767295671E-02 -0.80917944671E-02  0.21948419881E-01  0.10202950137E+01  0.10200212265E+01 0.  0.
     999903    2    3    3    0    0 -0.94047455902E-01  0.84921118092E-01 -0.19247557296E-01  0.12980655730E+00  0.20560972656E-01 0.  0.
         14    1    1    2    0    0  0.33767295671E-02  0.80917944671E-02 -0.21948419881E-01  0.23634986261E-01  0.00000000000E+00 0. -1.
     999901    1    3    3    0    0  0.90670726335E-01 -0.93012912559E-01  0.41195977177E-01  0.89048845644E+00  0.88000000000E+00 0.  1.
        -11    1    4    4    0    0 -0.67233489384E-01  0.52872864125E-01 -0.20657240590E-01  0.87993548430E-01  0.51100000000E-03 0. -1.
         11    1    4    4    0    0 -0.26813966518E-01  0.32048253967E-01  0.14096832937E-02  0.41813008870E-01  0.51100000000E-03 0.  1.
</event>
<event>
 8    1  0.1061721E+005  0.1043930E+01  0.7957747E-01            NaN
         13   -1    0    0    0    0  0.00000000000E+00  0.00000000000E+00  0.74505805969E-08  0.10566000000E+00  0.10566000000E+00 0. -1.
     999900   -1    0    0    0    0 -0.00000000000E+00 -0.00000000000E+00 -0.74505805969E-08  0.93827000000E+00  0.93827000000E+00 0. -1.
     999902    2    1    2    0    0 -0.18815113053E-01  0.36201389259E-02 -0.13471479457E-01  0.10205079027E+01  0.10202390822E+01 0.  0.
     999903    2    3    3    0    0 -0.10297408826E+00 -0.50644274756E-01 -0.64993883332E-01  0.13333152910E+00  0.19610873571E-01 0.  0.
         14    1    1    2    0    0  0.18815113053E-01 -0.36201389259E-02  0.13471479457E-01  0.23422097340E-01  0.00000000000E+00 0. -1.
     999901    1    3    3    0    0  0.84158975212E-01  0.54264413682E-01  0.51522403875E-01  0.88717637356E+00  0.88000000000E+00 0.  1.
        -11    1    4    4    0    0 -0.86245426701E-01 -0.48218790935E-01 -0.60393363551E-01  0.11580563418E+00  0.51100000000E-03 0. -1.
         11    1    4    4    0    0 -0.16728661564E-01 -0.24254838212E-02 -0.46005197811E-02  0.17525894920E-01  0.51100000000E-03 0.  1.
</event>
<event>
 8    1  0.1061721E+005  0.1043930E+01  0.7957747E-01            NaN
         13   -1    0    0    0    0  0.00000000000E+00  0.00000000000E+00  0.74505805969E-08  0.10566000000E+00  0.10566000000E+00 0.  1.
     999900   -1    0    0    0    0 -0.00000000000E+00 -0.00000000000E+00 -0.74505805969E-08  0.93827000000E+00  0.93827000000E+00 0. -1.
     999902    2    1    2    0    0  0.12706524028E-01 -0.22400267465E-02  0.19729750263E-01  0.10203559355E+01  0.10200835743E+01 0.  0.
     999903    2    3    3    0    0  0.57734395576E-03 -0.87100220156E-01 -0.93046987042E-01  0.12902717351E+00  0.20087011445E-01 0.  0.
         14    1    1    2    0    0 -0.12706524028E-01  0.22400267465E-02 -0.19729750263E-01  0.23574064523E-01  0.00000000000E+00 0. -1.
     999901    1    3    3    0    0  0.12129180073E-01  0.84860193410E-01  0.11277673730E+00  0.89132876197E+00  0.88000000000E+00 0.  1.
        -11    1    4    4    0    0 -0.46730840090E-02 -0.19588949808E-01 -0.32236315184E-01  0.38013231991E-01  0.51100000000E-03 0.  1.
         11    1    4    4    0    0  0.52504279648E-02 -0.67511270348E-01 -0.60810671858E-01  0.91013941518E-01  0.51100000000E-03 0. -1.
</event>
<event>
 8    1  0.1061721E+005  0.1043930E+01  0.7957747E-01            NaN
         13   -1    0    0    0    0  0.00000000000E+00  0.00000000000E+00  0.74505805969E-08  0.10566000000E+00  0.10566000000E+00 0. -1.
     999900   -1    0    0    0    0 -0.00000000000E+00 -0.00000000000E+00 -0.74505805969E-08  0.93827000000E+00  0.93827000000E+00 0. -1.
     999902    2    1    2    0    0 -0.12434005958E-01  0.18365678975E-01 -0.10210654705E-01  0.10195136092E+01  0.10192211925E+01 0.  0.
     999903    2    3    3    0    0  0.43704373181E-01 -0.20825269032E-01  0.11678682958E+00  0.12776487275E+00  0.18464427403E-01 0.  0.
         14    1    1    2    0    0  0.12434005958E-01 -0.18365678975E-01  0.10210654705E-01  0.24416390762E-01  0.00000000000E+00 0. -1.
     999901    1    3    3    0    0 -0.56138379139E-01  0.39190948007E-01 -0.12699748429E+00  0.89174873649E+00  0.88000000000E+00 0. -1.
        -11    1    4    4    0    0  0.32964036981E-01 -0.81213610029E-02  0.90416918666E-01  0.96581905865E-01  0.51100000000E-03 0.  1.
         11    1    4    4    0    0  0.10740336200E-01 -0.12703908029E-01  0.26369910914E-01  0.31182966882E-01  0.51100000000E-03 0. -1.
</event>
<event>
 8    1  0.1061721E+005  0.1043930E+01  0.7957747E-01            NaN
         13   -1    0    0    0    0  0.00000000000E+00  0.00000000000E+00  0.74505805969E-08  0.10566000000E+00  0.10566000000E+00 0. -1.
     999900   -1    0    0    0    0 -0.00000000000E+00 -0.00000000000E+00 -0.74505805969E-08  0.93827000000E+00  0.93827000000E+00 0. -1.
     999902    2    1    2    0    0 -0.54818080567E-02  0.91237440574E-02 -0.21034607738E-01  0.10203556994E+01  0.10200833327E+01 0.  0.
     999903    2    3    3    0    0  0.20749028243E-01  0.83336006353E-01  0.93844660718E-01  0.12940521652E+00  0.23737682924E-01 0.  0.
         14    1    1    2    0    0  0.54818080567E-02 -0.91237440574E-02  0.21034607738E-01  0.23574300581E-01  0.00000000000E+00 0. -1.
     999901    1    3    3    0    0 -0.26230836299E-01 -0.74212262296E-01 -0.11487926846E+00  0.89095048289E+00  0.88000000000E+00 0.  1.
        -11    1    4    4    0    0  0.19787244975E-01  0.82689304726E-01  0.84144820661E-01  0.11962302515E+00  0.51100000000E-03 0. -1.
         11    1    4    4    0    0  0.96178326729E-03  0.64670162662E-03  0.96998400569E-02  0.97821913791E-02  0.51100000000E-03 0.  1.
</event>
<event>
 8    1  0.1061721E+005  0.1043930E+01  0.7957747E-01            NaN
         13   -1    0    0    0    0  0.00000000000E+00  0.00000000000E+00  0.74505805969E-08  0.10566000000E+00  0.10566000000E+00 0.  1.
     999900   -1    0    0    0    0 -0.00000000000E+00 -0.00000000000E+00 -0.74505805969E-08  0.93827000000E+00  0.93827000000E+00 0.  1.
     999902    2    1    2    0    0  0.82505837019E-02 -0.21567718993E-01  0.37384968661E-02  0.10205373731E+01  0.10202692365E+01 0.  0.
     999903    2    3    3    0    0  0.33894296014E-01 -0.91800215086E-01  0.88329390480E-01  0.13332498435E+00  0.19934077281E-01 0.  0.
         14    1    1    2    0    0 -0.82505837019E-02  0.21567718993E-01 -0.37384968661E-02  0.23392626890E-01  0.00000000000E+00 0.  1.
     999901    1    3    3    0    0 -0.25643712312E-01  0.70232496093E-01 -0.84590893614E-01  0.88721238876E+00  0.88000000000E+00 0.  1.
        -11    1    4    4    0    0  0.28494674442E-01 -0.79520691257E-01  0.65706532509E-01  0.10701914009E+00  0.51100000000E-03 0.  1.
         11    1    4    4    0    0  0.53996215722E-02 -0.12279523829E-01  0.22622857972E-01  0.26305844263E-01  0.51100000000E-03 0. -1.
</event>
<event>
 8    1  0.1061721E+005  0.1043930E+01  0.7957747E-01            NaN
         13   -1    0    0    0    0  0.00000000000E+00  0.00000000000E+00  0.74505805969E-08  0.10566000000E+00  0.10566000000E+00 0.  1.
     999900   -1    0    0    0    0 -0.00000000000E+00 -0.00000000000E+00 -0.74505805969E-08  0.93827000000E+00  0.93827000000E+00 0.  1.
     999902    2    1    2    0    0 -0.14779591740E-01 -0.14015980645E-01  0.10367278835E-01  0.10210747049E+01  0.10208188813E+01 0.  0.
     999903    2    3    3    0    0 -0.11593805152E+00 -0.62581658124E-01 -0.10607721083E-01  0.13370127184E+00  0.20134811195E-01 0.  0.
         14    1    1    2    0    0  0.14779591740E-01  0.14015980645E-01 -0.10367278835E-01  0.22855295139E-01  0.00000000000E+00 0.  1.
     999901    1    3    3    0    0  0.10115845978E+00  0.48565677478E-01  0.20974999918E-01  0.88737343302E+00  0.88000000000E+00 0. -1.
        -11    1    4    4    0    0 -0.16559176896E-01 -0.15397939541E-02 -0.74561004859E-03  0.16655160169E-01  0.51100000000E-03 0. -1.
         11    1    4    4    0    0 -0.99378874620E-01 -0.61041864169E-01 -0.98621110342E-02  0.11704611167E+00  0.51100000000E-03 0.  1.
</event>
<event>
 8    1  0.1061721E+005  0.1043930E+01  0.7957747E-01            NaN
         13   -1    0    0    0    0  0.00000000000E+00  0.00000000000E+00  0.74505805969E-08  0.10566000000E+00  0.10566000000E+00 0.  1.
     999900   -1    0    0    0    0 -0.00000000000E+00 -0.00000000000E+00 -0.74505805969E-08  0.93827000000E+00  0.93827000000E+00 0.  1.
     999902    2    1    2    0    0  0.91106925040E-03 -0.14372877989E-01  0.18600432313E-01  0.10204058475E+01  0.10201346518E+01 0.  0.
     999903    2    3    3    0    0 -0.10750652846E+00  0.70058087608E-02  0.73502964446E-01  0.13179698428E+00  0.19000638542E-01 0.  0.
         14    1    1    2    0    0 -0.91106925040E-03  0.14372877989E-01 -0.18600432313E-01  0.23524152506E-01  0.00000000000E+00 0. -1.
     999901    1    3    3    0    0  0.10841759772E+00 -0.21378686750E-01 -0.54902532133E-01  0.88860886321E+00  0.88000000000E+00 0.  1.
        -11    1    4    4    0    0 -0.91950767127E-01  0.12634535312E-01  0.61251274098E-01  0.11120501229E+00  0.51100000000E-03 0. -1.
         11    1    4    4    0    0 -0.15555761338E-01 -0.56287265517E-02  0.12251690349E-01  0.20591971999E-01  0.51100000000E-03 0.  1.
</event>
<event>
 8    1  0.1061721E+005  0.1043930E+01  0.7957747E-01            NaN
         13   -1    0    0    0    0  0.00000000000E+00  0.00000000000E+00  0.74505805969E-08  0.10566000000E+00  0.10566000000E+00 0. -1.
     999900   -1    0    0    0    0 -0.00000000000E+00 -0.00000000000E+00 -0.74505805969E-08  0.93827000000E+00  0.93827000000E+00 0. -1.
     999902    2    1    2    0    0 -0.52128096262E-02 -0.17653402779E-01  0.14945044399E-01  0.10202198679E+01  0.10199443163E+01 0.  0.
     999903    2    3    3    0    0  0.58912266036E-01  0.11202976782E+00 -0.48664494851E-02  0.12818721972E+00  0.19671222686E-01 0.  0.
         14    1    1    2    0    0  0.52128096262E-02  0.17653402779E-01 -0.14945044399E-01  0.23710132137E-01  0.00000000000E+00 0.  1.
     999901    1    3    3    0    0 -0.64125075662E-01 -0.12968317060E+00  0.19811493885E-01  0.89203264814E+00  0.88000000000E+00 0.  1.
        -11    1    4    4    0    0  0.23512054950E-01  0.65442505004E-01 -0.10157999131E-02  0.69547330356E-01  0.51100000000E-03 0. -1.
         11    1    4    4    0    0  0.35400211086E-01  0.46587262813E-01 -0.38506495720E-02  0.58639889363E-01  0.51100000000E-03 0.  1.
</event>
<event>
 8    1  0.1061721E+005  0.1043930E+01  0.7957747E-01            NaN
         13   -1    0    0    0    0  0.00000000000E+00  0.00000000000E+00  0.74505805969E-08  0.10566000000E+00  0.10566000000E+00 0.  1.
     999900   -1    0    0    0    0 -0.00000000000E+00 -0.00000000000E+00 -0.74505805969E-08  0.93827000000E+00  0.93827000000E+00 0. -1.
     999902    2    1    2    0    0  0.45953271849E-03  0.27978184859E-01 -0.90904750773E-03  0.10159332794E+01  0.10155474444E+01 0.  0.
     999903    2    3    3    0    0 -0.10719852508E+00 -0.20766258079E-01 -0.58855174908E-01  0.12614452253E+00  0.22929188738E-01 0.  0.
         14    1    1    2    0    0 -0.45953271849E-03 -0.27978184859E-01  0.90904750773E-03  0.27996720624E-01  0.00000000000E+00 0. -1.
     999901    1    3    3    0    0  0.10765805780E+00  0.48744442938E-01  0.57946127400E-01  0.88978875685E+00  0.88000000000E+00 0.  1.
        -11    1    4    4    0    0 -0.39603743133E-01 -0.18568601603E-01 -0.19480632152E-01  0.47885337899E-01  0.51100000000E-03 0.  1.
         11    1    4    4    0    0 -0.67594781951E-01 -0.21976564764E-02 -0.39374542756E-01  0.78259184632E-01  0.51100000000E-03 0. -1.
</event>
<event>
 8    1  0.1226618E+005  0.1043930E+01  0.7957747E-01            NaN
         13   -1    0    0    0    0  0.00000000000E+00  0.00000000000E+00  0.74505805969E-08  0.10566000000E+00  0.10566000000E+00 0.  1.
     999900   -1    0    0    0    0 -0.00000000000E+00 -0.00000000000E+00 -0.74505805969E-08  0.93827000000E+00  0.93827000000E+00 0.  1.
     999902    2    1    2    0    0  0.24683741960E-01  0.40095868213E-03 -0.50969549543E-02  0.10187223259E+01  0.10184104037E+01 0.  0.
     999903    2    3    3    0    0 -0.77258591495E-01  0.91231764351E-01 -0.39445200276E-01  0.12753083323E+00  0.20397666842E-01 0.  0.
         14    1    1    2    0    0 -0.24683741960E-01 -0.40095868213E-03  0.50969549543E-02  0.25207674125E-01  0.00000000000E+00 0.  1.
     999901    1    3    3    0    0  0.10194233346E+00 -0.90830805669E-01  0.34348245322E-01  0.89119149265E+00  0.88000000000E+00 0. -1.
        -11    1    4    4    0    0 -0.40203748585E-01  0.32078166424E-01 -0.18329431516E-01  0.54603839994E-01  0.51100000000E-03 0. -1.
         11    1    4    4    0    0 -0.37054842910E-01  0.59153597927E-01 -0.21115768760E-01  0.72926993234E-01  0.51100000000E-03 0.  1.
</event>
<event>
 8    1  0.1061721E+005  0.1043930E+01  0.7957747E-01            NaN
         13   -1    0    0    0    0  0.00000000000E+00  0.00000000000E+00  0.74505805969E-08  0.10566000000E+00  0.10566000000E+00 0.  1.
     999900   -1    0    0    0    0 -0.00000000000E+00 -0.00000000000E+00 -0.74505805969E-08  0.93827000000E+00  0.93827000000E+00 0. -1.
     999902    2    1    2    0    0 -0.22563505323E-01  0.38249437197E-02  0.73791444001E-02  0.10198843405E+01  0.10196008407E+01 0.  0.
     999903    2    3    3    0    0 -0.52262084499E-01 -0.10053471748E+00  0.61035523992E-01  0.13159837782E+00  0.27463484133E-01 0.  0.
         14    1    1    2    0    0  0.22563505323E-01 -0.38249437197E-02 -0.73791444001E-02  0.24045659462E-01  0.00000000000E+00 0.  1.
     999901    1    3    3    0    0  0.29698579177E-01  0.10435966120E+00 -0.53656379592E-01  0.88828596272E+00  0.88000000000E+00 0. -1.
        -11    1    4    4    0    0 -0.65790719325E-02 -0.34425144121E-01  0.10186267358E-01  0.36501998561E-01  0.51100000000E-03 0.  1.
         11    1    4    4    0    0 -0.45683012567E-01 -0.66109573360E-01  0.50849256634E-01  0.95096379259E-01  0.51100000000E-03 0. -1.
</event>
<event>
 8    1  0.1061721E+005  0.1043930E+01  0.7957747E-01            NaN
         13   -1    0    0    0    0  0.00000000000E+00  0.00000000000E+00  0.74505805969E-08  0.10566000000E+00  0.10566000000E+00 0.  1.
     999900   -1    0    0    0    0 -0.00000000000E+00 -0.00000000000E+00 -0.74505805969E-08  0.93827000000E+00  0.93827000000E+00 0. -1.
     999902    2    1    2    0    0 -0.14033964714E-01 -0.85438968302E-02 -0.16642302159E-01  0.10205437528E+01  0.10202757641E+01 0.  0.
     999903    2    3    3    0    0  0.10520024871E+00  0.10415822173E-01 -0.73541296285E-01  0.13047984263E+00  0.21002033039E-01 0.  0.
         14    1    1    2    0    0  0.14033964714E-01  0.85438968302E-02  0.16642302159E-01  0.23386247236E-01  0.00000000000E+00 0. -1.
     999901    1    3    3    0    0 -0.11923421343E+00 -0.18959719004E-01  0.56898994126E-01  0.89006391014E+00  0.88000000000E+00 0. -1.
        -11    1    4    4    0    0  0.16885566682E-01  0.55832938833E-03 -0.33344509829E-02  0.17228284251E-01  0.51100000000E-03 0.  1.
         11    1    4    4    0    0  0.88314682031E-01  0.98574927850E-02 -0.70206845302E-01  0.11325155838E+00  0.51100000000E-03 0. -1.
</event>
<event>
 8    1  0.1061721E+005  0.1043930E+01  0.7957747E-01            NaN
         13   -1    0    0    0    0  0.00000000000E+00  0.00000000000E+00  0.74505805969E-08  0.10566000000E+00  0.10566000000E+00 0. -1.
     999900   -1    0    0    0    0 -0.00000000000E+00 -0.00000000000E+00 -0.74505805969E-08  0.93827000000E+00  0.93827000000E+00 0. -1.
     999902    2    1    2    0    0 -0.47020441699E-02  0.51781302915E-02 -0.22473723373E-01  0.10203929973E+01  0.10201215018E+01 0.  0.
     999903    2    3    3    0    0  0.68702761155E-01 -0.48232933095E-01  0.94129162350E-01  0.12807173226E+00  0.22261719899E-01 0.  0.
         14    1    1    2    0    0  0.47020441699E-02 -0.51781302915E-02  0.22473723373E-01  0.23537002675E-01  0.00000000000E+00 0. -1.
     999901    1    3    3    0    0 -0.73404805325E-01  0.53411063386E-01 -0.11660288572E+00  0.89232126507E+00  0.88000000000E+00 0. -1.
        -11    1    4    4    0    0  0.41014391158E-01 -0.38897160632E-01  0.71287542304E-01  0.90979910948E-01  0.51100000000E-03 0. -1.
         11    1    4    4    0    0  0.27688369997E-01 -0.93357724625E-02  0.22841620046E-01  0.37091821308E-01  0.51100000000E-03 0.  1.
</event>
<event>
 8    1  0.1061721E+005  0.1043930E+01  0.7957747E-01            NaN
         13   -1    0    0    0    0  0.00000000000E+00  0.00000000000E+00  0.74505805969E-08  0.10566000000E+00  0.10566000000E+00 0. -1.
     999900   -1    0    0    0    0 -0.00000000000E+00 -0.00000000000E+00 -0.74505805969E-08  0.93827000000E+00  0.93827000000E+00 0. -1.
     999902    2    1    2    0    0 -0.90289863924E-02 -0.21846742121E-01 -0.99828885935E-03  0.10202699214E+01  0.10199955457E+01 0.  0.
     999903    2    3    3    0    0 -0.84065871127E-02 -0.12267995415E+00 -0.47384777935E-01  0.13329786416E+00  0.20048978847E-01 0.  0.
         14    1    1    2    0    0  0.90289863924E-02  0.21846742121E-01  0.99828885935E-03  0.23660078555E-01  0.00000000000E+00 0. -1.
     999901    1    3    3    0    0 -0.62239927966E-03  0.10083321203E+00  0.46386489076E-01  0.88697205728E+00  0.88000000000E+00 0.  1.
        -11    1    4    4    0    0 -0.13251025540E-01 -0.53010451946E-01 -0.23556764653E-01  0.59505293674E-01  0.51100000000E-03 0.  1.
         11    1    4    4    0    0  0.48444384268E-02 -0.69669502207E-01 -0.23828013282E-01  0.73792570489E-01  0.51100000000E-03 0. -1.
</event>
<event>
 8    1  0.1061721E+005  0.1043930E+01  0.7957747E-01            NaN
         13   -1    0    0    0    0  0.00000000000E+00  0.00000000000E+00  0.74505805969E-08  0.10566000000E+00  0.10566000000E+00 0.  1.
     999900   -1    0    0    0    0 -0.00000000000E+00 -0.00000000000E+00 -0.74505805969E-08  0.93827000000E+00  0.93827000000E+00 0.  1.
     999902    2    1    2    0    0 -0.17495998858E-01 -0.61146622945E-02  0.13756879267E-01  0.10208486049E+01  0.10205876363E+01 0.  0.
     999903    2    3    3    0    0  0.60766255593E-01 -0.84127643994E-01  0.78353897191E-01  0.13158836152E+00  0.20153545117E-01 0.  0.
         14    1    1    2    0    0  0.17495998858E-01  0.61146622945E-02 -0.13756879267E-01  0.23081395066E-01  0.00000000000E+00 0.  1.
     999901    1    3    3    0    0 -0.78262254451E-01  0.78012981699E-01 -0.64597017923E-01  0.88926024341E+00  0.88000000000E+00 0.  1.
        -11    1    4    4    0    0  0.35685844483E-01 -0.41342009008E-01  0.29963870655E-01  0.62295552577E-01  0.51100000000E-03 0.  1.
         11    1    4    4    0    0  0.25080411110E-01 -0.42785634985E-01  0.48390026535E-01  0.69292808946E-01  0.51100000000E-03 0. -1.
</event>
<event>
 8    1  0.1061721E+005  0.1043930E+01  0.7957747E-01            NaN
         13   -1    0    0    0    0  0.00000000000E+00  0.00000000000E+00  0.74505805969E-08  0.10566000000E+00  0.10566000000E+00 0.  1.
     999900   -1    0    0    0    0 -0.00000000000E+00 -0.00000000000E+00 -0.74505805969E-08  0.93827000000E+00  0.93827000000E+00 0.  1.
     999902    2    1    2    0    0 -0.85868030734E-02 -0.11923158855E-01  0.17030466895E-01  0.10214370743E+01  0.10211893874E+01 0.  0.
     999903    2    3    3    0    0  0.57903388664E-01  0.27793863531E-01  0.11425746489E+00  0.13270118743E+00  0.20725240509E-01 0.  0.
         14    1    1    2    0    0  0.85868030734E-02  0.11923158855E-01 -0.17030466895E-01  0.22492925704E-01  0.00000000000E+00 0. -1.
     999901    1    3    3    0    0 -0.66490191737E-01 -0.39717022386E-01 -0.97226997992E-01  0.88873588687E+00  0.88000000000E+00 0.  1.
        -11    1    4    4    0    0  0.12381335857E-01 -0.10251680327E-03  0.35071630869E-01  0.37196618128E-01  0.51100000000E-03 0. -1.
         11    1    4    4    0    0  0.45522052808E-01  0.27896380334E-01  0.79185834018E-01  0.95504569302E-01  0.51100000000E-03 0.  1.
</event>
<event>
 8    1  0.1061721E+005  0.1043930E+01  0.7957747E-01            NaN
         13   -1    0    0    0    0  0.00000000000E+00  0.00000000000E+00  0.74505805969E-08  0.10566000000E+00  0.10566000000E+00 0.  1.
     999900   -1    0    0    0    0 -0.00000000000E+00 -0.00000000000E+00 -0.74505805969E-08  0.93827000000E+00  0.93827000000E+00 0. -1.
     999902    2    1    2    0    0  0.14149915935E-01  0.18527928879E-01  0.31258688285E-02  0.10204081947E+01  0.10201370538E+01 0.  0.
     999903    2    3    3    0    0  0.13095387305E+00  0.45373527716E-02 -0.10603092750E-02  0.13257013247E+00  0.20105007627E-01 0.  0.
         14    1    1    2    0    0 -0.14149915935E-01 -0.18527928879E-01 -0.31258688285E-02  0.23521805319E-01  0.00000000000E+00 0. -1.
     999901    1    3    3    0    0 -0.11680395711E+00  0.13990576108E-01  0.41861781034E-02  0.88783806221E+00  0.88000000000E+00 0. -1.
        -11    1    4    4    0    0  0.35418150271E-01  0.95531821283E-02  0.30435129683E-02  0.36813485974E-01  0.51100000000E-03 0. -1.
         11    1    4    4    0    0  0.95535722778E-01 -0.50158293566E-02 -0.41038222433E-02  0.95756646499E-01  0.51100000000E-03 0.  1.
</event>
<event>
 8    1  0.1061721E+005  0.1043930E+01  0.7957747E-01            NaN
         13   -1    0    0    0    0  0.00000000000E+00  0.00000000000E+00  0.74505805969E-08  0.10566000000E+00  0.10566000000E+00 0.  1.
     999900   -1    0    0    0    0 -0.00000000000E+00 -0.00000000000E+00 -0.74505805969E-08  0.93827000000E+00  0.93827000000E+00 0.  1.
     999902    2    1    2    0    0 -0.13653509795E-01  0.13303758465E-01 -0.11477165403E-01  0.10216784013E+01  0.10214360587E+01 0.  0.
     999903    2    3    3    0    0 -0.36070691297E-02 -0.55877156523E-01 -0.11829239271E+00  0.13246727746E+00  0.20474908004E-01 0.  0.
         14    1    1    2    0    0  0.13653509795E-01 -0.13303758465E-01  0.11477165403E-01  0.22251598701E-01  0.00000000000E+00 0.  1.
     999901    1    3    3    0    0 -0.10046440666E-01  0.69180914988E-01  0.10681522730E+00  0.88921112384E+00  0.88000000000E+00 0. -1.
        -11    1    4    4    0    0  0.69382555216E-02 -0.12516506118E-01 -0.37958094441E-01  0.40569451188E-01  0.51100000000E-03 0. -1.
         11    1    4    4    0    0 -0.10545324651E-01 -0.43360650405E-01 -0.80334298265E-01  0.91897826276E-01  0.51100000000E-03 0.  1.
</event>
<event>
 8    1  0.1061721E+005  0.1043930E+01  0.7957747E-01            NaN
         13   -1    0    0    0    0  0.00000000000E+00  0.00000000000E+00  0.74505805969E-08  0.10566000000E+00  0.10566000000E+00 0. -1.
     999900   -1    0    0    0    0 -0.00000000000E+00 -0.00000000000E+00 -0.74505805969E-08  0.93827000000E+00  0.93827000000E+00 0.  1.
     999902    2    1    2    0    0  0.69597345364E-02  0.44838470356E-02 -0.22043489180E-01  0.10203830638E+01  0.10201113364E+01 0.  0.
     999903    2    3    3    0    0  0.11506307937E-01  0.36753820838E-01 -0.12644337774E+00  0.13361287978E+00  0.19525250296E-01 0.  0.
         14    1    1    2    0    0 -0.69597345364E-02 -0.44838470356E-02  0.22043489180E-01  0.23546936198E-01  0.00000000000E+00 0. -1.
     999901    1    3    3    0    0 -0.45465734002E-02 -0.32269973802E-01  0.10439988856E+00  0.88677018402E+00  0.88000000000E+00 0. -1.
        -11    1    4    4    0    0  0.39212129327E-02  0.17200236356E-02 -0.37035047775E-01  0.37285255489E-01  0.51100000000E-03 0. -1.
         11    1    4    4    0    0  0.75850950038E-02  0.35033797202E-01 -0.89408329970E-01  0.96327624291E-01  0.51100000000E-03 0.  1.
</event>
<event>
 8    1  0.1061721E+005  0.1043930E+01  0.7957747E-01            NaN
         13   -1    0    0    0    0  0.00000000000E+00  0.00000000000E+00  0.74505805969E-08  0.10566000000E+00  0.10566000000E+00 0. -1.
     999900   -1    0    0    0    0 -0.00000000000E+00 -0.00000000000E+00 -0.74505805969E-08  0.93827000000E+00  0.93827000000E+00 0. -1.
     999902    2    1    2    0    0  0.22882547059E-01 -0.92687848993E-02  0.20616236227E-02  0.10191555853E+01  0.10188544230E+01 0.  0.
     999903    2    3    3    0    0  0.28777006983E-01 -0.11933681768E+00 -0.42278284410E-01  0.13117149535E+00  0.18684637420E-01 0.  0.
         14    1    1    2    0    0 -0.22882547059E-01  0.92687848993E-02 -0.20616236227E-02  0.24774414733E-01  0.00000000000E+00 0. -1.
     999901    1    3    3    0    0 -0.58944599241E-02  0.11006803278E+00  0.44339908033E-01  0.88798408991E+00  0.88000000000E+00 0.  1.
        -11    1    4    4    0    0  0.30345983999E-02 -0.24369881963E-01 -0.16043803284E-01  0.29338791372E-01  0.51100000000E-03 0.  1.
         11    1    4    4    0    0  0.25742408583E-01 -0.94966935716E-01 -0.26234481126E-01  0.10183270398E+00  0.51100000000E-03 0. -1.
</event>
<event>
 8    1  0.1061721E+005  0.1043930E+01  0.7957747E-01            NaN
         13   -1    0    0    0    0  0.00000000000E+00  0.00000000000E+00  0.74505805969E-08  0.10566000000E+00  0.10566000000E+00 0.  1.
     999900   -1    0    0    0    0 -0.00000000000E+00 -0.00000000000E+00 -0.74505805969E-08  0.93827000000E+00  0.93827000000E+00 0. -1.
     999902    2    1    2    0    0 -0.18616574988E-01 -0.76977415462E-02  0.13632344299E-01  0.10196056727E+01  0.10193154835E+01 0.  0.
     999903    2    3    3    0    0 -0.11650182590E+00  0.54558732813E-01  0.21679609277E-01  0.13195588282E+00  0.19824701418E-01 0.  0.
         14    1    1    2    0    0  0.18616574988E-01  0.76977415462E-02 -0.13632344299E-01  0.24324327335E-01  0.00000000000E+00 0.  1.
     999901    1    3    3    0    0  0.97885250915E-01 -0.62256474359E-01 -0.80472649772E-02  0.88764978985E+00  0.88000000000E+00 0.  1.
        -11    1    4    4    0    0 -0.48306067797E-01  0.31661581713E-01  0.15196748552E-01  0.59725490623E-01  0.51100000000E-03 0. -1.
         11    1    4    4    0    0 -0.68195758106E-01  0.22897151100E-01  0.64828607246E-02  0.72230392193E-01  0.51100000000E-03 0.  1.
</event>
<event>
 8    1  0.1061721E+005  0.1043930E+01  0.7957747E-01            NaN
         13   -1    0    0    0    0  0.00000000000E+00  0.00000000000E+00  0.74505805969E-08  0.10566000000E+00  0.10566000000E+00 0. -1.
     999900   -1    0    0    0    0 -0.00000000000E+00 -0.00000000000E+00 -0.74505805969E-08  0.93827000000E+00  0.93827000000E+00 0.  1.
     999902    2    1    2    0    0 -0.12203418398E-01 -0.16056101404E-01  0.14166037406E-01  0.10192845455E+01  0.10189865486E+01 0.  0.
     999903    2    3    3    0    0  0.47853053110E-01  0.86199863314E-01 -0.77056416808E-01  0.12665662846E+00  0.19592831167E-01 0.  0.
         14    1    1    2    0    0  0.12203418398E-01  0.16056101404E-01 -0.14166037406E-01  0.24645454524E-01  0.00000000000E+00 0.  1.
     999901    1    3    3    0    0 -0.60056471508E-01 -0.10225596472E+00  0.91222454214E-01  0.89262791702E+00  0.88000000000E+00 0. -1.
        -11    1    4    4    0    0  0.16998981347E-01  0.47295215478E-01 -0.31832782129E-01  0.59492771939E-01  0.51100000000E-03 0. -1.
         11    1    4    4    0    0  0.30854071763E-01  0.38904647837E-01 -0.45223634678E-01  0.67163856517E-01  0.51100000000E-03 0.  1.
</event>
<event>
 8    1  0.1061721E+005  0.1043930E+01  0.7957747E-01            NaN
         13   -1    0    0    0    0  0.00000000000E+00  0.00000000000E+00  0.74505805969E-08  0.10566000000E+00  0.10566000000E+00 0. -1.
     999900   -1    0    0    0    0 -0.00000000000E+00 -0.00000000000E+00 -0.74505805969E-08  0.93827000000E+00  0.93827000000E+00 0.  1.
     999902    2    1    2    0    0 -0.80724683186E-02  0.41060350468E-02 -0.21901443225E-01  0.10202298421E+01  0.10199545251E+01 0.  0.
     999903    2    3    3    0    0 -0.68017010621E-01  0.98738351146E-01 -0.52281195098E-01  0.13260855309E+00  0.21820386588E-01 0.  0.
         14    1    1    2    0    0  0.80724683186E-02 -0.41060350468E-02  0.21901443225E-01  0.23700157887E-01  0.00000000000E+00 0. -1.
     999901    1    3    3    0    0  0.59944542302E-01 -0.94632316099E-01  0.30379751873E-01  0.88762128902E+00  0.88000000000E+00 0. -1.
        -11    1    4    4    0    0 -0.63062014475E-01  0.92933377358E-01 -0.42252606651E-01  0.11999572570E+00  0.51100000000E-03 0. -1.
         11    1    4    4    0    0 -0.49549961455E-02  0.58049737884E-02 -0.10028588448E-01  0.12612827389E-01  0.51100000000E-03 0.  1.
</event>
<event>
 8    1  0.1061721E+005  0.1043930E+01  0.7957747E-01            NaN
         13   -1    0    0    0    0  0.00000000000E+00  0.00000000000E+00  0.74505805969E-08  0.10566000000E+00  0.10566000000E+00 0.  1.
     999900   -1    0    0    0    0 -0.00000000000E+00 -0.00000000000E+00 -0.74505805969E-08  0.93827000000E+00  0.93827000000E+00 0.  1.
     999902    2    1    2    0    0 -0.19754434445E-01 -0.73902830617E-02  0.12405004016E-01  0.10194608748E+01  0.10191671782E+01 0.  0.
     999903    2    3    3    0    0  0.14301775171E-01 -0.45751894667E-01  0.12063919051E+00  0.13134709954E+00  0.20011737331E-01 0.  0.
         14    1    1    2    0    0  0.19754434445E-01  0.73902830617E-02 -0.12405004016E-01  0.24469125211E-01  0.00000000000E+00 0. -1.
     999901    1    3    3    0    0 -0.34056209615E-01  0.38361611606E-01 -0.10823418650E+00  0.88811377525E+00  0.88000000000E+00 0.  1.
        -11    1    4    4    0    0 -0.29559385138E-02 -0.56983849101E-02  0.30974799996E-01  0.31637138285E-01  0.51100000000E-03 0.  1.
         11    1    4    4    0    0  0.17257713684E-01 -0.40053509757E-01  0.89664390519E-01  0.99709961256E-01  0.51100000000E-03 0. -1.
</event>
<event>
 8    1  0.1061721E+005  0.1043930E+01  0.7957747E-01            NaN
         13   -1    0    0    0    0  0.00000000000E+00  0.00000000000E+00  0.74505805969E-08  0.10566000000E+00  0.10566000000E+00 0. -1.
     999900   -1    0    0    0    0 -0.00000000000E+00 -0.00000000000E+00 -0.74505805969E-08  0.93827000000E+00  0.93827000000E+00 0.  1.
     999902    2    1    2    0    0 -0.19847579022E-01  0.11390575537E-01 -0.48332434456E-02  0.10205412881E+01  0.10202732422E+01 0.  0.
     999903    2    3    3    0    0 -0.28866503868E-01 -0.10631223907E+00  0.65797619589E-01  0.12985390610E+00  0.19928446110E-01 0.  0.
         14    1    1    2    0    0  0.19847579022E-01 -0.11390575537E-01  0.48332434456E-02  0.23388711942E-01  0.00000000000E+00 0. -1.
     999901    1    3    3    0    0  0.90189248460E-02  0.11770281460E+00 -0.70630863034E-01  0.89068738196E+00  0.88000000000E+00 0. -1.
        -11    1    4    4    0    0 -0.68731930817E-02 -0.23286904698E-01  0.54696905958E-02  0.24893761262E-01  0.51100000000E-03 0.  1.
         11    1    4    4    0    0 -0.21993310786E-01 -0.83025334368E-01  0.60327928993E-01  0.10496014484E+00  0.51100000000E-03 0. -1.
</event>
<event>
 8    1  0.1061721E+005  0.1043930E+01  0.7957747E-01            NaN
         13   -1    0    0    0    0  0.00000000000E+00  0.00000000000E+00  0.74505805969E-08  0.10566000000E+00  0.10566000000E+00 0.  1.
     999900   -1    0    0    0    0 -0.00000000000E+00 -0.00000000000E+00 -0.74505805969E-08  0.93827000000E+00  0.93827000000E+00 0.  1.
     999902    2    1    2    0    0  0.49085564419E-02  0.14198776519E-01  0.18133191064E-01  0.10203819258E+01  0.10201101718E+01 0.  0.
     999903    2    3    3    0    0  0.34266132926E-01 -0.90903922733E-01  0.85815103382E-01  0.13106236233E+00  0.19375753347E-01 0.  0.
         14    1    1    2    0    0 -0.49085564419E-02 -0.14198776519E-01 -0.18133191064E-01  0.23548074213E-01  0.00000000000E+00 0. -1.
     999901    1    3    3    0    0 -0.29357576485E-01  0.10510269925E+00 -0.67681912317E-01  0.88931956345E+00  0.88000000000E+00 0.  1.
        -11    1    4    4    0    0  0.16971213655E-01 -0.67846676609E-01  0.56064421387E-01  0.89636343557E-01  0.51100000000E-03 0. -1.
         11    1    4    4    0    0  0.17294919272E-01 -0.23057246125E-01  0.29750681995E-01  0.41426018776E-01  0.51100000000E-03 0.  1.
</event>
<event>
 8    1  0.1061721E+005  0.1043930E+01  0.7957747E-01            NaN
         13   -1    0    0    0    0  0.00000000000E+00  0.00000000000E+00  0.74505805969E-08  0.10566000000E+00  0.10566000000E+00 0.  1.
     999900   -1    0    0    0    0 -0.00000000000E+00 -0.00000000000E+00 -0.74505805969E-08  0.93827000000E+00  0.93827000000E+00 0. -1.
     999902    2    1    2    0    0  0.19601814669E-01 -0.70414088542E-02 -0.11227816199E-01  0.10202682918E+01  0.10199938779E+01 0.  0.
     999903    2    3    3    0    0 -0.95424464679E-01  0.50320200741E-01 -0.68027843088E-01  0.12911867350E+00  0.20146795004E-01 0.  0.
         14    1    1    2    0    0 -0.19601814669E-01  0.70414088542E-02  0.11227816199E-01  0.23661708171E-01  0.00000000000E+00 0.  1.
     999901    1    3    3    0    0  0.11502627935E+00 -0.57361609596E-01  0.56800026889E-01  0.89114961833E+00  0.88000000000E+00 0.  1.
        -11    1    4    4    0    0 -0.68195828893E-01  0.44846049201E-01 -0.55104193570E-01  0.98481330603E-01  0.51100000000E-03 0. -1.
         11    1    4    4    0    0 -0.27228635786E-01  0.54741515407E-02 -0.12923649518E-01  0.30637342896E-01  0.51100000000E-03 0.  1.
</event>
<event>
 8    1  0.1061721E+005  0.1043930E+01  0.7957747E-01            NaN
         13   -1    0    0    0    0  0.00000000000E+00  0.00000000000E+00  0.74505805969E-08  0.10566000000E+00  0.10566000000E+00 0. -1.
     999900   -1    0    0    0    0 -0.00000000000E+00 -0.00000000000E+00 -0.74505805969E-08  0.93827000000E+00  0.93827000000E+00 0.  1.
     999902    2    1    2    0    0  0.49825792107E-02 -0.10176803404E-01 -0.22299741482E-01  0.10189165657E+01  0.10186094914E+01 0.  0.
     999903    2    3    3    0    0 -0.53798106299E-01 -0.60196452755E-01 -0.10241551283E+00  0.13191280525E+00  0.19854514709E-01 0.  0.
         14    1    1    2    0    0 -0.49825792107E-02  0.10176803404E-01  0.22299741482E-01  0.25013434256E-01  0.00000000000E+00 0.  1.
     999901    1    3    3    0    0  0.58780685509E-01  0.50019649350E-01  0.80115771352E-01  0.88700376049E+00  0.88000000000E+00 0. -1.
        -11    1    4    4    0    0 -0.28728712132E-01 -0.18360619272E-01 -0.47380964187E-01  0.58375235580E-01  0.51100000000E-03 0. -1.
         11    1    4    4    0    0 -0.25069394166E-01 -0.41835833483E-01 -0.55034548648E-01  0.73537569670E-01  0.51100000000E-03 0.  1.
</event>
<event>
 8    1  0.1061721E+005  0.1043930E+01  0.7957747E-01            NaN
         13   -1    0    0    0    0  0.00000000000E+00  0.00000000000E+00  0.74505805969E-08  0.10566000000E+00  0.10566000000E+00 0. -1.
     999900   -1    0    0    0    0 -0.00000000000E+00 -0.00000000000E+00 -0.74505805969E-08  0.93827000000E+00  0.93827000000E+00 0. -1.
     999902    2    1    2    0    0  0.36181466402E-02 -0.10724289656E-01  0.21138476034E-01  0.10199521656E+01  0.10196702818E+01 0.  0.
     999903    2    3    3    0    0  0.41177377188E-01 -0.53473427183E-01  0.11319188620E+00  0.13332258404E+00  0.20187236257E-01 0.  0.
         14    1    1    2    0    0 -0.36181466402E-02  0.10724289656E-01 -0.21138476034E-01  0.23977834405E-01  0.00000000000E+00 0.  1.
     999901    1    3    3    0    0 -0.37559230548E-01  0.42749137527E-01 -0.92053410166E-01  0.88662958155E+00  0.88000000000E+00 0. -1.
        -11    1    4    4    0    0  0.20404529881E-01 -0.22726675789E-01  0.70020974669E-01  0.76394009233E-01  0.51100000000E-03 0. -1.
         11    1    4    4    0    0  0.20772847307E-01 -0.30746751394E-01  0.43170911531E-01  0.56928574811E-01  0.51100000000E-03 0.  1.
</event>
<event>
 8    1  0.1061721E+005  0.1043930E+01  0.7957747E-01            NaN
         13   -1    0    0    0    0  0.00000000000E+00  0.00000000000E+00  0.74505805969E-08  0.10566000000E+00  0.10566000000E+00 0. -1.
     999900   -1    0    0    0    0 -0.00000000000E+00 -0.00000000000E+00 -0.74505805969E-08  0.93827000000E+00  0.93827000000E+00 0. -1.
     999902    2    1    2    0    0  0.11760184527E-01  0.19153092979E-01  0.14566648341E-02  0.10214074606E+01  0.10211591138E+01 0.  0.
     999903    2    3    3    0    0  0.93313038203E-01  0.94387242644E-01  0.34812379924E-02  0.13443781952E+00  0.21098190121E-01 0.  0.
         14    1    1    2    0    0 -0.11760184527E-01 -0.19153092979E-01 -0.14566648341E-02  0.22522539448E-01  0.00000000000E+00 0.  1.
     999901    1    3    3    0    0 -0.81552853676E-01 -0.75234149665E-01 -0.20245731582E-02  0.88696964103E+00  0.88000000000E+00 0.  1.
        -11    1    4    4    0    0  0.37627571888E-01  0.46150124051E-01  0.10362129221E-01  0.60442559171E-01  0.51100000000E-03 0. -1.
         11    1    4    4    0    0  0.55685466314E-01  0.48237118592E-01 -0.68808912284E-02  0.73995260347E-01  0.51100000000E-03 0.  1.
</event>
<event>
 8    1  0.1061721E+005  0.1043930E+01  0.7957747E-01            NaN
         13   -1    0    0    0    0  0.00000000000E+00  0.00000000000E+00  0.74505805969E-08  0.10566000000E+00  0.10566000000E+00 0. -1.
     999900   -1    0    0    0    0 -0.00000000000E+00 -0.00000000000E+00 -0.74505805969E-08  0.93827000000E+00  0.93827000000E+00 0.  1.
     999902    2    1    2    0    0 -0.26665119377E-02 -0.22362038454E-01 -0.78853162576E-02  0.10200689593E+01  0.10197898472E+01 0.  0.
     999903    2    3    3    0    0 -0.11542799013E+00  0.51988383915E-01  0.17106987653E-01  0.12941316075E+00  0.20705172847E-01 0.  0.
         14    1    1    2    0    0  0.26665119377E-02  0.22362038454E-01  0.78853162576E-02  0.23861040677E-01  0.00000000000E+00 0.  1.
     999901    1    3    3    0    0  0.11276147819E+00 -0.74350422368E-01 -0.24992303911E-01  0.89065579857E+00  0.88000000000E+00 0. -1.
        -11    1    4    4    0    0 -0.20006072859E-01  0.18141820465E-01  0.27283885056E-02  0.27149103592E-01  0.51100000000E-03 0. -1.
         11    1    4    4    0    0 -0.95421917269E-01  0.33846563450E-01  0.14378599148E-01  0.10226405716E+00  0.51100000000E-03 0.  1.
</event>
<event>
 8    1  0.1061721E+005  0.1043930E+01  0.7957747E-01            NaN
         13   -1    0    0    0    0  0.00000000000E+00  0.00000000000E+00  0.74505805969E-08  0.10566000000E+00  0.10566000000E+00 0.  1.
     999900   -1    0    0    0    0 -0.00000000000E+00 -0.00000000000E+00 -0.74505805969E-08  0.93827000000E+00  0.93827000000E+00 0.  1.
     999902    2    1    2    0    0 -0.53652424175E-02  0.30248419354E-01  0.11132307125E-01  0.10112546123E+01  0.10107265753E+01 0.  0.
     999903    2    3    3    0    0  0.18126978856E-01  0.10590273536E+00  0.63113691778E-01  0.12616844455E+00  0.19777805516E-01 0.  0.
         14    1    1    2    0    0  0.53652424175E-02 -0.30248419354E-01 -0.11132307125E-01  0.32675387703E-01  0.00000000000E+00 0. -1.
     999901    1    3    3    0    0 -0.23492221274E-01 -0.75654316005E-01 -0.51981384653E-01  0.88508616775E+00  0.88000000000E+00 0.  1.
        -11    1    4    4    0    0  0.13746981317E-01  0.42688816249E-01  0.34775356500E-01  0.56752982907E-01  0.51100000000E-03 0. -1.
         11    1    4    4    0    0  0.43799975390E-02  0.63213919109E-01  0.28338335278E-01  0.69415461642E-01  0.51100000000E-03 0.  1.
</event>
<event>
 8    1  0.1061721E+005  0.1043930E+01  0.7957747E-01            NaN
         13   -1    0    0    0    0  0.00000000000E+00  0.00000000000E+00  0.74505805969E-08  0.10566000000E+00  0.10566000000E+00 0.  1.
     999900   -1    0    0    0    0 -0.00000000000E+00 -0.00000000000E+00 -0.74505805969E-08  0.93827000000E+00  0.93827000000E+00 0. -1.
     999902    2    1    2    0    0  0.23713134449E-01  0.18295338050E-02  0.58911147504E-02  0.10194276497E+01  0.10191331452E+01 0.  0.
     999903    2    3    3    0    0 -0.99839524259E-02  0.11287572228E+00 -0.59326955360E-01  0.12941633158E+00  0.19705107458E-01 0.  0.
         14    1    1    2    0    0 -0.23713134449E-01 -0.18295338050E-02 -0.58911147504E-02  0.24502350344E-01  0.00000000000E+00 0. -1.
     999901    1    3    3    0    0  0.33697086875E-01 -0.11104618848E+00  0.65218070110E-01  0.89001131808E+00  0.88000000000E+00 0.  1.
        -11    1    4    4    0    0 -0.49697229219E-02  0.23648335834E-01 -0.21579782020E-01  0.32402006831E-01  0.51100000000E-03 0.  1.
         11    1    4    4    0    0 -0.50142295041E-02  0.89227386448E-01 -0.37747173340E-01  0.97014324747E-01  0.51100000000E-03 0. -1.
</event>
<event>
 8    1  0.1061721E+005  0.1043930E+01  0.7957747E-01            NaN
         13   -1    0    0    0    0  0.00000000000E+00  0.00000000000E+00  0.74505805969E-08  0.10566000000E+00  0.10566000000E+00 0. -1.
     999900   -1    0    0    0    0 -0.00000000000E+00 -0.00000000000E+00 -0.74505805969E-08  0.93827000000E+00  0.93827000000E+00 0.  1.
     999902    2    1    2    0    0 -0.38473023282E-02  0.23463000372E-01 -0.93093729026E-03  0.10201354467E+01  0.10198579062E+01 0.  0.
     999903    2    3    3    0    0 -0.81087221839E-01 -0.57109129256E-01  0.80650103484E-01  0.12934178966E+00  0.19704546953E-01 0.  0.
         14    1    1    2    0    0  0.38473023282E-02 -0.23463000372E-01  0.93093729026E-03  0.23794553283E-01  0.00000000000E+00 0. -1.
     999901    1    3    3    0    0  0.77239919511E-01  0.80572129629E-01 -0.81581040774E-01  0.89079365706E+00  0.88000000000E+00 0.  1.
        -11    1    4    4    0    0 -0.11452823222E-01 -0.78697290337E-03  0.10679784489E-01  0.15687746934E-01  0.51100000000E-03 0. -1.
         11    1    4    4    0    0 -0.69634398617E-01 -0.56322156353E-01  0.69970318995E-01  0.11365404273E+00  0.51100000000E-03 0.  1.
</event>
<event>
 8    1  0.1061721E+005  0.1043930E+01  0.7957747E-01            NaN
         13   -1    0    0    0    0  0.00000000000E+00  0.00000000000E+00  0.74505805969E-08  0.10566000000E+00  0.10566000000E+00 0. -1.
     999900   -1    0    0    0    0 -0.00000000000E+00 -0.00000000000E+00 -0.74505805969E-08  0.93827000000E+00  0.93827000000E+00 0.  1.
     999902    2    1    2    0    0  0.19806227034E-01 -0.58337338618E-02 -0.14019162398E-02  0.10232349656E+01  0.10230256646E+01 0.  0.
     999903    2    3    3    0    0  0.12232737709E-01 -0.16387058090E-01 -0.13055859587E+00  0.13371252164E+00  0.20379301810E-01 0.  0.
         14    1    1    2    0    0 -0.19806227034E-01  0.58337338618E-02  0.14019162398E-02  0.20695034410E-01  0.00000000000E+00 0. -1.
     999901    1    3    3    0    0  0.75734893259E-02  0.10553324229E-01  0.12915667963E+00  0.88952244395E+00  0.88000000000E+00 0. -1.
        -11    1    4    4    0    0  0.16766362579E-01 -0.73697229540E-02 -0.72390116711E-01  0.74672711542E-01  0.51100000000E-03 0. -1.
         11    1    4    4    0    0 -0.45336248701E-02 -0.90173351362E-02 -0.58168479163E-01  0.59039810100E-01  0.51100000000E-03 0.  1.
</event>
<event>
 8    1  0.1061721E+005  0.1043930E+01  0.7957747E-01            NaN
         13   -1    0    0    0    0  0.00000000000E+00  0.00000000000E+00  0.74505805969E-08  0.10566000000E+00  0.10566000000E+00 0.  1.
     999900   -1    0    0    0    0 -0.00000000000E+00 -0.00000000000E+00 -0.74505805969E-08  0.93827000000E+00  0.93827000000E+00 0. -1.
     999902    2    1    2    0    0  0.43507810036E-02 -0.22774226578E-01  0.10574737618E-01  0.10184462843E+01  0.10181274057E+01 0.  0.
     999903    2    3    3    0    0  0.11886604297E+00  0.30843012486E-01  0.33187416652E-01  0.12912076074E+00  0.22143591382E-01 0.  0.
         14    1    1    2    0    0 -0.43507810036E-02  0.22774226578E-01 -0.10574737618E-01  0.25483715727E-01  0.00000000000E+00 0.  1.
     999901    1    3    3    0    0 -0.11451526197E+00 -0.53617239065E-01 -0.22612679034E-01  0.88932552353E+00  0.88000000000E+00 0.  1.
        -11    1    4    4    0    0  0.58465048932E-01  0.71090063013E-02  0.77103504241E-02  0.59400425435E-01  0.51100000000E-03 0. -1.
         11    1    4    4    0    0  0.60400994042E-01  0.23734006185E-01  0.25477066228E-01  0.69720335308E-01  0.51100000000E-03 0.  1.
</event>
<event>
 8    1  0.1061721E+005  0.1043930E+01  0.7957747E-01            NaN
         13   -1    0    0    0    0  0.00000000000E+00  0.00000000000E+00  0.74505805969E-08  0.10566000000E+00  0.10566000000E+00 0. -1.
     999900   -1    0    0    0    0 -0.00000000000E+00 -0.00000000000E+00 -0.74505805969E-08  0.93827000000E+00  0.93827000000E+00 0. -1.
     999902    2    1    2    0    0  0.26328272151E-02 -0.24574211595E-01  0.81762288024E-02  0.10178978205E+01  0.10175648866E+01 0.  0.
     999903    2    3    3    0    0  0.14463514728E-01 -0.11563501563E+00 -0.56036570718E-01  0.13079279915E+00  0.19647110546E-01 0.  0.
         14    1    1    2    0    0 -0.26328272151E-02  0.24574211595E-01 -0.81762288024E-02  0.26032179549E-01  0.00000000000E+00 0.  1.
     999901    1    3    3    0    0 -0.11830687512E-01  0.91060804037E-01  0.64212799521E-01  0.88710502130E+00  0.88000000000E+00 0.  1.
        -11    1    4    4    0    0  0.12746482531E-01 -0.86365382720E-01 -0.50793293600E-01  0.10100332641E+00  0.51100000000E-03 0. -1.
         11    1    4    4    0    0  0.17170321970E-02 -0.29269632911E-01 -0.52432771179E-02  0.29789472742E-01  0.51100000000E-03 0.  1.
</event>
<event>
 8    1  0.1061721E+005  0.1043930E+01  0.7957747E-01            NaN
         13   -1    0    0    0    0  0.00000000000E+00  0.00000000000E+00  0.74505805969E-08  0.10566000000E+00  0.10566000000E+00 0. -1.
     999900   -1    0    0    0    0 -0.00000000000E+00 -0.00000000000E+00 -0.74505805969E-08  0.93827000000E+00  0.93827000000E+00 0. -1.
     999902    2    1    2    0    0 -0.10613835380E-01  0.10007984693E-01  0.19420779491E-01  0.10196404974E+01  0.10193511486E+01 0.  0.
     999903    2    3    3    0    0 -0.83096709915E-01  0.82714007384E-02  0.10136285234E+00  0.13286471623E+00  0.20127734940E-01 0.  0.
         14    1    1    2    0    0  0.10613835380E-01 -0.10007984693E-01 -0.19420779491E-01  0.24289502570E-01  0.00000000000E+00 0. -1.
     999901    1    3    3    0    0  0.72482874535E-01  0.17365839546E-02 -0.81942072853E-01  0.88677578120E+00  0.88000000000E+00 0. -1.
        -11    1    4    4    0    0 -0.43524954154E-01  0.86368959646E-02  0.67485952608E-01  0.80769007215E-01  0.51100000000E-03 0. -1.
         11    1    4    4    0    0 -0.39571755760E-01 -0.36549522616E-03  0.33876899736E-01  0.52095709012E-01  0.51100000000E-03 0.  1.
</event>
<event>
 8    1  0.1061721E+005  0.1043930E+01  0.7957747E-01            NaN
         13   -1    0    0    0    0  0.00000000000E+00  0.00000000000E+00  0.74505805969E-08  0.10566000000E+00  0.10566000000E+00 0.  1.
     999900   -1    0    0    0    0 -0.00000000000E+00 -0.00000000000E+00 -0.74505805969E-08  0.93827000000E+00  0.93827000000E+00 0.  1.
     999902    2    1    2    0    0  0.11051388121E-01  0.14944016536E-01  0.14833634253E-01  0.10201498925E+01  0.10198726928E+01 0.  0.
     999903    2    3    3    0    0 -0.43644358170E-01  0.42015500638E-02 -0.11888987242E+00  0.12830405293E+00  0.20115795072E-01 0.  0.
         14    1    1    2    0    0 -0.11051388121E-01 -0.14944016536E-01 -0.14833634253E-01  0.23780107543E-01  0.00000000000E+00 0. -1.
     999901    1    3    3    0    0  0.54695746291E-01  0.10742466472E-01  0.13372350667E+00  0.89184583953E+00  0.88000000000E+00 0. -1.
        -11    1    4    4    0    0 -0.13125613802E-02 -0.47495961480E-02 -0.13229350956E-01  0.14126511553E-01  0.51100000000E-03 0.  1.
         11    1    4    4    0    0 -0.42331796790E-01  0.89511462118E-02 -0.10566052146E+00  0.11417754137E+00  0.51100000000E-03 0. -1.
</event>
<event>
 8    1  0.1061721E+005  0.1043930E+01  0.7957747E-01            NaN
         13   -1    0    0    0    0  0.00000000000E+00  0.00000000000E+00  0.74505805969E-08  0.10566000000E+00  0.10566000000E+00 0.  1.
     999900   -1    0    0    0    0 -0.00000000000E+00 -0.00000000000E+00 -0.74505805969E-08  0.93827000000E+00  0.93827000000E+00 0.  1.
     999902    2    1    2    0    0 -0.20393226755E-01 -0.47024491667E-02 -0.11125727863E-01  0.10202281320E+01  0.10199527748E+01 0.  0.
     999903    2    3    3    0    0  0.84312521467E-01  0.75026251949E-01 -0.59479826750E-01  0.12912876697E+00  0.19971202077E-01 0.  0.
         14    1    1    2    0    0  0.20393226755E-01  0.47024491667E-02  0.11125727863E-01  0.23701867988E-01  0.00000000000E+00 0. -1.
     999901    1    3    3    0    0 -0.10470574822E+00 -0.79728701116E-01  0.48354098887E-01  0.89109936504E+00  0.88000000000E+00 0. -1.
        -11    1    4    4    0    0  0.30548264151E-01  0.18668774539E-01 -0.26493448981E-01  0.44540807641E-01  0.51100000000E-03 0.  1.
         11    1    4    4    0    0  0.53764257316E-01  0.56357477410E-01 -0.32986377768E-01  0.84587959333E-01  0.51100000000E-03 0. -1.
</event>
<event>
 8    1  0.1061721E+005  0.1043930E+01  0.7957747E-01            NaN
         13   -1    0    0    0    0  0.00000000000E+00  0.00000000000E+00  0.74505805969E-08  0.10566000000E+00  0.10566000000E+00 0.  1.
     999900   -1    0    0    0    0 -0.00000000000E+00 -0.00000000000E+00 -0.74505805969E-08  0.93827000000E+00  0.93827000000E+00 0.  1.
     999902    2    1    2    0    0  0.60613544562E-02  0.25500687912E-02  0.22652836934E-01  0.10203419969E+01  0.10200693098E+01 0.  0.
     999903    2    3    3    0    0 -0.11680328391E+00 -0.52311536073E-01 -0.35266787045E-02  0.12972935266E+00  0.20922799548E-01 0.  0.
         14    1    1    2    0    0 -0.60613544562E-02 -0.25500687912E-02 -0.22652836934E-01  0.23588003091E-01  0.00000000000E+00 0. -1.
     999901    1    3    3    0    0  0.12286463837E+00  0.54861604864E-01  0.26179515638E-01  0.89061264424E+00  0.88000000000E+00 0. -1.
        -11    1    4    4    0    0 -0.79890485966E-01 -0.35003112449E-01 -0.12118280790E-01  0.88061464213E-01  0.51100000000E-03 0.  1.
         11    1    4    4    0    0 -0.36912797946E-01 -0.17308423624E-01  0.85916020858E-02  0.41667888451E-01  0.51100000000E-03 0. -1.
</event>
<event>
 8    1  0.1061721E+005  0.1043930E+01  0.7957747E-01            NaN
         13   -1    0    0    0    0  0.00000000000E+00  0.00000000000E+00  0.74505805969E-08  0.10566000000E+00  0.10566000000E+00 0.  1.
     999900   -1    0    0    0    0 -0.00000000000E+00 -0.00000000000E+00 -0.74505805969E-08  0.93827000000E+00  0.93827000000E+00 0.  1.
     999902    2    1    2    0    0 -0.23276518235E-01  0.39971611237E-02 -0.15337948104E-02  0.10202630161E+01  0.10199884784E+01 0.  0.
     999903    2    3    3    0    0  0.56923588273E-01 -0.13273686715E-01 -0.11367230225E+00  0.12936157147E+00  0.19913267294E-01 0.  0.
         14    1    1    2    0    0  0.23276518235E-01 -0.39971611237E-02  0.15337948104E-02  0.23666983853E-01  0.00000000000E+00 0. -1.
     999901    1    3    3    0    0 -0.80200106508E-01  0.17270847839E-01  0.11213850744E+00  0.89090144467E+00  0.88000000000E+00 0. -1.
        -11    1    4    4    0    0  0.48595068231E-01 -0.10674137289E-01 -0.10808741800E+00  0.11898978492E+00  0.51100000000E-03 0.  1.
         11    1    4    4    0    0  0.83285200417E-02 -0.25995494267E-02 -0.55848842486E-02  0.10371786557E-01  0.51100000000E-03 0. -1.
</event>
<event>
 8    1  0.1061721E+005  0.1043930E+01  0.7957747E-01            NaN
         13   -1    0    0    0    0  0.00000000000E+00  0.00000000000E+00  0.74505805969E-08  0.10566000000E+00  0.10566000000E+00 0. -1.
     999900   -1    0    0    0    0 -0.00000000000E+00 -0.00000000000E+00 -0.74505805969E-08  0.93827000000E+00  0.93827000000E+00 0. -1.
     999902    2    1    2    0    0  0.21131714383E-01  0.13870474094E-01  0.74344341930E-02  0.10175821307E+01  0.10172409658E+01 0.  0.
     999903    2    3    3    0    0  0.12249102204E+00 -0.17078874203E-01 -0.35525551807E-01  0.13018304811E+00  0.19743929635E-01 0.  0.
         14    1    1    2    0    0 -0.21131714383E-01 -0.13870474094E-01 -0.74344341930E-02  0.26347869291E-01  0.00000000000E+00 0.  1.
     999901    1    3    3    0    0 -0.10135930766E+00  0.30949348298E-01  0.42959986000E-01  0.88739908260E+00  0.88000000000E+00 0. -1.
        -11    1    4    4    0    0  0.69579497160E-01 -0.12722608939E-02 -0.14474015786E-01  0.71082229332E-01  0.51100000000E-03 0.  1.
         11    1    4    4    0    0  0.52911524883E-01 -0.15806613310E-01 -0.21051536022E-01  0.59100818773E-01  0.51100000000E-03 0. -1.
</event>
<event>
 7    1  0.1061721E+005  0.1043930E+01  0.7957747E-01            NaN
         13   -1    0    0    0    0  0.00000000000E+00  0.00000000000E+00  0.74505805969E-08  0.10566000000E+00  0.10566000000E+00 0. -1.
     999900   -1    0    0    0    0 -0.00000000000E+00 -0.00000000000E+00 -0.74505805969E-08  0.93827000000E+00  0.93827000000E+00 0.  1.
     999903    2    1    2    0    0  0.49416489782E-01  0.10327806458E+00  0.17947365009E-01  0.11752706733E+00  0.19548799453E-01 0.  0.
         14    1    1    2    0    0 -0.22777880973E-01 -0.78856464624E-02 -0.32821825890E-01  0.40722076770E-01  0.00000000000E+00 0. -1.
     999901    1    1    2    0    0 -0.26638608810E-01 -0.95392418115E-01  0.14874460881E-01  0.88568085590E+00  0.88000000000E+00 0. -1.
        -11    1    3    3    0    0  0.98676302706E-02  0.21785629297E-01 -0.41700548038E-02  0.24282385572E-01  0.51100000000E-03 0. -1.
         11    1    3    3    0    0  0.39548859512E-01  0.81492435281E-01  0.22117419813E-01  0.93244681762E-01  0.51100000000E-03 0.  1.
</event>
<event>
 8    1  0.1061721E+005  0.1043930E+01  0.7957747E-01            NaN
         13   -1    0    0    0    0  0.00000000000E+00  0.00000000000E+00  0.74505805969E-08  0.10566000000E+00  0.10566000000E+00 0.  1.
     999900   -1    0    0    0    0 -0.00000000000E+00 -0.00000000000E+00 -0.74505805969E-08  0.93827000000E+00  0.93827000000E+00 0. -1.
     999902    2    1    2    0    0 -0.29698259060E-01  0.22674018153E-01  0.67614187945E-04  0.10065655481E+01  0.10058718111E+01 0.  0.
     999903    2    3    3    0    0 -0.55136820899E-01  0.54296178003E-02 -0.10441100588E+00  0.11985236351E+00  0.19833837774E-01 0.  0.
         14    1    1    2    0    0  0.29698259060E-01 -0.22674018153E-01 -0.67614187945E-04  0.37364451850E-01  0.00000000000E+00 0.  1.
     999901    1    3    3    0    0  0.25438561839E-01  0.17244400353E-01  0.10447862007E+00  0.88671318464E+00  0.88000000000E+00 0.  1.
        -11    1    4    4    0    0 -0.21539775471E-01 -0.49818167100E-02 -0.27577933530E-01  0.35349454930E-01  0.51100000000E-03 0.  1.
         11    1    4    4    0    0 -0.33597045427E-01  0.10411434510E-01 -0.76833072349E-01  0.84502908575E-01  0.51100000000E-03 0. -1.
</event>
<event>
 8    1  0.1061721E+005  0.1043930E+01  0.7957747E-01            NaN
         13   -1    0    0    0    0  0.00000000000E+00  0.00000000000E+00  0.74505805969E-08  0.10566000000E+00  0.10566000000E+00 0.  1.
     999900   -1    0    0    0    0 -0.00000000000E+00 -0.00000000000E+00 -0.74505805969E-08  0.93827000000E+00  0.93827000000E+00 0.  1.
     999902    2    1    2    0    0  0.88489443111E-02  0.21449453950E-01  0.61629359173E-02  0.10199224039E+01  0.10196398116E+01 0.  0.
     999903    2    3    3    0    0 -0.20934679347E-01 -0.12183596353E+00 -0.24092551094E-01  0.12732329481E+00  0.18668357565E-01 0.  0.
         14    1    1    2    0    0 -0.88489443111E-02 -0.21449453950E-01 -0.61629359173E-02  0.24007596075E-01  0.00000000000E+00 0.  1.
     999901    1    3    3    0    0  0.29783623658E-01  0.14328541748E+00  0.30255487012E-01  0.89259910912E+00  0.88000000000E+00 0. -1.
        -11    1    4    4    0    0  0.13478484232E-02 -0.23277257715E-01  0.49631216253E-03  0.23327127317E-01  0.51100000000E-03 0. -1.
         11    1    4    4    0    0 -0.22282527770E-01 -0.98558705814E-01 -0.24588863257E-01  0.10399616749E+00  0.51100000000E-03 0.  1.
</event>
<event>
 8    1  0.1061721E+005  0.1043930E+01  0.7957747E-01            NaN
         13   -1    0    0    0    0  0.00000000000E+00  0.00000000000E+00  0.74505805969E-08  0.10566000000E+00  0.10566000000E+00 0. -1.
     999900   -1    0    0    0    0 -0.00000000000E+00 -0.00000000000E+00 -0.74505805969E-08  0.93827000000E+00  0.93827000000E+00 0. -1.
     999902    2    1    2    0    0 -0.21676324678E-01 -0.58745199760E-02  0.79884544894E-02  0.10200932963E+01  0.10198147600E+01 0.  0.
     999903    2    3    3    0    0 -0.64808887090E-02  0.28404472049E-01  0.12640626996E+00  0.13137020696E+00  0.20755005170E-01 0.  0.
         14    1    1    2    0    0  0.21676324678E-01  0.58745199760E-02 -0.79884544894E-02  0.23836703665E-01  0.00000000000E+00 0.  1.
     999901    1    3    3    0    0 -0.15195435969E-01 -0.34278992025E-01 -0.11841781547E+00  0.88872308938E+00  0.88000000000E+00 0. -1.
        -11    1    4    4    0    0 -0.90130724241E-02  0.79907867171E-02  0.23338038468E-01  0.26268104374E-01  0.51100000000E-03 0. -1.
         11    1    4    4    0    0  0.25321837151E-02  0.20413685332E-01  0.10306823150E+00  0.10510210259E+00  0.51100000000E-03 0.  1.
</event>
<event>
 8    1  0.1061721E+005  0.1043930E+01  0.7957747E-01            NaN
         13   -1    0    0    0    0  0.00000000000E+00  0.00000000000E+00  0.74505805969E-08  0.10566000000E+00  0.10566000000E+00 0. -1.
     999900   -1    0    0    0    0 -0.00000000000E+00 -0.00000000000E+00 -0.74505805969E-08  0.93827000000E+00  0.93827000000E+00 0.  1.
     999902    2    1    2    0    0  0.82336947120E-02  0.21852963936E-01  0.69879474097E-03  0.10205669078E+01  0.10202994557E+01 0.  0.
     999903    2    3    3    0    0  0.12722158461E+00  0.17049411510E-01  0.24631815541E-01  0.13222351615E+00  0.20007945002E-01 0.  0.
         14    1    1    2    0    0 -0.82336947120E-02 -0.21852963936E-01 -0.69879474097E-03  0.23363092164E-01  0.00000000000E+00 0.  1.
     999901    1    3    3    0    0 -0.11898788990E+00  0.48035524260E-02 -0.23933020800E-01  0.88834339168E+00  0.88000000000E+00 0.  1.
        -11    1    4    4    0    0  0.52634749593E-01  0.88496999506E-02  0.42489453306E-03  0.53377670522E-01  0.51100000000E-03 0. -1.
         11    1    4    4    0    0  0.74586835020E-01  0.81997115591E-02  0.24206921007E-01  0.78845845633E-01  0.51100000000E-03 0.  1.
</event>
<event>
 8    1  0.1061721E+005  0.1043930E+01  0.7957747E-01            NaN
         13   -1    0    0    0    0  0.00000000000E+00  0.00000000000E+00  0.74505805969E-08  0.10566000000E+00  0.10566000000E+00 0. -1.
     999900   -1    0    0    0    0 -0.00000000000E+00 -0.00000000000E+00 -0.74505805969E-08  0.93827000000E+00  0.93827000000E+00 0.  1.
     999902    2    1    2    0    0 -0.19028613563E-02  0.17704845555E-01  0.16820339427E-01  0.10194349749E+01  0.10191406487E+01 0.  0.
     999903    2    3    3    0    0 -0.40828125235E-01 -0.10602844818E+00 -0.53501264391E-01  0.12715125760E+00  0.19901994489E-01 0.  0.
         14    1    1    2    0    0  0.19028613563E-02 -0.17704845555E-01 -0.16820339427E-01  0.24495025126E-01  0.00000000000E+00 0.  1.
     999901    1    3    3    0    0  0.38925263879E-01  0.12373329373E+00  0.70321603818E-01  0.89228371727E+00  0.88000000000E+00 0. -1.
        -11    1    4    4    0    0 -0.12536484632E-01 -0.44468859594E-01 -0.31484492765E-01  0.55912228771E-01  0.51100000000E-03 0. -1.
         11    1    4    4    0    0 -0.28291640603E-01 -0.61559588586E-01 -0.22016771627E-01  0.71239028831E-01  0.51100000000E-03 0.  1.
</event>
<event>
 8    1  0.1061721E+005  0.1043930E+01  0.7957747E-01            NaN
         13   -1    0    0    0    0  0.00000000000E+00  0.00000000000E+00  0.74505805969E-08  0.10566000000E+00  0.10566000000E+00 0. -1.
     999900   -1    0    0    0    0 -0.00000000000E+00 -0.00000000000E+00 -0.74505805969E-08  0.93827000000E+00  0.93827000000E+00 0. -1.
     999902    2    1    2    0    0 -0.13161100638E-01  0.29263009527E-02 -0.93951099376E-02  0.10274969267E+01  0.10273655087E+01 0.  0.
     999903    2    3    3    0    0  0.13572937842E-01 -0.12456062430E+00 -0.51540400341E-01  0.13691068695E+00  0.19711660672E-01 0.  0.
         14    1    1    2    0    0  0.13161100638E-01 -0.29263009527E-02  0.93951099376E-02  0.16433073298E-01  0.00000000000E+00 0.  1.
     999901    1    3    3    0    0 -0.26734038481E-01  0.12748692526E+00  0.42145290403E-01  0.89058623975E+00  0.88000000000E+00 0. -1.
        -11    1    4    4    0    0  0.42210507457E-02 -0.23013497056E-01 -0.18113489121E-01  0.29593883241E-01  0.51100000000E-03 0. -1.
         11    1    4    4    0    0  0.93518870964E-02 -0.10154712725E+00 -0.33426911220E-01  0.10731680371E+00  0.51100000000E-03 0.  1.
</event>
<event>
 8    1  0.1061721E+005  0.1043930E+01  0.7957747E-01            NaN
         13   -1    0    0    0    0  0.00000000000E+00  0.00000000000E+00  0.74505805969E-08  0.10566000000E+00  0.10566000000E+00 0. -1.
     999900   -1    0    0    0    0 -0.00000000000E+00 -0.00000000000E+00 -0.74505805969E-08  0.93827000000E+00  0.93827000000E+00 0. -1.
     999902    2    1    2    0    0  0.20860180528E-01  0.11244121046E-01 -0.44753167772E-02  0.10198134942E+01  0.10195283013E+01 0.  0.
     999903    2    3    3    0    0  0.70207578343E-01  0.11030346196E+00 -0.13231504134E-01  0.13283852869E+00  0.19366058634E-01 0.  0.
         14    1    1    2    0    0 -0.20860180528E-01 -0.11244121046E-01  0.44753167772E-02  0.24116505759E-01  0.00000000000E+00 0. -1.
     999901    1    3    3    0    0 -0.49347397815E-01 -0.99059340911E-01  0.87561873564E-02  0.88697496555E+00  0.88000000000E+00 0. -1.
        -11    1    4    4    0    0  0.42241573587E-01  0.81042085765E-01 -0.49841369620E-02  0.91527443679E-01  0.51100000000E-03 0. -1.
         11    1    4    4    0    0  0.27966004757E-01  0.29261376192E-01 -0.82473671716E-02  0.41311085013E-01  0.51100000000E-03 0.  1.
</event>
<event>
 7    1  0.1061721E+005  0.1043930E+01  0.7957747E-01            NaN
         13   -1    0    0    0    0  0.00000000000E+00  0.00000000000E+00  0.74505805969E-08  0.10566000000E+00  0.10566000000E+00 0.  1.
     999900   -1    0    0    0    0 -0.00000000000E+00 -0.00000000000E+00 -0.74505805969E-08  0.93827000000E+00  0.93827000000E+00 0. -1.
     999902    2    1    2    0    0 -0.15519038300E-01  0.10189229092E-01 -0.14865537920E-01  0.10201467042E+01  0.10198694294E+01 0.  0.
         14    1    1    2    0    0  0.15519038300E-01 -0.10189229092E-01  0.14865537920E-01  0.23783295753E-01  0.00000000000E+00 0. -1.
     999901    1    3    3    0    0  0.10226581312E-01  0.51800359617E-01  0.99478426038E-01  0.88717744418E+00  0.88000000000E+00 0.  1.
        -11    1    3    3    0    0 -0.27861959544E-01 -0.38891084155E-02 -0.33623766629E-01  0.43843274938E-01  0.51100000000E-03 0.  1.
         11    1    3    3    0    0  0.21163399324E-02 -0.37722022109E-01 -0.80720197329E-01  0.89125985125E-01  0.51100000000E-03 0. -1.
</event>
<event>
 8    1  0.1061721E+005  0.1043930E+01  0.7957747E-01            NaN
         13   -1    0    0    0    0  0.00000000000E+00  0.00000000000E+00  0.74505805969E-08  0.10566000000E+00  0.10566000000E+00 0.  1.
     999900   -1    0    0    0    0 -0.00000000000E+00 -0.00000000000E+00 -0.74505805969E-08  0.93827000000E+00  0.93827000000E+00 0. -1.
     999902    2    1    2    0    0  0.79014835916E-02  0.18964336900E-01  0.10319567768E-01  0.10209392846E+01  0.10206803857E+01 0.  0.
     999903    2    3    3    0    0 -0.74069391318E-01 -0.91320260167E-01 -0.46962022702E-01  0.12843544856E+00  0.21553844759E-01 0.  0.
         14    1    1    2    0    0 -0.79014835916E-02 -0.18964336900E-01 -0.10319567768E-01  0.22990715429E-01  0.00000000000E+00 0.  1.
     999901    1    3    3    0    0  0.81970874910E-01  0.11028459707E+00  0.57281590470E-01  0.89250383601E+00  0.88000000000E+00 0.  1.
        -11    1    4    4    0    0 -0.37231839219E-01 -0.41172729821E-01 -0.33276941274E-01  0.64722634944E-01  0.51100000000E-03 0. -1.
         11    1    4    4    0    0 -0.36837552099E-01 -0.50147530346E-01 -0.13685081428E-01  0.63712813618E-01  0.51100000000E-03 0.  1.
</event>
<event>
 8    1  0.1061721E+005  0.1043930E+01  0.7957747E-01            NaN
         13   -1    0    0    0    0  0.00000000000E+00  0.00000000000E+00  0.74505805969E-08  0.10566000000E+00  0.10566000000E+00 0. -1.
     999900   -1    0    0    0    0 -0.00000000000E+00 -0.00000000000E+00 -0.74505805969E-08  0.93827000000E+00  0.93827000000E+00 0.  1.
     999902    2    1    2    0    0  0.77097378492E-02 -0.21585666903E-01  0.41356081361E-03  0.10210050768E+01  0.10207476743E+01 0.  0.
     999903    2    3    3    0    0 -0.10939231955E-01  0.12408672451E+00 -0.24605376322E-01  0.12848382944E+00  0.19633845449E-01 0.  0.
         14    1    1    2    0    0 -0.77097378492E-02  0.21585666903E-01 -0.41356081361E-03  0.22924923248E-01  0.00000000000E+00 0.  1.
     999901    1    3    3    0    0  0.18648969804E-01 -0.14567239141E+00  0.25018937136E-01  0.89252124732E+00  0.88000000000E+00 0. -1.
        -11    1    4    4    0    0 -0.29032688200E-02  0.85813618797E-01 -0.24794315719E-01  0.89372397047E-01  0.51100000000E-03 0. -1.
         11    1    4    4    0    0 -0.80359631348E-02  0.38273105714E-01  0.18893939710E-03  0.39111432390E-01  0.51100000000E-03 0.  1.
</event>
<event>
 7    1  0.1061721E+005  0.1043930E+01  0.7957747E-01            NaN
         13   -1    0    0    0    0  0.00000000000E+00  0.00000000000E+00  0.74505805969E-08  0.10566000000E+00  0.10566000000E+00 0.  1.
     999900   -1    0    0    0    0 -0.00000000000E+00 -0.00000000000E+00 -0.74505805969E-08  0.93827000000E+00  0.93827000000E+00 0.  1.
     999902    2    1    2    0    0 -0.18533436039E-02  0.23742603969E-01 -0.57581372090E-02  0.10194289333E+01  0.10191344601E+01 0.  0.
         14    1    1    2    0    0  0.18533436039E-02 -0.23742603969E-01  0.57581372090E-02  0.24501066708E-01  0.00000000000E+00 0.  1.
     999901    1    3    3    0    0  0.98251941964E-01  0.55306070821E-01  0.57099834588E-01  0.88902901903E+00  0.88000000000E+00 0. -1.
        -11    1    3    3    0    0 -0.81165942595E-01 -0.21846062978E-01 -0.26267203671E-01  0.88064679723E-01  0.51100000000E-03 0.  1.
         11    1    3    3    0    0 -0.18939342973E-01 -0.97174038739E-02 -0.36590768126E-01  0.42335234538E-01  0.51100000000E-03 0. -1.
</event>
<event>
 8    1  0.1061721E+005  0.1043930E+01  0.7957747E-01            NaN
         13   -1    0    0    0    0  0.00000000000E+00  0.00000000000E+00  0.74505805969E-08  0.10566000000E+00  0.10566000000E+00 0. -1.
     999900   -1    0    0    0    0 -0.00000000000E+00 -0.00000000000E+00 -0.74505805969E-08  0.93827000000E+00  0.93827000000E+00 0.  1.
     999902    2    1    2    0    0 -0.25236967316E-01 -0.72130511276E-02 -0.81529805173E-02  0.10164453913E+01  0.10160737324E+01 0.  0.
     999903    2    3    3    0    0 -0.51855790111E-01 -0.11498111169E+00  0.17940601212E-01  0.12908785813E+00  0.20787759161E-01 0.  0.
         14    1    1    2    0    0  0.25236967316E-01  0.72130511276E-02  0.81529805173E-02  0.27484608732E-01  0.00000000000E+00 0. -1.
     999901    1    3    3    0    0  0.26618822795E-01  0.10776806057E+00 -0.26093581729E-01  0.88735753314E+00  0.88000000000E+00 0. -1.
        -11    1    4    4    0    0 -0.51236101789E-01 -0.10137028305E+00  0.19897364965E-01  0.11531365342E+00  0.51100000000E-03 0.  1.
         11    1    4    4    0    0 -0.61968832182E-03 -0.13610828643E-01 -0.19567637534E-02  0.13774204708E-01  0.51100000000E-03 0. -1.
</event>
<event>
 8    1  0.1061721E+005  0.1043930E+01  0.7957747E-01            NaN
         13   -1    0    0    0    0  0.00000000000E+00  0.00000000000E+00  0.74505805969E-08  0.10566000000E+00  0.10566000000E+00 0. -1.
     999900   -1    0    0    0    0 -0.00000000000E+00 -0.00000000000E+00 -0.74505805969E-08  0.93827000000E+00  0.93827000000E+00 0. -1.
     999902    2    1    2    0    0  0.15302311238E-01 -0.15952240908E-01  0.82646011970E-02  0.10203304586E+01  0.10200575016E+01 0.  0.
     999903    2    3    3    0    0 -0.24646946507E-01  0.12259583824E+00  0.21835801749E-01  0.12849208152E+00  0.19904804699E-01 0.  0.
         14    1    1    2    0    0 -0.15302311238E-01  0.15952240908E-01 -0.82646011970E-02  0.23599541355E-01  0.00000000000E+00 0. -1.
     999901    1    3    3    0    0  0.39949257744E-01 -0.13854807915E+00 -0.13571200552E-01  0.89183837713E+00  0.88000000000E+00 0.  1.
        -11    1    4    4    0    0 -0.19068513986E-02  0.55149149636E-01  0.13622019935E-01  0.56840877333E-01  0.51100000000E-03 0.  1.
         11    1    4    4    0    0 -0.22740095108E-01  0.67446688602E-01  0.82137818133E-02  0.71651204188E-01  0.51100000000E-03 0. -1.
</event>
<event>
 8    1  0.1061721E+005  0.1043930E+01  0.7957747E-01            NaN
         13   -1    0    0    0    0  0.00000000000E+00  0.00000000000E+00  0.74505805969E-08  0.10566000000E+00  0.10566000000E+00 0. -1.
     999900   -1    0    0    0    0 -0.00000000000E+00 -0.00000000000E+00 -0.74505805969E-08  0.93827000000E+00  0.93827000000E+00 0.  1.
     999902    2    1    2    0    0  0.33166184959E-02 -0.62663779848E-02  0.22313945800E-01  0.10205167638E+01  0.10202481490E+01 0.  0.
     999903    2    3    3    0    0 -0.77259656996E-01 -0.82601413662E-01 -0.59416526554E-01  0.12978703828E+00  0.22853961149E-01 0.  0.
         14    1    1    2    0    0 -0.33166184959E-02  0.62663779848E-02 -0.22313945800E-01  0.23413236181E-01  0.00000000000E+00 0.  1.
     999901    1    3    3    0    0  0.80576275492E-01  0.76335035677E-01  0.81730472354E-01  0.89072972554E+00  0.88000000000E+00 0.  1.
        -11    1    4    4    0    0 -0.48559846351E-01 -0.49960762419E-01 -0.48737089107E-01  0.85027651001E-01  0.51100000000E-03 0.  1.
         11    1    4    4    0    0 -0.28699810645E-01 -0.32640651243E-01 -0.10679437448E-01  0.44759387281E-01  0.51100000000E-03 0. -1.
</event>
<event>
 8    1  0.1061721E+005  0.1043930E+01  0.7957747E-01            NaN
         13   -1    0    0    0    0  0.00000000000E+00  0.00000000000E+00  0.74505805969E-08  0.10566000000E+00  0.10566000000E+00 0.  1.
     999900   -1    0    0    0    0 -0.00000000000E+00 -0.00000000000E+00 -0.74505805969E-08  0.93827000000E+00  0.93827000000E+00 0. -1.
     999902    2    1    2    0    0 -0.16286220581E-01  0.42392896096E-02  0.75289010892E-02  0.10254937067E+01  0.10253279698E+01 0.  0.
     999903    2    3    3    0    0  0.52743801134E-01  0.10394092993E+00  0.65701142185E-01  0.13527487376E+00  0.19925509089E-01 0.  0.
         14    1    1    2    0    0  0.16286220581E-01 -0.42392896096E-02 -0.75289010892E-02  0.18436293250E-01  0.00000000000E+00 0.  1.
     999901    1    3    3    0    0 -0.69030021715E-01 -0.99701640322E-01 -0.58172241096E-01  0.89021883299E+00  0.88000000000E+00 0.  1.
        -11    1    4    4    0    0  0.39270661082E-01  0.58617197147E-01  0.33818623087E-01  0.78243983869E-01  0.51100000000E-03 0.  1.
         11    1    4    4    0    0  0.13473140052E-01  0.45323732784E-01  0.31882519098E-01  0.57030889888E-01  0.51100000000E-03 0. -1.
</event>
<event>
 8    1  0.1061721E+005  0.1043930E+01  0.7957747E-01            NaN
         13   -1    0    0    0    0  0.00000000000E+00  0.00000000000E+00  0.74505805969E-08  0.10566000000E+00  0.10566000000E+00 0. -1.
     999900   -1    0    0    0    0 -0.00000000000E+00 -0.00000000000E+00 -0.74505805969E-08  0.93827000000E+00  0.93827000000E+00 0.  1.
     999902    2    1    2    0    0  0.12025486052E-01  0.64816592726E-03 -0.17768282887E-01  0.10224650446E+01  0.10222397092E+01 0.  0.
     999903    2    3    3    0    0 -0.43090891011E-02 -0.32340493540E-01 -0.12976150871E+00  0.13460382085E+00  0.14685491876E-01 0.  0.
         14    1    1    2    0    0 -0.12025486052E-01 -0.64816592726E-03  0.17768282887E-01  0.21464955407E-01  0.00000000000E+00 0. -1.
     999901    1    3    3    0    0  0.16334575154E-01  0.32988659467E-01  0.11199322583E+00  0.88786122375E+00  0.88000000000E+00 0. -1.
        -11    1    4    4    0    0  0.21524191512E-02 -0.22437956013E-01 -0.65777243826E-01  0.69534176522E-01  0.51100000000E-03 0. -1.
         11    1    4    4    0    0 -0.64615082523E-02 -0.99025375273E-02 -0.63984264888E-01  0.65069644326E-01  0.51100000000E-03 0.  1.
</event>
<event>
 8    1  0.1061721E+005  0.1043930E+01  0.7957747E-01            NaN
         13   -1    0    0    0    0  0.00000000000E+00  0.00000000000E+00  0.74505805969E-08  0.10566000000E+00  0.10566000000E+00 0.  1.
     999900   -1    0    0    0    0 -0.00000000000E+00 -0.00000000000E+00 -0.74505805969E-08  0.93827000000E+00  0.93827000000E+00 0. -1.
     999902    2    1    2    0    0 -0.13766650807E-02  0.91510340967E-02  0.22380338549E-01  0.10197119038E+01  0.10194242740E+01 0.  0.
     999903    2    3    3    0    0  0.76969608862E-01  0.71460410211E-01 -0.72096889938E-01  0.12901187362E+00  0.20376238135E-01 0.  0.
         14    1    1    2    0    0  0.13766650807E-02 -0.91510340967E-02 -0.22380338549E-01  0.24218096237E-01  0.00000000000E+00 0. -1.
     999901    1    3    3    0    0 -0.78346273943E-01 -0.62309376114E-01  0.94477228487E-01  0.89070003014E+00  0.88000000000E+00 0.  1.
        -11    1    4    4    0    0  0.47649176810E-01  0.34099122652E-01 -0.31474367890E-01  0.66513841953E-01  0.51100000000E-03 0.  1.
         11    1    4    4    0    0  0.29320432052E-01  0.37361287559E-01 -0.40622522048E-01  0.62498031667E-01  0.51100000000E-03 0. -1.
</event>
<event>
 8    1  0.1061721E+005  0.1043930E+01  0.7957747E-01            NaN
         13   -1    0    0    0    0  0.00000000000E+00  0.00000000000E+00  0.74505805969E-08  0.10566000000E+00  0.10566000000E+00 0.  1.
     999900   -1    0    0    0    0 -0.00000000000E+00 -0.00000000000E+00 -0.74505805969E-08  0.93827000000E+00  0.93827000000E+00 0. -1.
     999902    2    1    2    0    0 -0.19236630397E-01 -0.36141543795E-02  0.13272576761E-01  0.10202810813E+01  0.10200069674E+01 0.  0.
     999903    2    3    3    0    0 -0.10517212458E+00 -0.78711862718E-01  0.14630530213E-01  0.13291057302E+00  0.13943991036E-01 0.  0.
         14    1    1    2    0    0  0.19236630397E-01  0.36141543795E-02 -0.13272576761E-01  0.23648918681E-01  0.00000000000E+00 0. -1.
     999901    1    3    3    0    0  0.85935494181E-01  0.75097708338E-01 -0.13579534527E-02  0.88737050830E+00  0.88000000000E+00 0. -1.
        -11    1    4    4    0    0 -0.32845862382E-01 -0.32691349935E-01  0.37735700640E-02  0.46498128868E-01  0.51100000000E-03 0. -1.
         11    1    4    4    0    0 -0.72326262196E-01 -0.46020512782E-01  0.10856960149E-01  0.86412444154E-01  0.51100000000E-03 0.  1.
</event>
<event>
 8    1  0.1061721E+005  0.1043930E+01  0.7957747E-01            NaN
         13   -1    0    0    0    0  0.00000000000E+00  0.00000000000E+00  0.74505805969E-08  0.10566000000E+00  0.10566000000E+00 0. -1.
     999900   -1    0    0    0    0 -0.00000000000E+00 -0.00000000000E+00 -0.74505805969E-08  0.93827000000E+00  0.93827000000E+00 0. -1.
     999902    2    1    2    0    0 -0.40594540987E-02  0.73625971223E-02 -0.20785288222E-01  0.10215086885E+01  0.10212625938E+01 0.  0.
     999903    2    3    3    0    0  0.53831592275E-01  0.73977541480E-01 -0.95809139615E-01  0.13391784674E+00  0.19597996598E-01 0.  0.
         14    1    1    2    0    0  0.40594540987E-02 -0.73625971223E-02  0.20785288222E-01  0.22421311524E-01  0.00000000000E+00 0. -1.
     999901    1    3    3    0    0 -0.57891046374E-01 -0.66614944358E-01  0.75023851393E-01  0.88759084174E+00  0.88000000000E+00 0.  1.
        -11    1    4    4    0    0  0.21075281702E-01  0.14560170258E-01 -0.23615227162E-01  0.34844025767E-01  0.51100000000E-03 0. -1.
         11    1    4    4    0    0  0.32756310573E-01  0.59417371223E-01 -0.72193912453E-01  0.99073820970E-01  0.51100000000E-03 0.  1.
</event>
<event>
 8    1  0.1061721E+005  0.1043930E+01  0.7957747E-01            NaN
         13   -1    0    0    0    0  0.00000000000E+00  0.00000000000E+00  0.74505805969E-08  0.10566000000E+00  0.10566000000E+00 0.  1.
     999900   -1    0    0    0    0 -0.00000000000E+00 -0.00000000000E+00 -0.74505805969E-08  0.93827000000E+00  0.93827000000E+00 0.  1.
     999902    2    1    2    0    0 -0.68963304764E-02  0.17981123649E-01 -0.13746634825E-01  0.10202688472E+01  0.10199944463E+01 0.  0.
     999903    2    3    3    0    0 -0.37165411618E-01 -0.12048445842E+00  0.14098064086E-01  0.12849294379E+00  0.20344745059E-01 0.  0.
         14    1    1    2    0    0  0.68963304764E-02 -0.17981123649E-01  0.13746634825E-01  0.23661152777E-01  0.00000000000E+00 0. -1.
     999901    1    3    3    0    0  0.30269081141E-01  0.13846558207E+00 -0.27844698911E-01  0.89177590344E+00  0.88000000000E+00 0.  1.
        -11    1    4    4    0    0 -0.10426567379E-01 -0.64827495270E-01  0.28241236432E-02  0.65723315845E-01  0.51100000000E-03 0.  1.
         11    1    4    4    0    0 -0.26738844239E-01 -0.55656963147E-01  0.11273940443E-01  0.62769627943E-01  0.51100000000E-03 0. -1.
</event>
<event>
 7    1  0.1061721E+005  0.1043930E+01  0.7957747E-01            NaN
         13   -1    0    0    0    0  0.00000000000E+00  0.00000000000E+00  0.74505805969E-08  0.10566000000E+00  0.10566000000E+00 0.  1.
     999900   -1    0    0    0    0 -0.00000000000E+00 -0.00000000000E+00 -0.74505805969E-08  0.93827000000E+00  0.93827000000E+00 0. -1.
     999903    2    1    2    0    0  0.68657967761E-01 -0.41445803628E-01 -0.67194468893E-01  0.10654781550E+00  0.20141230398E-01 0.  0.
         14    1    1    2    0    0 -0.35355035345E-01  0.23298076294E-01  0.36707763964E-01  0.56037833813E-01  0.00000000000E+00 0.  1.
     999901    1    1    2    0    0 -0.33302932416E-01  0.18147727334E-01  0.30486704930E-01  0.88134435069E+00  0.88000000000E+00 0. -1.
        -11    1    3    3    0    0  0.60565214495E-01 -0.42568053596E-01 -0.63636123306E-01  0.97621727623E-01  0.51100000000E-03 0.  1.
         11    1    3    3    0    0  0.80927532663E-02  0.11222499679E-02 -0.35583455878E-02  0.89260878744E-02  0.51100000000E-03 0. -1.
</event>
<event>
 8    1  0.1061721E+005  0.1043930E+01  0.7957747E-01            NaN
         13   -1    0    0    0    0  0.00000000000E+00  0.00000000000E+00  0.74505805969E-08  0.10566000000E+00  0.10566000000E+00 0. -1.
     999900   -1    0    0    0    0 -0.00000000000E+00 -0.00000000000E+00 -0.74505805969E-08  0.93827000000E+00  0.93827000000E+00 0. -1.
     999902    2    1    2    0    0  0.23068892546E-01  0.57458179728E-02  0.15083673917E-02  0.10201085097E+01  0.10198303330E+01 0.  0.
     999903    2    3    3    0    0  0.13681244076E-01  0.11274806470E+00 -0.62620585071E-01  0.13126086737E+00  0.20218187214E-01 0.  0.
         14    1    1    2    0    0 -0.23068892546E-01 -0.57458179728E-02 -0.15083673917E-02  0.23821490291E-01  0.00000000000E+00 0. -1.
     999901    1    3    3    0    0  0.93876484698E-02 -0.10700224673E+00  0.64128952463E-01  0.88884764234E+00  0.88000000000E+00 0.  1.
        -11    1    4    4    0    0  0.10952743521E-01  0.45764602255E-01 -0.35473411972E-01  0.58932041269E-01  0.51100000000E-03 0. -1.
         11    1    4    4    0    0  0.27285005552E-02  0.66983462448E-01 -0.27147173099E-01  0.72328826100E-01  0.51100000000E-03 0.  1.
</event>
<event>
 8    1  0.1061721E+005  0.1043930E+01  0.7957747E-01            NaN
         13   -1    0    0    0    0  0.00000000000E+00  0.00000000000E+00  0.74505805969E-08  0.10566000000E+00  0.10566000000E+00 0. -1.
     999900   -1    0    0    0    0 -0.00000000000E+00 -0.00000000000E+00 -0.74505805969E-08  0.93827000000E+00  0.93827000000E+00 0.  1.
     999902    2    1    2    0    0  0.28483373561E-02 -0.10768555822E-01  0.21511679453E-01  0.10197054840E+01  0.10194177000E+01 0.  0.
     999903    2    3    3    0    0 -0.12519642822E+00 -0.30731699810E-01 -0.10712283730E-02  0.12992799679E+00  0.16172625266E-01 0.  0.
         14    1    1    2    0    0 -0.28483373561E-02  0.10768555822E-01 -0.21511679453E-01  0.24224515951E-01  0.00000000000E+00 0.  1.
     999901    1    3    3    0    0  0.12804476557E+00  0.19963143987E-01  0.22582907826E-01  0.88977748726E+00  0.88000000000E+00 0. -1.
        -11    1    4    4    0    0 -0.20644848872E-01 -0.31591395597E-02  0.54930630612E-02  0.21601500191E-01  0.51100000000E-03 0.  1.
         11    1    4    4    0    0 -0.10455157934E+00 -0.27572560250E-01 -0.65642914342E-02  0.10832649660E+00  0.51100000000E-03 0. -1.
</event>
<event>
 8    1  0.1061721E+005  0.1043930E+01  0.7957747E-01            NaN
         13   -1    0    0    0    0  0.00000000000E+00  0.00000000000E+00  0.74505805969E-08  0.10566000000E+00  0.10566000000E+00 0. -1.
     999900   -1    0    0    0    0 -0.00000000000E+00 -0.00000000000E+00 -0.74505805969E-08  0.93827000000E+00  0.93827000000E+00 0. -1.
     999902    2    1    2    0    0 -0.60002169610E-02 -0.50989549061E-02 -0.22871655637E-01  0.10197408583E+01  0.10194539242E+01 0.  0.
     999903    2    3    3    0    0 -0.36235464871E-01  0.14043010958E-01  0.11995986693E+00  0.12750690416E+00  0.18905709855E-01 0.  0.
         14    1    1    2    0    0  0.60002169610E-02  0.50989549061E-02  0.22871655637E-01  0.24189141703E-01  0.00000000000E+00 0. -1.
     999901    1    3    3    0    0  0.30235247910E-01 -0.19141965864E-01 -0.14283152256E+00  0.89223395413E+00  0.88000000000E+00 0. -1.
        -11    1    4    4    0    0 -0.12322110149E-01  0.33203340270E-02  0.69303067108E-01  0.70470101803E-01  0.51100000000E-03 0. -1.
         11    1    4    4    0    0 -0.23913354722E-01  0.10722676931E-01  0.50656799818E-01  0.57036802360E-01  0.51100000000E-03 0.  1.
</event>
<event>
 8    1  0.1061721E+005  0.1043930E+01  0.7957747E-01            NaN
         13   -1    0    0    0    0  0.00000000000E+00  0.00000000000E+00  0.74505805969E-08  0.10566000000E+00  0.10566000000E+00 0. -1.
     999900   -1    0    0    0    0 -0.00000000000E+00 -0.00000000000E+00 -0.74505805969E-08  0.93827000000E+00  0.93827000000E+00 0.  1.
     999902    2    1    2    0    0 -0.21508931551E-01 -0.41789216002E-02 -0.98991827279E-02  0.10198864699E+01  0.10196030208E+01 0.  0.
     999903    2    3    3    0    0  0.68717768698E-01  0.95962188093E-01 -0.47710275252E-01  0.12882037917E+00  0.19686199379E-01 0.  0.
         14    1    1    2    0    0  0.21508931551E-01  0.41789216002E-02  0.98991827279E-02  0.24043530126E-01  0.00000000000E+00 0. -1.
     999901    1    3    3    0    0 -0.90226700249E-01 -0.10014110969E+00  0.37811092524E-01  0.89106609071E+00  0.88000000000E+00 0. -1.
        -11    1    4    4    0    0  0.23665274898E-01  0.49396563732E-01 -0.24344175350E-01  0.59941352496E-01  0.51100000000E-03 0. -1.
         11    1    4    4    0    0  0.45052493800E-01  0.46565624361E-01 -0.23366099902E-01  0.68879026672E-01  0.51100000000E-03 0.  1.
</event>
<event>
 8    1  0.1061721E+005  0.1043930E+01  0.7957747E-01            NaN
         13   -1    0    0    0    0  0.00000000000E+00  0.00000000000E+00  0.74505805969E-08  0.10566000000E+00  0.10566000000E+00 0. -1.
     999900   -1    0    0    0    0 -0.00000000000E+00 -0.00000000000E+00 -0.74505805969E-08  0.93827000000E+00  0.93827000000E+00 0. -1.
     999902    2    1    2    0    0  0.53931241379E-02 -0.71322573058E-02  0.22154516116E-01  0.10200390505E+01  0.10197592300E+01 0.  0.
     999903    2    3    3    0    0  0.11250724839E-01 -0.12721317905E+00  0.26120280325E-01  0.13185581125E+00  0.19847271383E-01 0.  0.
         14    1    1    2    0    0 -0.53931241379E-02  0.71322573058E-02 -0.22154516116E-01  0.23890949470E-01  0.00000000000E+00 0.  1.
     999901    1    3    3    0    0 -0.58576007014E-02  0.12008092175E+00 -0.39657642096E-02  0.88818323928E+00  0.88000000000E+00 0.  1.
        -11    1    4    4    0    0 -0.55005682919E-02 -0.45034502998E-01  0.93504771305E-02  0.46325535672E-01  0.51100000000E-03 0. -1.
         11    1    4    4    0    0  0.16751293131E-01 -0.82178676057E-01  0.16769803195E-01  0.85530275577E-01  0.51100000000E-03 0.  1.
</event>
<event>
 8    1  0.1061721E+005  0.1043930E+01  0.7957747E-01            NaN
         13   -1    0    0    0    0  0.00000000000E+00  0.00000000000E+00  0.74505805969E-08  0.10566000000E+00  0.10566000000E+00 0. -1.
     999900   -1    0    0    0    0 -0.00000000000E+00 -0.00000000000E+00 -0.74505805969E-08  0.93827000000E+00  0.93827000000E+00 0. -1.
     999902    2    1    2    0    0  0.13206565043E-01  0.24011957360E-02  0.20206686225E-01  0.10196712022E+01  0.10193825932E+01 0.  0.
     999903    2    3    3    0    0  0.93434232294E-01 -0.48355483319E-01 -0.72961040258E-01  0.12967516610E+00  0.20594338456E-01 0.  0.
         14    1    1    2    0    0 -0.13206565043E-01 -0.24011957360E-02 -0.20206686225E-01  0.24258797773E-01  0.00000000000E+00 0.  1.
     999901    1    3    3    0    0 -0.80227667251E-01  0.50756679055E-01  0.93167726483E-01  0.88999603613E+00  0.88000000000E+00 0.  1.
        -11    1    4    4    0    0  0.41765243685E-01 -0.23375926714E-01 -0.21051245939E-01  0.52289440677E-01  0.51100000000E-03 0.  1.
         11    1    4    4    0    0  0.51668988610E-01 -0.24979556605E-01 -0.51909794319E-01  0.77385725424E-01  0.51100000000E-03 0. -1.
</event>
<event>
 8    1  0.1061721E+005  0.1043930E+01  0.7957747E-01            NaN
         13   -1    0    0    0    0  0.00000000000E+00  0.00000000000E+00  0.74505805969E-08  0.10566000000E+00  0.10566000000E+00 0. -1.
     999900   -1    0    0    0    0 -0.00000000000E+00 -0.00000000000E+00 -0.74505805969E-08  0.93827000000E+00  0.93827000000E+00 0. -1.
     999902    2    1    2    0    0  0.22764079687E-01 -0.73712465814E-02 -0.11949937786E-02  0.10199723997E+01  0.10196909971E+01 0.  0.
     999903    2    3    3    0    0  0.69831308565E-01 -0.10377271751E+00  0.41010337613E-01  0.13245346607E+00  0.14726993155E-01 0.  0.
         14    1    1    2    0    0 -0.22764079687E-01  0.73712465814E-02  0.11949937786E-02  0.23957600261E-01  0.00000000000E+00 0.  1.
     999901    1    3    3    0    0 -0.47067228878E-01  0.96401470924E-01 -0.42205331391E-01  0.88751893367E+00  0.88000000000E+00 0.  1.
        -11    1    4    4    0    0  0.31686164038E-01 -0.46325098600E-01  0.26101953405E-01  0.61899926044E-01  0.51100000000E-03 0. -1.
         11    1    4    4    0    0  0.38145144527E-01 -0.57447618905E-01  0.14908384208E-01  0.70553540021E-01  0.51100000000E-03 0.  1.
</event>
<event>
 8    1  0.1061721E+005  0.1043930E+01  0.7957747E-01            NaN
         13   -1    0    0    0    0  0.00000000000E+00  0.00000000000E+00  0.74505805969E-08  0.10566000000E+00  0.10566000000E+00 0. -1.
     999900   -1    0    0    0    0 -0.00000000000E+00 -0.00000000000E+00 -0.74505805969E-08  0.93827000000E+00  0.93827000000E+00 0. -1.
     999902    2    1    2    0    0 -0.21483214019E-01 -0.16506299343E-02  0.81715643201E-02  0.10208859655E+01  0.10206258506E+01 0.  0.
     999903    2    3    3    0    0 -0.80545859551E-01  0.74046319042E-01  0.74095041712E-01  0.13321241678E+00  0.16881348393E-01 0.  0.
         14    1    1    2    0    0  0.21483214019E-01  0.16506299343E-02 -0.81715643201E-02  0.23044034525E-01  0.00000000000E+00 0.  1.
     999901    1    3    3    0    0  0.59062645532E-01 -0.75696948977E-01 -0.65923477392E-01  0.88767354870E+00  0.88000000000E+00 0. -1.
        -11    1    4    4    0    0 -0.43698171740E-01  0.29132490681E-01  0.32560802908E-01  0.61795624713E-01  0.51100000000E-03 0.  1.
         11    1    4    4    0    0 -0.36847687811E-01  0.44913828361E-01  0.41534238804E-01  0.71416792067E-01  0.51100000000E-03 0. -1.
</event>
<event>
 8    1  0.1061721E+005  0.1043930E+01  0.7957747E-01            NaN
         13   -1    0    0    0    0  0.00000000000E+00  0.00000000000E+00  0.74505805969E-08  0.10566000000E+00  0.10566000000E+00 0. -1.
     999900   -1    0    0    0    0 -0.00000000000E+00 -0.00000000000E+00 -0.74505805969E-08  0.93827000000E+00  0.93827000000E+00 0.  1.
     999902    2    1    2    0    0  0.22590812261E-02 -0.66486594789E-02 -0.24396144438E-01  0.10185433897E+01  0.10182269672E+01 0.  0.
     999903    2    3    3    0    0 -0.80062580948E-01  0.87626145349E-01 -0.47556549439E-01  0.12938592372E+00  0.19766983716E-01 0.  0.
         14    1    1    2    0    0 -0.22590812261E-02  0.66486594789E-02  0.24396144438E-01  0.25386610335E-01  0.00000000000E+00 0. -1.
     999901    1    3    3    0    0  0.82321662174E-01 -0.94274804828E-01  0.23160405000E-01  0.88915746595E+00  0.88000000000E+00 0.  1.
        -11    1    4    4    0    0 -0.50783537461E-01  0.41992135327E-01 -0.29877600006E-01  0.72354952902E-01  0.51100000000E-03 0.  1.
         11    1    4    4    0    0 -0.29279043486E-01  0.45634010022E-01 -0.17678949433E-01  0.57030970816E-01  0.51100000000E-03 0. -1.
</event>
<event>
 7    1  0.1061721E+005  0.1043930E+01  0.7957747E-01            NaN
         13   -1    0    0    0    0  0.00000000000E+00  0.00000000000E+00  0.74505805969E-08  0.10566000000E+00  0.10566000000E+00 0. -1.
     999900   -1    0    0    0    0 -0.00000000000E+00 -0.00000000000E+00 -0.74505805969E-08  0.93827000000E+00  0.93827000000E+00 0.  1.
     999902    2    1    2    0    0 -0.56042226272E-02  0.25442377224E-01 -0.82505727628E-02  0.10166024714E+01  0.10162351062E+01 0.  0.
         14    1    1    2    0    0  0.56042226272E-02 -0.25442377224E-01  0.82505727628E-02  0.27327528629E-01  0.00000000000E+00 0.  1.
     999901    1    3    3    0    0 -0.25446833738E-01  0.94884983754E-01  0.87669533721E-01  0.88979584660E+00  0.88000000000E+00 0. -1.
        -11    1    3    3    0    0  0.65864641469E-02 -0.63856447329E-01 -0.59044397213E-01  0.87221151900E-01  0.51100000000E-03 0. -1.
         11    1    3    3    0    0  0.13256146964E-01 -0.55861592007E-02 -0.36875709271E-01  0.39585472868E-01  0.51100000000E-03 0.  1.
</event>
<event>
 8    1  0.1061721E+005  0.1043930E+01  0.7957747E-01            NaN
         13   -1    0    0    0    0  0.00000000000E+00  0.00000000000E+00  0.74505805969E-08  0.10566000000E+00  0.10566000000E+00 0. -1.
     999900   -1    0    0    0    0 -0.00000000000E+00 -0.00000000000E+00 -0.74505805969E-08  0.93827000000E+00  0.93827000000E+00 0.  1.
     999902    2    1    2    0    0  0.25536427661E-02 -0.13436152841E-01 -0.19464174138E-01  0.10201412344E+01  0.10198638305E+01 0.  0.
     999903    2    3    3    0    0 -0.14536652305E-01 -0.12981600749E+00 -0.58204599073E-02  0.13220964936E+00  0.19544911567E-01 0.  0.
         14    1    1    2    0    0 -0.25536427661E-02  0.13436152841E-01  0.19464174138E-01  0.23788765613E-01  0.00000000000E+00 0. -1.
     999901    1    3    3    0    0  0.17090295071E-01  0.11637985465E+00 -0.13643714230E-01  0.88793158503E+00  0.88000000000E+00 0. -1.
        -11    1    4    4    0    0 -0.11603120219E-01 -0.71768750635E-01 -0.12265456265E-01  0.73729834564E-01  0.51100000000E-03 0.  1.
         11    1    4    4    0    0 -0.29335320865E-02 -0.58047256858E-01  0.64449963575E-02  0.58479814794E-01  0.51100000000E-03 0. -1.
</event>
<event>
 8    1  0.1061721E+005  0.1043930E+01  0.7957747E-01            NaN
         13   -1    0    0    0    0  0.00000000000E+00  0.00000000000E+00  0.74505805969E-08  0.10566000000E+00  0.10566000000E+00 0.  1.
     999900   -1    0    0    0    0 -0.00000000000E+00 -0.00000000000E+00 -0.74505805969E-08  0.93827000000E+00  0.93827000000E+00 0.  1.
     999902    2    1    2    0    0  0.38019198110E-03  0.18016816882E-01  0.15034367501E-01  0.10204612454E+01  0.10201913403E+01 0.  0.
     999903    2    3    3    0    0 -0.10611478920E+00 -0.65725027026E-01  0.33682767655E-01  0.12989870393E+00  0.12610185613E-01 0.  0.
         14    1    1    2    0    0 -0.38019198110E-03 -0.18016816882E-01 -0.15034367501E-01  0.23468754603E-01  0.00000000000E+00 0. -1.
     999901    1    3    3    0    0  0.10649498118E+00  0.83741843908E-01 -0.18648400154E-01  0.89056254147E+00  0.88000000000E+00 0.  1.
        -11    1    4    4    0    0 -0.97905303557E-01 -0.64211206660E-01  0.31076473544E-01  0.12113849865E+00  0.51100000000E-03 0. -1.
         11    1    4    4    0    0 -0.82094856413E-02 -0.15138203665E-02  0.26062941109E-02  0.87602052824E-02  0.51100000000E-03 0.  1.
</event>
<event>
 8    1  0.1061721E+005  0.1043930E+01  0.7957747E-01            NaN
         13   -1    0    0    0    0  0.00000000000E+00  0.00000000000E+00  0.74505805969E-08  0.10566000000E+00  0.10566000000E+00 0. -1.
     999900   -1    0    0    0    0 -0.00000000000E+00 -0.00000000000E+00 -0.74505805969E-08  0.93827000000E+00  0.93827000000E+00 0. -1.
     999902    2    1    2    0    0  0.25956206910E-02  0.80089167814E-02  0.20713973259E-01  0.10215704677E+01  0.10213257423E+01 0.  0.
     999903    2    3    3    0    0  0.63524268409E-01 -0.10870478493E+00  0.33292985687E-01  0.13168698108E+00  0.19518584597E-01 0.  0.
         14    1    1    2    0    0 -0.25956206910E-02 -0.80089167814E-02 -0.20713973259E-01  0.22359532262E-01  0.00000000000E+00 0.  1.
     999901    1    3    3    0    0 -0.60928647718E-01  0.11671370171E+00 -0.12579012428E-01  0.88988348666E+00  0.88000000000E+00 0. -1.
        -11    1    4    4    0    0  0.21475914771E-01 -0.39163603818E-01  0.21484835091E-01  0.49566743278E-01  0.51100000000E-03 0. -1.
         11    1    4    4    0    0  0.42048353637E-01 -0.69541181115E-01  0.11808150596E-01  0.82120237798E-01  0.51100000000E-03 0.  1.
</event>
<event>
 8    1  0.1061721E+005  0.1043930E+01  0.7957747E-01            NaN
         13   -1    0    0    0    0  0.00000000000E+00  0.00000000000E+00  0.74505805969E-08  0.10566000000E+00  0.10566000000E+00 0. -1.
     999900   -1    0    0    0    0 -0.00000000000E+00 -0.00000000000E+00 -0.74505805969E-08  0.93827000000E+00  0.93827000000E+00 0.  1.
     999902    2    1    2    0    0  0.14286199036E-02 -0.27639836427E-01  0.10335082539E-01  0.10143865499E+01  0.10139562403E+01 0.  0.
     999903    2    3    3    0    0  0.36355407974E-01 -0.77053132771E-01  0.94439300519E-01  0.12830806926E+00  0.16890180439E-01 0.  0.
         14    1    1    2    0    0 -0.14286199036E-02  0.27639836427E-01 -0.10335082539E-01  0.29543450097E-01  0.00000000000E+00 0.  1.
     999901    1    3    3    0    0 -0.34926788071E-01  0.49413296344E-01 -0.84104217980E-01  0.88607848065E+00  0.88000000000E+00 0.  1.
        -11    1    4    4    0    0  0.79205573408E-02 -0.33797048745E-01  0.32165684527E-01  0.47327244950E-01  0.51100000000E-03 0.  1.
         11    1    4    4    0    0  0.28434850633E-01 -0.43256084026E-01  0.62273615992E-01  0.80980824308E-01  0.51100000000E-03 0. -1.
</event>
<event>
 8    1  0.1061721E+005  0.1043930E+01  0.7957747E-01            NaN
         13   -1    0    0    0    0  0.00000000000E+00  0.00000000000E+00  0.74505805969E-08  0.10566000000E+00  0.10566000000E+00 0.  1.
     999900   -1    0    0    0    0 -0.00000000000E+00 -0.00000000000E+00 -0.74505805969E-08  0.93827000000E+00  0.93827000000E+00 0. -1.
     999902    2    1    2    0    0  0.12592014471E-02 -0.37433453489E-03  0.23328370643E-01  0.10205646712E+01  0.10202971672E+01 0.  0.
     999903    2    3    3    0    0 -0.10716934825E+00  0.45622973503E-01  0.58995821540E-01  0.13200140961E+00  0.19420099472E-01 0.  0.
         14    1    1    2    0    0 -0.12592014471E-02  0.37433453489E-03 -0.23328370643E-01  0.23365328833E-01  0.00000000000E+00 0. -1.
     999901    1    3    3    0    0  0.10842854970E+00 -0.45997308038E-01 -0.35667450897E-01  0.88856326156E+00  0.88000000000E+00 0.  1.
        -11    1    4    4    0    0 -0.94352894125E-01  0.32669580744E-01  0.49463160281E-01  0.11142995774E+00  0.51100000000E-03 0. -1.
         11    1    4    4    0    0 -0.12816454128E-01  0.12953392759E-01  0.95326612584E-02  0.20571451870E-01  0.51100000000E-03 0.  1.
</event>
<event>
 8    1  0.1061721E+005  0.1043930E+01  0.7957747E-01            NaN
         13   -1    0    0    0    0  0.00000000000E+00  0.00000000000E+00  0.74505805969E-08  0.10566000000E+00  0.10566000000E+00 0. -1.
     999900   -1    0    0    0    0 -0.00000000000E+00 -0.00000000000E+00 -0.74505805969E-08  0.93827000000E+00  0.93827000000E+00 0.  1.
     999902    2    1    2    0    0 -0.21604676737E-01  0.80950152862E-02  0.41517584584E-02  0.10204879773E+01  0.10202186939E+01 0.  0.
     999903    2    3    3    0    0  0.11362960779E+00 -0.30777934409E-01  0.46883524356E-01  0.12828540965E+00  0.20002811306E-01 0.  0.
         14    1    1    2    0    0  0.21604676737E-01 -0.80950152862E-02 -0.41517584584E-02  0.23442022688E-01  0.00000000000E+00 0. -1.
     999901    1    3    3    0    0 -0.13523428452E+00  0.38872949695E-01 -0.42731765898E-01  0.89220256766E+00  0.88000000000E+00 0. -1.
        -11    1    4    4    0    0  0.86736142926E-01 -0.31123294339E-01  0.40371789764E-01  0.10060795431E+00  0.51100000000E-03 0. -1.
         11    1    4    4    0    0  0.26893464862E-01  0.34535993031E-03  0.65117345925E-02  0.27677455341E-01  0.51100000000E-03 0.  1.
</event>
<event>
 8    1  0.1061721E+005  0.1043930E+01  0.7957747E-01            NaN
         13   -1    0    0    0    0  0.00000000000E+00  0.00000000000E+00  0.74505805969E-08  0.10566000000E+00  0.10566000000E+00 0.  1.
     999900   -1    0    0    0    0 -0.00000000000E+00 -0.00000000000E+00 -0.74505805969E-08  0.93827000000E+00  0.93827000000E+00 0. -1.
     999902    2    1    2    0    0 -0.16032190492E-01 -0.17077136147E-01 -0.39883621980E-02  0.10201693867E+01  0.10198926467E+01 0.  0.
     999903    2    3    3    0    0  0.65138210081E-01  0.51710335681E-01  0.95360628642E-01  0.12821054674E+00  0.20672435094E-01 0.  0.
         14    1    1    2    0    0  0.16032190492E-01  0.17077136147E-01  0.39883621980E-02  0.23760613291E-01  0.00000000000E+00 0. -1.
     999901    1    3    3    0    0 -0.81170400573E-01 -0.68787471828E-01 -0.99348990840E-01  0.89195883996E+00  0.88000000000E+00 0. -1.
        -11    1    4    4    0    0  0.23949811177E-01  0.19575517786E-01  0.51117835085E-01  0.59750217881E-01  0.51100000000E-03 0.  1.
         11    1    4    4    0    0  0.41188398904E-01  0.32134817895E-01  0.44242793557E-01  0.68460328864E-01  0.51100000000E-03 0. -1.
</event>
<event>
 8    1  0.1061721E+005  0.1043930E+01  0.7957747E-01            NaN
         13   -1    0    0    0    0  0.00000000000E+00  0.00000000000E+00  0.74505805969E-08  0.10566000000E+00  0.10566000000E+00 0. -1.
     999900   -1    0    0    0    0 -0.00000000000E+00 -0.00000000000E+00 -0.74505805969E-08  0.93827000000E+00  0.93827000000E+00 0.  1.
     999902    2    1    2    0    0  0.15471432645E-02  0.19971620478E-01 -0.11837215001E-01  0.10206624489E+01  0.10203972048E+01 0.  0.
     999903    2    3    3    0    0  0.71036387770E-01 -0.10434665491E+00  0.15856563738E-01  0.12878200056E+00  0.19974490609E-01 0.  0.
         14    1    1    2    0    0 -0.15471432645E-02 -0.19971620478E-01  0.11837215001E-01  0.23267551134E-01  0.00000000000E+00 0.  1.
     999901    1    3    3    0    0 -0.69489244505E-01  0.12431827539E+00 -0.27693778739E-01  0.89188044831E+00  0.88000000000E+00 0.  1.
        -11    1    4    4    0    0  0.45119666399E-01 -0.78297447939E-01  0.17276232504E-01  0.92005456253E-01  0.51100000000E-03 0.  1.
         11    1    4    4    0    0  0.25916721371E-01 -0.26049206971E-01 -0.14196687659E-02  0.36776544303E-01  0.51100000000E-03 0. -1.
</event>
<event>
 8    1  0.1061721E+005  0.1043930E+01  0.7957747E-01            NaN
         13   -1    0    0    0    0  0.00000000000E+00  0.00000000000E+00  0.74505805969E-08  0.10566000000E+00  0.10566000000E+00 0.  1.
     999900   -1    0    0    0    0 -0.00000000000E+00 -0.00000000000E+00 -0.74505805969E-08  0.93827000000E+00  0.93827000000E+00 0.  1.
     999902    2    1    2    0    0 -0.12967478731E-01  0.17419522080E-01 -0.11249767628E-01  0.10194728431E+01  0.10191794372E+01 0.  0.
     999903    2    3    3    0    0 -0.11318503767E+00 -0.45331976536E-01  0.39379166304E-01  0.13012218181E+00  0.22698515628E-01 0.  0.
         14    1    1    2    0    0  0.12967478731E-01 -0.17419522080E-01  0.11249767628E-01  0.24457156945E-01  0.00000000000E+00 0. -1.
     999901    1    3    3    0    0  0.10021755894E+00  0.62751498616E-01 -0.50628933932E-01  0.88935066124E+00  0.88000000000E+00 0. -1.
        -11    1    4    4    0    0 -0.50748397944E-01 -0.16071884715E-01  0.61829660859E-02  0.53592868581E-01  0.51100000000E-03 0.  1.
         11    1    4    4    0    0 -0.62436639729E-01 -0.29260091821E-01  0.33196200219E-01  0.76529313233E-01  0.51100000000E-03 0. -1.
</event>
<event>
 8    1  0.1061721E+005  0.1043930E+01  0.7957747E-01            NaN
         13   -1    0    0    0    0  0.00000000000E+00  0.00000000000E+00  0.74505805969E-08  0.10566000000E+00  0.10566000000E+00 0. -1.
     999900   -1    0    0    0    0 -0.00000000000E+00 -0.00000000000E+00 -0.74505805969E-08  0.93827000000E+00  0.93827000000E+00 0. -1.
     999902    2    1    2    0    0 -0.55652272497E-03 -0.20990438346E-01  0.11171904242E-01  0.10201451379E+01  0.10198678261E+01 0.  0.
     999903    2    3    3    0    0  0.13901028152E-01  0.22217378501E-01 -0.12431976826E+00  0.12861054548E+00  0.19960389191E-01 0.  0.
         14    1    1    2    0    0  0.55652272497E-03  0.20990438346E-01 -0.11171904242E-01  0.23784862074E-01  0.00000000000E+00 0.  1.
     999901    1    3    3    0    0 -0.14457550877E-01 -0.43207816847E-01  0.13549167250E+00  0.89153459245E+00  0.88000000000E+00 0.  1.
        -11    1    4    4    0    0 -0.30385938991E-03  0.21664943272E-02 -0.55293267780E-01  0.55338888777E-01  0.51100000000E-03 0.  1.
         11    1    4    4    0    0  0.14204887542E-01  0.20050884174E-01 -0.69026500480E-01  0.73271656701E-01  0.51100000000E-03 0. -1.
</event>
<event>
 8    1  0.1061721E+005  0.1043930E+01  0.7957747E-01            NaN
         13   -1    0    0    0    0  0.00000000000E+00  0.00000000000E+00  0.74505805969E-08  0.10566000000E+00  0.10566000000E+00 0.  1.
     999900   -1    0    0    0    0 -0.00000000000E+00 -0.00000000000E+00 -0.74505805969E-08  0.93827000000E+00  0.93827000000E+00 0.  1.
     999902    2    1    2    0    0 -0.11718063130E-01 -0.67365373661E-02  0.18333524113E-01  0.10211525540E+01  0.10208984898E+01 0.  0.
     999903    2    3    3    0    0 -0.52518545905E-01 -0.46641953918E-01 -0.10784068698E+00  0.13032313532E+00  0.20514295064E-01 0.  0.
         14    1    1    2    0    0  0.11718063130E-01  0.67365373661E-02 -0.18333524113E-01  0.22777445986E-01  0.00000000000E+00 0. -1.
     999901    1    3    3    0    0  0.40800482774E-01  0.39905416552E-01  0.12617421109E+00  0.89082941869E+00  0.88000000000E+00 0. -1.
        -11    1    4    4    0    0 -0.32141028166E-01 -0.25598945298E-01 -0.79854027473E-01  0.89806895707E-01  0.51100000000E-03 0.  1.
         11    1    4    4    0    0 -0.20377517739E-01 -0.21043008620E-01 -0.27986659509E-01  0.40516239614E-01  0.51100000000E-03 0. -1.
</event>
<event>
 8    1  0.1061721E+005  0.1043930E+01  0.7957747E-01            NaN
         13   -1    0    0    0    0  0.00000000000E+00  0.00000000000E+00  0.74505805969E-08  0.10566000000E+00  0.10566000000E+00 0.  1.
     999900   -1    0    0    0    0 -0.00000000000E+00 -0.00000000000E+00 -0.74505805969E-08  0.93827000000E+00  0.93827000000E+00 0.  1.
     999902    2    1    2    0    0  0.73342397122E-02 -0.12092285522E-01  0.23961769902E-01  0.10161058943E+01  0.10157248680E+01 0.  0.
     999903    2    3    3    0    0  0.62886177914E-01  0.92757767888E-01 -0.51936719058E-01  0.12490438388E+00  0.18574376185E-01 0.  0.
         14    1    1    2    0    0 -0.73342397122E-02  0.12092285522E-01 -0.23961769902E-01  0.27824105702E-01  0.00000000000E+00 0. -1.
     999901    1    3    3    0    0 -0.55551938202E-01 -0.10485005341E+00  0.75898488959E-01  0.89120151041E+00  0.88000000000E+00 0. -1.
        -11    1    4    4    0    0  0.48878636529E-01  0.76330586817E-01 -0.33915589336E-01  0.96778137582E-01  0.51100000000E-03 0.  1.
         11    1    4    4    0    0  0.14007541385E-01  0.16427181071E-01 -0.18021129722E-01  0.28126246302E-01  0.51100000000E-03 0. -1.
</event>
<event>
 8    1  0.1061721E+005  0.1043930E+01  0.7957747E-01            NaN
         13   -1    0    0    0    0  0.00000000000E+00  0.00000000000E+00  0.74505805969E-08  0.10566000000E+00  0.10566000000E+00 0.  1.
     999900   -1    0    0    0    0 -0.00000000000E+00 -0.00000000000E+00 -0.74505805969E-08  0.93827000000E+00  0.93827000000E+00 0.  1.
     999902    2    1    2    0    0  0.25153889014E-01 -0.18055070018E-02 -0.86644628580E-02  0.10172644622E+01  0.10169149105E+01 0.  0.
     999903    2    3    3    0    0 -0.42554458272E-01 -0.75258950256E-01 -0.91766511675E-01  0.12772200729E+00  0.20421238188E-01 0.  0.
         14    1    1    2    0    0 -0.25153889014E-01  0.18055070018E-02  0.86644628580E-02  0.26665537772E-01  0.00000000000E+00 0.  1.
     999901    1    3    3    0    0  0.67708347286E-01  0.73453443254E-01  0.83102048817E-01  0.88954245494E+00  0.88000000000E+00 0. -1.
        -11    1    4    4    0    0 -0.34149013625E-01 -0.40555878163E-01 -0.57858499939E-01  0.78478032094E-01  0.51100000000E-03 0. -1.
         11    1    4    4    0    0 -0.84054446476E-02 -0.34703072093E-01 -0.33908011735E-01  0.49243975198E-01  0.51100000000E-03 0.  1.
</event>
<event>
 8    1  0.1061721E+005  0.1043930E+01  0.7957747E-01            NaN
         13   -1    0    0    0    0  0.00000000000E+00  0.00000000000E+00  0.74505805969E-08  0.10566000000E+00  0.10566000000E+00 0.  1.
     999900   -1    0    0    0    0 -0.00000000000E+00 -0.00000000000E+00 -0.74505805969E-08  0.93827000000E+00  0.93827000000E+00 0.  1.
     999902    2    1    2    0    0 -0.54138673340E-02  0.23247107729E-01  0.58290057463E-02  0.10193593817E+01  0.10190632138E+01 0.  0.
     999903    2    3    3    0    0  0.59322801494E-01 -0.48803409653E-01  0.10149927753E+00  0.12889045225E+00  0.20240498328E-01 0.  0.
         14    1    1    2    0    0  0.54138673340E-02 -0.23247107729E-01 -0.58290057463E-02  0.24570618333E-01  0.00000000000E+00 0. -1.
     999901    1    3    3    0    0 -0.64736668828E-01  0.72050517382E-01 -0.95670271783E-01  0.89046892941E+00  0.88000000000E+00 0.  1.
        -11    1    4    4    0    0  0.42210535050E-01 -0.43477010532E-01  0.69486525037E-01  0.92198796069E-01  0.51100000000E-03 0. -1.
         11    1    4    4    0    0  0.17112266445E-01 -0.53263991212E-02  0.32012752493E-01  0.36691656185E-01  0.51100000000E-03 0.  1.
</event>
<event>
 8    1  0.1061721E+005  0.1043930E+01  0.7957747E-01            NaN
         13   -1    0    0    0    0  0.00000000000E+00  0.00000000000E+00  0.74505805969E-08  0.10566000000E+00  0.10566000000E+00 0.  1.
     999900   -1    0    0    0    0 -0.00000000000E+00 -0.00000000000E+00 -0.74505805969E-08  0.93827000000E+00  0.93827000000E+00 0. -1.
     999902    2    1    2    0    0  0.10654754519E-01  0.63923738985E-03 -0.21386712897E-01  0.10200276171E+01  0.10197475255E+01 0.  0.
     999903    2    3    3    0    0 -0.54642159247E-01 -0.63664859323E-01 -0.99724544124E-01  0.13180719426E+00  0.19727439725E-01 0.  0.
         14    1    1    2    0    0 -0.10654754519E-01 -0.63923738985E-03  0.21386712897E-01  0.23902382870E-01  0.00000000000E+00 0.  1.
     999901    1    3    3    0    0  0.65296913767E-01  0.64304096713E-01  0.78337831227E-01  0.88822042287E+00  0.88000000000E+00 0. -1.
        -11    1    4    4    0    0 -0.64942172924E-02 -0.20514984972E-01 -0.24220039816E-01  0.32402328871E-01  0.51100000000E-03 0. -1.
         11    1    4    4    0    0 -0.48147941955E-01 -0.43149874352E-01 -0.75504504309E-01  0.99404865389E-01  0.51100000000E-03 0.  1.
</event>
<event>
 8    1  0.1061721E+005  0.1043930E+01  0.7957747E-01            NaN
         13   -1    0    0    0    0  0.00000000000E+00  0.00000000000E+00  0.74505805969E-08  0.10566000000E+00  0.10566000000E+00 0. -1.
     999900   -1    0    0    0    0 -0.00000000000E+00 -0.00000000000E+00 -0.74505805969E-08  0.93827000000E+00  0.93827000000E+00 0.  1.
     999902    2    1    2    0    0  0.12447280639E-01  0.96525651919E-02 -0.17692490557E-01  0.10202417955E+01  0.10199667594E+01 0.  0.
     999903    2    3    3    0    0  0.99604884821E-01  0.65154925149E-01  0.52142414372E-01  0.13144830213E+00  0.19837525144E-01 0.  0.
         14    1    1    2    0    0 -0.12447280639E-01 -0.96525651919E-02  0.17692490557E-01  0.23688204494E-01  0.00000000000E+00 0. -1.
     999901    1    3    3    0    0 -0.87157604183E-01 -0.55502359957E-01 -0.69834904928E-01  0.88879349338E+00  0.88000000000E+00 0.  1.
        -11    1    4    4    0    0  0.41463599440E-01  0.28730838117E-01  0.11632776610E-01  0.51771360327E-01  0.51100000000E-03 0.  1.
         11    1    4    4    0    0  0.58141285382E-01  0.36424087031E-01  0.40509637761E-01  0.79676941799E-01  0.51100000000E-03 0. -1.
</event>
<event>
 8    1  0.1061721E+005  0.1043930E+01  0.7957747E-01            NaN
         13   -1    0    0    0    0  0.00000000000E+00  0.00000000000E+00  0.74505805969E-08  0.10566000000E+00  0.10566000000E+00 0. -1.
     999900   -1    0    0    0    0 -0.00000000000E+00 -0.00000000000E+00 -0.74505805969E-08  0.93827000000E+00  0.93827000000E+00 0.  1.
     999902    2    1    2    0    0 -0.10468560211E-01  0.34245456411E-02  0.21184328857E-01  0.10200533575E+01  0.10197738760E+01 0.  0.
     999903    2    3    3    0    0  0.20683960674E-01 -0.11416805799E+00 -0.51893582590E-01  0.12868425267E+00  0.20112714327E-01 0.  0.
         14    1    1    2    0    0  0.10468560211E-01 -0.34245456411E-02 -0.21184328857E-01  0.23876642453E-01  0.00000000000E+00 0.  1.
     999901    1    3    3    0    0 -0.31152520885E-01  0.11759260363E+00  0.73077911447E-01  0.89136910488E+00  0.88000000000E+00 0.  1.
        -11    1    4    4    0    0  0.19592951862E-01 -0.77213075344E-01 -0.43515754667E-01  0.90772379015E-01  0.51100000000E-03 0. -1.
         11    1    4    4    0    0  0.10910088126E-02 -0.36954982644E-01 -0.83778279232E-02  0.37911873656E-01  0.51100000000E-03 0.  1.
</event>
<event>
 8    1  0.1061721E+005  0.1043930E+01  0.7957747E-01            NaN
         13   -1    0    0    0    0  0.00000000000E+00  0.00000000000E+00  0.74505805969E-08  0.10566000000E+00  0.10566000000E+00 0. -1.
     999900   -1    0    0    0    0 -0.00000000000E+00 -0.00000000000E+00 -0.74505805969E-08  0.93827000000E+00  0.93827000000E+00 0. -1.
     999902    2    1    2    0    0  0.11723770622E-01  0.18666403334E-01 -0.46767841224E-02  0.10213966088E+01  0.10211480200E+01 0.  0.
     999903    2    3    3    0    0  0.11915399481E+00  0.56098253991E-01  0.14228212759E-01  0.13387207647E+00  0.19354643850E-01 0.  0.
         14    1    1    2    0    0 -0.11723770622E-01 -0.18666403334E-01  0.46767841224E-02  0.22533391240E-01  0.00000000000E+00 0.  1.
     999901    1    3    3    0    0 -0.10743022419E+00 -0.37431850657E-01 -0.18904996881E-01  0.88752453229E+00  0.88000000000E+00 0. -1.
        -11    1    4    4    0    0  0.91965968458E-01  0.35205740635E-01  0.63092132617E-02  0.98677509196E-01  0.51100000000E-03 0.  1.
         11    1    4    4    0    0  0.27188026356E-01  0.20892513356E-01  0.79189994968E-02  0.35194567273E-01  0.51100000000E-03 0. -1.
</event>
<event>
 8    1  0.1061721E+005  0.1043930E+01  0.7957747E-01            NaN
         13   -1    0    0    0    0  0.00000000000E+00  0.00000000000E+00  0.74505805969E-08  0.10566000000E+00  0.10566000000E+00 0. -1.
     999900   -1    0    0    0    0 -0.00000000000E+00 -0.00000000000E+00 -0.74505805969E-08  0.93827000000E+00  0.93827000000E+00 0. -1.
     999902    2    1    2    0    0  0.75487248439E-02 -0.16915836242E-01 -0.14634060106E-01  0.10203231265E+01  0.10200499978E+01 0.  0.
     999903    2    3    3    0    0 -0.75145619753E-02  0.78887396623E-02 -0.13031935083E+00  0.13227737535E+00  0.19886426849E-01 0.  0.
         14    1    1    2    0    0 -0.75487248439E-02  0.16915836242E-01  0.14634060106E-01  0.23606873527E-01  0.00000000000E+00 0. -1.
     999901    1    3    3    0    0  0.15063286819E-01 -0.24804575904E-01  0.11568529073E+00  0.88804575112E+00  0.88000000000E+00 0.  1.
        -11    1    4    4    0    0 -0.84906803347E-02  0.13328396406E-01 -0.73153127763E-01  0.74842361172E-01  0.51100000000E-03 0.  1.
         11    1    4    4    0    0  0.97611835947E-03 -0.54396567435E-02 -0.57166223070E-01  0.57435014178E-01  0.51100000000E-03 0. -1.
</event>
<event>
 8    1  0.1061721E+005  0.1043930E+01  0.7957747E-01            NaN
         13   -1    0    0    0    0  0.00000000000E+00  0.00000000000E+00  0.74505805969E-08  0.10566000000E+00  0.10566000000E+00 0.  1.
     999900   -1    0    0    0    0 -0.00000000000E+00 -0.00000000000E+00 -0.74505805969E-08  0.93827000000E+00  0.93827000000E+00 0. -1.
     999902    2    1    2    0    0  0.96773387061E-02 -0.20460922834E-01  0.45770309521E-02  0.10208378052E+01  0.10205765895E+01 0.  0.
     999903    2    3    3    0    0  0.49913476017E-01 -0.50238816602E-01  0.11083896857E+00  0.13303305805E+00  0.19930474100E-01 0.  0.
         14    1    1    2    0    0 -0.96773387061E-02  0.20460922834E-01 -0.45770309521E-02  0.23092194785E-01  0.00000000000E+00 0. -1.
     999901    1    3    3    0    0 -0.40236137311E-01  0.29777893768E-01 -0.10626193762E+00  0.88780474717E+00  0.88000000000E+00 0. -1.
        -11    1    4    4    0    0  0.26106466531E-01 -0.12516348209E-01  0.42961635317E-01  0.51808974100E-01  0.51100000000E-03 0. -1.
         11    1    4    4    0    0  0.23807009486E-01 -0.37722468393E-01  0.67877333257E-01  0.81224083949E-01  0.51100000000E-03 0.  1.
</event>
<event>
 8    1  0.1061721E+005  0.1043930E+01  0.7957747E-01            NaN
         13   -1    0    0    0    0  0.00000000000E+00  0.00000000000E+00  0.74505805969E-08  0.10566000000E+00  0.10566000000E+00 0. -1.
     999900   -1    0    0    0    0 -0.00000000000E+00 -0.00000000000E+00 -0.74505805969E-08  0.93827000000E+00  0.93827000000E+00 0.  1.
     999902    2    1    2    0    0  0.12896356666E-01 -0.13868219587E-01  0.15276788658E-01  0.10195984608E+01  0.10193080974E+01 0.  0.
     999903    2    3    3    0    0 -0.27885855376E-01 -0.75081000122E-01 -0.99249804658E-01  0.12913423695E+00  0.20257095511E-01 0.  0.
         14    1    1    2    0    0 -0.12896356666E-01  0.13868219587E-01 -0.15276788658E-01  0.24331539234E-01  0.00000000000E+00 0. -1.
     999901    1    3    3    0    0  0.40782212043E-01  0.61212780534E-01  0.11452659332E+00  0.89046422382E+00  0.88000000000E+00 0. -1.
        -11    1    4    4    0    0 -0.32752438351E-02 -0.37666524578E-01 -0.46711338990E-01  0.60097459241E-01  0.51100000000E-03 0.  1.
         11    1    4    4    0    0 -0.24610611541E-01 -0.37414475544E-01 -0.52538465669E-01  0.69036777709E-01  0.51100000000E-03 0. -1.
</event>
<event>
 8    1  0.1061721E+005  0.1043930E+01  0.7957747E-01            NaN
         13   -1    0    0    0    0  0.00000000000E+00  0.00000000000E+00  0.74505805969E-08  0.10566000000E+00  0.10566000000E+00 0. -1.
     999900   -1    0    0    0    0 -0.00000000000E+00 -0.00000000000E+00 -0.74505805969E-08  0.93827000000E+00  0.93827000000E+00 0.  1.
     999902    2    1    2    0    0 -0.17336796368E-01 -0.16308348956E-02 -0.25327900150E-02  0.10263334334E+01  0.10261825751E+01 0.  0.
     999903    2    3    3    0    0  0.54774831143E-01 -0.12098254956E+00  0.15381444317E-01  0.13517360576E+00  0.19956338353E-01 0.  0.
         14    1    1    2    0    0  0.17336796368E-01  0.16308348956E-02  0.25327900150E-02  0.17596566598E-01  0.00000000000E+00 0.  1.
     999901    1    3    3    0    0 -0.72111627511E-01  0.11935171466E+00 -0.17914234332E-01  0.89115982764E+00  0.88000000000E+00 0. -1.
        -11    1    4    4    0    0  0.29817099564E-01 -0.88097631449E-01  0.10903217097E-01  0.93645039150E-01  0.51100000000E-03 0.  1.
         11    1    4    4    0    0  0.24957731579E-01 -0.32884918108E-01  0.44782272196E-02  0.41528566608E-01  0.51100000000E-03 0. -1.
</event>
<event>
 8    1  0.1061721E+005  0.1043930E+01  0.7957747E-01            NaN
         13   -1    0    0    0    0  0.00000000000E+00  0.00000000000E+00  0.74505805969E-08  0.10566000000E+00  0.10566000000E+00 0.  1.
     999900   -1    0    0    0    0 -0.00000000000E+00 -0.00000000000E+00 -0.74505805969E-08  0.93827000000E+00  0.93827000000E+00 0. -1.
     999902    2    1    2    0    0 -0.24346855719E-01 -0.33876136118E-03  0.30808193320E-02  0.10193866589E+01  0.10190911563E+01 0.  0.
     999903    2    3    3    0    0  0.21202593525E-01  0.60661901038E-01 -0.11005069098E+00  0.12888423235E+00  0.19250313060E-01 0.  0.
         14    1    1    2    0    0  0.24346855719E-01  0.33876136118E-03 -0.30808193320E-02  0.24543341060E-01  0.00000000000E+00 0. -1.
     999901    1    3    3    0    0 -0.45549449243E-01 -0.61000662399E-01  0.11313151031E+00  0.89050242659E+00  0.88000000000E+00 0.  1.
        -11    1    4    4    0    0 -0.96406772890E-04  0.18285161790E-01 -0.43230247681E-01  0.46941153283E-01  0.51100000000E-03 0. -1.
         11    1    4    4    0    0  0.21299000297E-01  0.42376739248E-01 -0.66820443300E-01  0.81943079066E-01  0.51100000000E-03 0.  1.
</event>
<event>
 8    1  0.1061721E+005  0.1043930E+01  0.7957747E-01            NaN
         13   -1    0    0    0    0  0.00000000000E+00  0.00000000000E+00  0.74505805969E-08  0.10566000000E+00  0.10566000000E+00 0.  1.
     999900   -1    0    0    0    0 -0.00000000000E+00 -0.00000000000E+00 -0.74505805969E-08  0.93827000000E+00  0.93827000000E+00 0. -1.
     999902    2    1    2    0    0  0.10038200302E-01 -0.18782969825E-02  0.20584397876E-01  0.10209515122E+01  0.10206928918E+01 0.  0.
     999903    2    3    3    0    0  0.78720989556E-01 -0.28804759239E-01  0.10259647045E+00  0.13406463107E+00  0.20508076516E-01 0.  0.
         14    1    1    2    0    0 -0.10038200302E-01  0.18782969825E-02 -0.20584397876E-01  0.22978487783E-01  0.00000000000E+00 0. -1.
     999901    1    3    3    0    0 -0.68682789254E-01  0.26926462256E-01 -0.82012072575E-01  0.88688688115E+00  0.88000000000E+00 0.  1.
        -11    1    4    4    0    0  0.48159180150E-01 -0.89555368537E-02  0.68043852316E-01  0.83843516339E-01  0.51100000000E-03 0.  1.
         11    1    4    4    0    0  0.30561809406E-01 -0.19849222385E-01  0.34552618135E-01  0.50221114727E-01  0.51100000000E-03 0. -1.
</event>
<event>
 8    1  0.1061721E+005  0.1043930E+01  0.7957747E-01            NaN
         13   -1    0    0    0    0  0.00000000000E+00  0.00000000000E+00  0.74505805969E-08  0.10566000000E+00  0.10566000000E+00 0.  1.
     999900   -1    0    0    0    0 -0.00000000000E+00 -0.00000000000E+00 -0.74505805969E-08  0.93827000000E+00  0.93827000000E+00 0. -1.
     999902    2    1    2    0    0  0.13074443561E-01  0.48143351692E-02  0.18406096638E-01  0.10208453018E+01  0.10205842576E+01 0.  0.
     999903    2    3    3    0    0 -0.30840449973E-01  0.85341016614E-01 -0.88941424394E-01  0.12958969617E+00  0.25469391596E-01 0.  0.
         14    1    1    2    0    0 -0.13074443561E-01 -0.48143351692E-02 -0.18406096638E-01  0.23084698200E-01  0.00000000000E+00 0.  1.
     999901    1    3    3    0    0  0.43914893534E-01 -0.80526681445E-01  0.10734752103E+00  0.89125560563E+00  0.88000000000E+00 0.  1.
        -11    1    4    4    0    0 -0.31881442193E-01  0.62315672037E-01 -0.57421110483E-01  0.90537916852E-01  0.51100000000E-03 0.  1.
         11    1    4    4    0    0  0.10409922200E-02  0.23025344577E-01 -0.31520313911E-01  0.39051779316E-01  0.51100000000E-03 0. -1.
</event>
<event>
 8    1  0.1061721E+005  0.1043930E+01  0.7957747E-01            NaN
         13   -1    0    0    0    0  0.00000000000E+00  0.00000000000E+00  0.74505805969E-08  0.10566000000E+00  0.10566000000E+00 0.  1.
     999900   -1    0    0    0    0 -0.00000000000E+00 -0.00000000000E+00 -0.74505805969E-08  0.93827000000E+00  0.93827000000E+00 0.  1.
     999902    2    1    2    0    0 -0.15181788178E-01  0.17033292899E-01 -0.68245593245E-03  0.10211027026E+01  0.10208475125E+01 0.  0.
     999903    2    3    3    0    0 -0.13088586037E+00  0.13761898326E-01 -0.44951290901E-02  0.13351458259E+00  0.22032686827E-01 0.  0.
         14    1    1    2    0    0  0.15181788178E-01 -0.17033292899E-01  0.68245593245E-03  0.22827297373E-01  0.00000000000E+00 0. -1.
     999901    1    3    3    0    0  0.11570407219E+00  0.32713945729E-02  0.38126731576E-02  0.88758812003E+00  0.88000000000E+00 0. -1.
        -11    1    4    4    0    0 -0.10776353115E+00  0.41808023321E-02  0.11502546103E-02  0.10785194463E+00  0.51100000000E-03 0. -1.
         11    1    4    4    0    0 -0.23122329225E-01  0.95810959939E-02 -0.56453837003E-02  0.25662637966E-01  0.51100000000E-03 0.  1.
</event>
<event>
 8    1  0.1061721E+005  0.1043930E+01  0.7957747E-01            NaN
         13   -1    0    0    0    0  0.00000000000E+00  0.00000000000E+00  0.74505805969E-08  0.10566000000E+00  0.10566000000E+00 0. -1.
     999900   -1    0    0    0    0 -0.00000000000E+00 -0.00000000000E+00 -0.74505805969E-08  0.93827000000E+00  0.93827000000E+00 0. -1.
     999902    2    1    2    0    0 -0.20192283805E-01 -0.94230552792E-02 -0.73737265055E-02  0.10204588658E+01  0.10201889054E+01 0.  0.
     999903    2    3    3    0    0  0.47526859459E-01  0.81651675671E-01  0.83999605796E-01  0.12847816267E+00  0.22910827102E-01 0.  0.
         14    1    1    2    0    0  0.20192283805E-01  0.94230552792E-02  0.73737265055E-02  0.23471134157E-01  0.00000000000E+00 0.  1.
     999901    1    3    3    0    0 -0.67719143264E-01 -0.91074730950E-01 -0.91373332301E-01  0.89198070318E+00  0.88000000000E+00 0. -1.
        -11    1    4    4    0    0  0.22629162288E-01  0.30933175221E-01  0.48225796613E-01  0.61602994205E-01  0.51100000000E-03 0.  1.
         11    1    4    4    0    0  0.24897697171E-01  0.50718500450E-01  0.35773809183E-01  0.66875168462E-01  0.51100000000E-03 0. -1.
</event>
<event>
 8    1  0.1061721E+005  0.1043930E+01  0.7957747E-01            NaN
         13   -1    0    0    0    0  0.00000000000E+00  0.00000000000E+00  0.74505805969E-08  0.10566000000E+00  0.10566000000E+00 0.  1.
     999900   -1    0    0    0    0 -0.00000000000E+00 -0.00000000000E+00 -0.74505805969E-08  0.93827000000E+00  0.93827000000E+00 0.  1.
     999902    2    1    2    0    0  0.69255276576E-02  0.89697284654E-02 -0.21147491222E-01  0.10199375981E+01  0.10196553676E+01 0.  0.
     999903    2    3    3    0    0  0.39657448870E-03  0.23804114742E-01 -0.12959885759E+00  0.13313187809E+00  0.19011573436E-01 0.  0.
         14    1    1    2    0    0 -0.69255276576E-02 -0.89697284654E-02  0.21147491222E-01  0.23992401861E-01  0.00000000000E+00 0.  1.
     999901    1    3    3    0    0  0.65289531690E-02 -0.14834386277E-01  0.10845136637E+00  0.88680572005E+00  0.88000000000E+00 0. -1.
        -11    1    4    4    0    0 -0.11658398010E-02 -0.18928487696E-02 -0.35509630294E-01  0.35582819218E-01  0.51100000000E-03 0. -1.
         11    1    4    4    0    0  0.15624142897E-02  0.25696963512E-01 -0.94089227297E-01  0.97549058871E-01  0.51100000000E-03 0.  1.
</event>
<event>
 8    1  0.1061721E+005  0.1043930E+01  0.7957747E-01            NaN
         13   -1    0    0    0    0  0.00000000000E+00  0.00000000000E+00  0.74505805969E-08  0.10566000000E+00  0.10566000000E+00 0.  1.
     999900   -1    0    0    0    0 -0.00000000000E+00 -0.00000000000E+00 -0.74505805969E-08  0.93827000000E+00  0.93827000000E+00 0. -1.
     999902    2    1    2    0    0  0.94486364905E-03 -0.22012740862E-01 -0.83118548991E-02  0.10203813172E+01  0.10201095491E+01 0.  0.
     999903    2    3    3    0    0  0.11240696876E-01  0.76144890808E-01  0.10042444647E+00  0.12821288692E+00  0.20714180214E-01 0.  0.
         14    1    1    2    0    0 -0.94486364905E-03  0.22012740862E-01  0.83118548991E-02  0.23548682754E-01  0.00000000000E+00 0. -1.
     999901    1    3    3    0    0 -0.10295833227E-01 -0.98157631670E-01 -0.10873630136E+00  0.89216843033E+00  0.88000000000E+00 0. -1.
        -11    1    4    4    0    0 -0.46235692202E-02  0.39160629435E-01  0.51350329037E-01  0.64746040058E-01  0.51100000000E-03 0.  1.
         11    1    4    4    0    0  0.15864266097E-01  0.36984261373E-01  0.49074117429E-01  0.63466846861E-01  0.51100000000E-03 0. -1.
</event>
<event>
 8    1  0.1061721E+005  0.1043930E+01  0.7957747E-01            NaN
         13   -1    0    0    0    0  0.00000000000E+00  0.00000000000E+00  0.74505805969E-08  0.10566000000E+00  0.10566000000E+00 0.  1.
     999900   -1    0    0    0    0 -0.00000000000E+00 -0.00000000000E+00 -0.74505805969E-08  0.93827000000E+00  0.93827000000E+00 0.  1.
     999902    2    1    2    0    0 -0.19172033057E-01 -0.14278113272E-01  0.14613420655E-01  0.10159124442E+01  0.10155260267E+01 0.  0.
     999903    2    3    3    0    0  0.81089106505E-01 -0.82624210647E-01 -0.44156723985E-01  0.12564427390E+00  0.20843797937E-01 0.  0.
         14    1    1    2    0    0  0.19172033057E-01  0.14278113272E-01 -0.14613420655E-01  0.28017555807E-01  0.00000000000E+00 0.  1.
     999901    1    3    3    0    0 -0.10026113956E+00  0.68346097374E-01  0.58770144640E-01  0.89026817029E+00  0.88000000000E+00 0. -1.
        -11    1    4    4    0    0  0.52410834469E-01 -0.51530818687E-01 -0.17216300876E-01  0.75491608680E-01  0.51100000000E-03 0.  1.
         11    1    4    4    0    0  0.28678272036E-01 -0.31093391960E-01 -0.26940423109E-01  0.50152665222E-01  0.51100000000E-03 0. -1.
</event>
<event>
 8    1  0.1061721E+005  0.1043930E+01  0.7957747E-01            NaN
         13   -1    0    0    0    0  0.00000000000E+00  0.00000000000E+00  0.74505805969E-08  0.10566000000E+00  0.10566000000E+00 0. -1.
     999900   -1    0    0    0    0 -0.00000000000E+00 -0.00000000000E+00 -0.74505805969E-08  0.93827000000E+00  0.93827000000E+00 0.  1.
     999902    2    1    2    0    0 -0.18078759115E-01  0.77831321278E-03  0.13874883858E-01  0.10211273750E+01  0.10208727425E+01 0.  0.
     999903    2    3    3    0    0  0.94407826602E-01  0.62771253657E-01  0.60565657319E-01  0.13057901311E+00  0.23013296335E-01 0.  0.
         14    1    1    2    0    0  0.18078759115E-01 -0.77831321278E-03 -0.13874883858E-01  0.22802624951E-01  0.00000000000E+00 0. -1.
     999901    1    3    3    0    0 -0.11248658572E+00 -0.61992940444E-01 -0.46690773461E-01  0.89054836194E+00  0.88000000000E+00 0. -1.
        -11    1    4    4    0    0  0.60361260396E-01  0.50137574661E-01  0.33682650673E-01  0.85393443700E-01  0.51100000000E-03 0. -1.
         11    1    4    4    0    0  0.34046566205E-01  0.12633678996E-01  0.26883006646E-01  0.45185569407E-01  0.51100000000E-03 0.  1.
</event>
<event>
 8    1  0.1061721E+005  0.1043930E+01  0.7957747E-01            NaN
         13   -1    0    0    0    0  0.00000000000E+00  0.00000000000E+00  0.74505805969E-08  0.10566000000E+00  0.10566000000E+00 0. -1.
     999900   -1    0    0    0    0 -0.00000000000E+00 -0.00000000000E+00 -0.74505805969E-08  0.93827000000E+00  0.93827000000E+00 0.  1.
     999902    2    1    2    0    0 -0.66182860606E-03  0.21706594708E-01 -0.46523761963E-02  0.10217205679E+01  0.10214791530E+01 0.  0.
     999903    2    3    3    0    0 -0.51883685249E-01 -0.56267041897E-01 -0.10467038770E+00  0.13115492222E+00  0.19693317705E-01 0.  0.
         14    1    1    2    0    0  0.66182860606E-03 -0.21706594708E-01  0.46523761963E-02  0.22209432123E-01  0.00000000000E+00 0. -1.
     999901    1    3    3    0    0  0.51221856643E-01  0.77973636606E-01  0.10001801150E+00  0.89056564566E+00  0.88000000000E+00 0. -1.
        -11    1    4    4    0    0 -0.14025711983E-01 -0.16444875862E-01 -0.45678137151E-01  0.50536203590E-01  0.51100000000E-03 0. -1.
         11    1    4    4    0    0 -0.37857973266E-01 -0.39822166035E-01 -0.58992250548E-01  0.80618718628E-01  0.51100000000E-03 0.  1.
</event>
<event>
 8    1  0.1061721E+005  0.1043930E+01  0.7957747E-01            NaN
         13   -1    0    0    0    0  0.00000000000E+00  0.00000000000E+00  0.74505805969E-08  0.10566000000E+00  0.10566000000E+00 0.  1.
     999900   -1    0    0    0    0 -0.00000000000E+00 -0.00000000000E+00 -0.74505805969E-08  0.93827000000E+00  0.93827000000E+00 0. -1.
     999902    2    1    2    0    0 -0.16968036582E-01  0.31931865487E-02  0.55200851977E-03  0.10266552954E+01  0.10265099513E+01 0.  0.
     999903    2    3    3    0    0  0.99331423820E-01  0.73314004633E-01 -0.49798614522E-01  0.13481580375E+00  0.21300795730E-01 0.  0.
         14    1    1    2    0    0  0.16968036582E-01 -0.31931865487E-02 -0.55200851977E-03  0.17274704605E-01  0.00000000000E+00 0.  1.
     999901    1    3    3    0    0 -0.11629946040E+00 -0.70120818085E-01  0.50350623041E-01  0.89183949165E+00  0.88000000000E+00 0.  1.
        -11    1    4    4    0    0  0.30177428785E-01  0.28501134009E-01 -0.26234368414E-01  0.49106975624E-01  0.51100000000E-03 0. -1.
         11    1    4    4    0    0  0.69153995035E-01  0.44812870625E-01 -0.23564246107E-01  0.85708828125E-01  0.51100000000E-03 0.  1.
</event>
<event>
 8    1  0.1061721E+005  0.1043930E+01  0.7957747E-01            NaN
         13   -1    0    0    0    0  0.00000000000E+00  0.00000000000E+00  0.74505805969E-08  0.10566000000E+00  0.10566000000E+00 0. -1.
     999900   -1    0    0    0    0 -0.00000000000E+00 -0.00000000000E+00 -0.74505805969E-08  0.93827000000E+00  0.93827000000E+00 0. -1.
     999902    2    1    2    0    0  0.58848304473E-02  0.98451302306E-02  0.20893404758E-01  0.10200953156E+01  0.10198168270E+01 0.  0.
     999903    2    3    3    0    0 -0.11327508099E-01 -0.11455093669E+00  0.57971041291E-01  0.13040694476E+00  0.19877124445E-01 0.  0.
         14    1    1    2    0    0 -0.58848304473E-02 -0.98451302306E-02 -0.20893404758E-01  0.23834684413E-01  0.00000000000E+00 0.  1.
     999901    1    3    3    0    0  0.17212338547E-01  0.12439606692E+00 -0.37077636533E-01  0.88968837083E+00  0.88000000000E+00 0. -1.
        -11    1    4    4    0    0 -0.15592684749E-01 -0.63101551786E-01  0.28671416253E-01  0.71043992613E-01  0.51100000000E-03 0. -1.
         11    1    4    4    0    0  0.42651766495E-02 -0.51449384902E-01  0.29299625039E-01  0.59362952142E-01  0.51100000000E-03 0.  1.
</event>
<event>
 8    1  0.1061721E+005  0.1043930E+01  0.7957747E-01            NaN
         13   -1    0    0    0    0  0.00000000000E+00  0.00000000000E+00  0.74505805969E-08  0.10566000000E+00  0.10566000000E+00 0.  1.
     999900   -1    0    0    0    0 -0.00000000000E+00 -0.00000000000E+00 -0.74505805969E-08  0.93827000000E+00  0.93827000000E+00 0.  1.
     999902    2    1    2    0    0  0.65431974392E-02 -0.94435686037E-02  0.19813188414E-01  0.10210267938E+01  0.10207698843E+01 0.  0.
     999903    2    3    3    0    0  0.69075726443E-01 -0.44658642171E-01  0.10397146180E+00  0.13410344106E+00  0.20194497587E-01 0.  0.
         14    1    1    2    0    0 -0.65431974392E-02  0.94435686037E-02 -0.19813188414E-01  0.22903206235E-01  0.00000000000E+00 0. -1.
     999901    1    3    3    0    0 -0.62532529004E-01  0.35215073567E-01 -0.84158273381E-01  0.88692335270E+00  0.88000000000E+00 0.  1.
        -11    1    4    4    0    0  0.31184184155E-01 -0.31387069437E-01  0.60104036861E-01  0.74634829921E-01  0.51100000000E-03 0. -1.
         11    1    4    4    0    0  0.37891542288E-01 -0.13271572733E-01  0.43867424934E-01  0.59468611142E-01  0.51100000000E-03 0.  1.
</event>
<event>
 8    1  0.1061721E+005  0.1043930E+01  0.7957747E-01            NaN
         13   -1    0    0    0    0  0.00000000000E+00  0.00000000000E+00  0.74505805969E-08  0.10566000000E+00  0.10566000000E+00 0. -1.
     999900   -1    0    0    0    0 -0.00000000000E+00 -0.00000000000E+00 -0.74505805969E-08  0.93827000000E+00  0.93827000000E+00 0.  1.
     999902    2    1    2    0    0  0.32148624769E-02 -0.20289974656E-01 -0.12163148031E-01  0.10200561528E+01  0.10197767374E+01 0.  0.
     999903    2    3    3    0    0 -0.57434584363E-01  0.94878073601E-01  0.59807787901E-01  0.12757542447E+00  0.19948360930E-01 0.  0.
         14    1    1    2    0    0 -0.32148624769E-02  0.20289974656E-01  0.12163148031E-01  0.23873847245E-01  0.00000000000E+00 0. -1.
     999901    1    3    3    0    0  0.60649446840E-01 -0.11516804826E+00 -0.71970935932E-01  0.89248072829E+00  0.88000000000E+00 0. -1.
        -11    1    4    4    0    0 -0.91799691240E-02  0.12533411045E-01  0.16805614994E-01  0.22892095620E-01  0.51100000000E-03 0.  1.
         11    1    4    4    0    0 -0.48254615239E-01  0.82344662556E-01  0.43002172907E-01  0.10468332885E+00  0.51100000000E-03 0. -1.
</event>
<event>
 8    1  0.1061721E+005  0.1043930E+01  0.7957747E-01            NaN
         13   -1    0    0    0    0  0.00000000000E+00  0.00000000000E+00  0.74505805969E-08  0.10566000000E+00  0.10566000000E+00 0. -1.
     999900   -1    0    0    0    0 -0.00000000000E+00 -0.00000000000E+00 -0.74505805969E-08  0.93827000000E+00  0.93827000000E+00 0.  1.
     999902    2    1    2    0    0  0.19411433375E-01 -0.51689383771E-02  0.13169778387E-01  0.10199099098E+01  0.10196270198E+01 0.  0.
     999903    2    3    3    0    0 -0.12010499722E+00  0.29164763977E-01 -0.24184612048E-01  0.12747560523E+00  0.19731716925E-01 0.  0.
         14    1    1    2    0    0 -0.19411433375E-01  0.51689383771E-02 -0.13169778387E-01  0.24020090183E-01  0.00000000000E+00 0. -1.
     999901    1    3    3    0    0  0.13951643060E+00 -0.34333702354E-01  0.37354390435E-01  0.89243430459E+00  0.88000000000E+00 0.  1.
        -11    1    4    4    0    0 -0.30641516281E-01  0.11759232919E-01 -0.14281877892E-01  0.35796860700E-01  0.51100000000E-03 0. -1.
         11    1    4    4    0    0 -0.89463480941E-01  0.17405531058E-01 -0.99027341562E-02  0.91678744528E-01  0.51100000000E-03 0.  1.
</event>
<event>
 8    1  0.1061721E+005  0.1043930E+01  0.7957747E-01            NaN
         13   -1    0    0    0    0  0.00000000000E+00  0.00000000000E+00  0.74505805969E-08  0.10566000000E+00  0.10566000000E+00 0.  1.
     999900   -1    0    0    0    0 -0.00000000000E+00 -0.00000000000E+00 -0.74505805969E-08  0.93827000000E+00  0.93827000000E+00 0. -1.
     999902    2    1    2    0    0  0.16586776363E-01 -0.15800832465E-01 -0.17591197676E-02  0.10209543181E+01  0.10206957616E+01 0.  0.
     999903    2    3    3    0    0 -0.51541129552E-01 -0.67805085881E-01  0.97868949699E-01  0.13119502134E+00  0.19488063060E-01 0.  0.
         14    1    1    2    0    0 -0.16586776363E-01  0.15800832465E-01  0.17591197676E-02  0.22975681906E-01  0.00000000000E+00 0. -1.
     999901    1    3    3    0    0  0.68127905915E-01  0.52004253416E-01 -0.99628069466E-01  0.88975929676E+00  0.88000000000E+00 0. -1.
        -11    1    4    4    0    0 -0.53046253638E-01 -0.63558693308E-01  0.91756926256E-01  0.12358481766E+00  0.51100000000E-03 0. -1.
         11    1    4    4    0    0  0.15051240855E-02 -0.42463925729E-02  0.61120234430E-02  0.76102036743E-02  0.51100000000E-03 0.  1.
</event>
<event>
 8    1  0.1061721E+005  0.1043930E+01  0.7957747E-01            NaN
         13   -1    0    0    0    0  0.00000000000E+00  0.00000000000E+00  0.74505805969E-08  0.10566000000E+00  0.10566000000E+00 0. -1.
     999900   -1    0    0    0    0 -0.00000000000E+00 -0.00000000000E+00 -0.74505805969E-08  0.93827000000E+00  0.93827000000E+00 0.  1.
     999902    2    1    2    0    0  0.14969175338E-01 -0.13984161647E-01  0.10100619844E-01  0.10210902209E+01  0.10208347485E+01 0.  0.
     999903    2    3    3    0    0  0.10866357463E+00 -0.60038623243E-01  0.44153347974E-01  0.13426484792E+00  0.25789969337E-01 0.  0.
         14    1    1    2    0    0 -0.14969175338E-01  0.13984161647E-01 -0.10100619844E-01  0.22839779082E-01  0.00000000000E+00 0. -1.
     999901    1    3    3    0    0 -0.93694399293E-01  0.46054461596E-01 -0.34052728131E-01  0.88682537299E+00  0.88000000000E+00 0. -1.
        -11    1    4    4    0    0  0.12645680208E-01  0.14443911650E-02  0.34077545853E-02  0.13186106555E-01  0.51100000000E-03 0.  1.
         11    1    4    4    0    0  0.96017894423E-01 -0.61483014408E-01  0.40745593389E-01  0.12107874137E+00  0.51100000000E-03 0. -1.
</event>
<event>
 8    1  0.1061721E+005  0.1043930E+01  0.7957747E-01            NaN
         13   -1    0    0    0    0  0.00000000000E+00  0.00000000000E+00  0.74505805969E-08  0.10566000000E+00  0.10566000000E+00 0.  1.
     999900   -1    0    0    0    0 -0.00000000000E+00 -0.00000000000E+00 -0.74505805969E-08  0.93827000000E+00  0.93827000000E+00 0.  1.
     999902    2    1    2    0    0  0.44999492825E-02  0.12293271752E-01  0.19848091146E-01  0.10201535243E+01  0.10198764103E+01 0.  0.
     999903    2    3    3    0    0  0.11108725329E+00  0.54901572987E-01 -0.36758008785E-01  0.13089508536E+00  0.20683607025E-01 0.  0.
         14    1    1    2    0    0 -0.44999492825E-02 -0.12293271752E-01 -0.19848091146E-01  0.23776475686E-01  0.00000000000E+00 0. -1.
     999901    1    3    3    0    0 -0.10658730401E+00 -0.42608301235E-01  0.56606099931E-01  0.88925843896E+00  0.88000000000E+00 0.  1.
        -11    1    4    4    0    0  0.39066748093E-01  0.10181194612E-01 -0.17233019587E-01  0.43898811093E-01  0.51100000000E-03 0. -1.
         11    1    4    4    0    0  0.72020505200E-01  0.44720378375E-01 -0.19524989198E-01  0.86996274262E-01  0.51100000000E-03 0.  1.
</event>
<event>
 8    1  0.1061721E+005  0.1043930E+01  0.7957747E-01            NaN
         13   -1    0    0    0    0  0.00000000000E+00  0.00000000000E+00  0.74505805969E-08  0.10566000000E+00  0.10566000000E+00 0.  1.
     999900   -1    0    0    0    0 -0.00000000000E+00 -0.00000000000E+00 -0.74505805969E-08  0.93827000000E+00  0.93827000000E+00 0. -1.
     999902    2    1    2    0    0  0.15917937129E-01 -0.18404246765E-01 -0.19389518264E-02  0.10195198268E+01  0.10192275608E+01 0.  0.
     999903    2    3    3    0    0 -0.12511448162E-01  0.11569897671E+00  0.48211784083E-01  0.12749572353E+00  0.19697559431E-01 0.  0.
         14    1    1    2    0    0 -0.15917937129E-01  0.18404246765E-01  0.19389518264E-02  0.24410173199E-01  0.00000000000E+00 0.  1.
     999901    1    3    3    0    0  0.28429385291E-01 -0.13410322348E+00 -0.50150735910E-01  0.89202410327E+00  0.88000000000E+00 0.  1.
        -11    1    4    4    0    0 -0.53305385662E-02  0.54579012343E-01  0.12166842502E-01  0.56174517419E-01  0.51100000000E-03 0. -1.
         11    1    4    4    0    0 -0.71809095962E-02  0.61119964370E-01  0.36044941582E-01  0.71321206116E-01  0.51100000000E-03 0.  1.
</event>
<event>
 8    1  0.1061721E+005  0.1043930E+01  0.7957747E-01            NaN
         13   -1    0    0    0    0  0.00000000000E+00  0.00000000000E+00  0.74505805969E-08  0.10566000000E+00  0.10566000000E+00 0. -1.
     999900   -1    0    0    0    0 -0.00000000000E+00 -0.00000000000E+00 -0.74505805969E-08  0.93827000000E+00  0.93827000000E+00 0. -1.
     999902    2    1    2    0    0  0.57061105070E-02 -0.17676983610E-01 -0.19101993774E-01  0.10172856458E+01  0.10169366566E+01 0.  0.
     999903    2    3    3    0    0 -0.37671001859E-01 -0.47516026938E-01  0.10881498832E+00  0.12648000103E+00  0.21900040652E-01 0.  0.
         14    1    1    2    0    0 -0.57061105070E-02  0.17676983610E-01  0.19101993774E-01  0.26644354239E-01  0.00000000000E+00 0. -1.
     999901    1    3    3    0    0  0.43377112366E-01  0.29839043328E-01 -0.12791698209E+00  0.89080564473E+00  0.88000000000E+00 0. -1.
        -11    1    4    4    0    0 -0.36338972565E-01 -0.38812800259E-01  0.77789702822E-01  0.94225545248E-01  0.51100000000E-03 0. -1.
         11    1    4    4    0    0 -0.13320292940E-02 -0.87032266787E-02  0.31025285493E-01  0.32254455779E-01  0.51100000000E-03 0.  1.
</event>
<event>
 8    1  0.1061721E+005  0.1043930E+01  0.7957747E-01            NaN
         13   -1    0    0    0    0  0.00000000000E+00  0.00000000000E+00  0.74505805969E-08  0.10566000000E+00  0.10566000000E+00 0. -1.
     999900   -1    0    0    0    0 -0.00000000000E+00 -0.00000000000E+00 -0.74505805969E-08  0.93827000000E+00  0.93827000000E+00 0. -1.
     999902    2    1    2    0    0  0.81377541248E-02 -0.14983378650E-01  0.16243679280E-01  0.10203804396E+01  0.10201086510E+01 0.  0.
     999903    2    3    3    0    0  0.84923389543E-01 -0.13730453828E-01  0.98631422801E-01  0.13320213515E+00  0.24781924671E-01 0.  0.
         14    1    1    2    0    0 -0.81377541248E-02  0.14983378650E-01 -0.16243679280E-01  0.23549560389E-01  0.00000000000E+00 0.  1.
     999901    1    3    3    0    0 -0.76785635418E-01 -0.12529248215E-02 -0.82387743521E-01  0.88717830446E+00  0.88000000000E+00 0. -1.
        -11    1    4    4    0    0  0.48807821262E-01 -0.43211211860E-03  0.40210801609E-01  0.63242073213E-01  0.51100000000E-03 0.  1.
         11    1    4    4    0    0  0.36115568281E-01 -0.13298341710E-01  0.58420621192E-01  0.69960061935E-01  0.51100000000E-03 0. -1.
</event>
<event>
 8    1  0.1061721E+005  0.1043930E+01  0.7957747E-01            NaN
         13   -1    0    0    0    0  0.00000000000E+00  0.00000000000E+00  0.74505805969E-08  0.10566000000E+00  0.10566000000E+00 0. -1.
     999900   -1    0    0    0    0 -0.00000000000E+00 -0.00000000000E+00 -0.74505805969E-08  0.93827000000E+00  0.93827000000E+00 0. -1.
     999902    2    1    2    0    0 -0.89305770653E-02  0.36772655126E-02  0.20552613618E-01  0.10212212481E+01  0.10209687312E+01 0.  0.
     999903    2    3    3    0    0 -0.41691617638E-01  0.57072571951E-01  0.11244511400E+00  0.13422148698E+00  0.19391607809E-01 0.  0.
         14    1    1    2    0    0  0.89305770653E-02 -0.36772655126E-02 -0.20552613618E-01  0.22708751945E-01  0.00000000000E+00 0.  1.
     999901    1    3    3    0    0  0.32761040572E-01 -0.53395306439E-01 -0.91892500381E-01  0.88699976108E+00  0.88000000000E+00 0. -1.
        -11    1    4    4    0    0 -0.26517449069E-01  0.33411319047E-01  0.84091563105E-01  0.94292860027E-01  0.51100000000E-03 0.  1.
         11    1    4    4    0    0 -0.15174168569E-01  0.23661252904E-01  0.28353550894E-01  0.39928626949E-01  0.51100000000E-03 0. -1.
</event>
<event>
 8    1  0.1061721E+005  0.1043930E+01  0.7957747E-01            NaN
         13   -1    0    0    0    0  0.00000000000E+00  0.00000000000E+00  0.74505805969E-08  0.10566000000E+00  0.10566000000E+00 0. -1.
     999900   -1    0    0    0    0 -0.00000000000E+00 -0.00000000000E+00 -0.74505805969E-08  0.93827000000E+00  0.93827000000E+00 0. -1.
     999902    2    1    2    0    0 -0.70515212637E-04 -0.36094629404E-02 -0.22975591278E-01  0.10206725068E+01  0.10204074947E+01 0.  0.
     999903    2    3    3    0    0  0.51861866345E-01  0.80398964181E-01  0.83743245201E-01  0.12874016736E+00  0.20185463927E-01 0.  0.
         14    1    1    2    0    0  0.70515212637E-04  0.36094629404E-02  0.22975591278E-01  0.23257493194E-01  0.00000000000E+00 0. -1.
     999901    1    3    3    0    0 -0.51932381558E-01 -0.84008427122E-01 -0.10671883648E+00  0.89193233944E+00  0.88000000000E+00 0.  1.
        -11    1    4    4    0    0  0.28258718657E-01  0.34522854234E-01  0.50390246833E-01  0.67303942986E-01  0.51100000000E-03 0.  1.
         11    1    4    4    0    0  0.23603147689E-01  0.45876109947E-01  0.33352998368E-01  0.61436224378E-01  0.51100000000E-03 0. -1.
</event>
<event>
 8    1  0.1061721E+005  0.1043930E+01  0.7957747E-01            NaN
         13   -1    0    0    0    0  0.00000000000E+00  0.00000000000E+00  0.74505805969E-08  0.10566000000E+00  0.10566000000E+00 0.  1.
     999900   -1    0    0    0    0 -0.00000000000E+00 -0.00000000000E+00 -0.74505805969E-08  0.93827000000E+00  0.93827000000E+00 0. -1.
     999902    2    1    2    0    0  0.18327593653E-01 -0.13448869876E-01 -0.49121237402E-02  0.10206727055E+01  0.10204076979E+01 0.  0.
     999903    2    3    3    0    0 -0.27552543674E-01 -0.12700677460E+00  0.13665586407E-01  0.13199643366E+00  0.18613081163E-01 0.  0.
         14    1    1    2    0    0 -0.18327593653E-01  0.13448869876E-01  0.49121237402E-02  0.23257294548E-01  0.00000000000E+00 0.  1.
     999901    1    3    3    0    0  0.45880137327E-01  0.11355790472E+00 -0.18577710147E-01  0.88867627179E+00  0.88000000000E+00 0. -1.
        -11    1    4    4    0    0 -0.22205742962E-01 -0.95550212653E-01  0.23122180996E-02  0.98125152902E-01  0.51100000000E-03 0.  1.
         11    1    4    4    0    0 -0.53468007121E-02 -0.31456561948E-01  0.11353368307E-01  0.33871280761E-01  0.51100000000E-03 0. -1.
</event>
<event>
 8    1  0.1061721E+005  0.1043930E+01  0.7957747E-01            NaN
         13   -1    0    0    0    0  0.00000000000E+00  0.00000000000E+00  0.74505805969E-08  0.10566000000E+00  0.10566000000E+00 0.  1.
     999900   -1    0    0    0    0 -0.00000000000E+00 -0.00000000000E+00 -0.74505805969E-08  0.93827000000E+00  0.93827000000E+00 0.  1.
     999902    2    1    2    0    0  0.10486992297E-01 -0.12676688888E-01 -0.14578955085E-01  0.10219477030E+01  0.10217112539E+01 0.  0.
     999903    2    3    3    0    0  0.61987332606E-01 -0.97289617129E-01 -0.66822069210E-01  0.13485076602E+00  0.20293869979E-01 0.  0.
         14    1    1    2    0    0 -0.10486992297E-01  0.12676688888E-01  0.14578955085E-01  0.21982296968E-01  0.00000000000E+00 0.  1.
     999901    1    3    3    0    0 -0.51500340309E-01  0.84612928240E-01  0.52243114125E-01  0.88709693701E+00  0.88000000000E+00 0. -1.
        -11    1    4    4    0    0  0.40261726113E-01 -0.78911834615E-01 -0.52675536968E-01  0.10306821793E+00  0.51100000000E-03 0. -1.
         11    1    4    4    0    0  0.21725606494E-01 -0.18377782514E-01 -0.14146532242E-01  0.31782548090E-01  0.51100000000E-03 0.  1.
</event>
<event>
 8    1  0.1061721E+005  0.1043930E+01  0.7957747E-01            NaN
         13   -1    0    0    0    0  0.00000000000E+00  0.00000000000E+00  0.74505805969E-08  0.10566000000E+00  0.10566000000E+00 0.  1.
     999900   -1    0    0    0    0 -0.00000000000E+00 -0.00000000000E+00 -0.74505805969E-08  0.93827000000E+00  0.93827000000E+00 0. -1.
     999902    2    1    2    0    0 -0.18360051411E-01  0.43232217999E-02  0.17706916584E-01  0.10180588456E+01  0.10177300705E+01 0.  0.
     999903    2    3    3    0    0  0.20640236018E-01  0.63835901600E-01 -0.10535203046E+00  0.12665193184E+00  0.20990946644E-01 0.  0.
         14    1    1    2    0    0  0.18360051411E-01 -0.43232217999E-02 -0.17706916584E-01  0.25871154389E-01  0.00000000000E+00 0. -1.
     999901    1    3    3    0    0 -0.39000287429E-01 -0.59512679801E-01  0.12305894704E+00  0.89140691377E+00  0.88000000000E+00 0.  1.
        -11    1    4    4    0    0  0.78200086330E-02  0.44502624881E-01 -0.82615242076E-01  0.94165681119E-01  0.51100000000E-03 0. -1.
         11    1    4    4    0    0  0.12820227385E-01  0.19333276720E-01 -0.22736788379E-01  0.32486250718E-01  0.51100000000E-03 0.  1.
</event>
<event>
 8    1  0.1061721E+005  0.1043930E+01  0.7957747E-01            NaN
         13   -1    0    0    0    0  0.00000000000E+00  0.00000000000E+00  0.74505805969E-08  0.10566000000E+00  0.10566000000E+00 0.  1.
     999900   -1    0    0    0    0 -0.00000000000E+00 -0.00000000000E+00 -0.74505805969E-08  0.93827000000E+00  0.93827000000E+00 0. -1.
     999902    2    1    2    0    0 -0.11127487800E-01 -0.13592942371E-01  0.15699174144E-01  0.10203704343E+01  0.10200984119E+01 0.  0.
     999903    2    3    3    0    0 -0.12344700828E+00 -0.21177081226E-01 -0.35677994270E-01  0.13171256579E+00  0.19688780790E-01 0.  0.
         14    1    1    2    0    0  0.11127487800E-01  0.13592942371E-01 -0.15699174144E-01  0.23559565698E-01  0.00000000000E+00 0. -1.
     999901    1    3    3    0    0  0.11231952048E+00  0.75841388550E-02  0.51377168414E-01  0.88865786852E+00  0.88000000000E+00 0. -1.
        -11    1    4    4    0    0 -0.34901387314E-01 -0.57857702982E-02 -0.19480767102E-01  0.40389892080E-01  0.51100000000E-03 0.  1.
         11    1    4    4    0    0 -0.88545620963E-01 -0.15391310928E-01 -0.16197227168E-01  0.91322673705E-01  0.51100000000E-03 0. -1.
</event>
<event>
 8    1  0.1061721E+005  0.1043930E+01  0.7957747E-01            NaN
         13   -1    0    0    0    0  0.00000000000E+00  0.00000000000E+00  0.74505805969E-08  0.10566000000E+00  0.10566000000E+00 0. -1.
     999900   -1    0    0    0    0 -0.00000000000E+00 -0.00000000000E+00 -0.74505805969E-08  0.93827000000E+00  0.93827000000E+00 0.  1.
     999902    2    1    2    0    0 -0.18229698097E-01  0.25702809591E-01  0.72870837950E-02  0.10115871816E+01  0.10110700114E+01 0.  0.
     999903    2    3    3    0    0  0.78118491319E-01 -0.76153063795E-01 -0.43067583526E-01  0.11906648990E+00  0.20499376930E-01 0.  0.
         14    1    1    2    0    0  0.18229698097E-01 -0.25702809591E-01 -0.72870837950E-02  0.32342818427E-01  0.00000000000E+00 0.  1.
     999901    1    3    3    0    0 -0.96348189416E-01  0.10185587339E+00  0.50354667321E-01  0.89252069167E+00  0.88000000000E+00 0. -1.
        -11    1    4    4    0    0  0.43149018947E-01 -0.55130499134E-01 -0.30537630030E-01  0.76380741942E-01  0.51100000000E-03 0.  1.
         11    1    4    4    0    0  0.34969472372E-01 -0.21022564661E-01 -0.12529953497E-01  0.42685747955E-01  0.51100000000E-03 0. -1.
</event>
<event>
 8    1  0.1061721E+005  0.1043930E+01  0.7957747E-01            NaN
         13   -1    0    0    0    0  0.00000000000E+00  0.00000000000E+00  0.74505805969E-08  0.10566000000E+00  0.10566000000E+00 0.  1.
     999900   -1    0    0    0    0 -0.00000000000E+00 -0.00000000000E+00 -0.74505805969E-08  0.93827000000E+00  0.93827000000E+00 0. -1.
     999902    2    1    2    0    0  0.81992640981E-02  0.63726060265E-02  0.21032752327E-01  0.10204733440E+01  0.10202037204E+01 0.  0.
     999903    2    3    3    0    0 -0.64924925841E-01 -0.98888902395E-01  0.49981496647E-01  0.13071766851E+00  0.24386427383E-01 0.  0.
         14    1    1    2    0    0 -0.81992640981E-02 -0.63726060265E-02 -0.21032752327E-01  0.23456655980E-01  0.00000000000E+00 0. -1.
     999901    1    3    3    0    0  0.73124189939E-01  0.10526150842E+00 -0.28948744320E-01  0.88975567551E+00  0.88000000000E+00 0. -1.
        -11    1    4    4    0    0 -0.28974100031E-01 -0.65245677524E-01  0.26334630448E-01  0.76093828856E-01  0.51100000000E-03 0. -1.
         11    1    4    4    0    0 -0.35950825811E-01 -0.33643224871E-01  0.23646866199E-01  0.54623839651E-01  0.51100000000E-03 0.  1.
</event>
<event>
 8    1  0.1061721E+005  0.1043930E+01  0.7957747E-01            NaN
         13   -1    0    0    0    0  0.00000000000E+00  0.00000000000E+00  0.74505805969E-08  0.10566000000E+00  0.10566000000E+00 0. -1.
     999900   -1    0    0    0    0 -0.00000000000E+00 -0.00000000000E+00 -0.74505805969E-08  0.93827000000E+00  0.93827000000E+00 0. -1.
     999902    2    1    2    0    0 -0.86439233367E-02  0.26992657035E-02 -0.13727745842E-02  0.10347709631E+01  0.10347304278E+01 0.  0.
     999903    2    3    3    0    0 -0.11563550537E+00  0.70431087033E-01 -0.46554769452E-01  0.14455963380E+00  0.19950765477E-01 0.  0.
         14    1    1    2    0    0  0.86439233367E-02 -0.26992657035E-02  0.13727745842E-02  0.91590368515E-02  0.00000000000E+00 0. -1.
     999901    1    3    3    0    0  0.10699158203E+00 -0.67731821329E-01  0.45181994868E-01  0.89021132935E+00  0.88000000000E+00 0.  1.
        -11    1    4    4    0    0 -0.30410984223E-01  0.20156777519E-01 -0.22006206796E-01  0.42610537428E-01  0.51100000000E-03 0.  1.
         11    1    4    4    0    0 -0.85224521142E-01  0.50274309514E-01 -0.24548562657E-01  0.10194909637E+00  0.51100000000E-03 0. -1.
</event>
<event>
 8    1  0.1061721E+005  0.1043930E+01  0.7957747E-01            NaN
         13   -1    0    0    0    0  0.00000000000E+00  0.00000000000E+00  0.74505805969E-08  0.10566000000E+00  0.10566000000E+00 0.  1.
     999900   -1    0    0    0    0 -0.00000000000E+00 -0.00000000000E+00 -0.74505805969E-08  0.93827000000E+00  0.93827000000E+00 0. -1.
     999902    2    1    2    0    0 -0.13985823647E-01 -0.14649066672E-01  0.12172313173E-01  0.10203002809E+01  0.10200266171E+01 0.  0.
     999903    2    3    3    0    0 -0.29034641580E-01  0.11737175116E+00  0.42566935732E-01  0.12980615045E+00  0.20458599550E-01 0.  0.
         14    1    1    2    0    0  0.13985823647E-01  0.14649066672E-01 -0.12172313173E-01  0.23629719114E-01  0.00000000000E+00 0. -1.
     999901    1    3    3    0    0  0.15048817933E-01 -0.13202081783E+00 -0.30394622559E-01  0.89049413044E+00  0.88000000000E+00 0.  1.
        -11    1    4    4    0    0 -0.12682055644E-01  0.41456499475E-01  0.53313182230E-02  0.43682490303E-01  0.51100000000E-03 0.  1.
         11    1    4    4    0    0 -0.16352585936E-01  0.75915251682E-01  0.37235617509E-01  0.86123660146E-01  0.51100000000E-03 0. -1.
</event>
<event>
 8    1  0.1061721E+005  0.1043930E+01  0.7957747E-01            NaN
         13   -1    0    0    0    0  0.00000000000E+00  0.00000000000E+00  0.74505805969E-08  0.10566000000E+00  0.10566000000E+00 0.  1.
     999900   -1    0    0    0    0 -0.00000000000E+00 -0.00000000000E+00 -0.74505805969E-08  0.93827000000E+00  0.93827000000E+00 0. -1.
     999902    2    1    2    0    0 -0.63785131042E-02 -0.17797828698E-01  0.12966770813E-01  0.10210043532E+01  0.10207469343E+01 0.  0.
     999903    2    3    3    0    0  0.60752900897E-02 -0.81211084582E-01  0.10435996271E+00  0.13391413583E+00  0.20244617787E-01 0.  0.
         14    1    1    2    0    0  0.63785131042E-02  0.17797828698E-01 -0.12966770813E-01  0.22925646798E-01  0.00000000000E+00 0. -1.
     999901    1    3    3    0    0 -0.12453803194E-01  0.63413255885E-01 -0.91393191895E-01  0.88709021737E+00  0.88000000000E+00 0. -1.
        -11    1    4    4    0    0 -0.37416729060E-02 -0.16142672725E-01  0.32439806149E-01  0.36430593501E-01  0.51100000000E-03 0.  1.
         11    1    4    4    0    0  0.98169629957E-02 -0.65068411858E-01  0.71920156559E-01  0.97483542327E-01  0.51100000000E-03 0. -1.
</event>
<event>
 8    1  0.1061721E+005  0.1043930E+01  0.7957747E-01            NaN
         13   -1    0    0    0    0  0.00000000000E+00  0.00000000000E+00  0.74505805969E-08  0.10566000000E+00  0.10566000000E+00 0.  1.
     999900   -1    0    0    0    0 -0.00000000000E+00 -0.00000000000E+00 -0.74505805969E-08  0.93827000000E+00  0.93827000000E+00 0.  1.
     999902    2    1    2    0    0 -0.16824351039E-01 -0.15807153259E-01 -0.18530876214E-02  0.10207705783E+01  0.10205078219E+01 0.  0.
     999903    2    3    3    0    0  0.30460148104E-01  0.11937596476E+00  0.31070355772E-01  0.12858547841E+00  0.19758964146E-01 0.  0.
         14    1    1    2    0    0  0.16824351039E-01  0.15807153259E-01  0.18530876214E-02  0.23159421749E-01  0.00000000000E+00 0.  1.
     999901    1    3    3    0    0 -0.47284499143E-01 -0.13518311802E+00 -0.32923443393E-01  0.89218509984E+00  0.88000000000E+00 0.  1.
        -11    1    4    4    0    0  0.70274437357E-02  0.66371663564E-01  0.18857830215E-01  0.69357491096E-01  0.51100000000E-03 0.  1.
         11    1    4    4    0    0  0.23432704368E-01  0.53004301198E-01  0.12212525557E-01  0.59227987312E-01  0.51100000000E-03 0. -1.
</event>
<event>
 8    1  0.1061721E+005  0.1043930E+01  0.7957747E-01            NaN
         13   -1    0    0    0    0  0.00000000000E+00  0.00000000000E+00  0.74505805969E-08  0.10566000000E+00  0.10566000000E+00 0.  1.
     999900   -1    0    0    0    0 -0.00000000000E+00 -0.00000000000E+00 -0.74505805969E-08  0.93827000000E+00  0.93827000000E+00 0.  1.
     999902    2    1    2    0    0  0.99598569701E-02  0.10826049261E-01 -0.18522831233E-01  0.10202763032E+01  0.10200020772E+01 0.  0.
     999903    2    3    3    0    0 -0.45890788213E-01  0.86598956311E-01 -0.86962412682E-01  0.13261375231E+00  0.20459775321E-01 0.  0.
         14    1    1    2    0    0 -0.99598569701E-02 -0.10826049261E-01  0.18522831233E-01  0.23653696759E-01  0.00000000000E+00 0.  1.
     999901    1    3    3    0    0  0.55850645183E-01 -0.75772907050E-01  0.68439581449E-01  0.88766255093E+00  0.88000000000E+00 0. -1.
        -11    1    4    4    0    0 -0.41529377424E-01  0.76523810752E-01 -0.67139652054E-01  0.10994806410E+00  0.51100000000E-03 0.  1.
         11    1    4    4    0    0 -0.43614107890E-02  0.10075145560E-01 -0.19822760628E-01  0.22665688210E-01  0.51100000000E-03 0. -1.
</event>
<event>
 8    1  0.1061721E+005  0.1043930E+01  0.7957747E-01            NaN
         13   -1    0    0    0    0  0.00000000000E+00  0.00000000000E+00  0.74505805969E-08  0.10566000000E+00  0.10566000000E+00 0. -1.
     999900   -1    0    0    0    0 -0.00000000000E+00 -0.00000000000E+00 -0.74505805969E-08  0.93827000000E+00  0.93827000000E+00 0. -1.
     999902    2    1    2    0    0 -0.19225986345E-01 -0.49783023245E-02  0.12638221097E-01  0.10203896797E+01  0.10201181068E+01 0.  0.
     999903    2    3    3    0    0  0.15392767965E-01 -0.12128848159E+00 -0.40705497589E-01  0.13046155441E+00  0.20382506557E-01 0.  0.
         14    1    1    2    0    0  0.19225986345E-01  0.49783023245E-02 -0.12638221097E-01  0.23540320250E-01  0.00000000000E+00 0.  1.
     999901    1    3    3    0    0 -0.34618754310E-01  0.11631017926E+00  0.53343718687E-01  0.88992812534E+00  0.88000000000E+00 0.  1.
        -11    1    4    4    0    0  0.41687584484E-02 -0.97268417100E-01 -0.30158307485E-01  0.10192305011E+00  0.51100000000E-03 0. -1.
         11    1    4    4    0    0  0.11224009517E-01 -0.24020064486E-01 -0.10547190105E-01  0.28538504300E-01  0.51100000000E-03 0.  1.
</event>
<event>
 8    1  0.1061721E+005  0.1043930E+01  0.7957747E-01            NaN
         13   -1    0    0    0    0  0.00000000000E+00  0.00000000000E+00  0.74505805969E-08  0.10566000000E+00  0.10566000000E+00 0. -1.
     999900   -1    0    0    0    0 -0.00000000000E+00 -0.00000000000E+00 -0.74505805969E-08  0.93827000000E+00  0.93827000000E+00 0.  1.
     999902    2    1    2    0    0 -0.17726356640E-01  0.10008596389E-01 -0.11047775626E-01  0.10207686298E+01  0.10205058288E+01 0.  0.
     999903    2    3    3    0    0 -0.54545262064E-01  0.21698958339E-01 -0.11771794980E+00  0.13348579871E+00  0.22691680074E-01 0.  0.
         14    1    1    2    0    0  0.17726356640E-01 -0.10008596389E-01  0.11047775626E-01  0.23161370160E-01  0.00000000000E+00 0. -1.
     999901    1    3    3    0    0  0.36818905424E-01 -0.11690361949E-01  0.10667017418E+00  0.88728283113E+00  0.88000000000E+00 0. -1.
        -11    1    4    4    0    0 -0.11975460298E-01  0.14062416821E-01 -0.24179787833E-01  0.30431668979E-01  0.51100000000E-03 0. -1.
         11    1    4    4    0    0 -0.42569801765E-01  0.76365415182E-02 -0.93538161971E-01  0.10305412973E+00  0.51100000000E-03 0.  1.
</event>
<event>
 8    1  0.1061721E+005  0.1043930E+01  0.7957747E-01            NaN
         13   -1    0    0    0    0  0.00000000000E+00  0.00000000000E+00  0.74505805969E-08  0.10566000000E+00  0.10566000000E+00 0. -1.
     999900   -1    0    0    0    0 -0.00000000000E+00 -0.00000000000E+00 -0.74505805969E-08  0.93827000000E+00  0.93827000000E+00 0.  1.
     999902    2    1    2    0    0  0.19903626936E-01 -0.15042163885E-01 -0.54172413893E-02  0.10184002612E+01  0.10180802151E+01 0.  0.
     999903    2    3    3    0    0 -0.24780098808E-01 -0.98325738882E-01 -0.79066579556E-01  0.13028032885E+00  0.20962725443E-01 0.  0.
         14    1    1    2    0    0 -0.19903626936E-01  0.15042163885E-01  0.54172413893E-02  0.25529738812E-01  0.00000000000E+00 0. -1.
     999901    1    3    3    0    0  0.44683725744E-01  0.83283574997E-01  0.73649338166E-01  0.88811993234E+00  0.88000000000E+00 0. -1.
        -11    1    4    4    0    0 -0.13258103978E-01 -0.60849001671E-01 -0.60752771942E-01  0.87003096181E-01  0.51100000000E-03 0. -1.
         11    1    4    4    0    0 -0.11521994830E-01 -0.37476737211E-01 -0.18313807614E-01  0.43277232665E-01  0.51100000000E-03 0.  1.
</event>
<event>
 8    1  0.1061721E+005  0.1043930E+01  0.7957747E-01            NaN
         13   -1    0    0    0    0  0.00000000000E+00  0.00000000000E+00  0.74505805969E-08  0.10566000000E+00  0.10566000000E+00 0. -1.
     999900   -1    0    0    0    0 -0.00000000000E+00 -0.00000000000E+00 -0.74505805969E-08  0.93827000000E+00  0.93827000000E+00 0. -1.
     999902    2    1    2    0    0 -0.17412992245E-01 -0.50789623112E-02 -0.15453662817E-01  0.10201009452E+01  0.10198225898E+01 0.  0.
     999903    2    3    3    0    0 -0.71633006335E-01  0.81763090878E-01  0.68675173621E-01  0.13018015479E+00  0.20349511102E-01 0.  0.
         14    1    1    2    0    0  0.17412992245E-01  0.50789623112E-02  0.15453662817E-01  0.23829054777E-01  0.00000000000E+00 0. -1.
     999901    1    3    3    0    0  0.54220014090E-01 -0.86842053189E-01 -0.84128836438E-01  0.88992079044E+00  0.88000000000E+00 0. -1.
        -11    1    4    4    0    0 -0.29419663623E-01  0.30757372234E-01  0.15639477398E-01  0.45347402668E-01  0.51100000000E-03 0.  1.
         11    1    4    4    0    0 -0.42213342712E-01  0.51005718643E-01  0.53035696223E-01  0.84832752119E-01  0.51100000000E-03 0. -1.
</event>
<event>
 8    1  0.1061721E+005  0.1043930E+01  0.7957747E-01            NaN
         13   -1    0    0    0    0  0.00000000000E+00  0.00000000000E+00  0.74505805969E-08  0.10566000000E+00  0.10566000000E+00 0.  1.
     999900   -1    0    0    0    0 -0.00000000000E+00 -0.00000000000E+00 -0.74505805969E-08  0.93827000000E+00  0.93827000000E+00 0. -1.
     999902    2    1    2    0    0 -0.43868636483E-02  0.54535233723E-02 -0.23211670573E-01  0.10196860906E+01  0.10193978401E+01 0.  0.
     999903    2    3    3    0    0 -0.28681449373E-01 -0.47849197365E-01 -0.11878163071E+00  0.13257559910E+00  0.18842570320E-01 0.  0.
         14    1    1    2    0    0  0.43868636483E-02 -0.54535233723E-02  0.23211670573E-01  0.24243909351E-01  0.00000000000E+00 0.  1.
     999901    1    3    3    0    0  0.24294585725E-01  0.53302720738E-01  0.95569960137E-01  0.88711049155E+00  0.88000000000E+00 0.  1.
        -11    1    4    4    0    0 -0.19040492784E-01 -0.17893016007E-01 -0.40452999892E-01  0.48160219150E-01  0.51100000000E-03 0. -1.
         11    1    4    4    0    0 -0.96409565888E-02 -0.29956181358E-01 -0.78328630818E-01  0.84415379951E-01  0.51100000000E-03 0.  1.
</event>
<event>
 8    1  0.1061721E+005  0.1043930E+01  0.7957747E-01            NaN
         13   -1    0    0    0    0  0.00000000000E+00  0.00000000000E+00  0.74505805969E-08  0.10566000000E+00  0.10566000000E+00 0.  1.
     999900   -1    0    0    0    0 -0.00000000000E+00 -0.00000000000E+00 -0.74505805969E-08  0.93827000000E+00  0.93827000000E+00 0. -1.
     999902    2    1    2    0    0  0.15453561636E-01 -0.21095773783E-01  0.62852239003E-02  0.10170348652E+01  0.10166791867E+01 0.  0.
     999903    2    3    3    0    0 -0.32819168754E-01  0.76607711680E-01  0.92740486112E-01  0.12610796584E+00  0.18883377776E-01 0.  0.
         14    1    1    2    0    0 -0.15453561636E-01  0.21095773783E-01 -0.62852239003E-02  0.26895134843E-01  0.00000000000E+00 0.  1.
     999901    1    3    3    0    0  0.48272730391E-01 -0.97703485463E-01 -0.86455262212E-01  0.89092689932E+00  0.88000000000E+00 0. -1.
        -11    1    4    4    0    0 -0.18100850974E-01  0.35477067515E-01  0.30995429398E-01  0.50470198038E-01  0.51100000000E-03 0.  1.
         11    1    4    4    0    0 -0.14718317781E-01  0.41130644165E-01  0.61745056714E-01  0.75637767798E-01  0.51100000000E-03 0. -1.
</event>
<event>
 8    1  0.1061721E+005  0.1043930E+01  0.7957747E-01            NaN
         13   -1    0    0    0    0  0.00000000000E+00  0.00000000000E+00  0.74505805969E-08  0.10566000000E+00  0.10566000000E+00 0. -1.
     999900   -1    0    0    0    0 -0.00000000000E+00 -0.00000000000E+00 -0.74505805969E-08  0.93827000000E+00  0.93827000000E+00 0. -1.
     999902    2    1    2    0    0 -0.68711998169E-02  0.11149009324E-01  0.15087645070E-01  0.10239512405E+01  0.10237563148E+01 0.  0.
     999903    2    3    3    0    0  0.24222683042E-01  0.96731240034E-01 -0.86328570688E-01  0.13345901902E+00  0.20371952999E-01 0.  0.
         14    1    1    2    0    0  0.68711998169E-02 -0.11149009324E-01 -0.15087645070E-01  0.19978759460E-01  0.00000000000E+00 0. -1.
     999901    1    3    3    0    0 -0.31093882859E-01 -0.85582230711E-01  0.10141621576E+00  0.89049222152E+00  0.88000000000E+00 0.  1.
        -11    1    4    4    0    0  0.26923625089E-01  0.83011600827E-01 -0.78738253194E-01  0.11754055086E+00  0.51100000000E-03 0. -1.
         11    1    4    4    0    0 -0.27009420470E-02  0.13719639207E-01 -0.75903174937E-02  0.15918468160E-01  0.51100000000E-03 0.  1.
</event>
<event>
 8    1  0.1061721E+005  0.1043930E+01  0.7957747E-01            NaN
         13   -1    0    0    0    0  0.00000000000E+00  0.00000000000E+00  0.74505805969E-08  0.10566000000E+00  0.10566000000E+00 0.  1.
     999900   -1    0    0    0    0 -0.00000000000E+00 -0.00000000000E+00 -0.74505805969E-08  0.93827000000E+00  0.93827000000E+00 0.  1.
     999902    2    1    2    0    0  0.42507080913E-02  0.89069387447E-02  0.22414135879E-01  0.10194392760E+01  0.10191450543E+01 0.  0.
     999903    2    3    3    0    0  0.79643406157E-01 -0.81686704966E-01 -0.54906404740E-01  0.12822115832E+00  0.20252462727E-01 0.  0.
         14    1    1    2    0    0 -0.42507080913E-02 -0.89069387447E-02 -0.22414135879E-01  0.24490724046E-01  0.00000000000E+00 0. -1.
     999901    1    3    3    0    0 -0.75392698065E-01  0.90593643710E-01  0.77320540619E-01  0.89121811764E+00  0.88000000000E+00 0. -1.
        -11    1    4    4    0    0  0.15237574387E-01 -0.18265019333E-01 -0.20822091283E-01  0.31616691965E-01  0.51100000000E-03 0.  1.
         11    1    4    4    0    0  0.64405831770E-01 -0.63421685632E-01 -0.34084313457E-01  0.96604466352E-01  0.51100000000E-03 0. -1.
</event>
<event>
 8    1  0.1061721E+005  0.1043930E+01  0.7957747E-01            NaN
         13   -1    0    0    0    0  0.00000000000E+00  0.00000000000E+00  0.74505805969E-08  0.10566000000E+00  0.10566000000E+00 0. -1.
     999900   -1    0    0    0    0 -0.00000000000E+00 -0.00000000000E+00 -0.74505805969E-08  0.93827000000E+00  0.93827000000E+00 0.  1.
     999902    2    1    2    0    0  0.93689482974E-02  0.31154029906E-03  0.20619911322E-01  0.10212792827E+01  0.10210280693E+01 0.  0.
     999903    2    3    3    0    0  0.50711099301E-01  0.60606682032E-01 -0.10110761815E+00  0.12989705889E+00  0.20142243178E-01 0.  0.
         14    1    1    2    0    0 -0.93689482974E-02 -0.31154029906E-03 -0.20619911322E-01  0.22650717262E-01  0.00000000000E+00 0.  1.
     999901    1    3    3    0    0 -0.41342151003E-01 -0.60295141733E-01  0.12172752947E+00  0.89138222385E+00  0.88000000000E+00 0. -1.
        -11    1    4    4    0    0  0.10914973811E-01  0.13207976505E-01 -0.10284690909E-01  0.19990579900E-01  0.51100000000E-03 0. -1.
         11    1    4    4    0    0  0.39796125490E-01  0.47398705527E-01 -0.90822927240E-01  0.10990647899E+00  0.51100000000E-03 0.  1.
</event>
<event>
 8    1  0.1061721E+005  0.1043930E+01  0.7957747E-01            NaN
         13   -1    0    0    0    0  0.00000000000E+00  0.00000000000E+00  0.74505805969E-08  0.10566000000E+00  0.10566000000E+00 0.  1.
     999900   -1    0    0    0    0 -0.00000000000E+00 -0.00000000000E+00 -0.74505805969E-08  0.93827000000E+00  0.93827000000E+00 0. -1.
     999902    2    1    2    0    0 -0.13486940711E-02  0.21453121928E-01  0.13503350599E-01  0.10185450459E+01  0.10182286652E+01 0.  0.
     999903    2    3    3    0    0 -0.19870566504E-01 -0.88887434208E-02 -0.12351288121E+00  0.12723301508E+00  0.21423331397E-01 0.  0.
         14    1    1    2    0    0  0.13486940711E-02 -0.21453121928E-01 -0.13503350599E-01  0.25384954078E-01  0.00000000000E+00 0. -1.
     999901    1    3    3    0    0  0.18521872433E-01  0.30341865348E-01  0.13701623181E+00  0.89131203085E+00  0.88000000000E+00 0.  1.
        -11    1    4    4    0    0 -0.15606790775E-01 -0.14806272234E-01 -0.70286602230E-01  0.73506905728E-01  0.51100000000E-03 0.  1.
         11    1    4    4    0    0 -0.42637757293E-02  0.59175288132E-02 -0.53226278979E-01  0.53726109348E-01  0.51100000000E-03 0. -1.
</event>
<event>
 8    1  0.1061721E+005  0.1043930E+01  0.7957747E-01            NaN
         13   -1    0    0    0    0  0.00000000000E+00  0.00000000000E+00  0.74505805969E-08  0.10566000000E+00  0.10566000000E+00 0. -1.
     999900   -1    0    0    0    0 -0.00000000000E+00 -0.00000000000E+00 -0.74505805969E-08  0.93827000000E+00  0.93827000000E+00 0.  1.
     999902    2    1    2    0    0 -0.22327043565E-01 -0.61395827998E-02 -0.16601431504E-02  0.10207147587E+01  0.10204507197E+01 0.  0.
     999903    2    3    3    0    0 -0.20909216226E-01 -0.60839040000E-01  0.11273965363E+00  0.13162457527E+00  0.21822355574E-01 0.  0.
         14    1    1    2    0    0  0.22327043565E-01  0.61395827998E-02  0.16601431504E-02  0.23215241256E-01  0.00000000000E+00 0.  1.
     999901    1    3    3    0    0 -0.14178273389E-02  0.54699457201E-01 -0.11439979678E+00  0.88909018348E+00  0.88000000000E+00 0.  1.
        -11    1    4    4    0    0 -0.24184620600E-01 -0.40164133116E-01  0.81281338430E-01  0.93834804633E-01  0.51100000000E-03 0.  1.
         11    1    4    4    0    0  0.32754043746E-02 -0.20674906885E-01  0.31458315198E-01  0.37789770634E-01  0.51100000000E-03 0. -1.
</event>
<event>
 8    1  0.1061721E+005  0.1043930E+01  0.7957747E-01            NaN
         13   -1    0    0    0    0  0.00000000000E+00  0.00000000000E+00  0.74505805969E-08  0.10566000000E+00  0.10566000000E+00 0.  1.
     999900   -1    0    0    0    0 -0.00000000000E+00 -0.00000000000E+00 -0.74505805969E-08  0.93827000000E+00  0.93827000000E+00 0. -1.
     999902    2    1    2    0    0  0.17224118254E-01  0.60604306695E-02  0.14933289745E-01  0.10203418205E+01  0.10200691293E+01 0.  0.
     999903    2    3    3    0    0 -0.98493918548E-01 -0.79956037121E-01  0.90954344414E-02  0.12858872837E+00  0.18929191016E-01 0.  0.
         14    1    1    2    0    0 -0.17224118254E-01 -0.60604306695E-02 -0.14933289745E-01  0.23588179500E-01  0.00000000000E+00 0. -1.
     999901    1    3    3    0    0  0.11571803680E+00  0.86016467791E-01  0.58378553032E-02  0.89175309213E+00  0.88000000000E+00 0.  1.
        -11    1    4    4    0    0 -0.61461928746E-01 -0.53752083833E-01 -0.27530974300E-02  0.81698811913E-01  0.51100000000E-03 0. -1.
         11    1    4    4    0    0 -0.37031989802E-01 -0.26203953289E-01  0.11848531871E-01  0.46889916455E-01  0.51100000000E-03 0.  1.
</event>
<event>
 8    1  0.1061721E+005  0.1043930E+01  0.7957747E-01            NaN
         13   -1    0    0    0    0  0.00000000000E+00  0.00000000000E+00  0.74505805969E-08  0.10566000000E+00  0.10566000000E+00 0. -1.
     999900   -1    0    0    0    0 -0.00000000000E+00 -0.00000000000E+00 -0.74505805969E-08  0.93827000000E+00  0.93827000000E+00 0. -1.
     999902    2    1    2    0    0  0.28684631432E-02 -0.65438084960E-02  0.22305831509E-01  0.10205077962E+01  0.10202389732E+01 0.  0.
     999903    2    3    3    0    0  0.19359283059E-01  0.12030710124E-01 -0.12435919102E+00  0.12802385311E+00  0.20134019678E-01 0.  0.
         14    1    1    2    0    0 -0.28684631432E-02  0.65438084960E-02 -0.22305831509E-01  0.23422203776E-01  0.00000000000E+00 0.  1.
     999901    1    3    3    0    0 -0.16490819916E-01 -0.18574518620E-01  0.14666502252E+00  0.89248394311E+00  0.88000000000E+00 0.  1.
        -11    1    4    4    0    0  0.22177984740E-01  0.14597282765E-01 -0.10969873621E+00  0.11286725618E+00  0.51100000000E-03 0. -1.
         11    1    4    4    0    0 -0.28187016808E-02 -0.25665726415E-02 -0.14660454807E-01  0.15156596928E-01  0.51100000000E-03 0.  1.
</event>
<event>
 8    1  0.1061721E+005  0.1043930E+01  0.7957747E-01            NaN
         13   -1    0    0    0    0  0.00000000000E+00  0.00000000000E+00  0.74505805969E-08  0.10566000000E+00  0.10566000000E+00 0. -1.
     999900   -1    0    0    0    0 -0.00000000000E+00 -0.00000000000E+00 -0.74505805969E-08  0.93827000000E+00  0.93827000000E+00 0.  1.
     999902    2    1    2    0    0 -0.10667952165E-01 -0.12145782272E-01  0.17064144887E-01  0.10204244630E+01  0.10201537013E+01 0.  0.
     999903    2    3    3    0    0 -0.30216260724E-01  0.64577000728E-01 -0.10488134822E+00  0.12849440680E+00  0.20676168397E-01 0.  0.
         14    1    1    2    0    0  0.10667952165E-01  0.12145782272E-01 -0.17064144887E-01  0.23505537031E-01  0.00000000000E+00 0.  1.
     999901    1    3    3    0    0  0.19548308558E-01 -0.76722782999E-01  0.12194549311E+00  0.89193005616E+00  0.88000000000E+00 0.  1.
        -11    1    4    4    0    0 -0.44898361672E-02  0.20588198385E-01 -0.46146371340E-01  0.50732447707E-01  0.51100000000E-03 0.  1.
         11    1    4    4    0    0 -0.25726424557E-01  0.43988802342E-01 -0.58734976885E-01  0.77761959097E-01  0.51100000000E-03 0. -1.
</event>
<event>
 8    1  0.1061721E+005  0.1043930E+01  0.7957747E-01            NaN
         13   -1    0    0    0    0  0.00000000000E+00  0.00000000000E+00  0.74505805969E-08  0.10566000000E+00  0.10566000000E+00 0. -1.
     999900   -1    0    0    0    0 -0.00000000000E+00 -0.00000000000E+00 -0.74505805969E-08  0.93827000000E+00  0.93827000000E+00 0. -1.
     999902    2    1    2    0    0 -0.20886275123E-01  0.99603062502E-02  0.12942571831E-02  0.10207541658E+01  0.10204910326E+01 0.  0.
     999903    2    3    3    0    0  0.64157091112E-01 -0.85359105055E-01 -0.69037537171E-01  0.12875375907E+00  0.20224731902E-01 0.  0.
         14    1    1    2    0    0  0.20886275123E-01 -0.99603062502E-02 -0.12942571831E-02  0.23175834198E-01  0.00000000000E+00 0. -1.
     999901    1    3    3    0    0 -0.85043366234E-01  0.95319411305E-01  0.70331794354E-01  0.89200040673E+00  0.88000000000E+00 0. -1.
        -11    1    4    4    0    0  0.46357701301E-01 -0.45192227343E-01 -0.40999620368E-01  0.76632916383E-01  0.51100000000E-03 0.  1.
         11    1    4    4    0    0  0.17799389811E-01 -0.40166877712E-01 -0.28037916803E-01  0.52120842688E-01  0.51100000000E-03 0. -1.
</event>
<event>
 8    1  0.1061721E+005  0.1043930E+01  0.7957747E-01            NaN
         13   -1    0    0    0    0  0.00000000000E+00  0.00000000000E+00  0.74505805969E-08  0.10566000000E+00  0.10566000000E+00 0.  1.
     999900   -1    0    0    0    0 -0.00000000000E+00 -0.00000000000E+00 -0.74505805969E-08  0.93827000000E+00  0.93827000000E+00 0. -1.
     999902    2    1    2    0    0 -0.47789158291E-02 -0.19168501586E-01 -0.16304700611E-01  0.10183153020E+01  0.10179930951E+01 0.  0.
     999903    2    3    3    0    0 -0.10146462559E+00  0.27665527537E-01  0.68935414455E-01  0.12769336768E+00  0.22204799532E-01 0.  0.
         14    1    1    2    0    0  0.47789158291E-02  0.19168501586E-01  0.16304700611E-01  0.25614697960E-01  0.00000000000E+00 0.  1.
     999901    1    3    3    0    0  0.96685709760E-01 -0.46834029123E-01 -0.85240115066E-01  0.89062193437E+00  0.88000000000E+00 0. -1.
        -11    1    4    4    0    0 -0.61984918847E-01  0.55765376639E-02  0.40683677041E-01  0.74354896512E-01  0.51100000000E-03 0.  1.
         11    1    4    4    0    0 -0.39479706743E-01  0.22088989873E-01  0.28251737414E-01  0.53338471163E-01  0.51100000000E-03 0. -1.
</event>
<event>
 8    1  0.1061721E+005  0.1043930E+01  0.7957747E-01            NaN
         13   -1    0    0    0    0  0.00000000000E+00  0.00000000000E+00  0.74505805969E-08  0.10566000000E+00  0.10566000000E+00 0.  1.
     999900   -1    0    0    0    0 -0.00000000000E+00 -0.00000000000E+00 -0.74505805969E-08  0.93827000000E+00  0.93827000000E+00 0.  1.
     999902    2    1    2    0    0 -0.91282478321E-02 -0.16839957600E-01  0.16405535051E-01  0.10187099552E+01  0.10183977230E+01 0.  0.
     999903    2    3    3    0    0  0.10925653828E+00  0.57441921374E-01  0.26203971773E-01  0.12762703845E+00  0.19116676481E-01 0.  0.
         14    1    1    2    0    0  0.91282478321E-02  0.16839957600E-01 -0.16405535051E-01  0.25220044821E-01  0.00000000000E+00 0.  1.
     999901    1    3    3    0    0 -0.11838478611E+00 -0.74281878974E-01 -0.97984367221E-02  0.89108291673E+00  0.88000000000E+00 0. -1.
        -11    1    4    4    0    0  0.10202791729E+00  0.48125407348E-01  0.26251980267E-01  0.11582391087E+00  0.51100000000E-03 0.  1.
         11    1    4    4    0    0  0.72286209809E-02  0.93165140264E-02 -0.48008494356E-04  0.11803127581E-01  0.51100000000E-03 0. -1.
</event>
<event>
 8    1  0.1061721E+005  0.1043930E+01  0.7957747E-01            NaN
         13   -1    0    0    0    0  0.00000000000E+00  0.00000000000E+00  0.74505805969E-08  0.10566000000E+00  0.10566000000E+00 0.  1.
     999900   -1    0    0    0    0 -0.00000000000E+00 -0.00000000000E+00 -0.74505805969E-08  0.93827000000E+00  0.93827000000E+00 0. -1.
     999902    2    1    2    0    0 -0.51750899499E-02 -0.18558292568E-01 -0.13297875979E-01  0.10205200601E+01  0.10202515219E+01 0.  0.
     999903    2    3    3    0    0  0.78603077284E-01  0.49744258175E-02 -0.10356111947E+00  0.13163310260E+00  0.19979478559E-01 0.  0.
         14    1    1    2    0    0  0.51750899499E-02  0.18558292568E-01  0.13297875979E-01  0.23409939867E-01  0.00000000000E+00 0.  1.
     999901    1    3    3    0    0 -0.83778167234E-01 -0.23532718386E-01  0.90263243496E-01  0.88888695753E+00  0.88000000000E+00 0.  1.
        -11    1    4    4    0    0  0.49579248442E-01  0.81211494043E-02 -0.78249436795E-01  0.92990808274E-01  0.51100000000E-03 0. -1.
         11    1    4    4    0    0  0.29023828842E-01 -0.31467235867E-02 -0.25311682680E-01  0.38642294330E-01  0.51100000000E-03 0.  1.
</event>
<event>
 8    1  0.1061721E+005  0.1043930E+01  0.7957747E-01            NaN
         13   -1    0    0    0    0  0.00000000000E+00  0.00000000000E+00  0.74505805969E-08  0.10566000000E+00  0.10566000000E+00 0. -1.
     999900   -1    0    0    0    0 -0.00000000000E+00 -0.00000000000E+00 -0.74505805969E-08  0.93827000000E+00  0.93827000000E+00 0. -1.
     999902    2    1    2    0    0  0.14602845800E-01  0.12660830635E-01  0.14644606277E-01  0.10196812015E+01  0.10193928332E+01 0.  0.
     999903    2    3    3    0    0 -0.80637604866E-01 -0.29828269116E-01  0.95247917791E-01  0.12986495027E+00  0.20014757286E-01 0.  0.
         14    1    1    2    0    0 -0.14602845800E-01 -0.12660830635E-01 -0.14644606277E-01  0.24248798544E-01  0.00000000000E+00 0.  1.
     999901    1    3    3    0    0  0.95240450666E-01  0.42489099751E-01 -0.80603311514E-01  0.88981625118E+00  0.88000000000E+00 0. -1.
        -11    1    4    4    0    0 -0.16656157360E-01  0.34278633096E-04  0.11125072113E-01  0.20036394475E-01  0.51100000000E-03 0.  1.
         11    1    4    4    0    0 -0.63981447506E-01 -0.29862547749E-01  0.84122845678E-01  0.10982855580E+00  0.51100000000E-03 0. -1.
</event>
<event>
 8    1  0.1061721E+005  0.1043930E+01  0.7957747E-01            NaN
         13   -1    0    0    0    0  0.00000000000E+00  0.00000000000E+00  0.74505805969E-08  0.10566000000E+00  0.10566000000E+00 0.  1.
     999900   -1    0    0    0    0 -0.00000000000E+00 -0.00000000000E+00 -0.74505805969E-08  0.93827000000E+00  0.93827000000E+00 0. -1.
     999902    2    1    2    0    0  0.13229324637E-01 -0.99100043472E-02  0.18484040709E-01  0.10191331660E+01  0.10188314517E+01 0.  0.
     999903    2    3    3    0    0  0.20696982737E-02  0.12482818596E+00  0.25119727520E-01  0.12878326312E+00  0.19177290909E-01 0.  0.
         14    1    1    2    0    0 -0.13229324637E-01  0.99100043472E-02 -0.18484040709E-01  0.24796834021E-01  0.00000000000E+00 0. -1.
     999901    1    3    3    0    0  0.11159626364E-01 -0.13473819031E+00 -0.66356868115E-02  0.89034990286E+00  0.88000000000E+00 0.  1.
        -11    1    4    4    0    0  0.13592106932E-03  0.77072846352E-01  0.24862129406E-01  0.80985361140E-01  0.51100000000E-03 0.  1.
         11    1    4    4    0    0  0.19337772044E-02  0.47755339610E-01  0.25759811414E-03  0.47797901976E-01  0.51100000000E-03 0. -1.
</event>
<event>
 8    1  0.1061721E+005  0.1043930E+01  0.7957747E-01            NaN
         13   -1    0    0    0    0  0.00000000000E+00  0.00000000000E+00  0.74505805969E-08  0.10566000000E+00  0.10566000000E+00 0. -1.
     999900   -1    0    0    0    0 -0.00000000000E+00 -0.00000000000E+00 -0.74505805969E-08  0.93827000000E+00  0.93827000000E+00 0. -1.
     999902    2    1    2    0    0 -0.80034465695E-02 -0.12729400211E-01  0.15581638938E-01  0.10222763569E+01  0.10220469997E+01 0.  0.
     999903    2    3    3    0    0  0.31420496601E-01 -0.12419197702E+00  0.30102402393E-01  0.13425101612E+00  0.26576040687E-01 0.  0.
         14    1    1    2    0    0  0.80034465695E-02  0.12729400211E-01 -0.15581638938E-01  0.21653643082E-01  0.00000000000E+00 0.  1.
     999901    1    3    3    0    0 -0.39423943170E-01  0.11146257680E+00 -0.14520763454E-01  0.88802534080E+00  0.88000000000E+00 0.  1.
        -11    1    4    4    0    0  0.13274684258E-01 -0.96273130083E-01  0.18125268749E-01  0.98861111193E-01  0.51100000000E-03 0. -1.
         11    1    4    4    0    0  0.18145812343E-01 -0.27918846932E-01  0.11977133644E-01  0.35389904930E-01  0.51100000000E-03 0.  1.
</event>
<event>
 8    1  0.1061721E+005  0.1043930E+01  0.7957747E-01            NaN
         13   -1    0    0    0    0  0.00000000000E+00  0.00000000000E+00  0.74505805969E-08  0.10566000000E+00  0.10566000000E+00 0. -1.
     999900   -1    0    0    0    0 -0.00000000000E+00 -0.00000000000E+00 -0.74505805969E-08  0.93827000000E+00  0.93827000000E+00 0.  1.
     999902    2    1    2    0    0 -0.10250717404E-01 -0.21064474233E-01  0.16728217749E-02  0.10204440975E+01  0.10201737933E+01 0.  0.
     999903    2    3    3    0    0  0.28689064727E-01 -0.41080606807E-01  0.11981608491E+00  0.13147009183E+00  0.20440453818E-01 0.  0.
         14    1    1    2    0    0  0.10250717404E-01  0.21064474233E-01 -0.16728217749E-02  0.23485902467E-01  0.00000000000E+00 0. -1.
     999901    1    3    3    0    0 -0.38939782131E-01  0.20016132574E-01 -0.11814326313E+00  0.88897400570E+00  0.88000000000E+00 0.  1.
        -11    1    4    4    0    0  0.23203916366E-01 -0.41240813991E-01  0.96073342928E-01  0.10709610084E+00  0.51100000000E-03 0.  1.
         11    1    4    4    0    0  0.54851483609E-02  0.16020718334E-03  0.23742741979E-01  0.24373990985E-01  0.51100000000E-03 0. -1.
</event>
<event>
 8    1  0.1061721E+005  0.1043930E+01  0.7957747E-01            NaN
         13   -1    0    0    0    0  0.00000000000E+00  0.00000000000E+00  0.74505805969E-08  0.10566000000E+00  0.10566000000E+00 0. -1.
     999900   -1    0    0    0    0 -0.00000000000E+00 -0.00000000000E+00 -0.74505805969E-08  0.93827000000E+00  0.93827000000E+00 0.  1.
     999902    2    1    2    0    0 -0.21675375595E-01  0.77149132938E-02 -0.35341440679E-02  0.10206527156E+01  0.10203872470E+01 0.  0.
     999903    2    3    3    0    0  0.24223825888E-01  0.54659393754E-01 -0.11456928450E+00  0.13124880098E+00  0.22927794123E-01 0.  0.
         14    1    1    2    0    0  0.21675375595E-01 -0.77149132938E-02  0.35341440679E-02  0.23277284391E-01  0.00000000000E+00 0. -1.
     999901    1    3    3    0    0 -0.45899201484E-01 -0.46944480460E-01  0.11103514043E+00  0.88940391463E+00  0.88000000000E+00 0. -1.
        -11    1    4    4    0    0  0.21720334013E-01  0.49358211418E-01 -0.11292084362E+00  0.12513746037E+00  0.51100000000E-03 0.  1.
         11    1    4    4    0    0  0.25034918750E-02  0.53011823358E-02 -0.16484408773E-02  0.61113406101E-02  0.51100000000E-03 0. -1.
</event>
<event>
 8    1  0.1061721E+005  0.1043930E+01  0.7957747E-01            NaN
         13   -1    0    0    0    0  0.00000000000E+00  0.00000000000E+00  0.74505805969E-08  0.10566000000E+00  0.10566000000E+00 0. -1.
     999900   -1    0    0    0    0 -0.00000000000E+00 -0.00000000000E+00 -0.74505805969E-08  0.93827000000E+00  0.93827000000E+00 0.  1.
     999902    2    1    2    0    0 -0.61608740174E-02 -0.20897253510E-01  0.81264728502E-02  0.10206772338E+01  0.10204123307E+01 0.  0.
     999903    2    3    3    0    0 -0.68061773280E-01  0.46090593763E-01  0.10026624583E+00  0.13117803161E+00  0.19940113060E-01 0.  0.
         14    1    1    2    0    0  0.61608740174E-02  0.20897253510E-01 -0.81264728502E-02  0.23252766156E-01  0.00000000000E+00 0.  1.
     999901    1    3    3    0    0  0.61900899262E-01 -0.66987847273E-01 -0.92139772979E-01  0.88949920223E+00  0.88000000000E+00 0.  1.
        -11    1    4    4    0    0 -0.48801811961E-01  0.31496770140E-01  0.55682005679E-01  0.80463720131E-01  0.51100000000E-03 0.  1.
         11    1    4    4    0    0 -0.19259961319E-01  0.14593823623E-01  0.44584240150E-01  0.50714311478E-01  0.51100000000E-03 0. -1.
</event>
<event>
 8    1  0.1061721E+005  0.1043930E+01  0.7957747E-01            NaN
         13   -1    0    0    0    0  0.00000000000E+00  0.00000000000E+00  0.74505805969E-08  0.10566000000E+00  0.10566000000E+00 0. -1.
     999900   -1    0    0    0    0 -0.00000000000E+00 -0.00000000000E+00 -0.74505805969E-08  0.93827000000E+00  0.93827000000E+00 0.  1.
     999902    2    1    2    0    0 -0.19769956161E-02 -0.56400160793E-02  0.23167175133E-01  0.10200043590E+01  0.10197237156E+01 0.  0.
     999903    2    3    3    0    0  0.98469501965E-01  0.69123782432E-01 -0.41123201435E-01  0.12881842052E+00  0.20705739650E-01 0.  0.
         14    1    1    2    0    0  0.19769956161E-02  0.56400160793E-02 -0.23167175133E-01  0.23925640988E-01  0.00000000000E+00 0.  1.
     999901    1    3    3    0    0 -0.10044649758E+00 -0.74763798511E-01  0.64290376568E-01  0.89118593849E+00  0.88000000000E+00 0. -1.
        -11    1    4    4    0    0  0.12558406022E-01  0.61993194141E-02  0.15396676344E-02  0.14098823371E-01  0.51100000000E-03 0. -1.
         11    1    4    4    0    0  0.85911095943E-01  0.62924463018E-01 -0.42662869070E-01  0.11471959715E+00  0.51100000000E-03 0.  1.
</event>
<event>
 8    1  0.1061721E+005  0.1043930E+01  0.7957747E-01            NaN
         13   -1    0    0    0    0  0.00000000000E+00  0.00000000000E+00  0.74505805969E-08  0.10566000000E+00  0.10566000000E+00 0. -1.
     999900   -1    0    0    0    0 -0.00000000000E+00 -0.00000000000E+00 -0.74505805969E-08  0.93827000000E+00  0.93827000000E+00 0. -1.
     999902    2    1    2    0    0  0.26802689642E-02 -0.23412775747E-01  0.18150705008E-02  0.10202945099E+01  0.10200207109E+01 0.  0.
     999903    2    3    3    0    0  0.10748640012E+00 -0.51190069791E-01 -0.53284363565E-01  0.13192980395E+00  0.19811620691E-01 0.  0.
         14    1    1    2    0    0 -0.26802689642E-02  0.23412775747E-01 -0.18150705008E-02  0.23635490069E-01  0.00000000000E+00 0. -1.
     999901    1    3    3    0    0 -0.10480613116E+00  0.27777294045E-01  0.55099434066E-01  0.88836470598E+00  0.88000000000E+00 0. -1.
        -11    1    4    4    0    0  0.47541917502E-01 -0.24617944321E-01 -0.13439378607E-01  0.55201042750E-01  0.51100000000E-03 0.  1.
         11    1    4    4    0    0  0.59944482619E-01 -0.26572125471E-01 -0.39844984958E-01  0.76728761203E-01  0.51100000000E-03 0. -1.
</event>
<event>
 8    1  0.1061721E+005  0.1043930E+01  0.7957747E-01            NaN
         13   -1    0    0    0    0  0.00000000000E+00  0.00000000000E+00  0.74505805969E-08  0.10566000000E+00  0.10566000000E+00 0. -1.
     999900   -1    0    0    0    0 -0.00000000000E+00 -0.00000000000E+00 -0.74505805969E-08  0.93827000000E+00  0.93827000000E+00 0.  1.
     999902    2    1    2    0    0  0.19555375036E-01 -0.61507143629E-02  0.11181991341E-01  0.10205787493E+01  0.10203115713E+01 0.  0.
     999903    2    3    3    0    0 -0.76140547617E-01 -0.10050898479E+00  0.26665164372E-01  0.13024121696E+00  0.18769778618E-01 0.  0.
         14    1    1    2    0    0 -0.19555375036E-01  0.61507143629E-02 -0.11181991341E-01  0.23351250723E-01  0.00000000000E+00 0.  1.
     999901    1    3    3    0    0  0.95695922653E-01  0.94358270424E-01 -0.15483173031E-01  0.89033753232E+00  0.88000000000E+00 0. -1.
        -11    1    4    4    0    0 -0.41167973032E-01 -0.63690884282E-01  0.23339688701E-01  0.79349435624E-01  0.51100000000E-03 0. -1.
         11    1    4    4    0    0 -0.34972574584E-01 -0.36818100505E-01  0.33254756704E-02  0.50891781334E-01  0.51100000000E-03 0.  1.
</event>
<event>
 8    1  0.1061721E+005  0.1043930E+01  0.7957747E-01            NaN
         13   -1    0    0    0    0  0.00000000000E+00  0.00000000000E+00  0.74505805969E-08  0.10566000000E+00  0.10566000000E+00 0. -1.
     999900   -1    0    0    0    0 -0.00000000000E+00 -0.00000000000E+00 -0.74505805969E-08  0.93827000000E+00  0.93827000000E+00 0. -1.
     999902    2    1    2    0    0 -0.12126283098E-01  0.15544485815E-01  0.13054352608E-01  0.10202848334E+01  0.10200108075E+01 0.  0.
     999903    2    3    3    0    0  0.12658721540E+00 -0.42723520016E-02 -0.12406785528E-01  0.12883522110E+00  0.20050181431E-01 0.  0.
         14    1    1    2    0    0  0.12126283098E-01 -0.15544485815E-01 -0.13054352608E-01  0.23645166589E-01  0.00000000000E+00 0.  1.
     999901    1    3    3    0    0 -0.13871349850E+00  0.19816837817E-01  0.25461138136E-01  0.89144961231E+00  0.88000000000E+00 0.  1.
        -11    1    4    4    0    0  0.86169953312E-01  0.37640313360E-02 -0.14973698962E-01  0.87543712323E-01  0.51100000000E-03 0.  1.
         11    1    4    4    0    0  0.40417262088E-01 -0.80363833377E-02  0.25669134334E-02  0.41291508781E-01  0.51100000000E-03 0. -1.
</event>
<event>
 8    1  0.1061721E+005  0.1043930E+01  0.7957747E-01            NaN
         13   -1    0    0    0    0  0.00000000000E+00  0.00000000000E+00  0.74505805969E-08  0.10566000000E+00  0.10566000000E+00 0. -1.
     999900   -1    0    0    0    0 -0.00000000000E+00 -0.00000000000E+00 -0.74505805969E-08  0.93827000000E+00  0.93827000000E+00 0. -1.
     999902    2    1    2    0    0  0.47739556137E-02  0.15539567070E-01  0.20131525804E-01  0.10180543913E+01  0.10177255015E+01 0.  0.
     999903    2    3    3    0    0  0.43147117430E-01 -0.21404604310E-01 -0.11499448941E+00  0.12614833603E+00  0.19231205405E-01 0.  0.
         14    1    1    2    0    0 -0.47739556137E-02 -0.15539567070E-01 -0.20131525804E-01  0.25875608748E-01  0.00000000000E+00 0.  1.
     999901    1    3    3    0    0 -0.38373161816E-01  0.36944171380E-01  0.13512601521E+00  0.89190605522E+00  0.88000000000E+00 0.  1.
        -11    1    4    4    0    0  0.21019981019E-01 -0.11596589644E-01 -0.34078130702E-01  0.41688135081E-01  0.51100000000E-03 0.  1.
         11    1    4    4    0    0  0.22127136411E-01 -0.98080146660E-02 -0.80916358708E-01  0.84460200953E-01  0.51100000000E-03 0. -1.
</event>
<event>
 8    1  0.1061721E+005  0.1043930E+01  0.7957747E-01            NaN
         13   -1    0    0    0    0  0.00000000000E+00  0.00000000000E+00  0.74505805969E-08  0.10566000000E+00  0.10566000000E+00 0. -1.
     999900   -1    0    0    0    0 -0.00000000000E+00 -0.00000000000E+00 -0.74505805969E-08  0.93827000000E+00  0.93827000000E+00 0. -1.
     999902    2    1    2    0    0  0.15537251078E-01  0.40405013743E-02 -0.16906902743E-01  0.10206153011E+01  0.10203489686E+01 0.  0.
     999903    2    3    3    0    0 -0.42434271613E-01  0.11415794489E+00 -0.46191237749E-01  0.13137735712E+00  0.17136969742E-01 0.  0.
         14    1    1    2    0    0 -0.15537251078E-01 -0.40405013743E-02  0.16906902743E-01  0.23314698856E-01  0.00000000000E+00 0. -1.
     999901    1    3    3    0    0  0.57971522691E-01 -0.11011744351E+00  0.29284335006E-01  0.88923794402E+00  0.88000000000E+00 0. -1.
        -11    1    4    4    0    0 -0.35731688929E-01  0.80044323832E-01 -0.38638620893E-01  0.95796928536E-01  0.51100000000E-03 0. -1.
         11    1    4    4    0    0 -0.67025826844E-02  0.34113621054E-01 -0.75526168553E-02  0.35580428587E-01  0.51100000000E-03 0.  1.
</event>
<event>
 8    1  0.1061721E+005  0.1043930E+01  0.7957747E-01            NaN
         13   -1    0    0    0    0  0.00000000000E+00  0.00000000000E+00  0.74505805969E-08  0.10566000000E+00  0.10566000000E+00 0.  1.
     999900   -1    0    0    0    0 -0.00000000000E+00 -0.00000000000E+00 -0.74505805969E-08  0.93827000000E+00  0.93827000000E+00 0.  1.
     999902    2    1    2    0    0 -0.11543031711E-01  0.24684273834E-02  0.21126154923E-01  0.10197298112E+01  0.10194426118E+01 0.  0.
     999903    2    3    3    0    0  0.29546164170E-01  0.12516012804E+00  0.73152339604E-02  0.13016119838E+00  0.18718745908E-01 0.  0.
         14    1    1    2    0    0  0.11543031711E-01 -0.24684273834E-02 -0.21126154923E-01  0.24200188773E-01  0.00000000000E+00 0. -1.
     999901    1    3    3    0    0 -0.41089195881E-01 -0.12269170065E+00  0.13810920963E-01  0.88956861285E+00  0.88000000000E+00 0. -1.
        -11    1    4    4    0    0  0.19062682777E-01  0.42444827517E-01  0.42647132966E-02  0.46726846225E-01  0.51100000000E-03 0.  1.
         11    1    4    4    0    0  0.10483481393E-01  0.82715300519E-01  0.30505206638E-02  0.83434352154E-01  0.51100000000E-03 0. -1.
</event>
<event>
 8    1  0.1061721E+005  0.1043930E+01  0.7957747E-01            NaN
         13   -1    0    0    0    0  0.00000000000E+00  0.00000000000E+00  0.74505805969E-08  0.10566000000E+00  0.10566000000E+00 0.  1.
     999900   -1    0    0    0    0 -0.00000000000E+00 -0.00000000000E+00 -0.74505805969E-08  0.93827000000E+00  0.93827000000E+00 0.  1.
     999902    2    1    2    0    0 -0.23583446494E-03  0.23439815394E-01 -0.33858160844E-02  0.10202457370E+01  0.10199707935E+01 0.  0.
     999903    2    3    3    0    0  0.88833610879E-01 -0.68205921694E-01  0.59817331073E-01  0.12877114676E+00  0.21457794989E-01 0.  0.
         14    1    1    2    0    0  0.23583446494E-03 -0.23439815394E-01  0.33858160844E-02  0.23684263006E-01  0.00000000000E+00 0.  1.
     999901    1    3    3    0    0 -0.89069445343E-01  0.91645737087E-01 -0.63203147157E-01  0.89147459023E+00  0.88000000000E+00 0.  1.
        -11    1    4    4    0    0  0.60850150398E-01 -0.34777768757E-01  0.41720998133E-01  0.81566762897E-01  0.51100000000E-03 0.  1.
         11    1    4    4    0    0  0.27983460480E-01 -0.33428152936E-01  0.18096332939E-01  0.47204383865E-01  0.51100000000E-03 0. -1.
</event>
<event>
 8    1  0.1061721E+005  0.1043930E+01  0.7957747E-01            NaN
         13   -1    0    0    0    0  0.00000000000E+00  0.00000000000E+00  0.74505805969E-08  0.10566000000E+00  0.10566000000E+00 0. -1.
     999900   -1    0    0    0    0 -0.00000000000E+00 -0.00000000000E+00 -0.74505805969E-08  0.93827000000E+00  0.93827000000E+00 0. -1.
     999902    2    1    2    0    0  0.18546176546E-01 -0.68307251215E-02 -0.12195978178E-01  0.10207058455E+01  0.10204416013E+01 0.  0.
     999903    2    3    3    0    0 -0.21700241235E-01 -0.98341924827E-01  0.80245543123E-01  0.13023433628E+00  0.19483339186E-01 0.  0.
         14    1    1    2    0    0 -0.18546176546E-01  0.68307251215E-02  0.12195978178E-01  0.23224154535E-01  0.00000000000E+00 0. -1.
     999901    1    3    3    0    0  0.40246417781E-01  0.91511199705E-01 -0.92441521301E-01  0.89047150919E+00  0.88000000000E+00 0.  1.
        -11    1    4    4    0    0  0.21266282283E-02 -0.22764201160E-01  0.13024791122E-01  0.26318011074E-01  0.51100000000E-03 0.  1.
         11    1    4    4    0    0 -0.23826869463E-01 -0.75577723667E-01  0.67220752001E-01  0.10391632520E+00  0.51100000000E-03 0. -1.
</event>
<event>
 8    1  0.1061721E+005  0.1043930E+01  0.7957747E-01            NaN
         13   -1    0    0    0    0  0.00000000000E+00  0.00000000000E+00  0.74505805969E-08  0.10566000000E+00  0.10566000000E+00 0. -1.
     999900   -1    0    0    0    0 -0.00000000000E+00 -0.00000000000E+00 -0.74505805969E-08  0.93827000000E+00  0.93827000000E+00 0. -1.
     999902    2    1    2    0    0  0.58996069126E-02  0.20217816000E-01  0.13062650970E-01  0.10191469757E+01  0.10188456015E+01 0.  0.
     999903    2    3    3    0    0  0.12539619564E+00  0.23705182464E-01  0.22860351735E-01  0.13100982893E+00  0.18837145180E-01 0.  0.
         14    1    1    2    0    0 -0.58996069126E-02 -0.20217816000E-01 -0.13062650970E-01  0.24783024349E-01  0.00000000000E+00 0.  1.
     999901    1    3    3    0    0 -0.11949658873E+00 -0.34873664636E-02 -0.97977007655E-02  0.88813714672E+00  0.88000000000E+00 0. -1.
        -11    1    4    4    0    0  0.11490112853E+00  0.16660246404E-01  0.22992190993E-01  0.11835850251E+00  0.51100000000E-03 0. -1.
         11    1    4    4    0    0  0.10495067107E-01  0.70449360598E-02 -0.13183925764E-03  0.12651326423E-01  0.51100000000E-03 0.  1.
</event>
<event>
 8    1  0.1061721E+005  0.1043930E+01  0.7957747E-01            NaN
         13   -1    0    0    0    0  0.00000000000E+00  0.00000000000E+00  0.74505805969E-08  0.10566000000E+00  0.10566000000E+00 0.  1.
     999900   -1    0    0    0    0 -0.00000000000E+00 -0.00000000000E+00 -0.74505805969E-08  0.93827000000E+00  0.93827000000E+00 0. -1.
     999902    2    1    2    0    0 -0.37905404459E-02  0.21873681779E-01  0.73838940848E-02  0.10205345294E+01  0.10202663269E+01 0.  0.
     999903    2    3    3    0    0  0.53775708550E-01 -0.38774843648E-01  0.11079579098E+00  0.13054231762E+00  0.19242506595E-01 0.  0.
         14    1    1    2    0    0  0.37905404459E-02 -0.21873681779E-01 -0.73838940848E-02  0.23395470572E-01  0.00000000000E+00 0.  1.
     999901    1    3    3    0    0 -0.57566248996E-01  0.60648525427E-01 -0.10341189690E+00  0.88999221181E+00  0.88000000000E+00 0. -1.
        -11    1    4    4    0    0  0.39481385074E-01 -0.33616198043E-01  0.97094391232E-01  0.11007456776E+00  0.51100000000E-03 0.  1.
         11    1    4    4    0    0  0.14294323476E-01 -0.51586456048E-02  0.13701399750E-01  0.20467749858E-01  0.51100000000E-03 0. -1.
</event>
<event>
 8    1  0.1061721E+005  0.1043930E+01  0.7957747E-01            NaN
         13   -1    0    0    0    0  0.00000000000E+00  0.00000000000E+00  0.74505805969E-08  0.10566000000E+00  0.10566000000E+00 0. -1.
     999900   -1    0    0    0    0 -0.00000000000E+00 -0.00000000000E+00 -0.74505805969E-08  0.93827000000E+00  0.93827000000E+00 0.  1.
     999902    2    1    2    0    0 -0.89180723241E-02 -0.21615181236E-01 -0.77554539435E-02  0.10192947582E+01  0.10189970112E+01 0.  0.
     999903    2    3    3    0    0  0.99407814163E-01 -0.78406643172E-01  0.23002887433E-01  0.13030328274E+00  0.20501157355E-01 0.  0.
         14    1    1    2    0    0  0.89180723241E-02  0.21615181236E-01  0.77554539435E-02  0.24635241824E-01  0.00000000000E+00 0. -1.
     999901    1    3    3    0    0 -0.10832588649E+00  0.56791461936E-01 -0.30758341376E-01  0.88899147544E+00  0.88000000000E+00 0. -1.
        -11    1    4    4    0    0  0.64109837628E-01 -0.37873417146E-01  0.11692004790E-01  0.75375268517E-01  0.51100000000E-03 0. -1.
         11    1    4    4    0    0  0.35297976535E-01 -0.40533226026E-01  0.11310882643E-01  0.54928014225E-01  0.51100000000E-03 0.  1.
</event>
<event>
 8    1  0.1061721E+005  0.1043930E+01  0.7957747E-01            NaN
         13   -1    0    0    0    0  0.00000000000E+00  0.00000000000E+00  0.74505805969E-08  0.10566000000E+00  0.10566000000E+00 0. -1.
     999900   -1    0    0    0    0 -0.00000000000E+00 -0.00000000000E+00 -0.74505805969E-08  0.93827000000E+00  0.93827000000E+00 0. -1.
     999902    2    1    2    0    0  0.19282776507E-01  0.91572060245E-03  0.92478453854E-02  0.10225247049E+01  0.10223006336E+01 0.  0.
     999903    2    3    3    0    0 -0.85619353897E-01 -0.47510760377E-01  0.85835019082E-01  0.13167388900E+00  0.19555470565E-01 0.  0.
         14    1    1    2    0    0 -0.19282776507E-01 -0.91572060245E-03 -0.92478453854E-02  0.21405295100E-01  0.00000000000E+00 0.  1.
     999901    1    3    3    0    0  0.10490213040E+00  0.48426480980E-01 -0.76587173696E-01  0.89085081590E+00  0.88000000000E+00 0. -1.
        -11    1    4    4    0    0 -0.34008632008E-01 -0.10790506291E-01  0.23008006189E-01  0.42457644151E-01  0.51100000000E-03 0. -1.
         11    1    4    4    0    0 -0.51610721889E-01 -0.36720254086E-01  0.62827012893E-01  0.89216244844E-01  0.51100000000E-03 0.  1.
</event>
<event>
 8    1  0.1061721E+005  0.1043930E+01  0.7957747E-01            NaN
         13   -1    0    0    0    0  0.00000000000E+00  0.00000000000E+00  0.74505805969E-08  0.10566000000E+00  0.10566000000E+00 0. -1.
     999900   -1    0    0    0    0 -0.00000000000E+00 -0.00000000000E+00 -0.74505805969E-08  0.93827000000E+00  0.93827000000E+00 0. -1.
     999902    2    1    2    0    0 -0.60914846495E-02 -0.88913776993E-02  0.19522892069E-01  0.10216296391E+01  0.10213862214E+01 0.  0.
     999903    2    3    3    0    0 -0.36429474212E-01 -0.77750309818E-01 -0.96680731465E-01  0.13080685745E+00  0.19775056281E-01 0.  0.
         14    1    1    2    0    0  0.60914846495E-02  0.88913776993E-02 -0.19522892069E-01  0.22300360924E-01  0.00000000000E+00 0.  1.
     999901    1    3    3    0    0  0.30337989562E-01  0.68858932119E-01  0.11620362353E+00  0.89082278163E+00  0.88000000000E+00 0. -1.
        -11    1    4    4    0    0 -0.35133674848E-01 -0.55099126737E-01 -0.73940071420E-01  0.98679704895E-01  0.51100000000E-03 0. -1.
         11    1    4    4    0    0 -0.12957993633E-02 -0.22651183081E-01 -0.22740660045E-01  0.32127152554E-01  0.51100000000E-03 0.  1.
</event>
<event>
 8    1  0.1061721E+005  0.1043930E+01  0.7957747E-01            NaN
         13   -1    0    0    0    0  0.00000000000E+00  0.00000000000E+00  0.74505805969E-08  0.10566000000E+00  0.10566000000E+00 0.  1.
     999900   -1    0    0    0    0 -0.00000000000E+00 -0.00000000000E+00 -0.74505805969E-08  0.93827000000E+00  0.93827000000E+00 0.  1.
     999902    2    1    2    0    0  0.14846692595E-01 -0.80173217783E-02 -0.17117592434E-01  0.10198943244E+01  0.10196110628E+01 0.  0.
     999903    2    3    3    0    0  0.11880205769E+00 -0.10274180487E-01  0.51025317787E-01  0.13115630478E+00  0.19465495946E-01 0.  0.
         14    1    1    2    0    0 -0.14846692595E-01  0.80173217783E-02  0.17117592434E-01  0.24035675573E-01  0.00000000000E+00 0. -1.
     999901    1    3    3    0    0 -0.10395536510E+00  0.22568587090E-02 -0.68142910221E-01  0.88873801964E+00  0.88000000000E+00 0.  1.
        -11    1    4    4    0    0  0.55421758589E-01  0.25168272445E-02  0.30525440721E-01  0.63324319157E-01  0.51100000000E-03 0.  1.
         11    1    4    4    0    0  0.63380299106E-01 -0.12791007732E-01  0.20499877066E-01  0.67831985628E-01  0.51100000000E-03 0. -1.
</event>
<event>
 8    1  0.1061721E+005  0.1043930E+01  0.7957747E-01            NaN
         13   -1    0    0    0    0  0.00000000000E+00  0.00000000000E+00  0.74505805969E-08  0.10566000000E+00  0.10566000000E+00 0.  1.
     999900   -1    0    0    0    0 -0.00000000000E+00 -0.00000000000E+00 -0.74505805969E-08  0.93827000000E+00  0.93827000000E+00 0. -1.
     999902    2    1    2    0    0 -0.13464479132E-01 -0.17769571863E-01  0.37364875543E-02  0.10213244427E+01  0.10210742412E+01 0.  0.
     999903    2    3    3    0    0  0.48011399156E-01  0.25649368781E-01  0.11720458047E+00  0.13085294054E+00  0.20557086291E-01 0.  0.
         14    1    1    2    0    0  0.13464479132E-01  0.17769571863E-01 -0.37364875543E-02  0.22605557319E-01  0.00000000000E+00 0.  1.
     999901    1    3    3    0    0 -0.61475878288E-01 -0.43418940644E-01 -0.11346809291E+00  0.89047150214E+00  0.88000000000E+00 0. -1.
        -11    1    4    4    0    0  0.33484256398E-01  0.26803059889E-01  0.95672552843E-01  0.10484797535E+00  0.51100000000E-03 0. -1.
         11    1    4    4    0    0  0.14527142758E-01 -0.11536911079E-02  0.21532027626E-01  0.26004965191E-01  0.51100000000E-03 0.  1.
</event>
<event>
 8    1  0.1061721E+005  0.1043930E+01  0.7957747E-01            NaN
         13   -1    0    0    0    0  0.00000000000E+00  0.00000000000E+00  0.74505805969E-08  0.10566000000E+00  0.10566000000E+00 0.  1.
     999900   -1    0    0    0    0 -0.00000000000E+00 -0.00000000000E+00 -0.74505805969E-08  0.93827000000E+00  0.93827000000E+00 0.  1.
     999902    2    1    2    0    0  0.75079444401E-02  0.21631843120E-01 -0.14801997509E-02  0.10209844807E+01  0.10207266103E+01 0.  0.
     999903    2    3    3    0    0  0.66730682061E-01 -0.77808719113E-01  0.77294493716E-01  0.12991702508E+00  0.19920189444E-01 0.  0.
         14    1    1    2    0    0 -0.75079444401E-02 -0.21631843120E-01  0.14801997509E-02  0.22945519340E-01  0.00000000000E+00 0. -1.
     999901    1    3    3    0    0 -0.59222737621E-01  0.99440562234E-01 -0.78774693467E-01  0.89106745558E+00  0.88000000000E+00 0.  1.
        -11    1    4    4    0    0  0.41463548864E-01 -0.35692648443E-01  0.33803339759E-01  0.64312657674E-01  0.51100000000E-03 0.  1.
         11    1    4    4    0    0  0.25267133197E-01 -0.42116070670E-01  0.43491153958E-01  0.65604367402E-01  0.51100000000E-03 0. -1.
</event>
<event>
 8    1  0.1061721E+005  0.1043930E+01  0.7957747E-01            NaN
         13   -1    0    0    0    0  0.00000000000E+00  0.00000000000E+00  0.74505805969E-08  0.10566000000E+00  0.10566000000E+00 0.  1.
     999900   -1    0    0    0    0 -0.00000000000E+00 -0.00000000000E+00 -0.74505805969E-08  0.93827000000E+00  0.93827000000E+00 0. -1.
     999902    2    1    2    0    0 -0.20716840202E-01  0.80851237757E-02  0.73158986817E-02  0.10205189114E+01  0.10202503465E+01 0.  0.
     999903    2    3    3    0    0  0.36353073165E-01  0.94921124480E-01 -0.78566891793E-01  0.13025304118E+00  0.21483306318E-01 0.  0.
         14    1    1    2    0    0  0.20716840202E-01 -0.80851237757E-02 -0.73158986817E-02  0.23411088568E-01  0.00000000000E+00 0. -1.
     999901    1    3    3    0    0 -0.57069913367E-01 -0.86836000704E-01  0.85882790474E-01  0.89026587025E+00  0.88000000000E+00 0.  1.
        -11    1    4    4    0    0  0.50534911372E-02  0.28565051225E-01 -0.32750502660E-01  0.43753359524E-01  0.51100000000E-03 0.  1.
         11    1    4    4    0    0  0.31299582028E-01  0.66356073255E-01 -0.45816389133E-01  0.86499681659E-01  0.51100000000E-03 0. -1.
</event>
<event>
 8    1  0.1061721E+005  0.1043930E+01  0.7957747E-01            NaN
         13   -1    0    0    0    0  0.00000000000E+00  0.00000000000E+00  0.74505805969E-08  0.10566000000E+00  0.10566000000E+00 0.  1.
     999900   -1    0    0    0    0 -0.00000000000E+00 -0.00000000000E+00 -0.74505805969E-08  0.93827000000E+00  0.93827000000E+00 0.  1.
     999902    2    1    2    0    0 -0.23970973086E-01 -0.63256861207E-02 -0.65655175854E-02  0.10182837941E+01  0.10179607839E+01 0.  0.
     999903    2    3    3    0    0  0.48279776949E-01 -0.59195701619E-01  0.99968138738E-01  0.12734898765E+00  0.19724805222E-01 0.  0.
         14    1    1    2    0    0  0.23970973086E-01  0.63256861207E-02  0.65655175854E-02  0.25646205894E-01  0.00000000000E+00 0.  1.
     999901    1    3    3    0    0 -0.72250750035E-01  0.52870015499E-01 -0.10653365632E+00  0.89093480645E+00  0.88000000000E+00 0.  1.
        -11    1    4    4    0    0  0.20107591878E-01 -0.26402092069E-01  0.28151474512E-01  0.43521860656E-01  0.51100000000E-03 0.  1.
         11    1    4    4    0    0  0.28172185071E-01 -0.32793609550E-01  0.71816664226E-01  0.83827126997E-01  0.51100000000E-03 0. -1.
</event>
<event>
 8    1  0.1061721E+005  0.1043930E+01  0.7957747E-01            NaN
         13   -1    0    0    0    0  0.00000000000E+00  0.00000000000E+00  0.74505805969E-08  0.10566000000E+00  0.10566000000E+00 0. -1.
     999900   -1    0    0    0    0 -0.00000000000E+00 -0.00000000000E+00 -0.74505805969E-08  0.93827000000E+00  0.93827000000E+00 0. -1.
     999902    2    1    2    0    0 -0.21954383501E-01 -0.59976949582E-02 -0.72789343864E-02  0.10200354361E+01  0.10197555298E+01 0.  0.
     999903    2    3    3    0    0  0.17047808887E-01 -0.51894003402E-01  0.11574490895E+00  0.12943872141E+00  0.19336061514E-01 0.  0.
         14    1    1    2    0    0  0.21954383501E-01  0.59976949582E-02  0.72789343864E-02  0.23894563932E-01  0.00000000000E+00 0. -1.
     999901    1    3    3    0    0 -0.39002192387E-01  0.45896308444E-01 -0.12302384333E+00  0.89059671466E+00  0.88000000000E+00 0. -1.
        -11    1    4    4    0    0  0.20234245830E-01 -0.32844110269E-01  0.74754398278E-01  0.84122776146E-01  0.51100000000E-03 0.  1.
         11    1    4    4    0    0 -0.31864369432E-02 -0.19049893133E-01  0.40990510669E-01  0.45315945259E-01  0.51100000000E-03 0. -1.
</event>
<event>
 8    1  0.1061721E+005  0.1043930E+01  0.7957747E-01            NaN
         13   -1    0    0    0    0  0.00000000000E+00  0.00000000000E+00  0.74505805969E-08  0.10566000000E+00  0.10566000000E+00 0.  1.
     999900   -1    0    0    0    0 -0.00000000000E+00 -0.00000000000E+00 -0.74505805969E-08  0.93827000000E+00  0.93827000000E+00 0. -1.
     999902    2    1    2    0    0  0.65520896007E-02  0.15903780874E-01 -0.16123549362E-01  0.10203539747E+01  0.10200815677E+01 0.  0.
     999903    2    3    3    0    0  0.12415592540E+00 -0.15409301365E-02 -0.37722346903E-01  0.13209641736E+00  0.24686428378E-01 0.  0.
         14    1    1    2    0    0 -0.65520896007E-02 -0.15903780874E-01  0.16123549362E-01  0.23576025285E-01  0.00000000000E+00 0.  1.
     999901    1    3    3    0    0 -0.11760383580E+00  0.17444711010E-01  0.21598797541E-01  0.88825755735E+00  0.88000000000E+00 0. -1.
        -11    1    4    4    0    0  0.59455157778E-01 -0.48944761466E-02 -0.30214050321E-01  0.66873175796E-01  0.51100000000E-03 0. -1.
         11    1    4    4    0    0  0.64700767624E-01  0.33535460101E-02 -0.75082965819E-02  0.65223241567E-01  0.51100000000E-03 0.  1.
</event>
<event>
 8    1  0.1061721E+005  0.1043930E+01  0.7957747E-01            NaN
         13   -1    0    0    0    0  0.00000000000E+00  0.00000000000E+00  0.74505805969E-08  0.10566000000E+00  0.10566000000E+00 0. -1.
     999900   -1    0    0    0    0 -0.00000000000E+00 -0.00000000000E+00 -0.74505805969E-08  0.93827000000E+00  0.93827000000E+00 0.  1.
     999902    2    1    2    0    0  0.37946680274E-02 -0.27479364700E-01  0.84938407814E-02  0.10149186174E+01  0.10145038884E+01 0.  0.
     999903    2    3    3    0    0  0.11560345944E+00  0.41805280964E-01  0.12396513002E-01  0.12513392500E+00  0.19823831596E-01 0.  0.
         14    1    1    2    0    0 -0.37946680274E-02  0.27479364700E-01 -0.84938407814E-02  0.29011382611E-01  0.00000000000E+00 0.  1.
     999901    1    3    3    0    0 -0.11180879142E+00 -0.69284645664E-01 -0.39026722201E-02  0.88978469239E+00  0.88000000000E+00 0.  1.
        -11    1    4    4    0    0  0.29821070451E-01  0.19300180777E-01  0.75232874200E-02  0.36313278501E-01  0.51100000000E-03 0.  1.
         11    1    4    4    0    0  0.85782388993E-01  0.22505100186E-01  0.48732255815E-02  0.88820646498E-01  0.51100000000E-03 0. -1.
</event>
<event>
 8    1  0.1061721E+005  0.1043930E+01  0.7957747E-01            NaN
         13   -1    0    0    0    0  0.00000000000E+00  0.00000000000E+00  0.74505805969E-08  0.10566000000E+00  0.10566000000E+00 0.  1.
     999900   -1    0    0    0    0 -0.00000000000E+00 -0.00000000000E+00 -0.74505805969E-08  0.93827000000E+00  0.93827000000E+00 0.  1.
     999902    2    1    2    0    0  0.87788443870E-03  0.19814593254E-01  0.12498890292E-01  0.10204862152E+01  0.10202168909E+01 0.  0.
     999903    2    3    3    0    0  0.12013419529E-01 -0.63135897000E-01  0.11224715143E+00  0.13090513426E+00  0.20156076799E-01 0.  0.
         14    1    1    2    0    0 -0.87788443870E-03 -0.19814593254E-01 -0.12498890292E-01  0.23443784794E-01  0.00000000000E+00 0. -1.
     999901    1    3    3    0    0 -0.11135535090E-01  0.82950490255E-01 -0.99748261143E-01  0.88958108095E+00  0.88000000000E+00 0.  1.
        -11    1    4    4    0    0  0.20164424069E-02 -0.26782130591E-01  0.29075648975E-01  0.39585389265E-01  0.51100000000E-03 0. -1.
         11    1    4    4    0    0  0.99969771220E-02 -0.36353766409E-01  0.83171502460E-01  0.91319744996E-01  0.51100000000E-03 0.  1.
</event>
<event>
 8    1  0.1061721E+005  0.1043930E+01  0.7957747E-01            NaN
         13   -1    0    0    0    0  0.00000000000E+00  0.00000000000E+00  0.74505805969E-08  0.10566000000E+00  0.10566000000E+00 0. -1.
     999900   -1    0    0    0    0 -0.00000000000E+00 -0.00000000000E+00 -0.74505805969E-08  0.93827000000E+00  0.93827000000E+00 0.  1.
     999902    2    1    2    0    0 -0.47086243911E-02  0.24113605131E-01 -0.13641966243E-02  0.10193231284E+01  0.10190260752E+01 0.  0.
     999903    2    3    3    0    0  0.10364612748E+00  0.73385049171E-01 -0.24528579201E-01  0.13100729717E+00  0.20817673482E-01 0.  0.
         14    1    1    2    0    0  0.47086243911E-02 -0.24113605131E-01  0.13641966243E-02  0.24606871570E-01  0.00000000000E+00 0.  1.
     999901    1    3    3    0    0 -0.10835475187E+00 -0.49271444040E-01  0.23164382577E-01  0.88831583126E+00  0.88000000000E+00 0.  1.
        -11    1    4    4    0    0  0.10936809262E-01  0.16771090672E-01 -0.48859615997E-02  0.20615940942E-01  0.51100000000E-03 0.  1.
         11    1    4    4    0    0  0.92709318221E-01  0.56613958499E-01 -0.19642617601E-01  0.11039135623E+00  0.51100000000E-03 0. -1.
</event>
<event>
 8    1  0.1061721E+005  0.1043930E+01  0.7957747E-01            NaN
         13   -1    0    0    0    0  0.00000000000E+00  0.00000000000E+00  0.74505805969E-08  0.10566000000E+00  0.10566000000E+00 0.  1.
     999900   -1    0    0    0    0 -0.00000000000E+00 -0.00000000000E+00 -0.74505805969E-08  0.93827000000E+00  0.93827000000E+00 0.  1.
     999902    2    1    2    0    0  0.19367467103E-02  0.84982606163E-02  0.20094159630E-01  0.10220268798E+01  0.10217921493E+01 0.  0.
     999903    2    3    3    0    0 -0.42345616417E-01 -0.79914046991E-01  0.95984937036E-01  0.13324283751E+00  0.19003669972E-01 0.  0.
         14    1    1    2    0    0 -0.19367467103E-02 -0.84982606163E-02 -0.20094159630E-01  0.21903120156E-01  0.00000000000E+00 0. -1.
     999901    1    3    3    0    0  0.44282363127E-01  0.88412307607E-01 -0.75890777406E-01  0.88878404234E+00  0.88000000000E+00 0.  1.
        -11    1    4    4    0    0 -0.15335080408E-01 -0.36194223681E-01  0.29188389809E-01  0.48963350985E-01  0.51100000000E-03 0.  1.
         11    1    4    4    0    0 -0.27010536009E-01 -0.43719823310E-01  0.66796547227E-01  0.84279486521E-01  0.51100000000E-03 0. -1.
</event>
<event>
 8    1  0.1061721E+005  0.1043930E+01  0.7957747E-01            NaN
         13   -1    0    0    0    0  0.00000000000E+00  0.00000000000E+00  0.74505805969E-08  0.10566000000E+00  0.10566000000E+00 0. -1.
     999900   -1    0    0    0    0 -0.00000000000E+00 -0.00000000000E+00 -0.74505805969E-08  0.93827000000E+00  0.93827000000E+00 0. -1.
     999902    2    1    2    0    0 -0.13302211155E-01  0.41727451572E-02  0.10856979150E-01  0.10262598381E+01  0.10261077043E+01 0.  0.
     999903    2    3    3    0    0 -0.12820072209E+00  0.43767774563E-01  0.15852969389E-01  0.13789370074E+00  0.20305487682E-01 0.  0.
         14    1    1    2    0    0  0.13302211155E-01 -0.41727451572E-02 -0.10856979150E-01  0.17670161856E-01  0.00000000000E+00 0.  1.
     999901    1    3    3    0    0  0.11489851094E+00 -0.39595029406E-01 -0.49959902391E-02  0.88836613740E+00  0.88000000000E+00 0.  1.
        -11    1    4    4    0    0 -0.36901559688E-01  0.50201173837E-02 -0.11578066878E-02  0.37262961816E-01  0.51100000000E-03 0. -1.
         11    1    4    4    0    0 -0.91299162403E-01  0.38747657180E-01  0.17010776077E-01  0.10063073892E+00  0.51100000000E-03 0.  1.
</event>
<event>
 8    1  0.1061721E+005  0.1043930E+01  0.7957747E-01            NaN
         13   -1    0    0    0    0  0.00000000000E+00  0.00000000000E+00  0.74505805969E-08  0.10566000000E+00  0.10566000000E+00 0. -1.
     999900   -1    0    0    0    0 -0.00000000000E+00 -0.00000000000E+00 -0.74505805969E-08  0.93827000000E+00  0.93827000000E+00 0. -1.
     999902    2    1    2    0    0 -0.16923550189E-01  0.79834918748E-02 -0.10841330229E-01  0.10223041559E+01  0.10220753935E+01 0.  0.
     999903    2    3    3    0    0  0.99188860597E-01  0.26158190755E-01 -0.80454673880E-01  0.13176587525E+00  0.19147070844E-01 0.  0.
         14    1    1    2    0    0  0.16923550189E-01 -0.79834918748E-02  0.10841330229E-01  0.21625844137E-01  0.00000000000E+00 0. -1.
     999901    1    3    3    0    0 -0.11611241079E+00 -0.18174698880E-01  0.69613343651E-01  0.89053828061E+00  0.88000000000E+00 0.  1.
        -11    1    4    4    0    0  0.23691515663E-01  0.13266916951E-01 -0.27503886921E-01  0.38652605560E-01  0.51100000000E-03 0.  1.
         11    1    4    4    0    0  0.75497344934E-01  0.12891273804E-01 -0.52950786959E-01  0.93113269693E-01  0.51100000000E-03 0. -1.
</event>
<event>
 8    1  0.1061721E+005  0.1043930E+01  0.7957747E-01            NaN
         13   -1    0    0    0    0  0.00000000000E+00  0.00000000000E+00  0.74505805969E-08  0.10566000000E+00  0.10566000000E+00 0. -1.
     999900   -1    0    0    0    0 -0.00000000000E+00 -0.00000000000E+00 -0.74505805969E-08  0.93827000000E+00  0.93827000000E+00 0. -1.
     999902    2    1    2    0    0  0.92240427747E-02  0.43426404919E-02 -0.19456253175E-02  0.10335508406E+01  0.10334987243E+01 0.  0.
     999903    2    3    3    0    0 -0.98817824928E-01 -0.81162610356E-01 -0.56344870297E-01  0.14117005253E+00  0.20047630263E-01 0.  0.
         14    1    1    2    0    0 -0.92240427747E-02 -0.43426404919E-02  0.19456253175E-02  0.10379159380E-01  0.00000000000E+00 0. -1.
     999901    1    3    3    0    0  0.10804186770E+00  0.85505250848E-01  0.54399244979E-01  0.89238078809E+00  0.88000000000E+00 0.  1.
        -11    1    4    4    0    0 -0.59137578069E-01 -0.36080958013E-01 -0.32963033304E-01  0.76719693408E-01  0.51100000000E-03 0. -1.
         11    1    4    4    0    0 -0.39680246859E-01 -0.45081652343E-01 -0.23381836993E-01  0.64450359122E-01  0.51100000000E-03 0.  1.
</event>
<event>
 7    1  0.1061721E+005  0.1043930E+01  0.7957747E-01            NaN
         13   -1    0    0    0    0  0.00000000000E+00  0.00000000000E+00  0.74505805969E-08  0.10566000000E+00  0.10566000000E+00 0. -1.
     999900   -1    0    0    0    0 -0.00000000000E+00 -0.00000000000E+00 -0.74505805969E-08  0.93827000000E+00  0.93827000000E+00 0. -1.
     999903    2    1    2    0    0 -0.16124265206E-01  0.10161777560E+00  0.14217300109E-01  0.10581110133E+00  0.20191416360E-01 0.  0.
         14    1    1    2    0    0  0.12264362812E-01  0.11682859792E-01 -0.47288569033E-01  0.50230593957E-01  0.00000000000E+00 0.  1.
     999901    1    1    2    0    0  0.38599023948E-02 -0.11330063539E+00  0.33071268924E-01  0.88788830472E+00  0.88000000000E+00 0.  1.
        -11    1    3    3    0    0  0.11384570710E-02  0.46673858533E-01  0.90951681464E-03  0.46699395035E-01  0.51100000000E-03 0. -1.
         11    1    3    3    0    0 -0.17262722277E-01  0.54943917069E-01  0.13307783295E-01  0.59111706290E-01  0.51100000000E-03 0.  1.
</event>
<event>
 8    1  0.1061721E+005  0.1043930E+01  0.7957747E-01            NaN
         13   -1    0    0    0    0  0.00000000000E+00  0.00000000000E+00  0.74505805969E-08  0.10566000000E+00  0.10566000000E+00 0.  1.
     999900   -1    0    0    0    0 -0.00000000000E+00 -0.00000000000E+00 -0.74505805969E-08  0.93827000000E+00  0.93827000000E+00 0.  1.
     999902    2    1    2    0    0 -0.10021305834E-01  0.20531166625E-01 -0.68487475939E-02  0.10200791988E+01  0.10198003291E+01 0.  0.
     999903    2    3    3    0    0  0.54218993941E-01  0.37052165363E-01  0.11004329477E+00  0.12987500365E+00  0.21105155485E-01 0.  0.
         14    1    1    2    0    0  0.10021305834E-01 -0.20531166625E-01  0.68487475939E-02  0.23850801186E-01  0.00000000000E+00 0.  1.
     999901    1    3    3    0    0 -0.64240299775E-01 -0.16520998738E-01 -0.11689204236E+00  0.89020419516E+00  0.88000000000E+00 0.  1.
        -11    1    4    4    0    0  0.42091927386E-01  0.37931971664E-01  0.87230493060E-01  0.10401915625E+00  0.51100000000E-03 0.  1.
         11    1    4    4    0    0  0.12127066556E-01 -0.87980630093E-03  0.22812801709E-01  0.25855847408E-01  0.51100000000E-03 0. -1.
</event>
<event>
 8    1  0.1061721E+005  0.1043930E+01  0.7957747E-01            NaN
         13   -1    0    0    0    0  0.00000000000E+00  0.00000000000E+00  0.74505805969E-08  0.10566000000E+00  0.10566000000E+00 0. -1.
     999900   -1    0    0    0    0 -0.00000000000E+00 -0.00000000000E+00 -0.74505805969E-08  0.93827000000E+00  0.93827000000E+00 0. -1.
     999902    2    1    2    0    0 -0.23759240924E-01  0.24012113670E-02  0.50060947413E-02  0.10195306490E+01  0.10192386452E+01 0.  0.
     999903    2    3    3    0    0  0.60589424162E-01  0.31036524641E-01  0.10766510362E+00  0.12909617606E+00  0.20969119070E-01 0.  0.
         14    1    1    2    0    0  0.23759240924E-01 -0.24012113670E-02 -0.50060947413E-02  0.24399351014E-01  0.00000000000E+00 0.  1.
     999901    1    3    3    0    0 -0.84348665086E-01 -0.28635313274E-01 -0.10265900888E+00  0.89043447292E+00  0.88000000000E+00 0. -1.
        -11    1    4    4    0    0  0.16715868916E-01 -0.82227691730E-03  0.20879319615E-01  0.26763847286E-01  0.51100000000E-03 0.  1.
         11    1    4    4    0    0  0.43873555245E-01  0.31858801558E-01  0.86785784004E-01  0.10233232878E+00  0.51100000000E-03 0. -1.
</event>
<event>
 8    1  0.1061721E+005  0.1043930E+01  0.7957747E-01            NaN
         13   -1    0    0    0    0  0.00000000000E+00  0.00000000000E+00  0.74505805969E-08  0.10566000000E+00  0.10566000000E+00 0. -1.
     999900   -1    0    0    0    0 -0.00000000000E+00 -0.00000000000E+00 -0.74505805969E-08  0.93827000000E+00  0.93827000000E+00 0. -1.
     999902    2    1    2    0    0 -0.18382117435E-01 -0.16082369275E-01 -0.27790968060E-02  0.10193481323E+01  0.10190516898E+01 0.  0.
     999903    2    3    3    0    0  0.16813085821E-01  0.12456888631E+00  0.27137164550E-02  0.12746717101E+00  0.20986379794E-01 0.  0.
         14    1    1    2    0    0  0.18382117435E-01  0.16082369275E-01  0.27790968060E-02  0.24581867747E-01  0.00000000000E+00 0. -1.
     999901    1    3    3    0    0 -0.35195203255E-01 -0.14065125559E+00 -0.54928132610E-02  0.89188096124E+00  0.88000000000E+00 0.  1.
        -11    1    4    4    0    0 -0.31997361572E-02  0.46306883547E-01  0.47271435456E-02  0.46660184124E-01  0.51100000000E-03 0.  1.
         11    1    4    4    0    0  0.20012821978E-01  0.78262002763E-01 -0.20134270906E-02  0.80806986887E-01  0.51100000000E-03 0. -1.
</event>
<event>
 8    1  0.1061721E+005  0.1043930E+01  0.7957747E-01            NaN
         13   -1    0    0    0    0  0.00000000000E+00  0.00000000000E+00  0.74505805969E-08  0.10566000000E+00  0.10566000000E+00 0.  1.
     999900   -1    0    0    0    0 -0.00000000000E+00 -0.00000000000E+00 -0.74505805969E-08  0.93827000000E+00  0.93827000000E+00 0.  1.
     999902    2    1    2    0    0  0.15573020209E-01  0.11548219677E-01  0.13747869032E-01  0.10201627065E+01  0.10198858091E+01 0.  0.
     999903    2    3    3    0    0  0.10505082536E+00 -0.58336930805E-01 -0.47797366817E-01  0.13073703345E+00  0.19201828986E-01 0.  0.
         14    1    1    2    0    0 -0.15573020209E-01 -0.11548219677E-01 -0.13747869032E-01  0.23767293474E-01  0.00000000000E+00 0. -1.
     999901    1    3    3    0    0 -0.89477805149E-01  0.69885150482E-01  0.61545235849E-01  0.88942567308E+00  0.88000000000E+00 0. -1.
        -11    1    4    4    0    0  0.56494840880E-01 -0.21587844293E-01 -0.28467824789E-01  0.66845944055E-01  0.51100000000E-03 0. -1.
         11    1    4    4    0    0  0.48555984477E-01 -0.36749086512E-01 -0.19329542028E-01  0.63891089395E-01  0.51100000000E-03 0.  1.
</event>
<event>
 8    1  0.1061721E+005  0.1043930E+01  0.7957747E-01            NaN
         13   -1    0    0    0    0  0.00000000000E+00  0.00000000000E+00  0.74505805969E-08  0.10566000000E+00  0.10566000000E+00 0.  1.
     999900   -1    0    0    0    0 -0.00000000000E+00 -0.00000000000E+00 -0.74505805969E-08  0.93827000000E+00  0.93827000000E+00 0. -1.
     999902    2    1    2    0    0 -0.48141141891E-02 -0.22114797726E-01  0.75860331991E-02  0.10200597701E+01  0.10197804405E+01 0.  0.
     999903    2    3    3    0    0 -0.10344095007E+00  0.93175768198E-02 -0.75847082171E-01  0.13007306706E+00  0.19477564299E-01 0.  0.
         14    1    1    2    0    0  0.48141141891E-02  0.22114797726E-01 -0.75860331991E-02  0.23870229861E-01  0.00000000000E+00 0. -1.
     999901    1    3    3    0    0  0.98626835878E-01 -0.31432374546E-01  0.83433115370E-01  0.88998670308E+00  0.88000000000E+00 0. -1.
        -11    1    4    4    0    0 -0.91720830860E-01  0.14471056833E-01 -0.66555766871E-01  0.11424558427E+00  0.51100000000E-03 0. -1.
         11    1    4    4    0    0 -0.11720119207E-01 -0.51534800131E-02 -0.92913152996E-02  0.15827482790E-01  0.51100000000E-03 0.  1.
</event>
<event>
 8    1  0.1061721E+005  0.1043930E+01  0.7957747E-01            NaN
         13   -1    0    0    0    0  0.00000000000E+00  0.00000000000E+00  0.74505805969E-08  0.10566000000E+00  0.10566000000E+00 0.  1.
     999900   -1    0    0    0    0 -0.00000000000E+00 -0.00000000000E+00 -0.74505805969E-08  0.93827000000E+00  0.93827000000E+00 0. -1.
     999902    2    1    2    0    0 -0.23447741310E-01  0.58569217787E-02  0.46794261325E-02  0.10193129910E+01  0.10190156900E+01 0.  0.
     999903    2    3    3    0    0  0.10572547222E+00 -0.41535586465E-01  0.53801585856E-01  0.12726772557E+00  0.19984566820E-01 0.  0.
         14    1    1    2    0    0  0.23447741310E-01 -0.58569217787E-02 -0.46794261325E-02  0.24617009042E-01  0.00000000000E+00 0. -1.
     999901    1    3    3    0    0 -0.12917321353E+00  0.47392508244E-01 -0.49122159724E-01  0.89204526539E+00  0.88000000000E+00 0. -1.
        -11    1    4    4    0    0  0.29771196545E-01 -0.13356261291E-01  0.25627148365E-01  0.41493682817E-01  0.51100000000E-03 0.  1.
         11    1    4    4    0    0  0.75954275675E-01 -0.28179325174E-01  0.28174437491E-01  0.85774042749E-01  0.51100000000E-03 0. -1.
</event>
<event>
 8    1  0.1061721E+005  0.1043930E+01  0.7957747E-01            NaN
         13   -1    0    0    0    0  0.00000000000E+00  0.00000000000E+00  0.74505805969E-08  0.10566000000E+00  0.10566000000E+00 0.  1.
     999900   -1    0    0    0    0 -0.00000000000E+00 -0.00000000000E+00 -0.74505805969E-08  0.93827000000E+00  0.93827000000E+00 0. -1.
     999902    2    1    2    0    0 -0.23965241608E-01 -0.93157138246E-02 -0.24874897983E-01  0.10081546470E+01  0.10075196854E+01 0.  0.
     999903    2    3    3    0    0 -0.11050802111E+00 -0.28538491505E-01  0.36746341271E-01  0.12155646016E+00  0.19980269805E-01 0.  0.
         14    1    1    2    0    0  0.23965241608E-01  0.93157138246E-02  0.24874897983E-01  0.35775352955E-01  0.00000000000E+00 0.  1.
     999901    1    3    3    0    0  0.86542779504E-01  0.19222777681E-01 -0.61621239254E-01  0.88659818689E+00  0.88000000000E+00 0.  1.
        -11    1    4    4    0    0 -0.68469005844E-01 -0.27576171140E-01  0.23615097522E-01  0.77500864047E-01  0.51100000000E-03 0. -1.
         11    1    4    4    0    0 -0.42039015269E-01 -0.96232036536E-03  0.13131243749E-01  0.44055596110E-01  0.51100000000E-03 0.  1.
</event>
<event>
 8    1  0.1061721E+005  0.1043930E+01  0.7957747E-01            NaN
         13   -1    0    0    0    0  0.00000000000E+00  0.00000000000E+00  0.74505805969E-08  0.10566000000E+00  0.10566000000E+00 0.  1.
     999900   -1    0    0    0    0 -0.00000000000E+00 -0.00000000000E+00 -0.74505805969E-08  0.93827000000E+00  0.93827000000E+00 0.  1.
     999902    2    1    2    0    0  0.17189410773E-01  0.82443245639E-04  0.14906962762E-01  0.10211769743E+01  0.10209234607E+01 0.  0.
     999903    2    3    3    0    0  0.17197248150E-01 -0.85612130747E-01  0.98321436522E-01  0.13308827687E+00  0.20498836204E-01 0.  0.
         14    1    1    2    0    0 -0.17189410773E-01 -0.82443245639E-04 -0.14906962762E-01  0.22753025697E-01  0.00000000000E+00 0.  1.
     999901    1    3    3    0    0 -0.78373773711E-05  0.85694573993E-01 -0.83414473760E-01  0.88808869743E+00  0.88000000000E+00 0.  1.
        -11    1    4    4    0    0  0.63824488648E-02 -0.44275498319E-01  0.64971385902E-01  0.78883442572E-01  0.51100000000E-03 0.  1.
         11    1    4    4    0    0  0.10814799285E-01 -0.41336632428E-01  0.33350050620E-01  0.54204834299E-01  0.51100000000E-03 0. -1.
</event>
<event>
 8    1  0.1061721E+005  0.1043930E+01  0.7957747E-01            NaN
         13   -1    0    0    0    0  0.00000000000E+00  0.00000000000E+00  0.74505805969E-08  0.10566000000E+00  0.10566000000E+00 0. -1.
     999900   -1    0    0    0    0 -0.00000000000E+00 -0.00000000000E+00 -0.74505805969E-08  0.93827000000E+00  0.93827000000E+00 0. -1.
     999902    2    1    2    0    0  0.12598452121E-01 -0.22029713920E-01  0.17208178217E-02  0.10184939920E+01  0.10181763212E+01 0.  0.
     999903    2    3    3    0    0  0.11614139605E+00 -0.29299382546E-01 -0.49039233382E-01  0.13094085433E+00  0.19833890886E-01 0.  0.
         14    1    1    2    0    0 -0.12598452121E-01  0.22029713920E-01 -0.17208178217E-02  0.25436008044E-01  0.00000000000E+00 0.  1.
     999901    1    3    3    0    0 -0.10354294392E+00  0.72696686261E-02  0.50760051204E-01  0.88755313763E+00  0.88000000000E+00 0.  1.
        -11    1    4    4    0    0  0.98821677494E-01 -0.31620417035E-01 -0.39478350276E-01  0.11101520606E+00  0.51100000000E-03 0.  1.
         11    1    4    4    0    0  0.17319718553E-01  0.23210344889E-02 -0.95608831063E-02  0.19925648261E-01  0.51100000000E-03 0. -1.
</event>
<event>
 8    1  0.1227849E+005  0.1043930E+01  0.7957747E-01            NaN
         13   -1    0    0    0    0  0.00000000000E+00  0.00000000000E+00  0.74505805969E-08  0.10566000000E+00  0.10566000000E+00 0. -1.
     999900   -1    0    0    0    0 -0.00000000000E+00 -0.00000000000E+00 -0.74505805969E-08  0.93827000000E+00  0.93827000000E+00 0. -1.
     999902    2    1    2    0    0 -0.20561947508E-01 -0.18331446301E-02 -0.10887040809E-01  0.10205915818E+01  0.10203247008E+01 0.  0.
     999903    2    3    3    0    0  0.53003464893E-01  0.97379705474E-01 -0.65420642756E-01  0.13029445545E+00  0.20114927105E-01 0.  0.
         14    1    1    2    0    0  0.20561947508E-01  0.18331446301E-02  0.10887040809E-01  0.23338418158E-01  0.00000000000E+00 0. -1.
     999901    1    3    3    0    0 -0.73565412401E-01 -0.99212850105E-01  0.54533601946E-01  0.89029712640E+00  0.88000000000E+00 0.  1.
        -11    1    4    4    0    0  0.30177708473E-01  0.74388411344E-01 -0.46635649817E-01  0.92841126587E-01  0.51100000000E-03 0.  1.
         11    1    4    4    0    0  0.22825756421E-01  0.22991294130E-01 -0.18784992938E-01  0.37453328859E-01  0.51100000000E-03 0. -1.
</event>
<event>
 7    1  0.1061721E+005  0.1043930E+01  0.7957747E-01            NaN
         13   -1    0    0    0    0  0.00000000000E+00  0.00000000000E+00  0.74505805969E-08  0.10566000000E+00  0.10566000000E+00 0.  1.
     999900   -1    0    0    0    0 -0.00000000000E+00 -0.00000000000E+00 -0.74505805969E-08  0.93827000000E+00  0.93827000000E+00 0. -1.
     999903    2    1    2    0    0  0.71345007573E-02 -0.63657087229E-02  0.66476229730E-01  0.69877795053E-01  0.19297506933E-01 0.  0.
         14    1    1    2    0    0  0.22897505312E-01  0.18698178650E-01  0.76416585337E-01  0.81935414498E-01  0.00000000000E+00 0.  1.
     999901    1    1    2    0    0 -0.30032006069E-01 -0.12332469927E-01 -0.14289281507E+00  0.89211679045E+00  0.88000000000E+00 0. -1.
        -11    1    3    3    0    0 -0.63984491820E-02  0.32364812805E-03  0.19171726401E-01  0.20220314395E-01  0.51100000000E-03 0. -1.
         11    1    3    3    0    0  0.13532949939E-01 -0.66893568510E-02  0.47304503329E-01  0.49657480658E-01  0.51100000000E-03 0.  1.
</event>
<event>
 8    1  0.1061721E+005  0.1043930E+01  0.7957747E-01            NaN
         13   -1    0    0    0    0  0.00000000000E+00  0.00000000000E+00  0.74505805969E-08  0.10566000000E+00  0.10566000000E+00 0.  1.
     999900   -1    0    0    0    0 -0.00000000000E+00 -0.00000000000E+00 -0.74505805969E-08  0.93827000000E+00  0.93827000000E+00 0.  1.
     999902    2    1    2    0    0 -0.43624678380E-02  0.90051153789E-02 -0.22575907722E-01  0.10192359757E+01  0.10189367886E+01 0.  0.
     999903    2    3    3    0    0 -0.12319814229E+00 -0.87070947034E-02 -0.38723419576E-01  0.13092500418E+00  0.19704256794E-01 0.  0.
         14    1    1    2    0    0  0.43624678380E-02 -0.90051153789E-02  0.22575907722E-01  0.24694024340E-01  0.00000000000E+00 0.  1.
     999901    1    3    3    0    0  0.11883567445E+00  0.17712210082E-01  0.16147511854E-01  0.88831097148E+00  0.88000000000E+00 0. -1.
        -11    1    4    4    0    0 -0.32335053342E-01 -0.10500182844E-01 -0.13731378668E-01  0.36669079556E-01  0.51100000000E-03 0. -1.
         11    1    4    4    0    0 -0.90863088944E-01  0.17930881403E-02 -0.24992040908E-01  0.94255924627E-01  0.51100000000E-03 0.  1.
</event>
<event>
 8    1  0.1061721E+005  0.1043930E+01  0.7957747E-01            NaN
         13   -1    0    0    0    0  0.00000000000E+00  0.00000000000E+00  0.74505805969E-08  0.10566000000E+00  0.10566000000E+00 0.  1.
     999900   -1    0    0    0    0 -0.00000000000E+00 -0.00000000000E+00 -0.74505805969E-08  0.93827000000E+00  0.93827000000E+00 0.  1.
     999902    2    1    2    0    0 -0.10892374422E-02 -0.24066017136E-01 -0.67668922797E-03  0.10198298438E+01  0.10195450421E+01 0.  0.
     999903    2    3    3    0    0 -0.93915606910E-01  0.15555428248E-02  0.88152291391E-01  0.13013113809E+00  0.18458756412E-01 0.  0.
         14    1    1    2    0    0  0.10892374422E-02  0.24066017136E-01  0.67668922797E-03  0.24100156167E-01  0.00000000000E+00 0. -1.
     999901    1    3    3    0    0  0.92826369468E-01 -0.25621559960E-01 -0.88828980619E-01  0.88969870574E+00  0.88000000000E+00 0.  1.
        -11    1    4    4    0    0 -0.16341920583E-01  0.19079051874E-02  0.70689306878E-02  0.17914501740E-01  0.51100000000E-03 0.  1.
         11    1    4    4    0    0 -0.77573686327E-01 -0.35236236263E-03  0.81083360703E-01  0.11221663635E+00  0.51100000000E-03 0. -1.
</event>
<event>
 7    1  0.1061721E+005  0.1043930E+01  0.7957747E-01            NaN
         13   -1    0    0    0    0  0.00000000000E+00  0.00000000000E+00  0.74505805969E-08  0.10566000000E+00  0.10566000000E+00 0. -1.
     999900   -1    0    0    0    0 -0.00000000000E+00 -0.00000000000E+00 -0.74505805969E-08  0.93827000000E+00  0.93827000000E+00 0. -1.
     999903    2    1    2    0    0 -0.92121091979E-01  0.22231484060E-01 -0.43717776537E-01  0.10622161047E+00  0.19780092889E-01 0.  0.
         14    1    1    2    0    0 -0.36024550051E-01 -0.12002316188E-01 -0.25404568334E-01  0.45686057966E-01  0.00000000000E+00 0.  1.
     999901    1    1    2    0    0  0.12814564203E+00 -0.10229167872E-01  0.69122344871E-01  0.89202233156E+00  0.88000000000E+00 0.  1.
        -11    1    3    3    0    0 -0.83141522297E-01  0.14855421579E-01 -0.42430305325E-01  0.94518718839E-01  0.51100000000E-03 0.  1.
         11    1    3    3    0    0 -0.89795696827E-02  0.73760624815E-02 -0.12874712123E-02  0.11702891632E-01  0.51100000000E-03 0. -1.
</event>
<event>
 8    1  0.1061721E+005  0.1043930E+01  0.7957747E-01            NaN
         13   -1    0    0    0    0  0.00000000000E+00  0.00000000000E+00  0.74505805969E-08  0.10566000000E+00  0.10566000000E+00 0.  1.
     999900   -1    0    0    0    0 -0.00000000000E+00 -0.00000000000E+00 -0.74505805969E-08  0.93827000000E+00  0.93827000000E+00 0. -1.
     999902    2    1    2    0    0  0.19824528278E-01  0.11563970764E-01 -0.79637389514E-02  0.10196368224E+01  0.10193473849E+01 0.  0.
     999903    2    3    3    0    0  0.12875188099E+00 -0.13694208918E-03 -0.24982201290E-01  0.13268039301E+00  0.20072635490E-01 0.  0.
         14    1    1    2    0    0 -0.19824528278E-01 -0.11563970764E-01  0.79637389514E-02  0.24293177629E-01  0.00000000000E+00 0. -1.
     999901    1    3    3    0    0 -0.10892735271E+00  0.11700912853E-01  0.17018462339E-01  0.88695642936E+00  0.88000000000E+00 0.  1.
        -11    1    4    4    0    0  0.84680647529E-01  0.79368902678E-02 -0.11118022345E-01  0.85776907352E-01  0.51100000000E-03 0. -1.
         11    1    4    4    0    0  0.44071233461E-01 -0.80738323570E-02 -0.13864178946E-01  0.46903485654E-01  0.51100000000E-03 0.  1.
</event>
<event>
 8    1  0.1061721E+005  0.1043930E+01  0.7957747E-01            NaN
         13   -1    0    0    0    0  0.00000000000E+00  0.00000000000E+00  0.74505805969E-08  0.10566000000E+00  0.10566000000E+00 0. -1.
     999900   -1    0    0    0    0 -0.00000000000E+00 -0.00000000000E+00 -0.74505805969E-08  0.93827000000E+00  0.93827000000E+00 0. -1.
     999902    2    1    2    0    0  0.18731703284E-01 -0.17031399817E-02 -0.16910056056E-01  0.10186371672E+01  0.10183231074E+01 0.  0.
     999903    2    3    3    0    0 -0.31266137545E-01  0.12253902100E+00  0.67998131220E-02  0.12818893373E+00  0.19818734715E-01 0.  0.
         14    1    1    2    0    0 -0.18731703284E-01  0.17031399817E-02  0.16910056056E-01  0.25292832770E-01  0.00000000000E+00 0.  1.
     999901    1    3    3    0    0  0.49997840830E-01 -0.12424216099E+00 -0.23709869178E-01  0.89044823350E+00  0.88000000000E+00 0. -1.
        -11    1    4    4    0    0 -0.64543519237E-02  0.93633751820E-02  0.46705511676E-02  0.12304739850E-01  0.51100000000E-03 0. -1.
         11    1    4    4    0    0 -0.24811785622E-01  0.11317564582E+00  0.21292619544E-02  0.11588419388E+00  0.51100000000E-03 0.  1.
</event>
<event>
 8    1  0.1061721E+005  0.1043930E+01  0.7957747E-01            NaN
         13   -1    0    0    0    0  0.00000000000E+00  0.00000000000E+00  0.74505805969E-08  0.10566000000E+00  0.10566000000E+00 0. -1.
     999900   -1    0    0    0    0 -0.00000000000E+00 -0.00000000000E+00 -0.74505805969E-08  0.93827000000E+00  0.93827000000E+00 0.  1.
     999902    2    1    2    0    0 -0.11055985018E-01  0.18049499291E-01  0.76084204895E-02  0.10214376170E+01  0.10211899423E+01 0.  0.
     999903    2    3    3    0    0  0.77951809204E-01  0.53475062164E-01 -0.88571088912E-01  0.13102880308E+00  0.19688641719E-01 0.  0.
         14    1    1    2    0    0  0.11055985018E-01 -0.18049499291E-01 -0.76084204895E-02  0.22492382971E-01  0.00000000000E+00 0.  1.
     999901    1    3    3    0    0 -0.89007794222E-01 -0.35425562873E-01  0.96179509402E-01  0.89040881395E+00  0.88000000000E+00 0. -1.
        -11    1    4    4    0    0  0.53079088421E-01  0.26225930485E-01 -0.48288674987E-01  0.76401873737E-01  0.51100000000E-03 0. -1.
         11    1    4    4    0    0  0.24872720782E-01  0.27249131679E-01 -0.40282413925E-01  0.54626929339E-01  0.51100000000E-03 0.  1.
</event>
<event>
 8    1  0.1061721E+005  0.1043930E+01  0.7957747E-01            NaN
         13   -1    0    0    0    0  0.00000000000E+00  0.00000000000E+00  0.74505805969E-08  0.10566000000E+00  0.10566000000E+00 0.  1.
     999900   -1    0    0    0    0 -0.00000000000E+00 -0.00000000000E+00 -0.74505805969E-08  0.93827000000E+00  0.93827000000E+00 0.  1.
     999902    2    1    2    0    0  0.13419785471E-02 -0.23183094236E-01 -0.39830114653E-02  0.10203689910E+01  0.10200969349E+01 0.  0.
     999903    2    3    3    0    0 -0.12248371435E-01  0.69250701771E-01  0.10584285126E+00  0.12863448770E+00  0.19960960972E-01 0.  0.
         14    1    1    2    0    0 -0.13419785471E-02  0.23183094236E-01  0.39830114653E-02  0.23561009000E-01  0.00000000000E+00 0. -1.
     999901    1    3    3    0    0  0.13590349982E-01 -0.92433796007E-01 -0.10982586273E+00  0.89173450330E+00  0.88000000000E+00 0.  1.
        -11    1    4    4    0    0 -0.75960028350E-02  0.43642756766E-01  0.48666898497E-01  0.65811227063E-01  0.51100000000E-03 0.  1.
         11    1    4    4    0    0 -0.46523686003E-02  0.25607945005E-01  0.57175952766E-01  0.62823260634E-01  0.51100000000E-03 0. -1.
</event>
<event>
 8    1  0.1061721E+005  0.1043930E+01  0.7957747E-01            NaN
         13   -1    0    0    0    0  0.00000000000E+00  0.00000000000E+00  0.74505805969E-08  0.10566000000E+00  0.10566000000E+00 0.  1.
     999900   -1    0    0    0    0 -0.00000000000E+00 -0.00000000000E+00 -0.74505805969E-08  0.93827000000E+00  0.93827000000E+00 0. -1.
     999902    2    1    2    0    0 -0.20388861652E-01  0.38888358002E-02 -0.10465199307E-01  0.10206845893E+01  0.10204198556E+01 0.  0.
     999903    2    3    3    0    0  0.38138002459E-01 -0.12179968748E+00  0.64599275180E-02  0.12966861937E+00  0.21966999893E-01 0.  0.
         14    1    1    2    0    0  0.20388861652E-01 -0.38888358002E-02  0.10465199307E-01  0.23245410727E-01  0.00000000000E+00 0. -1.
     999901    1    3    3    0    0 -0.58526864111E-01  0.12568852328E+00 -0.16925126825E-01  0.89101596990E+00  0.88000000000E+00 0.  1.
        -11    1    4    4    0    0  0.38383041166E-01 -0.99756554454E-01  0.74588367527E-03  0.10688987543E+00  0.51100000000E-03 0.  1.
         11    1    4    4    0    0 -0.24503870706E-03 -0.22043133023E-01  0.57140438428E-02  0.22778743940E-01  0.51100000000E-03 0. -1.
</event>
<event>
 8    1  0.1061721E+005  0.1043930E+01  0.7957747E-01            NaN
         13   -1    0    0    0    0  0.00000000000E+00  0.00000000000E+00  0.74505805969E-08  0.10566000000E+00  0.10566000000E+00 0.  1.
     999900   -1    0    0    0    0 -0.00000000000E+00 -0.00000000000E+00 -0.74505805969E-08  0.93827000000E+00  0.93827000000E+00 0.  1.
     999902    2    1    2    0    0 -0.31307642794E-01  0.19732934033E-01 -0.36867652827E-02  0.10067392831E+01  0.10060521034E+01 0.  0.
     999903    2    3    3    0    0  0.99547192912E-01  0.32426365558E-01 -0.45833705150E-01  0.11597529881E+00  0.19708592176E-01 0.  0.
         14    1    1    2    0    0  0.31307642794E-01 -0.19732934033E-01  0.36867652827E-02  0.37190716867E-01  0.00000000000E+00 0.  1.
     999901    1    3    3    0    0 -0.13085483571E+00 -0.12693431526E-01  0.42146939867E-01  0.89076398433E+00  0.88000000000E+00 0.  1.
        -11    1    4    4    0    0  0.26870313906E-01  0.67631023822E-03 -0.76486750086E-02  0.27950572720E-01  0.51100000000E-03 0. -1.
         11    1    4    4    0    0  0.72676879006E-01  0.31750055320E-01 -0.38185030141E-01  0.88024726087E-01  0.51100000000E-03 0.  1.
</event>
<event>
 8    1  0.1061721E+005  0.1043930E+01  0.7957747E-01            NaN
         13   -1    0    0    0    0  0.00000000000E+00  0.00000000000E+00  0.74505805969E-08  0.10566000000E+00  0.10566000000E+00 0. -1.
     999900   -1    0    0    0    0 -0.00000000000E+00 -0.00000000000E+00 -0.74505805969E-08  0.93827000000E+00  0.93827000000E+00 0. -1.
     999902    2    1    2    0    0  0.15280187986E-02  0.16143597885E-01 -0.17111472532E-01  0.10203555841E+01  0.10200832147E+01 0.  0.
     999903    2    3    3    0    0  0.81179286235E-01 -0.92676417941E-01  0.32306520728E-01  0.12871201274E+00  0.18549285292E-01 0.  0.
         14    1    1    2    0    0 -0.15280187986E-02 -0.16143597885E-01  0.17111472532E-01  0.23574415928E-01  0.00000000000E+00 0.  1.
     999901    1    3    3    0    0 -0.79651267436E-01  0.10882001583E+00 -0.49417993261E-01  0.89164357134E+00  0.88000000000E+00 0. -1.
        -11    1    4    4    0    0  0.39461154173E-01 -0.47483476165E-01  0.67612124436E-02  0.62111499033E-01  0.51100000000E-03 0. -1.
         11    1    4    4    0    0  0.41718132062E-01 -0.45192941776E-01  0.25545308285E-01  0.66600513703E-01  0.51100000000E-03 0.  1.
</event>
<event>
 8    1  0.1061721E+005  0.1043930E+01  0.7957747E-01            NaN
         13   -1    0    0    0    0  0.00000000000E+00  0.00000000000E+00  0.74505805969E-08  0.10566000000E+00  0.10566000000E+00 0.  1.
     999900   -1    0    0    0    0 -0.00000000000E+00 -0.00000000000E+00 -0.74505805969E-08  0.93827000000E+00  0.93827000000E+00 0. -1.
     999902    2    1    2    0    0 -0.14292980754E-01 -0.17426385444E-01  0.44892750504E-02  0.10209490993E+01  0.10206904239E+01 0.  0.
     999903    2    3    3    0    0  0.39739576569E-01  0.10602947641E+00  0.58337048609E-01  0.12906320420E+00  0.20799414069E-01 0.  0.
         14    1    1    2    0    0  0.14292980754E-01  0.17426385444E-01 -0.44892750504E-02  0.22980900742E-01  0.00000000000E+00 0. -1.
     999901    1    3    3    0    0 -0.54032557322E-01 -0.12345586185E+00 -0.53847773558E-01  0.89188589505E+00  0.88000000000E+00 0.  1.
        -11    1    4    4    0    0  0.36939812163E-01  0.94863192193E-01  0.44630276571E-01  0.11115618590E+00  0.51100000000E-03 0.  1.
         11    1    4    4    0    0  0.27997644061E-02  0.11166284218E-01  0.13706772038E-01  0.17907018307E-01  0.51100000000E-03 0. -1.
</event>
<event>
 8    1  0.1061721E+005  0.1043930E+01  0.7957747E-01            NaN
         13   -1    0    0    0    0  0.00000000000E+00  0.00000000000E+00  0.74505805969E-08  0.10566000000E+00  0.10566000000E+00 0. -1.
     999900   -1    0    0    0    0 -0.00000000000E+00 -0.00000000000E+00 -0.74505805969E-08  0.93827000000E+00  0.93827000000E+00 0.  1.
     999902    2    1    2    0    0  0.22142878426E-01  0.10964908056E-02  0.10132055588E-01  0.10195544404E+01  0.10192630127E+01 0.  0.
     999903    2    3    3    0    0 -0.82117391484E-02 -0.84538569984E-01 -0.94618968071E-01  0.12869668326E+00  0.19896851192E-01 0.  0.
         14    1    1    2    0    0 -0.22142878426E-01 -0.10964908056E-02 -0.10132055588E-01  0.24375559635E-01  0.00000000000E+00 0.  1.
     999901    1    3    3    0    0  0.30354617575E-01  0.85635060790E-01  0.10475102366E+00  0.89085775711E+00  0.88000000000E+00 0. -1.
        -11    1    4    4    0    0 -0.30024349518E-02 -0.78384030625E-01 -0.90011048821E-01  0.11939564860E+00  0.51100000000E-03 0. -1.
         11    1    4    4    0    0 -0.52093041966E-02 -0.61545393592E-02 -0.46079192501E-02  0.93010346604E-02  0.51100000000E-03 0.  1.
</event>
<event>
 8    1  0.1061721E+005  0.1043930E+01  0.7957747E-01            NaN
         13   -1    0    0    0    0  0.00000000000E+00  0.00000000000E+00  0.74505805969E-08  0.10566000000E+00  0.10566000000E+00 0. -1.
     999900   -1    0    0    0    0 -0.00000000000E+00 -0.00000000000E+00 -0.74505805969E-08  0.93827000000E+00  0.93827000000E+00 0.  1.
     999902    2    1    2    0    0 -0.15374400641E-01  0.63212501169E-02  0.16740831171E-01  0.10203379287E+01  0.10200651464E+01 0.  0.
     999903    2    3    3    0    0 -0.23461943144E-01  0.10817361332E+00  0.70697986251E-01  0.13278472649E+00  0.19534199139E-01 0.  0.
         14    1    1    2    0    0  0.15374400641E-01 -0.63212501169E-02 -0.16740831171E-01  0.23592071262E-01  0.00000000000E+00 0.  1.
     999901    1    3    3    0    0  0.80875425032E-02 -0.10185236320E+00 -0.53957155080E-01  0.88755320225E+00  0.88000000000E+00 0. -1.
        -11    1    4    4    0    0 -0.17259790111E-02  0.23750898160E-01  0.70349721712E-02  0.24836185726E-01  0.51100000000E-03 0. -1.
         11    1    4    4    0    0 -0.21735964133E-01  0.84422715155E-01  0.63663014080E-01  0.10794854077E+00  0.51100000000E-03 0.  1.
</event>
<event>
 8    1  0.1061721E+005  0.1043930E+01  0.7957747E-01            NaN
         13   -1    0    0    0    0  0.00000000000E+00  0.00000000000E+00  0.74505805969E-08  0.10566000000E+00  0.10566000000E+00 0.  1.
     999900   -1    0    0    0    0 -0.00000000000E+00 -0.00000000000E+00 -0.74505805969E-08  0.93827000000E+00  0.93827000000E+00 0. -1.
     999902    2    1    2    0    0  0.15710369678E-01  0.17129082837E-01 -0.22267163777E-02  0.10205809216E+01  0.10203137940E+01 0.  0.
     999903    2    3    3    0    0  0.66998058210E-01  0.10442651721E+00  0.45149684947E-01  0.13350945189E+00  0.19815206145E-01 0.  0.
         14    1    1    2    0    0 -0.15710369678E-01 -0.17129082837E-01  0.22267163777E-02  0.23349078356E-01  0.00000000000E+00 0.  1.
     999901    1    3    3    0    0 -0.51287688532E-01 -0.87297434369E-01 -0.47376401325E-01  0.88707146975E+00  0.88000000000E+00 0.  1.
        -11    1    4    4    0    0  0.53413356831E-01  0.79033433056E-01  0.42973490004E-01  0.10462433843E+00  0.51100000000E-03 0. -1.
         11    1    4    4    0    0  0.13584701379E-01  0.25393084150E-01  0.21761949437E-02  0.28885113460E-01  0.51100000000E-03 0.  1.
</event>
<event>
 8    1  0.1061721E+005  0.1043930E+01  0.7957747E-01            NaN
         13   -1    0    0    0    0  0.00000000000E+00  0.00000000000E+00  0.74505805969E-08  0.10566000000E+00  0.10566000000E+00 0.  1.
     999900   -1    0    0    0    0 -0.00000000000E+00 -0.00000000000E+00 -0.74505805969E-08  0.93827000000E+00  0.93827000000E+00 0. -1.
     999902    2    1    2    0    0  0.10054347651E-01  0.14126682551E-01 -0.14695317124E-01  0.10212010446E+01  0.10209480732E+01 0.  0.
     999903    2    3    3    0    0 -0.90918239152E-01  0.91881316777E-01  0.15206209009E-01  0.13151832158E+00  0.18908663013E-01 0.  0.
         14    1    1    2    0    0 -0.10054347651E-01 -0.14126682551E-01  0.14695317124E-01  0.22728955365E-01  0.00000000000E+00 0.  1.
     999901    1    3    3    0    0  0.10097258680E+00 -0.77754634226E-01 -0.29901526132E-01  0.88968272305E+00  0.88000000000E+00 0. -1.
        -11    1    4    4    0    0 -0.64231400353E-01  0.56753897265E-01  0.16915153706E-01  0.87367392040E-01  0.51100000000E-03 0. -1.
         11    1    4    4    0    0 -0.26686838800E-01  0.35127419512E-01 -0.17089446972E-02  0.44150929545E-01  0.51100000000E-03 0.  1.
</event>
<event>
 8    1  0.1061721E+005  0.1043930E+01  0.7957747E-01            NaN
         13   -1    0    0    0    0  0.00000000000E+00  0.00000000000E+00  0.74505805969E-08  0.10566000000E+00  0.10566000000E+00 0. -1.
     999900   -1    0    0    0    0 -0.00000000000E+00 -0.00000000000E+00 -0.74505805969E-08  0.93827000000E+00  0.93827000000E+00 0. -1.
     999902    2    1    2    0    0 -0.18426617810E-01 -0.14657634923E-01 -0.12092651709E-02  0.10203535535E+01  0.10200811367E+01 0.  0.
     999903    2    3    3    0    0 -0.10594185375E+00  0.57277452942E-01 -0.48356923617E-01  0.13183992107E+00  0.23216152444E-01 0.  0.
         14    1    1    2    0    0  0.18426617810E-01  0.14657634923E-01  0.12092651709E-02  0.23576446461E-01  0.00000000000E+00 0.  1.
     999901    1    3    3    0    0  0.87515235940E-01 -0.71935087866E-01  0.47147658446E-01  0.88851363247E+00  0.88000000000E+00 0.  1.
        -11    1    4    4    0    0 -0.73179620212E-01  0.39608354438E-01 -0.21525967727E-01  0.85951771146E-01  0.51100000000E-03 0. -1.
         11    1    4    4    0    0 -0.32762233539E-01  0.17669098505E-01 -0.26830955890E-01  0.45888149923E-01  0.51100000000E-03 0.  1.
</event>
<event>
 8    1  0.1061721E+005  0.1043930E+01  0.7957747E-01            NaN
         13   -1    0    0    0    0  0.00000000000E+00  0.00000000000E+00  0.74505805969E-08  0.10566000000E+00  0.10566000000E+00 0. -1.
     999900   -1    0    0    0    0 -0.00000000000E+00 -0.00000000000E+00 -0.74505805969E-08  0.93827000000E+00  0.93827000000E+00 0.  1.
     999902    2    1    2    0    0 -0.11283207254E-01  0.74133234379E-02  0.19521225904E-01  0.10201950808E+01  0.10199189460E+01 0.  0.
     999903    2    3    3    0    0 -0.16095873687E-01 -0.83902965660E-01 -0.93484071424E-01  0.12826906161E+00  0.20368990180E-01 0.  0.
         14    1    1    2    0    0  0.11283207254E-01 -0.74133234379E-02 -0.19521225904E-01  0.23734919236E-01  0.00000000000E+00 0.  1.
     999901    1    3    3    0    0  0.48126664325E-02  0.91316289098E-01  0.11300529733E+00  0.89192601915E+00  0.88000000000E+00 0.  1.
        -11    1    4    4    0    0 -0.74828114013E-02 -0.60384820642E-01 -0.53172347833E-01  0.80807665017E-01  0.51100000000E-03 0. -1.
         11    1    4    4    0    0 -0.86130622856E-02 -0.23518145018E-01 -0.40311723591E-01  0.47461396597E-01  0.51100000000E-03 0.  1.
</event>
<event>
 7    1  0.1061721E+005  0.1043930E+01  0.7957747E-01            NaN
         13   -1    0    0    0    0  0.00000000000E+00  0.00000000000E+00  0.74505805969E-08  0.10566000000E+00  0.10566000000E+00 0. -1.
     999900   -1    0    0    0    0 -0.00000000000E+00 -0.00000000000E+00 -0.74505805969E-08  0.93827000000E+00  0.93827000000E+00 0. -1.
     999903    2    1    2    0    0 -0.40328186609E-01  0.61420145472E-01  0.62689693856E-01  0.98623496424E-01  0.19944909781E-01 0.  0.
         14    1    1    2    0    0  0.79481234613E-02 -0.30394833178E-01  0.47866757180E-01  0.57255960331E-01  0.00000000000E+00 0. -1.
     999901    1    1    2    0    0  0.32380063148E-01 -0.31025312294E-01 -0.11055645104E+00  0.88805054325E+00  0.88000000000E+00 0. -1.
        -11    1    3    3    0    0 -0.32277883686E-01  0.57672470534E-01  0.60168931230E-01  0.89378616230E-01  0.51100000000E-03 0.  1.
         11    1    3    3    0    0 -0.80503029230E-02  0.37476749385E-02  0.25207626258E-02  0.92448801946E-02  0.51100000000E-03 0. -1.
</event>
<event>
 8    1  0.1061721E+005  0.1043930E+01  0.7957747E-01            NaN
         13   -1    0    0    0    0  0.00000000000E+00  0.00000000000E+00  0.74505805969E-08  0.10566000000E+00  0.10566000000E+00 0.  1.
     999900   -1    0    0    0    0 -0.00000000000E+00 -0.00000000000E+00 -0.74505805969E-08  0.93827000000E+00  0.93827000000E+00 0. -1.
     999902    2    1    2    0    0  0.15417362406E-01 -0.12122075706E-01  0.15295508850E-01  0.10190584827E+01  0.10187549258E+01 0.  0.
     999903    2    3    3    0    0  0.11439311849E+00 -0.59539281848E-01  0.21146286021E-01  0.13222206973E+00  0.20119609120E-01 0.  0.
         14    1    1    2    0    0 -0.15417362406E-01  0.12122075706E-01 -0.15295508850E-01  0.24871517324E-01  0.00000000000E+00 0. -1.
     999901    1    3    3    0    0 -0.98975756082E-01  0.47417206142E-01 -0.58507771703E-02  0.88683641294E+00  0.88000000000E+00 0. -1.
        -11    1    4    4    0    0  0.67402648731E-01 -0.41783323804E-01  0.50283876079E-02  0.79463884923E-01  0.51100000000E-03 0.  1.
         11    1    4    4    0    0  0.46990469758E-01 -0.17755958044E-01  0.16117898413E-01  0.52758184809E-01  0.51100000000E-03 0. -1.
</event>
<event>
 8    1  0.1061721E+005  0.1043930E+01  0.7957747E-01            NaN
         13   -1    0    0    0    0  0.00000000000E+00  0.00000000000E+00  0.74505805969E-08  0.10566000000E+00  0.10566000000E+00 0. -1.
     999900   -1    0    0    0    0 -0.00000000000E+00 -0.00000000000E+00 -0.74505805969E-08  0.93827000000E+00  0.93827000000E+00 0.  1.
     999902    2    1    2    0    0 -0.95578416000E-02 -0.31024735090E-02  0.26976215961E-01  0.10151429559E+01  0.10147347077E+01 0.  0.
     999903    2    3    3    0    0  0.99889141399E-01  0.31191939720E-01  0.68745437151E-01  0.12671771052E+00  0.19510647287E-01 0.  0.
         14    1    1    2    0    0  0.95578416000E-02  0.31024735090E-02 -0.26976215961E-01  0.28787044057E-01  0.00000000000E+00 0.  1.
     999901    1    3    3    0    0 -0.10944698300E+00 -0.34294413229E-01 -0.41769221189E-01  0.88842524542E+00  0.88000000000E+00 0. -1.
        -11    1    4    4    0    0  0.32304423107E-01  0.89661358214E-03  0.22896678270E-01  0.39609325480E-01  0.51100000000E-03 0.  1.
         11    1    4    4    0    0  0.67584718292E-01  0.30295326138E-01  0.45848758881E-01  0.87108385040E-01  0.51100000000E-03 0. -1.
</event>
<event>
 8    1  0.1061721E+005  0.1043930E+01  0.7957747E-01            NaN
         13   -1    0    0    0    0  0.00000000000E+00  0.00000000000E+00  0.74505805969E-08  0.10566000000E+00  0.10566000000E+00 0. -1.
     999900   -1    0    0    0    0 -0.00000000000E+00 -0.00000000000E+00 -0.74505805969E-08  0.93827000000E+00  0.93827000000E+00 0.  1.
     999902    2    1    2    0    0 -0.17715725789E-01 -0.10578885305E-01  0.11165324211E-01  0.10204688786E+01  0.10201991511E+01 0.  0.
     999903    2    3    3    0    0 -0.23433321540E-01  0.12285790305E+00 -0.27450478599E-01  0.12955404110E+00  0.19685931266E-01 0.  0.
         14    1    1    2    0    0  0.17715725789E-01  0.10578885305E-01 -0.11165324211E-01  0.23461121441E-01  0.00000000000E+00 0.  1.
     999901    1    3    3    0    0  0.57175957515E-02 -0.13343678835E+00  0.38615802810E-01  0.89091483746E+00  0.88000000000E+00 0.  1.
        -11    1    4    4    0    0 -0.40147613617E-02  0.23219635367E-01  0.25305222051E-02  0.23705156380E-01  0.51100000000E-03 0.  1.
         11    1    4    4    0    0 -0.19418560179E-01  0.99638267678E-01 -0.29981000804E-01  0.10584888472E+00  0.51100000000E-03 0. -1.
</event>
<event>
 8    1  0.1061721E+005  0.1043930E+01  0.7957747E-01            NaN
         13   -1    0    0    0    0  0.00000000000E+00  0.00000000000E+00  0.74505805969E-08  0.10566000000E+00  0.10566000000E+00 0. -1.
     999900   -1    0    0    0    0 -0.00000000000E+00 -0.00000000000E+00 -0.74505805969E-08  0.93827000000E+00  0.93827000000E+00 0.  1.
     999902    2    1    2    0    0  0.17668638503E-01 -0.17617637458E-01  0.12557458321E-01  0.10159970142E+01  0.10156129584E+01 0.  0.
     999903    2    3    3    0    0 -0.16459727612E-02 -0.11804586582E-01 -0.12329410707E+00  0.12534416736E+00  0.19174617645E-01 0.  0.
         14    1    1    2    0    0 -0.17668638503E-01  0.17617637458E-01 -0.12557458321E-01  0.27932985799E-01  0.00000000000E+00 0.  1.
     999901    1    3    3    0    0  0.19314611264E-01 -0.58130508759E-02  0.13585156539E+00  0.89065284684E+00  0.88000000000E+00 0. -1.
        -11    1    4    4    0    0  0.62367071009E-02 -0.14553596758E-02 -0.76600823713E-01  0.76869772354E-01  0.51100000000E-03 0. -1.
         11    1    4    4    0    0 -0.78826798621E-02 -0.10349226907E-01 -0.46693283357E-01  0.48474395005E-01  0.51100000000E-03 0.  1.
</event>
<event>
 8    1  0.1061721E+005  0.1043930E+01  0.7957747E-01            NaN
         13   -1    0    0    0    0  0.00000000000E+00  0.00000000000E+00  0.74505805969E-08  0.10566000000E+00  0.10566000000E+00 0. -1.
     999900   -1    0    0    0    0 -0.00000000000E+00 -0.00000000000E+00 -0.74505805969E-08  0.93827000000E+00  0.93827000000E+00 0. -1.
     999902    2    1    2    0    0  0.19368673904E-01  0.44388920070E-02 -0.12721356283E-01  0.10203358864E+01  0.10200630563E+01 0.  0.
     999903    2    3    3    0    0 -0.97869910512E-01 -0.32050820742E-01 -0.75647407649E-01  0.12958559998E+00  0.21543512808E-01 0.  0.
         14    1    1    2    0    0 -0.19368673904E-01 -0.44388920070E-02  0.12721356283E-01  0.23594113603E-01  0.00000000000E+00 0. -1.
     999901    1    3    3    0    0  0.11723858442E+00  0.36489712749E-01  0.62926051366E-01  0.89075028642E+00  0.88000000000E+00 0. -1.
        -11    1    4    4    0    0 -0.59686230849E-01 -0.93555257437E-02 -0.48949851459E-01  0.77758093429E-01  0.51100000000E-03 0. -1.
         11    1    4    4    0    0 -0.38183679663E-01 -0.22695294999E-01 -0.26697556190E-01  0.51827506550E-01  0.51100000000E-03 0.  1.
</event>
<event>
 8    1  0.1061721E+005  0.1043930E+01  0.7957747E-01            NaN
         13   -1    0    0    0    0  0.00000000000E+00  0.00000000000E+00  0.74505805969E-08  0.10566000000E+00  0.10566000000E+00 0.  1.
     999900   -1    0    0    0    0 -0.00000000000E+00 -0.00000000000E+00 -0.74505805969E-08  0.93827000000E+00  0.93827000000E+00 0. -1.
     999902    2    1    2    0    0  0.18956683222E-01 -0.11645178700E-01 -0.71763106039E-02  0.10205533993E+01  0.10202856342E+01 0.  0.
     999903    2    3    3    0    0 -0.24247340237E-01 -0.46802904873E-01 -0.11904800779E+00  0.13172387124E+00  0.20007615559E-01 0.  0.
         14    1    1    2    0    0 -0.18956683222E-01  0.11645178700E-01  0.71763106039E-02  0.23376600686E-01  0.00000000000E+00 0.  1.
     999901    1    3    3    0    0  0.43204023460E-01  0.35157726173E-01  0.11187169719E+00  0.88882952808E+00  0.88000000000E+00 0.  1.
        -11    1    4    4    0    0 -0.11130589790E-02 -0.19348728665E-01 -0.30111975908E-01  0.35813466955E-01  0.51100000000E-03 0.  1.
         11    1    4    4    0    0 -0.23134281258E-01 -0.27454176208E-01 -0.88936031886E-01  0.95910404280E-01  0.51100000000E-03 0. -1.
</event>
<event>
 8    1  0.1061721E+005  0.1043930E+01  0.7957747E-01            NaN
         13   -1    0    0    0    0  0.00000000000E+00  0.00000000000E+00  0.74505805969E-08  0.10566000000E+00  0.10566000000E+00 0. -1.
     999900   -1    0    0    0    0 -0.00000000000E+00 -0.00000000000E+00 -0.74505805969E-08  0.93827000000E+00  0.93827000000E+00 0. -1.
     999902    2    1    2    0    0 -0.11340055515E-01  0.17477647647E-01 -0.10653457514E-01  0.10205299747E+01  0.10202616665E+01 0.  0.
     999903    2    3    3    0    0  0.11316721755E+00  0.33823483509E-01 -0.52350777787E-01  0.13063789479E+00  0.19359970409E-01 0.  0.
         14    1    1    2    0    0  0.11340055515E-01 -0.17477647647E-01  0.10653457514E-01  0.23400025286E-01  0.00000000000E+00 0. -1.
     999901    1    3    3    0    0 -0.12450727307E+00 -0.16345835861E-01  0.41697320272E-01  0.88989207993E+00  0.88000000000E+00 0. -1.
        -11    1    4    4    0    0  0.59606112744E-02  0.64374721607E-02 -0.17241320863E-02  0.89556511228E-02  0.51100000000E-03 0.  1.
         11    1    4    4    0    0  0.10720660628E+00  0.27386011348E-01 -0.50626645700E-01  0.12168224367E+00  0.51100000000E-03 0. -1.
</event>
<event>
 8    1  0.1061721E+005  0.1043930E+01  0.7957747E-01            NaN
         13   -1    0    0    0    0  0.00000000000E+00  0.00000000000E+00  0.74505805969E-08  0.10566000000E+00  0.10566000000E+00 0. -1.
     999900   -1    0    0    0    0 -0.00000000000E+00 -0.00000000000E+00 -0.74505805969E-08  0.93827000000E+00  0.93827000000E+00 0. -1.
     999902    2    1    2    0    0  0.10821218006E-01  0.20741010180E-01  0.10056338457E-03  0.10205355909E+01  0.10202674130E+01 0.  0.
     999903    2    3    3    0    0 -0.89043683736E-01 -0.76339607989E-01 -0.49499791193E-01  0.12820278296E+00  0.15139711642E-01 0.  0.
         14    1    1    2    0    0 -0.10821218006E-01 -0.20741010180E-01 -0.10056338457E-03  0.23394409063E-01  0.00000000000E+00 0. -1.
     999901    1    3    3    0    0  0.99864901742E-01  0.97080618168E-01  0.49600354577E-01  0.89233280798E+00  0.88000000000E+00 0. -1.
        -11    1    4    4    0    0 -0.48326565692E-01 -0.49425941851E-01 -0.33652641962E-01  0.76883952236E-01  0.51100000000E-03 0. -1.
         11    1    4    4    0    0 -0.40717118044E-01 -0.26913666138E-01 -0.15847149230E-01  0.51318830720E-01  0.51100000000E-03 0.  1.
</event>
<event>
 8    1  0.1061721E+005  0.1043930E+01  0.7957747E-01            NaN
         13   -1    0    0    0    0  0.00000000000E+00  0.00000000000E+00  0.74505805969E-08  0.10566000000E+00  0.10566000000E+00 0.  1.
     999900   -1    0    0    0    0 -0.00000000000E+00 -0.00000000000E+00 -0.74505805969E-08  0.93827000000E+00  0.93827000000E+00 0. -1.
     999902    2    1    2    0    0 -0.48891892800E-02  0.14623129651E-01  0.18473438059E-01  0.10198674148E+01  0.10195835109E+01 0.  0.
     999903    2    3    3    0    0  0.39309139548E-01 -0.10497264738E-01  0.12404505421E+00  0.13210061399E+00  0.20198904024E-01 0.  0.
         14    1    1    2    0    0  0.48891892800E-02 -0.14623129651E-01 -0.18473438059E-01  0.24062585196E-01  0.00000000000E+00 0. -1.
     999901    1    3    3    0    0 -0.44198328827E-01  0.25120394389E-01 -0.10557161615E+00  0.88776680081E+00  0.88000000000E+00 0. -1.
        -11    1    4    4    0    0  0.30904029726E-01 -0.12617223183E-01  0.72343610841E-01  0.79675043299E-01  0.51100000000E-03 0. -1.
         11    1    4    4    0    0  0.84051098219E-02  0.21199584455E-02  0.51701443370E-01  0.52425570693E-01  0.51100000000E-03 0.  1.
</event>
<event>
 8    1  0.1061721E+005  0.1043930E+01  0.7957747E-01            NaN
         13   -1    0    0    0    0  0.00000000000E+00  0.00000000000E+00  0.74505805969E-08  0.10566000000E+00  0.10566000000E+00 0.  1.
     999900   -1    0    0    0    0 -0.00000000000E+00 -0.00000000000E+00 -0.74505805969E-08  0.93827000000E+00  0.93827000000E+00 0.  1.
     999902    2    1    2    0    0  0.21570304066E-01 -0.92214911418E-02  0.19487754637E-02  0.10203904239E+01  0.10201188684E+01 0.  0.
     999903    2    3    3    0    0  0.66757638598E-01 -0.96757579902E-01 -0.58336738177E-01  0.13284391517E+00  0.20632963825E-01 0.  0.
         14    1    1    2    0    0 -0.21570304066E-01  0.92214911418E-02 -0.19487754637E-02  0.23539576084E-01  0.00000000000E+00 0.  1.
     999901    1    3    3    0    0 -0.45187334532E-01  0.87536088760E-01  0.60285513640E-01  0.88754650875E+00  0.88000000000E+00 0. -1.
        -11    1    4    4    0    0  0.20624196812E-01 -0.40456864286E-01 -0.31482178442E-01  0.55258520089E-01  0.51100000000E-03 0. -1.
         11    1    4    4    0    0  0.46133441786E-01 -0.56300715616E-01 -0.26854559735E-01  0.77585395078E-01  0.51100000000E-03 0.  1.
</event>
<event>
 8    1  0.1061721E+005  0.1043930E+01  0.7957747E-01            NaN
         13   -1    0    0    0    0  0.00000000000E+00  0.00000000000E+00  0.74505805969E-08  0.10566000000E+00  0.10566000000E+00 0. -1.
     999900   -1    0    0    0    0 -0.00000000000E+00 -0.00000000000E+00 -0.74505805969E-08  0.93827000000E+00  0.93827000000E+00 0. -1.
     999902    2    1    2    0    0 -0.14332601954E-02  0.43602211327E-02 -0.23393979264E-01  0.10200900330E+01  0.10198114195E+01 0.  0.
     999903    2    3    3    0    0 -0.62165749661E-01 -0.70835869607E-01 -0.90682080570E-01  0.13224400130E+00  0.19568732449E-01 0.  0.
         14    1    1    2    0    0  0.14332601954E-02 -0.43602211327E-02  0.23393979264E-01  0.23839967049E-01  0.00000000000E+00 0. -1.
     999901    1    3    3    0    0  0.60732489466E-01  0.75196090740E-01  0.67288101306E-01  0.88784603165E+00  0.88000000000E+00 0.  1.
        -11    1    4    4    0    0 -0.29189580409E-01 -0.47691453954E-01 -0.50643683161E-01  0.75442363098E-01  0.51100000000E-03 0.  1.
         11    1    4    4    0    0 -0.32976169252E-01 -0.23144415653E-01 -0.40038397408E-01  0.56801638202E-01  0.51100000000E-03 0. -1.
</event>
<event>
 8    1  0.1061721E+005  0.1043930E+01  0.7957747E-01            NaN
         13   -1    0    0    0    0  0.00000000000E+00  0.00000000000E+00  0.74505805969E-08  0.10566000000E+00  0.10566000000E+00 0.  1.
     999900   -1    0    0    0    0 -0.00000000000E+00 -0.00000000000E+00 -0.74505805969E-08  0.93827000000E+00  0.93827000000E+00 0. -1.
     999902    2    1    2    0    0  0.17026679632E-01 -0.47585929241E-02 -0.13843101121E-01  0.10214759697E+01  0.10212291483E+01 0.  0.
     999903    2    3    3    0    0  0.12331409972E+00  0.41372328052E-02  0.38302208306E-01  0.13350339997E+00  0.33654342317E-01 0.  0.
         14    1    1    2    0    0 -0.17026679632E-01  0.47585929241E-02  0.13843101121E-01  0.22454030252E-01  0.00000000000E+00 0.  1.
     999901    1    3    3    0    0 -0.10628742009E+00 -0.88958257293E-02 -0.52145309426E-01  0.88797256978E+00  0.88000000000E+00 0. -1.
        -11    1    4    4    0    0  0.60226523197E-01  0.18740489887E-01  0.20880272599E-01  0.66443110722E-01  0.51100000000E-03 0.  1.
         11    1    4    4    0    0  0.63087576524E-01 -0.14603257082E-01  0.17421935707E-01  0.67060289247E-01  0.51100000000E-03 0. -1.
</event>
<event>
 8    1  0.1061721E+005  0.1043930E+01  0.7957747E-01            NaN
         13   -1    0    0    0    0  0.00000000000E+00  0.00000000000E+00  0.74505805969E-08  0.10566000000E+00  0.10566000000E+00 0.  1.
     999900   -1    0    0    0    0 -0.00000000000E+00 -0.00000000000E+00 -0.74505805969E-08  0.93827000000E+00  0.93827000000E+00 0.  1.
     999902    2    1    2    0    0 -0.19524031525E-01  0.86908502172E-02  0.10562522544E-01  0.10200912591E+01  0.10198126746E+01 0.  0.
     999903    2    3    3    0    0  0.12599315166E+00 -0.82283816855E-02  0.33474336236E-03  0.12792192627E+00  0.20540852847E-01 0.  0.
         14    1    1    2    0    0  0.19524031525E-01 -0.86908502172E-02 -0.10562522544E-01  0.23838740885E-01  0.00000000000E+00 0.  1.
     999901    1    3    3    0    0 -0.14551718319E+00  0.16919231903E-01  0.10227779182E-01  0.89216933285E+00  0.88000000000E+00 0. -1.
        -11    1    4    4    0    0  0.44366944278E-01 -0.10626394499E-01  0.62221402248E-02  0.46046955975E-01  0.51100000000E-03 0.  1.
         11    1    4    4    0    0  0.81626207384E-01  0.23980128134E-02 -0.58873968624E-02  0.81874970291E-01  0.51100000000E-03 0. -1.
</event>
<event>
 8    1  0.1061721E+005  0.1043930E+01  0.7957747E-01            NaN
         13   -1    0    0    0    0  0.00000000000E+00  0.00000000000E+00  0.74505805969E-08  0.10566000000E+00  0.10566000000E+00 0. -1.
     999900   -1    0    0    0    0 -0.00000000000E+00 -0.00000000000E+00 -0.74505805969E-08  0.93827000000E+00  0.93827000000E+00 0.  1.
     999902    2    1    2    0    0  0.12342485159E-01  0.15697225298E-01  0.12548183713E-01  0.10203461764E+01  0.10200735870E+01 0.  0.
     999903    2    3    3    0    0 -0.95698021204E-01 -0.82161776372E-01 -0.99200157295E-02  0.12807158008E+00  0.19880999787E-01 0.  0.
         14    1    1    2    0    0 -0.12342485159E-01 -0.15697225298E-01 -0.12548183713E-01  0.23583823619E-01  0.00000000000E+00 0.  1.
     999901    1    3    3    0    0  0.10804050636E+00  0.97859001671E-01  0.22468199442E-01  0.89227459630E+00  0.88000000000E+00 0.  1.
        -11    1    4    4    0    0 -0.44120152241E-01 -0.25680701254E-01 -0.98454107499E-03  0.51061890807E-01  0.51100000000E-03 0.  1.
         11    1    4    4    0    0 -0.51577868963E-01 -0.56481075118E-01 -0.89354746545E-02  0.77009689270E-01  0.51100000000E-03 0. -1.
</event>
<event>
 8    1  0.1061721E+005  0.1043930E+01  0.7957747E-01            NaN
         13   -1    0    0    0    0  0.00000000000E+00  0.00000000000E+00  0.74505805969E-08  0.10566000000E+00  0.10566000000E+00 0.  1.
     999900   -1    0    0    0    0 -0.00000000000E+00 -0.00000000000E+00 -0.74505805969E-08  0.93827000000E+00  0.93827000000E+00 0.  1.
     999902    2    1    2    0    0  0.15380738568E-01  0.12602431965E-01  0.12449309526E-01  0.10204699549E+01  0.10202002524E+01 0.  0.
     999903    2    3    3    0    0 -0.12311914022E+00 -0.54247734120E-02  0.33746945455E-01  0.12920075543E+00  0.19137084991E-01 0.  0.
         14    1    1    2    0    0 -0.15380738568E-01 -0.12602431965E-01 -0.12449309526E-01  0.23460045140E-01  0.00000000000E+00 0. -1.
     999901    1    3    3    0    0  0.13849987878E+00  0.18027205377E-01 -0.21297635930E-01  0.89126919943E+00  0.88000000000E+00 0. -1.
        -11    1    4    4    0    0 -0.11163915041E+00 -0.64562482565E-02  0.35932476928E-01  0.11745802256E+00  0.51100000000E-03 0. -1.
         11    1    4    4    0    0 -0.11479989809E-01  0.10314748445E-02 -0.21855314728E-02  0.11742732867E-01  0.51100000000E-03 0.  1.
</event>
<event>
 8    1  0.1061721E+005  0.1043930E+01  0.7957747E-01            NaN
         13   -1    0    0    0    0  0.00000000000E+00  0.00000000000E+00  0.74505805969E-08  0.10566000000E+00  0.10566000000E+00 0.  1.
     999900   -1    0    0    0    0 -0.00000000000E+00 -0.00000000000E+00 -0.74505805969E-08  0.93827000000E+00  0.93827000000E+00 0. -1.
     999902    2    1    2    0    0  0.15537278222E-01 -0.16290585551E-01  0.60206036999E-02  0.10206268272E+01  0.10203607610E+01 0.  0.
     999903    2    3    3    0    0 -0.35607463629E-01  0.11906964922E+00  0.28673419439E-01  0.12852182902E+00  0.15818429807E-01 0.  0.
         14    1    1    2    0    0 -0.15537278222E-01  0.16290585551E-01 -0.60206036999E-02  0.23303172768E-01  0.00000000000E+00 0. -1.
     999901    1    3    3    0    0  0.51144741851E-01 -0.13536023477E+00 -0.22652815739E-01  0.89210499821E+00  0.88000000000E+00 0.  1.
        -11    1    4    4    0    0 -0.99330812473E-02  0.60411694065E-01  0.12738870660E-01  0.62536220141E-01  0.51100000000E-03 0.  1.
         11    1    4    4    0    0 -0.25674382381E-01  0.58657955151E-01  0.15934548779E-01  0.65985608878E-01  0.51100000000E-03 0. -1.
</event>
<event>
 8    1  0.1061721E+005  0.1043930E+01  0.7957747E-01            NaN
         13   -1    0    0    0    0  0.00000000000E+00  0.00000000000E+00  0.74505805969E-08  0.10566000000E+00  0.10566000000E+00 0.  1.
     999900   -1    0    0    0    0 -0.00000000000E+00 -0.00000000000E+00 -0.74505805969E-08  0.93827000000E+00  0.93827000000E+00 0. -1.
     999902    2    1    2    0    0  0.41480495880E-02 -0.89179000497E-02  0.21603861064E-01  0.10201926440E+01  0.10199164519E+01 0.  0.
     999903    2    3    3    0    0  0.11926634313E+00 -0.51652728567E-01  0.20836095067E-02  0.13145222786E+00  0.19567365894E-01 0.  0.
         14    1    1    2    0    0 -0.41480495880E-02  0.89179000497E-02 -0.21603861064E-01  0.23737355993E-01  0.00000000000E+00 0. -1.
     999901    1    3    3    0    0 -0.11511829354E+00  0.42734828517E-01  0.19520251557E-01  0.88874041615E+00  0.88000000000E+00 0.  1.
        -11    1    4    4    0    0  0.94081435102E-01 -0.34864385395E-01  0.78289268042E-02  0.10063992754E+00  0.51100000000E-03 0. -1.
         11    1    4    4    0    0  0.25184908028E-01 -0.16788343173E-01 -0.57453172975E-02  0.30812300315E-01  0.51100000000E-03 0.  1.
</event>
<event>
 8    1  0.1088529E+005  0.1043930E+01  0.7957747E-01            NaN
         13   -1    0    0    0    0  0.00000000000E+00  0.00000000000E+00  0.74505805969E-08  0.10566000000E+00  0.10566000000E+00 0. -1.
     999900   -1    0    0    0    0 -0.00000000000E+00 -0.00000000000E+00 -0.74505805969E-08  0.93827000000E+00  0.93827000000E+00 0.  1.
     999902    2    1    2    0    0 -0.93694728984E-02 -0.12964015278E-01  0.17470660865E-01  0.10202429422E+01  0.10199679331E+01 0.  0.
     999903    2    3    3    0    0  0.77757889404E-02 -0.12742360287E+00  0.29516997080E-01  0.13258305725E+00  0.20242936835E-01 0.  0.
         14    1    1    2    0    0  0.93694728984E-02  0.12964015278E-01 -0.17470660865E-01  0.23687057765E-01  0.00000000000E+00 0.  1.
     999901    1    3    3    0    0 -0.17145261839E-01  0.11445958759E+00 -0.12046336215E-01  0.88765988498E+00  0.88000000000E+00 0. -1.
        -11    1    4    4    0    0  0.37196395471E-02 -0.68623284545E-01  0.26189737050E-01  0.73546953355E-01  0.51100000000E-03 0.  1.
         11    1    4    4    0    0  0.40561493932E-02 -0.58800318323E-01  0.33272600298E-02  0.59036103895E-01  0.51100000000E-03 0. -1.
</event>
<event>
 8    1  0.1061721E+005  0.1043930E+01  0.7957747E-01            NaN
         13   -1    0    0    0    0  0.00000000000E+00  0.00000000000E+00  0.74505805969E-08  0.10566000000E+00  0.10566000000E+00 0.  1.
     999900   -1    0    0    0    0 -0.00000000000E+00 -0.00000000000E+00 -0.74505805969E-08  0.93827000000E+00  0.93827000000E+00 0.  1.
     999902    2    1    2    0    0 -0.26475534376E-02 -0.18187265377E-01 -0.10502493709E-01  0.10227618982E+01  0.10225428166E+01 0.  0.
     999903    2    3    3    0    0  0.10415000470E-02 -0.11778105734E+00 -0.63949128492E-01  0.13552513423E+00  0.20102457106E-01 0.  0.
         14    1    1    2    0    0  0.26475534376E-02  0.18187265377E-01  0.10502493709E-01  0.21168101833E-01  0.00000000000E+00 0.  1.
     999901    1    3    3    0    0 -0.36890534846E-02  0.99593791965E-01  0.53446634783E-01  0.88723676394E+00  0.88000000000E+00 0.  1.
        -11    1    4    4    0    0 -0.73982445566E-02 -0.72181019372E-01 -0.45288187215E-01  0.85534289044E-01  0.51100000000E-03 0. -1.
         11    1    4    4    0    0  0.84397446036E-02 -0.45600037971E-01 -0.18660941277E-01  0.49990845185E-01  0.51100000000E-03 0.  1.
</event>
<event>
 8    1  0.1061721E+005  0.1043930E+01  0.7957747E-01            NaN
         13   -1    0    0    0    0  0.00000000000E+00  0.00000000000E+00  0.74505805969E-08  0.10566000000E+00  0.10566000000E+00 0. -1.
     999900   -1    0    0    0    0 -0.00000000000E+00 -0.00000000000E+00 -0.74505805969E-08  0.93827000000E+00  0.93827000000E+00 0.  1.
     999902    2    1    2    0    0  0.12360171526E-01  0.20182827085E-01  0.44001139714E-02  0.10198575811E+01  0.10195734424E+01 0.  0.
     999903    2    3    3    0    0 -0.11207573960E+00  0.52496895265E-01 -0.33036118297E-01  0.12972839582E+00  0.20522576591E-01 0.  0.
         14    1    1    2    0    0 -0.12360171526E-01 -0.20182827085E-01 -0.44001139714E-02  0.24072418911E-01  0.00000000000E+00 0.  1.
     999901    1    3    3    0    0  0.12443591113E+00 -0.32314068180E-01  0.37436232269E-01  0.89012918527E+00  0.88000000000E+00 0. -1.
        -11    1    4    4    0    0 -0.87179962146E-01  0.45971441021E-01 -0.33153692186E-01  0.10398628571E+00  0.51100000000E-03 0.  1.
         11    1    4    4    0    0 -0.24895777457E-01  0.65254542432E-02  0.11757388862E-03  0.25742110109E-01  0.51100000000E-03 0. -1.
</event>
<event>
 8    1  0.1061721E+005  0.1043930E+01  0.7957747E-01            NaN
         13   -1    0    0    0    0  0.00000000000E+00  0.00000000000E+00  0.74505805969E-08  0.10566000000E+00  0.10566000000E+00 0. -1.
     999900   -1    0    0    0    0 -0.00000000000E+00 -0.00000000000E+00 -0.74505805969E-08  0.93827000000E+00  0.93827000000E+00 0.  1.
     999902    2    1    2    0    0 -0.53065732296E-02 -0.14479987386E-01  0.17805125242E-01  0.10203746983E+01  0.10201027755E+01 0.  0.
     999903    2    3    3    0    0  0.84673661184E-01  0.92749841290E-01 -0.19040894720E-01  0.12854943068E+00  0.19754455175E-01 0.  0.
         14    1    1    2    0    0  0.53065732296E-02  0.14479987386E-01 -0.17805125242E-01  0.23555301718E-01  0.00000000000E+00 0.  1.
     999901    1    3    3    0    0 -0.89980234413E-01 -0.10722982868E+00  0.36846019963E-01  0.89182526760E+00  0.88000000000E+00 0. -1.
        -11    1    4    4    0    0  0.26069809855E-01  0.42059452462E-01 -0.42970772210E-02  0.49672512730E-01  0.51100000000E-03 0. -1.
         11    1    4    4    0    0  0.58603851329E-01  0.50690388828E-01 -0.14743817499E-01  0.78876917951E-01  0.51100000000E-03 0.  1.
</event>
<event>
 8    1  0.1061721E+005  0.1043930E+01  0.7957747E-01            NaN
         13   -1    0    0    0    0  0.00000000000E+00  0.00000000000E+00  0.74505805969E-08  0.10566000000E+00  0.10566000000E+00 0. -1.
     999900   -1    0    0    0    0 -0.00000000000E+00 -0.00000000000E+00 -0.74505805969E-08  0.93827000000E+00  0.93827000000E+00 0.  1.
     999902    2    1    2    0    0  0.86440336481E-04  0.23017266251E-01  0.64688346796E-02  0.10200208419E+01  0.10197405896E+01 0.  0.
     999903    2    3    3    0    0  0.11258584912E+00 -0.23324829471E-01 -0.56161997191E-01  0.12944443986E+00  0.19546661893E-01 0.  0.
         14    1    1    2    0    0 -0.86440336481E-04 -0.23017266251E-01 -0.64688346796E-02  0.23909158072E-01  0.00000000000E+00 0.  1.
     999901    1    3    3    0    0 -0.11249940878E+00  0.46342095722E-01  0.62630831870E-01  0.89057640206E+00  0.88000000000E+00 0. -1.
        -11    1    4    4    0    0  0.47982276389E-01 -0.91349953517E-03 -0.19010250927E-01  0.51621546763E-01  0.51100000000E-03 0. -1.
         11    1    4    4    0    0  0.64603572731E-01 -0.22411329936E-01 -0.37151746264E-01  0.77822893101E-01  0.51100000000E-03 0.  1.
</event>
<event>
 8    1  0.1061721E+005  0.1043930E+01  0.7957747E-01            NaN
         13   -1    0    0    0    0  0.00000000000E+00  0.00000000000E+00  0.74505805969E-08  0.10566000000E+00  0.10566000000E+00 0.  1.
     999900   -1    0    0    0    0 -0.00000000000E+00 -0.00000000000E+00 -0.74505805969E-08  0.93827000000E+00  0.93827000000E+00 0. -1.
     999902    2    1    2    0    0 -0.34639811798E-03 -0.71740923017E-02  0.22089186029E-01  0.10207024360E+01  0.10204381133E+01 0.  0.
     999903    2    3    3    0    0 -0.14563806211E-01 -0.19068290883E-01  0.13023496834E+00  0.13388840986E+00  0.19729550115E-01 0.  0.
         14    1    1    2    0    0  0.34639811798E-03  0.71740923017E-02 -0.22089186029E-01  0.23227564045E-01  0.00000000000E+00 0. -1.
     999901    1    3    3    0    0  0.14217408093E-01  0.11894198581E-01 -0.10814578231E+00  0.88681402610E+00  0.88000000000E+00 0. -1.
        -11    1    4    4    0    0  0.10744502094E-02 -0.13608585762E-01  0.43860461183E-01  0.45938537481E-01  0.51100000000E-03 0. -1.
         11    1    4    4    0    0 -0.15638256421E-01 -0.54597051209E-02  0.86374507154E-01  0.87949872377E-01  0.51100000000E-03 0.  1.
</event>
<event>
 8    1  0.1061721E+005  0.1043930E+01  0.7957747E-01            NaN
         13   -1    0    0    0    0  0.00000000000E+00  0.00000000000E+00  0.74505805969E-08  0.10566000000E+00  0.10566000000E+00 0.  1.
     999900   -1    0    0    0    0 -0.00000000000E+00 -0.00000000000E+00 -0.74505805969E-08  0.93827000000E+00  0.93827000000E+00 0. -1.
     999902    2    1    2    0    0 -0.18285871828E-01 -0.49613443233E-02  0.10616110381E-01  0.10222115782E+01  0.10219808319E+01 0.  0.
     999903    2    3    3    0    0 -0.11991203350E-01 -0.11666245195E+00 -0.58158024008E-01  0.13246631024E+00  0.20274391222E-01 0.  0.
         14    1    1    2    0    0  0.18285871828E-01  0.49613443233E-02 -0.10616110381E-01  0.21718421803E-01  0.00000000000E+00 0.  1.
     999901    1    3    3    0    0 -0.62946684777E-02  0.11170110762E+00  0.68774134388E-01  0.88974526796E+00  0.88000000000E+00 0.  1.
        -11    1    4    4    0    0 -0.90688032050E-02 -0.47192787478E-01 -0.13845224059E-01  0.50013535486E-01  0.51100000000E-03 0.  1.
         11    1    4    4    0    0 -0.29224001454E-02 -0.69469664468E-01 -0.44312799948E-01  0.82452774751E-01  0.51100000000E-03 0. -1.
</event>
<event>
 8    1  0.1061721E+005  0.1043930E+01  0.7957747E-01            NaN
         13   -1    0    0    0    0  0.00000000000E+00  0.00000000000E+00  0.74505805969E-08  0.10566000000E+00  0.10566000000E+00 0.  1.
     999900   -1    0    0    0    0 -0.00000000000E+00 -0.00000000000E+00 -0.74505805969E-08  0.93827000000E+00  0.93827000000E+00 0.  1.
     999902    2    1    2    0    0  0.69666789106E-02  0.92734831344E-02  0.20142190388E-01  0.10206869378E+01  0.10204222583E+01 0.  0.
     999903    2    3    3    0    0  0.11104543808E+00 -0.35193822964E-01  0.60161004981E-01  0.13253648047E+00  0.19413336700E-01 0.  0.
         14    1    1    2    0    0 -0.69666789106E-02 -0.92734831344E-02 -0.20142190388E-01  0.23243062150E-01  0.00000000000E+00 0. -1.
     999901    1    3    3    0    0 -0.10407875917E+00  0.44467306099E-01 -0.40018814593E-01  0.88815045738E+00  0.88000000000E+00 0.  1.
        -11    1    4    4    0    0  0.36892187095E-01 -0.15867552131E-01  0.30221746141E-01  0.50263582643E-01  0.51100000000E-03 0.  1.
         11    1    4    4    0    0  0.74153250985E-01 -0.19326270833E-01  0.29939258840E-01  0.82272897827E-01  0.51100000000E-03 0. -1.
</event>
<event>
 8    1  0.1061721E+005  0.1043930E+01  0.7957747E-01            NaN
         13   -1    0    0    0    0  0.00000000000E+00  0.00000000000E+00  0.74505805969E-08  0.10566000000E+00  0.10566000000E+00 0. -1.
     999900   -1    0    0    0    0 -0.00000000000E+00 -0.00000000000E+00 -0.74505805969E-08  0.93827000000E+00  0.93827000000E+00 0.  1.
     999902    2    1    2    0    0 -0.21397362439E-01 -0.74589024444E-02 -0.56516909927E-02  0.10205756866E+01  0.10203084377E+01 0.  0.
     999903    2    3    3    0    0 -0.10067968397E+00  0.66630799621E-01 -0.51227299012E-01  0.13274005622E+00  0.20484729398E-01 0.  0.
         14    1    1    2    0    0  0.21397362439E-01  0.74589024444E-02  0.56516909927E-02  0.23354313437E-01  0.00000000000E+00 0. -1.
     999901    1    3    3    0    0  0.79282321533E-01 -0.74089702066E-01  0.45575608019E-01  0.88783563034E+00  0.88000000000E+00 0. -1.
        -11    1    4    4    0    0 -0.19578574956E-01  0.23253067382E-01 -0.14822622305E-01  0.33823024598E-01  0.51100000000E-03 0. -1.
         11    1    4    4    0    0 -0.81101109016E-01  0.43377732239E-01 -0.36404676707E-01  0.98917031622E-01  0.51100000000E-03 0.  1.
</event>
<event>
 8    1  0.1061721E+005  0.1043930E+01  0.7957747E-01            NaN
         13   -1    0    0    0    0  0.00000000000E+00  0.00000000000E+00  0.74505805969E-08  0.10566000000E+00  0.10566000000E+00 0.  1.
     999900   -1    0    0    0    0 -0.00000000000E+00 -0.00000000000E+00 -0.74505805969E-08  0.93827000000E+00  0.93827000000E+00 0.  1.
     999902    2    1    2    0    0 -0.65170041667E-02 -0.11658281640E-01 -0.19661032054E-01  0.10201614692E+01  0.10198845426E+01 0.  0.
     999903    2    3    3    0    0 -0.79806830242E-01 -0.75260451094E-01  0.67980502310E-01  0.13049991946E+00  0.19380780000E-01 0.  0.
         14    1    1    2    0    0  0.65170041667E-02  0.11658281640E-01  0.19661032054E-01  0.23768530782E-01  0.00000000000E+00 0.  1.
     999901    1    3    3    0    0  0.73289826076E-01  0.63602169454E-01 -0.87641534364E-01  0.88966154975E+00  0.88000000000E+00 0.  1.
        -11    1    4    4    0    0 -0.54939914457E-01 -0.48188431900E-01  0.55176905162E-01  0.91571126202E-01  0.51100000000E-03 0.  1.
         11    1    4    4    0    0 -0.24866915785E-01 -0.27072019194E-01  0.12803597148E-01  0.38928793262E-01  0.51100000000E-03 0. -1.
</event>
<event>
 8    1  0.1061721E+005  0.1043930E+01  0.7957747E-01            NaN
         13   -1    0    0    0    0  0.00000000000E+00  0.00000000000E+00  0.74505805969E-08  0.10566000000E+00  0.10566000000E+00 0.  1.
     999900   -1    0    0    0    0 -0.00000000000E+00 -0.00000000000E+00 -0.74505805969E-08  0.93827000000E+00  0.93827000000E+00 0. -1.
     999902    2    1    2    0    0  0.20236491737E-02  0.22521841201E-01  0.26930267832E-02  0.10211576290E+01  0.10209036793E+01 0.  0.
     999903    2    3    3    0    0  0.10395763995E+00  0.66775078441E-01  0.45290788039E-01  0.13314667371E+00  0.20265222238E-01 0.  0.
         14    1    1    2    0    0 -0.20236491737E-02 -0.22521841201E-01 -0.26930267832E-02  0.22772370986E-01  0.00000000000E+00 0. -1.
     999901    1    3    3    0    0 -0.10193399078E+00 -0.44253237241E-01 -0.42597761256E-01  0.88801095531E+00  0.88000000000E+00 0. -1.
        -11    1    4    4    0    0  0.85262063493E-01  0.53021350155E-01  0.28110748151E-01  0.10426580612E+00  0.51100000000E-03 0. -1.
         11    1    4    4    0    0  0.18695576460E-01  0.13753728287E-01  0.17180039888E-01  0.28880867586E-01  0.51100000000E-03 0.  1.
</event>
<event>
 8    1  0.1061721E+005  0.1043930E+01  0.7957747E-01            NaN
         13   -1    0    0    0    0  0.00000000000E+00  0.00000000000E+00  0.74505805969E-08  0.10566000000E+00  0.10566000000E+00 0.  1.
     999900   -1    0    0    0    0 -0.00000000000E+00 -0.00000000000E+00 -0.74505805969E-08  0.93827000000E+00  0.93827000000E+00 0. -1.
     999902    2    1    2    0    0 -0.59415430028E-02 -0.12993759616E-01  0.19446676473E-01  0.10197988387E+01  0.10195132948E+01 0.  0.
     999903    2    3    3    0    0  0.65595910278E-02  0.90649505607E-01 -0.85645200801E-01  0.12741859041E+00  0.25298926085E-01 0.  0.
         14    1    1    2    0    0  0.59415430028E-02  0.12993759616E-01 -0.19446676473E-01  0.24131161349E-01  0.00000000000E+00 0. -1.
     999901    1    3    3    0    0 -0.12501134031E-01 -0.10364326522E+00  0.10509187727E+00  0.89238024824E+00  0.88000000000E+00 0.  1.
        -11    1    4    4    0    0  0.13583158635E-01  0.30373585199E-01 -0.24967917263E-01  0.41601861614E-01  0.51100000000E-03 0. -1.
         11    1    4    4    0    0 -0.70235676068E-02  0.60275920408E-01 -0.60677283538E-01  0.85816728798E-01  0.51100000000E-03 0.  1.
</event>
<event>
 8    1  0.1061721E+005  0.1043930E+01  0.7957747E-01            NaN
         13   -1    0    0    0    0  0.00000000000E+00  0.00000000000E+00  0.74505805969E-08  0.10566000000E+00  0.10566000000E+00 0.  1.
     999900   -1    0    0    0    0 -0.00000000000E+00 -0.00000000000E+00 -0.74505805969E-08  0.93827000000E+00  0.93827000000E+00 0. -1.
     999902    2    1    2    0    0  0.14266897829E-01  0.16971908279E-01 -0.41936290326E-02  0.10213650589E+01  0.10211157657E+01 0.  0.
     999903    2    3    3    0    0 -0.44652756527E-01 -0.19489975115E-01 -0.12002746809E+00  0.13107382961E+00  0.20000697867E-01 0.  0.
         14    1    1    2    0    0 -0.14266897829E-01 -0.16971908279E-01  0.41936290326E-02  0.22564941143E-01  0.00000000000E+00 0.  1.
     999901    1    3    3    0    0  0.58919654356E-01  0.36461883394E-01  0.11583383906E+00  0.89029122925E+00  0.88000000000E+00 0.  1.
        -11    1    4    4    0    0 -0.24755898664E-01  0.68786167186E-04 -0.56587709543E-01  0.61768027672E-01  0.51100000000E-03 0.  1.
         11    1    4    4    0    0 -0.19896857863E-01 -0.19558761282E-01 -0.63439758551E-01  0.69305801934E-01  0.51100000000E-03 0. -1.
</event>
<event>
 8    1  0.1061721E+005  0.1043930E+01  0.7957747E-01            NaN
         13   -1    0    0    0    0  0.00000000000E+00  0.00000000000E+00  0.74505805969E-08  0.10566000000E+00  0.10566000000E+00 0. -1.
     999900   -1    0    0    0    0 -0.00000000000E+00 -0.00000000000E+00 -0.74505805969E-08  0.93827000000E+00  0.93827000000E+00 0. -1.
     999902    2    1    2    0    0  0.15545863432E-01 -0.15778152975E-01  0.89107773866E-02  0.10200547841E+01  0.10197753363E+01 0.  0.
     999903    2    3    3    0    0 -0.12411463378E+00 -0.16868945976E-01  0.22819462232E-01  0.12893206761E+00  0.20340760708E-01 0.  0.
         14    1    1    2    0    0 -0.15545863432E-01  0.15778152975E-01 -0.89107773866E-02  0.23875215911E-01  0.00000000000E+00 0. -1.
     999901    1    3    3    0    0  0.13966049721E+00  0.10907930014E-02 -0.13908684846E-01  0.89112271648E+00  0.88000000000E+00 0. -1.
        -11    1    4    4    0    0 -0.66238517134E-01 -0.18477365777E-01  0.16221962177E-01  0.70656686704E-01  0.51100000000E-03 0.  1.
         11    1    4    4    0    0 -0.57876116642E-01  0.16084198012E-02  0.65975000555E-02  0.58275380906E-01  0.51100000000E-03 0. -1.
</event>
<event>
 8    1  0.1061721E+005  0.1043930E+01  0.7957747E-01            NaN
         13   -1    0    0    0    0  0.00000000000E+00  0.00000000000E+00  0.74505805969E-08  0.10566000000E+00  0.10566000000E+00 0. -1.
     999900   -1    0    0    0    0 -0.00000000000E+00 -0.00000000000E+00 -0.74505805969E-08  0.93827000000E+00  0.93827000000E+00 0. -1.
     999902    2    1    2    0    0  0.20416716477E-01  0.55109681194E-02  0.87917521761E-02  0.10210278606E+01  0.10207709754E+01 0.  0.
     999903    2    3    3    0    0  0.59270607812E-03  0.64505378072E-01  0.11420437112E+00  0.13255436523E+00  0.19150098144E-01 0.  0.
         14    1    1    2    0    0 -0.20416716477E-01 -0.55109681194E-02 -0.87917521761E-02  0.22902139368E-01  0.00000000000E+00 0. -1.
     999901    1    3    3    0    0  0.19824010399E-01 -0.58994409952E-01 -0.10541261894E+00  0.88847349540E+00  0.88000000000E+00 0. -1.
        -11    1    4    4    0    0 -0.13057851820E-02  0.35613644495E-01  0.44083236141E-01  0.56688884085E-01  0.51100000000E-03 0. -1.
         11    1    4    4    0    0  0.18984912601E-02  0.28891733576E-01  0.70121134978E-01  0.75865481148E-01  0.51100000000E-03 0.  1.
</event>
<event>
 8    1  0.1061721E+005  0.1043930E+01  0.7957747E-01            NaN
         13   -1    0    0    0    0  0.00000000000E+00  0.00000000000E+00  0.74505805969E-08  0.10566000000E+00  0.10566000000E+00 0. -1.
     999900   -1    0    0    0    0 -0.00000000000E+00 -0.00000000000E+00 -0.74505805969E-08  0.93827000000E+00  0.93827000000E+00 0.  1.
     999902    2    1    2    0    0  0.17848602373E-01 -0.15040637641E-01  0.13818223028E-02  0.10205483230E+01  0.10202804402E+01 0.  0.
     999903    2    3    3    0    0  0.10886069777E+00 -0.68065077679E-01 -0.31209511705E-01  0.13366784186E+00  0.20237391283E-01 0.  0.
         14    1    1    2    0    0 -0.17848602373E-01  0.15040637641E-01 -0.13818223028E-02  0.23381677018E-01  0.00000000000E+00 0. -1.
     999901    1    3    3    0    0 -0.91012095402E-01  0.53024440038E-01  0.32591334008E-01  0.88688048113E+00  0.88000000000E+00 0. -1.
        -11    1    4    4    0    0  0.72330845493E-01 -0.37972064703E-01 -0.27470215011E-01  0.86188762268E-01  0.51100000000E-03 0.  1.
         11    1    4    4    0    0  0.36529852282E-01 -0.30093012976E-01 -0.37392966944E-02  0.47479079587E-01  0.51100000000E-03 0. -1.
</event>
<event>
 8    1  0.1061721E+005  0.1043930E+01  0.7957747E-01            NaN
         13   -1    0    0    0    0  0.00000000000E+00  0.00000000000E+00  0.74505805969E-08  0.10566000000E+00  0.10566000000E+00 0. -1.
     999900   -1    0    0    0    0 -0.00000000000E+00 -0.00000000000E+00 -0.74505805969E-08  0.93827000000E+00  0.93827000000E+00 0. -1.
     999902    2    1    2    0    0 -0.30851178257E-02  0.95137196492E-02  0.21679837968E-01  0.10200544018E+01  0.10197749450E+01 0.  0.
     999903    2    3    3    0    0  0.96788414531E-01 -0.62157668469E-01  0.58986530265E-01  0.13072695953E+00  0.19456470865E-01 0.  0.
         14    1    1    2    0    0  0.30851178257E-02 -0.95137196492E-02 -0.21679837968E-01  0.23875598168E-01  0.00000000000E+00 0.  1.
     999901    1    3    3    0    0 -0.99873532357E-01  0.71671388118E-01 -0.37306692297E-01  0.88932744230E+00  0.88000000000E+00 0. -1.
        -11    1    4    4    0    0  0.77755578247E-01 -0.43234324595E-01  0.38418572739E-01  0.96909156554E-01  0.51100000000E-03 0.  1.
         11    1    4    4    0    0  0.19032836284E-01 -0.18923343874E-01  0.20567957526E-01  0.33817802977E-01  0.51100000000E-03 0. -1.
</event>
<event>
 8    1  0.1061721E+005  0.1043930E+01  0.7957747E-01            NaN
         13   -1    0    0    0    0  0.00000000000E+00  0.00000000000E+00  0.74505805969E-08  0.10566000000E+00  0.10566000000E+00 0. -1.
     999900   -1    0    0    0    0 -0.00000000000E+00 -0.00000000000E+00 -0.74505805969E-08  0.93827000000E+00  0.93827000000E+00 0. -1.
     999902    2    1    2    0    0  0.17686877373E-01 -0.12126326614E-01  0.10940513930E-01  0.10198557757E+01  0.10195715939E+01 0.  0.
     999903    2    3    3    0    0  0.48860866981E-01 -0.11822454895E+00 -0.25720142193E-01  0.13217753780E+00  0.21093778461E-01 0.  0.
         14    1    1    2    0    0 -0.17686877373E-01  0.12126326614E-01 -0.10940513930E-01  0.24074224254E-01  0.00000000000E+00 0. -1.
     999901    1    3    3    0    0 -0.31173989608E-01  0.10609822233E+00  0.36660656122E-01  0.88767823794E+00  0.88000000000E+00 0. -1.
        -11    1    4    4    0    0  0.37348968326E-01 -0.65191927438E-01 -0.10906432394E-01  0.75921961425E-01  0.51100000000E-03 0. -1.
         11    1    4    4    0    0  0.11511898655E-01 -0.53032621508E-01 -0.14813709799E-01  0.56255576378E-01  0.51100000000E-03 0.  1.
</event>
<event>
 8    1  0.1061721E+005  0.1043930E+01  0.7957747E-01            NaN
         13   -1    0    0    0    0  0.00000000000E+00  0.00000000000E+00  0.74505805969E-08  0.10566000000E+00  0.10566000000E+00 0.  1.
     999900   -1    0    0    0    0 -0.00000000000E+00 -0.00000000000E+00 -0.74505805969E-08  0.93827000000E+00  0.93827000000E+00 0. -1.
     999902    2    1    2    0    0  0.18637287385E-01 -0.60187860993E-02 -0.13993887877E-01  0.10198592051E+01  0.10195751052E+01 0.  0.
     999903    2    3    3    0    0 -0.10735559895E+00 -0.30874577087E-01 -0.61724829750E-01  0.12925813813E+00  0.20475534906E-01 0.  0.
         14    1    1    2    0    0 -0.18637287385E-01  0.60187860993E-02  0.13993887877E-01  0.24070794858E-01  0.00000000000E+00 0. -1.
     999901    1    3    3    0    0  0.12599288633E+00  0.24855790988E-01  0.47730941874E-01  0.89060106701E+00  0.88000000000E+00 0.  1.
        -11    1    4    4    0    0 -0.23637070525E-01 -0.50966285122E-02 -0.23365168185E-01  0.33628543390E-01  0.51100000000E-03 0. -1.
         11    1    4    4    0    0 -0.83718528422E-01 -0.25777948575E-01 -0.38359661565E-01  0.95629594740E-01  0.51100000000E-03 0.  1.
</event>
<event>
 8    1  0.1061721E+005  0.1043930E+01  0.7957747E-01            NaN
         13   -1    0    0    0    0  0.00000000000E+00  0.00000000000E+00  0.74505805969E-08  0.10566000000E+00  0.10566000000E+00 0. -1.
     999900   -1    0    0    0    0 -0.00000000000E+00 -0.00000000000E+00 -0.74505805969E-08  0.93827000000E+00  0.93827000000E+00 0.  1.
     999902    2    1    2    0    0 -0.11374123727E-01  0.13822204646E-01  0.15384956164E-01  0.10203265912E+01  0.10200535436E+01 0.  0.
     999903    2    3    3    0    0  0.43352915963E-01  0.10139059494E+00 -0.66890546513E-01  0.13047686780E+00  0.19757017846E-01 0.  0.
         14    1    1    2    0    0  0.11374123727E-01 -0.13822204646E-01 -0.15384956164E-01  0.23603408821E-01  0.00000000000E+00 0. -1.
     999901    1    3    3    0    0 -0.54727039690E-01 -0.87568390293E-01  0.82275502676E-01  0.88984972338E+00  0.88000000000E+00 0. -1.
        -11    1    4    4    0    0  0.67681585789E-02  0.34589214241E-01 -0.27636843259E-01  0.44791494044E-01  0.51100000000E-03 0.  1.
         11    1    4    4    0    0  0.36584757384E-01  0.66801380699E-01 -0.39253703254E-01  0.85685373759E-01  0.51100000000E-03 0. -1.
</event>
<event>
 8    1  0.1061721E+005  0.1043930E+01  0.7957747E-01            NaN
         13   -1    0    0    0    0  0.00000000000E+00  0.00000000000E+00  0.74505805969E-08  0.10566000000E+00  0.10566000000E+00 0.  1.
     999900   -1    0    0    0    0 -0.00000000000E+00 -0.00000000000E+00 -0.74505805969E-08  0.93827000000E+00  0.93827000000E+00 0.  1.
     999902    2    1    2    0    0 -0.14742217230E-01 -0.14850074146E-01  0.13341053462E-01  0.10191138484E+01  0.10188116581E+01 0.  0.
     999903    2    3    3    0    0 -0.10608786197E-02  0.13872792141E-01 -0.12548784148E+00  0.12766242287E+00  0.18892221343E-01 0.  0.
         14    1    1    2    0    0  0.14742217230E-01  0.14850074146E-01 -0.13341053462E-01  0.24816151565E-01  0.00000000000E+00 0. -1.
     999901    1    3    3    0    0 -0.13681338611E-01 -0.28722866286E-01  0.13882889495E+00  0.89145142557E+00  0.88000000000E+00 0. -1.
        -11    1    4    4    0    0  0.88985518663E-02  0.72705179578E-02 -0.61803796294E-01  0.62865053997E-01  0.51100000000E-03 0.  1.
         11    1    4    4    0    0 -0.99594304860E-02  0.66022741830E-02 -0.63684045189E-01  0.64797368871E-01  0.51100000000E-03 0. -1.
</event>
<event>
 8    1  0.1061721E+005  0.1043930E+01  0.7957747E-01            NaN
         13   -1    0    0    0    0  0.00000000000E+00  0.00000000000E+00  0.74505805969E-08  0.10566000000E+00  0.10566000000E+00 0. -1.
     999900   -1    0    0    0    0 -0.00000000000E+00 -0.00000000000E+00 -0.74505805969E-08  0.93827000000E+00  0.93827000000E+00 0. -1.
     999902    2    1    2    0    0 -0.13410996986E-01  0.12811997629E-01 -0.13289083248E-01  0.10211132987E+01  0.10208583481E+01 0.  0.
     999903    2    3    3    0    0 -0.63458812187E-01  0.43614646907E-01 -0.10822869974E+00  0.13405799166E+00  0.18133819594E-01 0.  0.
         14    1    1    2    0    0  0.13410996986E-01 -0.12811997629E-01  0.13289083248E-01  0.22816701272E-01  0.00000000000E+00 0. -1.
     999901    1    3    3    0    0  0.50047815202E-01 -0.30802649278E-01  0.94939616491E-01  0.88705530706E+00  0.88000000000E+00 0.  1.
        -11    1    4    4    0    0 -0.43088774543E-01  0.19462175567E-01 -0.59855708270E-01  0.76278343604E-01  0.51100000000E-03 0. -1.
         11    1    4    4    0    0 -0.20370037645E-01  0.24152471340E-01 -0.48372991468E-01  0.57779648061E-01  0.51100000000E-03 0.  1.
</event>
<event>
 8    1  0.1061721E+005  0.1043930E+01  0.7957747E-01            NaN
         13   -1    0    0    0    0  0.00000000000E+00  0.00000000000E+00  0.74505805969E-08  0.10566000000E+00  0.10566000000E+00 0. -1.
     999900   -1    0    0    0    0 -0.00000000000E+00 -0.00000000000E+00 -0.74505805969E-08  0.93827000000E+00  0.93827000000E+00 0.  1.
     999902    2    1    2    0    0 -0.23502241089E-01 -0.37359094269E-02  0.48075409143E-02  0.10196519275E+01  0.10193628541E+01 0.  0.
     999903    2    3    3    0    0  0.45372059583E-01  0.11835713493E+00  0.87700500195E-02  0.12854807144E+00  0.19510451438E-01 0.  0.
         14    1    1    2    0    0  0.23502241089E-01  0.37359094269E-02 -0.48075409143E-02  0.24278072516E-01  0.00000000000E+00 0.  1.
     999901    1    3    3    0    0 -0.68874300672E-01 -0.12209304435E+00 -0.39625091053E-02  0.89110385604E+00  0.88000000000E+00 0.  1.
        -11    1    4    4    0    0  0.34409720907E-01  0.79619867874E-01 -0.23782061145E-02  0.86771361857E-01  0.51100000000E-03 0.  1.
         11    1    4    4    0    0  0.10962338676E-01  0.38737267054E-01  0.11148256134E-01  0.41776709586E-01  0.51100000000E-03 0. -1.
</event>
<event>
 8    1  0.1061721E+005  0.1043930E+01  0.7957747E-01            NaN
         13   -1    0    0    0    0  0.00000000000E+00  0.00000000000E+00  0.74505805969E-08  0.10566000000E+00  0.10566000000E+00 0.  1.
     999900   -1    0    0    0    0 -0.00000000000E+00 -0.00000000000E+00 -0.74505805969E-08  0.93827000000E+00  0.93827000000E+00 0. -1.
     999902    2    1    2    0    0 -0.22402974613E-01 -0.58475197665E-02  0.58239342761E-02  0.10200552232E+01  0.10197757858E+01 0.  0.
     999903    2    3    3    0    0 -0.11032916291E-01  0.95363281430E-01 -0.84378999980E-01  0.12960057869E+00  0.21461912112E-01 0.  0.
         14    1    1    2    0    0  0.22402974613E-01  0.58475197665E-02 -0.58239342761E-02  0.23874776845E-01  0.00000000000E+00 0. -1.
     999901    1    3    3    0    0 -0.11370058322E-01 -0.10121080120E+00  0.90202934256E-01  0.89045464447E+00  0.88000000000E+00 0.  1.
        -11    1    4    4    0    0 -0.15696866240E-01  0.47124596347E-01 -0.38276220324E-01  0.62709244565E-01  0.51100000000E-03 0.  1.
         11    1    4    4    0    0  0.46639499490E-02  0.48238685083E-01 -0.46102779656E-01  0.66891334122E-01  0.51100000000E-03 0. -1.
</event>
<event>
 8    1  0.1061721E+005  0.1043930E+01  0.7957747E-01            NaN
         13   -1    0    0    0    0  0.00000000000E+00  0.00000000000E+00  0.74505805969E-08  0.10566000000E+00  0.10566000000E+00 0. -1.
     999900   -1    0    0    0    0 -0.00000000000E+00 -0.00000000000E+00 -0.74505805969E-08  0.93827000000E+00  0.93827000000E+00 0. -1.
     999902    2    1    2    0    0 -0.22504213232E-01  0.13105556197E-02 -0.48428413427E-02  0.10208733246E+01  0.10206129210E+01 0.  0.
     999903    2    3    3    0    0 -0.11149211891E+00  0.66783503189E-01  0.23532375299E-01  0.13351166937E+00  0.19520868141E-01 0.  0.
         14    1    1    2    0    0  0.22504213232E-01 -0.13105556197E-02  0.48428413427E-02  0.23056675422E-01  0.00000000000E+00 0. -1.
     999901    1    3    3    0    0  0.88987905676E-01 -0.65472947570E-01 -0.28375216642E-01  0.88736165521E+00  0.88000000000E+00 0. -1.
        -11    1    4    4    0    0 -0.20181323419E-01  0.20814498875E-01  0.82343377479E-02  0.30142903269E-01  0.51100000000E-03 0.  1.
         11    1    4    4    0    0 -0.91310795490E-01  0.45969004314E-01  0.15298037552E-01  0.10336876610E+00  0.51100000000E-03 0. -1.
</event>
<event>
 8    1  0.1061721E+005  0.1043930E+01  0.7957747E-01            NaN
         13   -1    0    0    0    0  0.00000000000E+00  0.00000000000E+00  0.74505805969E-08  0.10566000000E+00  0.10566000000E+00 0.  1.
     999900   -1    0    0    0    0 -0.00000000000E+00 -0.00000000000E+00 -0.74505805969E-08  0.93827000000E+00  0.93827000000E+00 0. -1.
     999902    2    1    2    0    0 -0.15663500713E-01  0.23118985117E-02 -0.18530902805E-01  0.10195561516E+01  0.10192647653E+01 0.  0.
     999903    2    3    3    0    0 -0.12826447290E-01  0.40200117101E-01 -0.12393942209E+00  0.13245157941E+00  0.20046779684E-01 0.  0.
         14    1    1    2    0    0  0.15663500713E-01 -0.23118985117E-02  0.18530902805E-01  0.24373848446E-01  0.00000000000E+00 0.  1.
     999901    1    3    3    0    0 -0.28370534230E-02 -0.37888218589E-01  0.10540851928E+00  0.88710457214E+00  0.88000000000E+00 0.  1.
        -11    1    4    4    0    0 -0.24204457463E-03  0.88317292418E-02 -0.89089774451E-02  0.12557429159E-01  0.51100000000E-03 0. -1.
         11    1    4    4    0    0 -0.12584402716E-01  0.31368387859E-01 -0.11503044464E+00  0.11989415025E+00  0.51100000000E-03 0.  1.
</event>
<event>
 8    1  0.1061721E+005  0.1043930E+01  0.7957747E-01            NaN
         13   -1    0    0    0    0  0.00000000000E+00  0.00000000000E+00  0.74505805969E-08  0.10566000000E+00  0.10566000000E+00 0. -1.
     999900   -1    0    0    0    0 -0.00000000000E+00 -0.00000000000E+00 -0.74505805969E-08  0.93827000000E+00  0.93827000000E+00 0. -1.
     999902    2    1    2    0    0  0.19298144173E-01  0.15962622448E-03  0.13686041501E-01  0.10202709303E+01  0.10199965782E+01 0.  0.
     999903    2    3    3    0    0 -0.10445718343E+00  0.68839810269E-01 -0.12339113050E-01  0.12858171452E+00  0.27032960458E-01 0.  0.
         14    1    1    2    0    0 -0.19298144173E-01 -0.15962622448E-03 -0.13686041501E-01  0.23659069741E-01  0.00000000000E+00 0.  1.
     999901    1    3    3    0    0  0.12375532760E+00 -0.68680184044E-01  0.26025154551E-01  0.89168921574E+00  0.88000000000E+00 0.  1.
        -11    1    4    4    0    0 -0.16778638594E-01  0.24592479960E-01 -0.30644154412E-02  0.29932666882E-01  0.51100000000E-03 0. -1.
         11    1    4    4    0    0 -0.87678544835E-01  0.44247330309E-01 -0.92746976085E-02  0.98649047642E-01  0.51100000000E-03 0.  1.
</event>
<event>
 8    1  0.1061721E+005  0.1043930E+01  0.7957747E-01            NaN
         13   -1    0    0    0    0  0.00000000000E+00  0.00000000000E+00  0.74505805969E-08  0.10566000000E+00  0.10566000000E+00 0.  1.
     999900   -1    0    0    0    0 -0.00000000000E+00 -0.00000000000E+00 -0.74505805969E-08  0.93827000000E+00  0.93827000000E+00 0.  1.
     999902    2    1    2    0    0  0.75428154788E-02  0.36502911500E-02 -0.22389374184E-01  0.10200238759E+01  0.10197436956E+01 0.  0.
     999903    2    3    3    0    0 -0.32867340709E-01 -0.10687927479E+00  0.59664082010E-01  0.12840594469E+00  0.20611707475E-01 0.  0.
         14    1    1    2    0    0 -0.75428154788E-02 -0.36502911500E-02  0.22389374184E-01  0.23906124052E-01  0.00000000000E+00 0.  1.
     999901    1    3    3    0    0  0.40410156188E-01  0.11052956594E+00 -0.82053456194E-01  0.89161793126E+00  0.88000000000E+00 0. -1.
        -11    1    4    4    0    0 -0.24454717156E-01 -0.45075315127E-01  0.25179356581E-01  0.57132113069E-01  0.51100000000E-03 0. -1.
         11    1    4    4    0    0 -0.84126235523E-02 -0.61803959661E-01  0.34484725429E-01  0.71273831619E-01  0.51100000000E-03 0.  1.
</event>
<event>
 8    1  0.1061721E+005  0.1043930E+01  0.7957747E-01            NaN
         13   -1    0    0    0    0  0.00000000000E+00  0.00000000000E+00  0.74505805969E-08  0.10566000000E+00  0.10566000000E+00 0. -1.
     999900   -1    0    0    0    0 -0.00000000000E+00 -0.00000000000E+00 -0.74505805969E-08  0.93827000000E+00  0.93827000000E+00 0.  1.
     999902    2    1    2    0    0  0.59499337801E-02  0.15992763365E-01 -0.13858389760E-01  0.10219476171E+01  0.10217111661E+01 0.  0.
     999903    2    3    3    0    0 -0.62867156883E-01 -0.37078150732E-01  0.10521635801E+00  0.12968582285E+00  0.20514920885E-01 0.  0.
         14    1    1    2    0    0 -0.59499337801E-02 -0.15992763365E-01  0.13858389760E-01  0.21982382919E-01  0.00000000000E+00 0. -1.
     999901    1    3    3    0    0  0.68817090663E-01  0.53070914097E-01 -0.11907474777E+00  0.89226179423E+00  0.88000000000E+00 0.  1.
        -11    1    4    4    0    0 -0.21687203329E-01 -0.16099183755E-01  0.55967249623E-01  0.62145898152E-01  0.51100000000E-03 0.  1.
         11    1    4    4    0    0 -0.41179953554E-01 -0.20978966977E-01  0.49249108387E-01  0.67539924697E-01  0.51100000000E-03 0. -1.
</event>
<event>
 8    1  0.1061721E+005  0.1043930E+01  0.7957747E-01            NaN
         13   -1    0    0    0    0  0.00000000000E+00  0.00000000000E+00  0.74505805969E-08  0.10566000000E+00  0.10566000000E+00 0.  1.
     999900   -1    0    0    0    0 -0.00000000000E+00 -0.00000000000E+00 -0.74505805969E-08  0.93827000000E+00  0.93827000000E+00 0.  1.
     999902    2    1    2    0    0  0.18792817268E-01 -0.48972714798E-02  0.14671619582E-01  0.10195905327E+01  0.10192999777E+01 0.  0.
     999903    2    3    3    0    0  0.29707044608E-01  0.12144838568E+00  0.30024464366E-01  0.13036724503E+00  0.21492585529E-01 0.  0.
         14    1    1    2    0    0 -0.18792817268E-01  0.48972714798E-02 -0.14671619582E-01  0.24339467331E-01  0.00000000000E+00 0. -1.
     999901    1    3    3    0    0 -0.10914227340E-01 -0.12634565716E+00 -0.15352844785E-01  0.88922328764E+00  0.88000000000E+00 0. -1.
        -11    1    4    4    0    0  0.21656950186E-01  0.77417417194E-01  0.29402045287E-01  0.85599190209E-01  0.51100000000E-03 0. -1.
         11    1    4    4    0    0  0.80500944215E-02  0.44030968483E-01  0.62241907981E-03  0.44768054819E-01  0.51100000000E-03 0.  1.
</event>
<event>
 7    1  0.1061721E+005  0.1043930E+01  0.7957747E-01            NaN
         13   -1    0    0    0    0  0.00000000000E+00  0.00000000000E+00  0.74505805969E-08  0.10566000000E+00  0.10566000000E+00 0. -1.
     999900   -1    0    0    0    0 -0.00000000000E+00 -0.00000000000E+00 -0.74505805969E-08  0.93827000000E+00  0.93827000000E+00 0. -1.
     999903    2    1    2    0    0 -0.39444464521E-01 -0.47369442858E-01 -0.91150155675E-01  0.11188543037E+00  0.20255091996E-01 0.  0.
         14    1    1    2    0    0 -0.17401204192E-01 -0.69735773309E-02 -0.34875428512E-01  0.39594547630E-01  0.00000000000E+00 0. -1.
     999901    1    1    2    0    0  0.56845668713E-01  0.54343020189E-01  0.12602558419E+00  0.89245002200E+00  0.88000000000E+00 0.  1.
        -11    1    3    3    0    0 -0.21014548925E-03 -0.70872692046E-02 -0.19809282602E-01  0.21046195478E-01  0.51100000000E-03 0.  1.
         11    1    3    3    0    0 -0.39234319032E-01 -0.40282173654E-01 -0.71340873074E-01  0.90839234894E-01  0.51100000000E-03 0. -1.
</event>
<event>
 8    1  0.1061721E+005  0.1043930E+01  0.7957747E-01            NaN
         13   -1    0    0    0    0  0.00000000000E+00  0.00000000000E+00  0.74505805969E-08  0.10566000000E+00  0.10566000000E+00 0. -1.
     999900   -1    0    0    0    0 -0.00000000000E+00 -0.00000000000E+00 -0.74505805969E-08  0.93827000000E+00  0.93827000000E+00 0.  1.
     999902    2    1    2    0    0 -0.17815795430E-01  0.12006808034E-01  0.10234171401E-01  0.10201328516E+01  0.10198552499E+01 0.  0.
     999903    2    3    3    0    0 -0.53869569485E-01 -0.88166930525E-01 -0.75345844616E-01  0.12959447983E+00  0.21033182034E-01 0.  0.
         14    1    1    2    0    0  0.17815795430E-01 -0.12006808034E-01 -0.10234171401E-01  0.23797148364E-01  0.00000000000E+00 0.  1.
     999901    1    3    3    0    0  0.36053774054E-01  0.10017373856E+00  0.85580016017E-01  0.89053837181E+00  0.88000000000E+00 0. -1.
        -11    1    4    4    0    0 -0.25439726316E-01 -0.30520934072E-01 -0.39356201084E-01  0.55927442070E-01  0.51100000000E-03 0. -1.
         11    1    4    4    0    0 -0.28429843169E-01 -0.57645996452E-01 -0.35989643532E-01  0.73667037758E-01  0.51100000000E-03 0.  1.
</event>
<event>
 8    1  0.1061721E+005  0.1043930E+01  0.7957747E-01            NaN
         13   -1    0    0    0    0  0.00000000000E+00  0.00000000000E+00  0.74505805969E-08  0.10566000000E+00  0.10566000000E+00 0. -1.
     999900   -1    0    0    0    0 -0.00000000000E+00 -0.00000000000E+00 -0.74505805969E-08  0.93827000000E+00  0.93827000000E+00 0.  1.
     999902    2    1    2    0    0  0.15327939275E-01 -0.12146089020E-01  0.11630953056E-01  0.10211758296E+01  0.10209222902E+01 0.  0.
     999903    2    3    3    0    0  0.86295160850E-01 -0.99021349797E-01 -0.14778488217E-01  0.13366182068E+00  0.19874508574E-01 0.  0.
         14    1    1    2    0    0 -0.15327939275E-01  0.12146089020E-01 -0.11630953056E-01  0.22754170385E-01  0.00000000000E+00 0.  1.
     999901    1    3    3    0    0 -0.70967221575E-01  0.86875260777E-01  0.26409441273E-01  0.88751400894E+00  0.88000000000E+00 0. -1.
        -11    1    4    4    0    0  0.39721026591E-01 -0.53675696026E-01 -0.15915513056E-01  0.68646958958E-01  0.51100000000E-03 0.  1.
         11    1    4    4    0    0  0.46574134259E-01 -0.45345653770E-01  0.11370248399E-02  0.65014861719E-01  0.51100000000E-03 0. -1.
</event>
<event>
 8    1  0.1061721E+005  0.1043930E+01  0.7957747E-01            NaN
         13   -1    0    0    0    0  0.00000000000E+00  0.00000000000E+00  0.74505805969E-08  0.10566000000E+00  0.10566000000E+00 0.  1.
     999900   -1    0    0    0    0 -0.00000000000E+00 -0.00000000000E+00 -0.74505805969E-08  0.93827000000E+00  0.93827000000E+00 0. -1.
     999902    2    1    2    0    0 -0.23822741496E-01 -0.85941231050E-02 -0.49383083422E-03  0.10185996658E+01  0.10182846622E+01 0.  0.
     999903    2    3    3    0    0  0.27158419250E-02 -0.81591895913E-01 -0.98852289024E-01  0.12971983273E+00  0.19769842772E-01 0.  0.
         14    1    1    2    0    0  0.23822741496E-01  0.85941231050E-02  0.49383083422E-03  0.25330334250E-01  0.00000000000E+00 0. -1.
     999901    1    3    3    0    0 -0.26538583420E-01  0.72997772808E-01  0.98358458190E-01  0.88887983302E+00  0.88000000000E+00 0.  1.
        -11    1    4    4    0    0 -0.65200997107E-02 -0.30155267152E-01 -0.27914124113E-01  0.41609028867E-01  0.51100000000E-03 0. -1.
         11    1    4    4    0    0  0.92359416357E-02 -0.51436628761E-01 -0.70938164911E-01  0.88110803867E-01  0.51100000000E-03 0.  1.
</event>
<event>
 8    1  0.1061721E+005  0.1043930E+01  0.7957747E-01            NaN
         13   -1    0    0    0    0  0.00000000000E+00  0.00000000000E+00  0.74505805969E-08  0.10566000000E+00  0.10566000000E+00 0. -1.
     999900   -1    0    0    0    0 -0.00000000000E+00 -0.00000000000E+00 -0.74505805969E-08  0.93827000000E+00  0.93827000000E+00 0. -1.
     999902    2    1    2    0    0  0.86026042569E-02 -0.16616679793E-01 -0.56239874806E-02  0.10243916254E+01  0.10242052793E+01 0.  0.
     999903    2    3    3    0    0  0.63580764642E-01 -0.79467428823E-01 -0.88012009025E-01  0.13660752952E+00  0.23620277598E-01 0.  0.
         14    1    1    2    0    0 -0.86026042569E-02  0.16616679793E-01  0.56239874806E-02  0.19538374613E-01  0.00000000000E+00 0.  1.
     999901    1    3    3    0    0 -0.54978160385E-01  0.62850749030E-01  0.82388021545E-01  0.88778409586E+00  0.88000000000E+00 0.  1.
        -11    1    4    4    0    0  0.42417010543E-01 -0.60509807399E-01 -0.75210552956E-01  0.10543968879E+00  0.51100000000E-03 0. -1.
         11    1    4    4    0    0  0.21163754099E-01 -0.18957621424E-01 -0.12801456069E-01  0.31167840736E-01  0.51100000000E-03 0.  1.
</event>
<event>
 8    1  0.1061721E+005  0.1043930E+01  0.7957747E-01            NaN
         13   -1    0    0    0    0  0.00000000000E+00  0.00000000000E+00  0.74505805969E-08  0.10566000000E+00  0.10566000000E+00 0. -1.
     999900   -1    0    0    0    0 -0.00000000000E+00 -0.00000000000E+00 -0.74505805969E-08  0.93827000000E+00  0.93827000000E+00 0.  1.
     999902    2    1    2    0    0  0.51378014099E-02  0.21362581467E-01  0.85068415968E-02  0.10203689465E+01  0.10200968893E+01 0.  0.
     999903    2    3    3    0    0  0.28480133385E-01 -0.46459860236E-01  0.11714380150E+00  0.13079222850E+00  0.20354365543E-01 0.  0.
         14    1    1    2    0    0 -0.51378014099E-02 -0.21362581467E-01 -0.85068415968E-02  0.23561053546E-01  0.00000000000E+00 0.  1.
     999901    1    3    3    0    0 -0.23342331975E-01  0.67822441702E-01 -0.10863695990E+00  0.88957671795E+00  0.88000000000E+00 0.  1.
        -11    1    4    4    0    0  0.25164207270E-03 -0.16110981814E-01  0.41763365677E-01  0.44766805698E-01  0.51100000000E-03 0.  1.
         11    1    4    4    0    0  0.28228491312E-01 -0.30348878422E-01  0.75380435823E-01  0.86025422807E-01  0.51100000000E-03 0. -1.
</event>
<event>
 8    1  0.1061721E+005  0.1043930E+01  0.7957747E-01            NaN
         13   -1    0    0    0    0  0.00000000000E+00  0.00000000000E+00  0.74505805969E-08  0.10566000000E+00  0.10566000000E+00 0. -1.
     999900   -1    0    0    0    0 -0.00000000000E+00 -0.00000000000E+00 -0.74505805969E-08  0.93827000000E+00  0.93827000000E+00 0. -1.
     999902    2    1    2    0    0  0.61087610075E-02  0.39724421907E-02 -0.28085822922E-01  0.10149143024E+01  0.10144994483E+01 0.  0.
     999903    2    3    3    0    0  0.58601328838E-01  0.99412992547E-01  0.44232678708E-01  0.12525462926E+00  0.20374824102E-01 0.  0.
         14    1    1    2    0    0 -0.61087610075E-02 -0.39724421907E-02  0.28085822922E-01  0.29015697600E-01  0.00000000000E+00 0. -1.
     999901    1    3    3    0    0 -0.52492567830E-01 -0.95440550356E-01 -0.72318501630E-01  0.88965967314E+00  0.88000000000E+00 0. -1.
        -11    1    4    4    0    0  0.35002016366E-01  0.42266333281E-01  0.15190880942E-01  0.56943902777E-01  0.51100000000E-03 0. -1.
         11    1    4    4    0    0  0.23599312472E-01  0.57146659267E-01  0.29041797766E-01  0.68310726485E-01  0.51100000000E-03 0.  1.
</event>
<event>
 8    1  0.1061721E+005  0.1043930E+01  0.7957747E-01            NaN
         13   -1    0    0    0    0  0.00000000000E+00  0.00000000000E+00  0.74505805969E-08  0.10566000000E+00  0.10566000000E+00 0. -1.
     999900   -1    0    0    0    0 -0.00000000000E+00 -0.00000000000E+00 -0.74505805969E-08  0.93827000000E+00  0.93827000000E+00 0.  1.
     999902    2    1    2    0    0 -0.95422271169E-03  0.36864576642E-02 -0.33910253386E-01  0.10098066093E+01  0.10092298957E+01 0.  0.
     999903    2    3    3    0    0  0.65874247473E-01  0.62531332960E-01  0.73822280708E-01  0.11877627157E+00  0.20211122614E-01 0.  0.
         14    1    1    2    0    0  0.95422271169E-03 -0.36864576642E-02  0.33910253386E-01  0.34123390743E-01  0.00000000000E+00 0. -1.
     999901    1    3    3    0    0 -0.66828470185E-01 -0.58844875296E-01 -0.10773253409E+00  0.89103033769E+00  0.88000000000E+00 0.  1.
        -11    1    4    4    0    0  0.29156248604E-01  0.38012835826E-01  0.29775177599E-01  0.56408198360E-01  0.51100000000E-03 0. -1.
         11    1    4    4    0    0  0.36717998869E-01  0.24518497135E-01  0.44047103109E-01  0.62368073211E-01  0.51100000000E-03 0.  1.
</event>
<event>
 8    1  0.1061721E+005  0.1043930E+01  0.7957747E-01            NaN
         13   -1    0    0    0    0  0.00000000000E+00  0.00000000000E+00  0.74505805969E-08  0.10566000000E+00  0.10566000000E+00 0. -1.
     999900   -1    0    0    0    0 -0.00000000000E+00 -0.00000000000E+00 -0.74505805969E-08  0.93827000000E+00  0.93827000000E+00 0. -1.
     999902    2    1    2    0    0 -0.50381512707E-03 -0.20578774002E-01  0.10189719545E-01  0.10209611047E+01  0.10207027026E+01 0.  0.
     999903    2    3    3    0    0  0.77122347253E-01  0.91770341245E-01 -0.42613538877E-01  0.12886451297E+00  0.20506024250E-01 0.  0.
         14    1    1    2    0    0  0.50381512707E-03  0.20578774002E-01 -0.10189719545E-01  0.22968895348E-01  0.00000000000E+00 0.  1.
     999901    1    3    3    0    0 -0.77626162380E-01 -0.11234911525E+00  0.52803258423E-01  0.89209659168E+00  0.88000000000E+00 0. -1.
        -11    1    4    4    0    0  0.90198977359E-02  0.22571279955E-01 -0.55364510315E-02  0.24934607376E-01  0.51100000000E-03 0.  1.
         11    1    4    4    0    0  0.68102449517E-01  0.69199061290E-01 -0.37077087846E-01  0.10392990560E+00  0.51100000000E-03 0. -1.
</event>
<event>
 8    1  0.1061721E+005  0.1043930E+01  0.7957747E-01            NaN
         13   -1    0    0    0    0  0.00000000000E+00  0.00000000000E+00  0.74505805969E-08  0.10566000000E+00  0.10566000000E+00 0. -1.
     999900   -1    0    0    0    0 -0.00000000000E+00 -0.00000000000E+00 -0.74505805969E-08  0.93827000000E+00  0.93827000000E+00 0. -1.
     999902    2    1    2    0    0 -0.26307238569E-01  0.71348996503E-02  0.46953952783E-02  0.10162709268E+01  0.10158944691E+01 0.  0.
     999903    2    3    3    0    0 -0.12104709748E+00 -0.22922696876E-01  0.36962710274E-01  0.13008794366E+00  0.19462304396E-01 0.  0.
         14    1    1    2    0    0  0.26307238569E-01 -0.71348996503E-02 -0.46953952783E-02  0.27659073213E-01  0.00000000000E+00 0.  1.
     999901    1    3    3    0    0  0.94739858914E-01  0.30057596526E-01 -0.32267314996E-01  0.88618298313E+00  0.88000000000E+00 0. -1.
        -11    1    4    4    0    0 -0.13197597935E-01 -0.76313410498E-02  0.65776601260E-03  0.15267866079E-01  0.51100000000E-03 0. -1.
         11    1    4    4    0    0 -0.10784949955E+00 -0.15291355826E-01  0.36304944262E-01  0.11482007758E+00  0.51100000000E-03 0.  1.
</event>
<event>
 7    1  0.1061721E+005  0.1043930E+01  0.7957747E-01            NaN
         13   -1    0    0    0    0  0.00000000000E+00  0.00000000000E+00  0.74505805969E-08  0.10566000000E+00  0.10566000000E+00 0. -1.
     999900   -1    0    0    0    0 -0.00000000000E+00 -0.00000000000E+00 -0.74505805969E-08  0.93827000000E+00  0.93827000000E+00 0.  1.
     999902    2    1    2    0    0 -0.18898342255E-01 -0.26891750616E-02 -0.13512548970E-01  0.10205426534E+01  0.10202746392E+01 0.  0.
         14    1    1    2    0    0  0.18898342255E-01  0.26891750616E-02  0.13512548970E-01  0.23387346625E-01  0.00000000000E+00 0. -1.
     999901    1    3    3    0    0  0.22654127195E-01 -0.10081940736E+00 -0.77924295965E-01  0.88946610856E+00  0.88000000000E+00 0. -1.
        -11    1    3    3    0    0 -0.33498351837E-01  0.56468513728E-01  0.59043972194E-01  0.88302233222E-01  0.51100000000E-03 0. -1.
         11    1    3    3    0    0 -0.80541176127E-02  0.41661718570E-01  0.53677748001E-02  0.42774311591E-01  0.51100000000E-03 0.  1.
</event>
<event>
 8    1  0.1228376E+005  0.1043930E+01  0.7957747E-01            NaN
         13   -1    0    0    0    0  0.00000000000E+00  0.00000000000E+00  0.74505805969E-08  0.10566000000E+00  0.10566000000E+00 0.  1.
     999900   -1    0    0    0    0 -0.00000000000E+00 -0.00000000000E+00 -0.74505805969E-08  0.93827000000E+00  0.93827000000E+00 0.  1.
     999902    2    1    2    0    0 -0.12791171075E-01  0.10996857029E-01 -0.18653589600E-01  0.10187804209E+01  0.10184699528E+01 0.  0.
     999903    2    3    3    0    0 -0.71058712509E-01 -0.81147757791E-01  0.65773313546E-01  0.12804272756E+00  0.20844953564E-01 0.  0.
         14    1    1    2    0    0  0.12791171075E-01 -0.10996857029E-01  0.18653589600E-01  0.25149579061E-01  0.00000000000E+00 0. -1.
     999901    1    3    3    0    0  0.58267541434E-01  0.92144614820E-01 -0.84426903146E-01  0.89073769338E+00  0.88000000000E+00 0.  1.
        -11    1    4    4    0    0 -0.38817594464E-01 -0.28881466692E-01  0.31080448099E-01  0.57508261435E-01  0.51100000000E-03 0.  1.
         11    1    4    4    0    0 -0.32241118045E-01 -0.52266291099E-01  0.34692865447E-01  0.70534466128E-01  0.51100000000E-03 0. -1.
</event>
<event>
 8    1  0.1061721E+005  0.1043930E+01  0.7957747E-01            NaN
         13   -1    0    0    0    0  0.00000000000E+00  0.00000000000E+00  0.74505805969E-08  0.10566000000E+00  0.10566000000E+00 0.  1.
     999900   -1    0    0    0    0 -0.00000000000E+00 -0.00000000000E+00 -0.74505805969E-08  0.93827000000E+00  0.93827000000E+00 0.  1.
     999902    2    1    2    0    0  0.23791947442E-01  0.51351487957E-02  0.80711933476E-03  0.10195768081E+01  0.10192859214E+01 0.  0.
     999903    2    3    3    0    0 -0.81892143010E-01 -0.17830522041E-01 -0.94388359688E-01  0.12786007712E+00  0.20366302379E-01 0.  0.
         14    1    1    2    0    0 -0.23791947442E-01 -0.51351487957E-02 -0.80711933476E-03  0.24353191944E-01  0.00000000000E+00 0.  1.
     999901    1    3    3    0    0  0.10568409045E+00  0.22965670837E-01  0.95195479023E-01  0.89171673094E+00  0.88000000000E+00 0. -1.
        -11    1    4    4    0    0 -0.61828200147E-01 -0.13839016451E-01 -0.56943656847E-01  0.85188531422E-01  0.51100000000E-03 0.  1.
         11    1    4    4    0    0 -0.20063942863E-01 -0.39915055905E-02 -0.37444702841E-01  0.42671545694E-01  0.51100000000E-03 0. -1.
</event>
<event>
 8    1  0.1061721E+005  0.1043930E+01  0.7957747E-01            NaN
         13   -1    0    0    0    0  0.00000000000E+00  0.00000000000E+00  0.74505805969E-08  0.10566000000E+00  0.10566000000E+00 0. -1.
     999900   -1    0    0    0    0 -0.00000000000E+00 -0.00000000000E+00 -0.74505805969E-08  0.93827000000E+00  0.93827000000E+00 0.  1.
     999902    2    1    2    0    0 -0.50630479015E-03  0.17704458112E-01  0.15902981488E-01  0.10201264498E+01  0.10198486969E+01 0.  0.
     999903    2    3    3    0    0  0.27300424744E-01 -0.36076789904E-01 -0.11804275099E+00  0.12793415210E+00  0.19652181790E-01 0.  0.
         14    1    1    2    0    0  0.50630479015E-03 -0.17704458112E-01 -0.15902981488E-01  0.23803550193E-01  0.00000000000E+00 0.  1.
     999901    1    3    3    0    0 -0.27806729534E-01  0.53781248016E-01  0.13394573248E+00  0.89219229771E+00  0.88000000000E+00 0. -1.
        -11    1    4    4    0    0  0.59825111142E-02 -0.18402104590E-01 -0.68417488632E-01  0.71103036252E-01  0.51100000000E-03 0.  1.
         11    1    4    4    0    0  0.21317913630E-01 -0.17674685313E-01 -0.49625262363E-01  0.56831115844E-01  0.51100000000E-03 0. -1.
</event>
<event>
 8    1  0.1061721E+005  0.1043930E+01  0.7957747E-01            NaN
         13   -1    0    0    0    0  0.00000000000E+00  0.00000000000E+00  0.74505805969E-08  0.10566000000E+00  0.10566000000E+00 0. -1.
     999900   -1    0    0    0    0 -0.00000000000E+00 -0.00000000000E+00 -0.74505805969E-08  0.93827000000E+00  0.93827000000E+00 0. -1.
     999902    2    1    2    0    0 -0.21127727546E-02 -0.40784987436E-02  0.23449947876E-01  0.10200344352E+01  0.10197545053E+01 0.  0.
     999903    2    3    3    0    0  0.51811407332E-02  0.99944531113E-01  0.83453424885E-01  0.13184841351E+00  0.20094190727E-01 0.  0.
         14    1    1    2    0    0  0.21127727546E-02  0.40784987436E-02 -0.23449947876E-01  0.23895564778E-01  0.00000000000E+00 0.  1.
     999901    1    3    3    0    0 -0.72939134878E-02 -0.10402302986E+00 -0.60003477009E-01  0.88818602171E+00  0.88000000000E+00 0. -1.
        -11    1    4    4    0    0 -0.72125308172E-02  0.40784601332E-01  0.38109401695E-01  0.56284917385E-01  0.51100000000E-03 0. -1.
         11    1    4    4    0    0  0.12393671550E-01  0.59159929781E-01  0.45344023190E-01  0.75563496122E-01  0.51100000000E-03 0.  1.
</event>
<event>
 8    1  0.1061721E+005  0.1043930E+01  0.7957747E-01            NaN
         13   -1    0    0    0    0  0.00000000000E+00  0.00000000000E+00  0.74505805969E-08  0.10566000000E+00  0.10566000000E+00 0.  1.
     999900   -1    0    0    0    0 -0.00000000000E+00 -0.00000000000E+00 -0.74505805969E-08  0.93827000000E+00  0.93827000000E+00 0. -1.
     999902    2    1    2    0    0 -0.13437181216E-01  0.22411903342E-01 -0.53448300110E-03  0.10177931118E+01  0.10174574594E+01 0.  0.
     999903    2    3    3    0    0  0.56875465402E-01  0.65357792924E-01 -0.93290061665E-01  0.12909079100E+00  0.21329253479E-01 0.  0.
         14    1    1    2    0    0  0.13437181216E-01 -0.22411903342E-01  0.53448300110E-03  0.26136888157E-01  0.00000000000E+00 0.  1.
     999901    1    3    3    0    0 -0.70312646617E-01 -0.42945889582E-01  0.92755578664E-01  0.88870232085E+00  0.88000000000E+00 0.  1.
        -11    1    4    4    0    0  0.45993571980E-02  0.17703364719E-01 -0.15887021779E-01  0.24232659595E-01  0.51100000000E-03 0. -1.
         11    1    4    4    0    0  0.52276108204E-01  0.47654428205E-01 -0.77403039886E-01  0.10485813140E+00  0.51100000000E-03 0.  1.
</event>
<event>
 8    1  0.1061721E+005  0.1043930E+01  0.7957747E-01            NaN
         13   -1    0    0    0    0  0.00000000000E+00  0.00000000000E+00  0.74505805969E-08  0.10566000000E+00  0.10566000000E+00 0.  1.
     999900   -1    0    0    0    0 -0.00000000000E+00 -0.00000000000E+00 -0.74505805969E-08  0.93827000000E+00  0.93827000000E+00 0. -1.
     999902    2    1    2    0    0  0.65183123889E-02  0.22317373981E-01  0.66040439153E-02  0.10197604536E+01  0.10194739897E+01 0.  0.
     999903    2    3    3    0    0  0.22341490398E-01  0.65062241728E-01  0.10918923408E+00  0.13262956250E+00  0.30595334908E-01 0.  0.
         14    1    1    2    0    0 -0.65183123889E-02 -0.22317373981E-01 -0.66040439153E-02  0.24169546414E-01  0.00000000000E+00 0. -1.
     999901    1    3    3    0    0 -0.15823178009E-01 -0.42744867747E-01 -0.10258519016E+00  0.88713089109E+00  0.88000000000E+00 0. -1.
        -11    1    4    4    0    0  0.16834433521E-02  0.42581910010E-01  0.78585615368E-01  0.89398059853E-01  0.51100000000E-03 0.  1.
         11    1    4    4    0    0  0.20658047045E-01  0.22480331718E-01  0.30603618710E-01  0.43231502646E-01  0.51100000000E-03 0. -1.
</event>
<event>
 8    1  0.1061721E+005  0.1043930E+01  0.7957747E-01            NaN
         13   -1    0    0    0    0  0.00000000000E+00  0.00000000000E+00  0.74505805969E-08  0.10566000000E+00  0.10566000000E+00 0. -1.
     999900   -1    0    0    0    0 -0.00000000000E+00 -0.00000000000E+00 -0.74505805969E-08  0.93827000000E+00  0.93827000000E+00 0.  1.
     999902    2    1    2    0    0 -0.22599314893E-01  0.68107461058E-02 -0.54649105768E-02  0.10197023186E+01  0.10194144585E+01 0.  0.
     999903    2    3    3    0    0  0.45397031149E-01  0.99038100807E-01 -0.68084983573E-01  0.13006719031E+00  0.20309435203E-01 0.  0.
         14    1    1    2    0    0  0.22599314893E-01 -0.68107461058E-02  0.54649105768E-02  0.24227681353E-01  0.00000000000E+00 0. -1.
     999901    1    3    3    0    0 -0.67996346042E-01 -0.92227354701E-01  0.62620072996E-01  0.88963512834E+00  0.88000000000E+00 0.  1.
        -11    1    4    4    0    0  0.42084937972E-01  0.70852311897E-01 -0.51936545180E-01  0.97410769176E-01  0.51100000000E-03 0. -1.
         11    1    4    4    0    0  0.33120931768E-02  0.28185788910E-01 -0.16148438393E-01  0.32656421133E-01  0.51100000000E-03 0.  1.
</event>
<event>
 8    1  0.1061721E+005  0.1043930E+01  0.7957747E-01            NaN
         13   -1    0    0    0    0  0.00000000000E+00  0.00000000000E+00  0.74505805969E-08  0.10566000000E+00  0.10566000000E+00 0.  1.
     999900   -1    0    0    0    0 -0.00000000000E+00 -0.00000000000E+00 -0.74505805969E-08  0.93827000000E+00  0.93827000000E+00 0.  1.
     999902    2    1    2    0    0  0.18937335647E-01  0.12727554902E-01  0.36082735947E-02  0.10208295027E+01  0.10205680970E+01 0.  0.
     999903    2    3    3    0    0 -0.81221843390E-01  0.50058042598E-03 -0.98501209774E-01  0.12919745608E+00  0.19805451399E-01 0.  0.
         14    1    1    2    0    0 -0.18937335647E-01 -0.12727554902E-01 -0.36082735947E-02  0.23100497257E-01  0.00000000000E+00 0. -1.
     999901    1    3    3    0    0  0.10015917904E+00  0.12226974476E-01  0.10210948337E+00  0.89163204667E+00  0.88000000000E+00 0. -1.
        -11    1    4    4    0    0 -0.18294779095E-01  0.84195946015E-02 -0.25294261979E-01  0.32336501441E-01  0.51100000000E-03 0. -1.
         11    1    4    4    0    0 -0.62927064294E-01 -0.79190141756E-02 -0.73206947795E-01  0.96860954634E-01  0.51100000000E-03 0.  1.
</event>
<event>
 8    1  0.1061721E+005  0.1043930E+01  0.7957747E-01            NaN
         13   -1    0    0    0    0  0.00000000000E+00  0.00000000000E+00  0.74505805969E-08  0.10566000000E+00  0.10566000000E+00 0. -1.
     999900   -1    0    0    0    0 -0.00000000000E+00 -0.00000000000E+00 -0.74505805969E-08  0.93827000000E+00  0.93827000000E+00 0. -1.
     999902    2    1    2    0    0  0.59926548204E-02 -0.20364788462E-01  0.12241502074E-01  0.10194250843E+01  0.10191305174E+01 0.  0.
     999903    2    3    3    0    0  0.11798559886E+00 -0.41835687061E-01 -0.30632591674E-01  0.13103237444E+00  0.23670682904E-01 0.  0.
         14    1    1    2    0    0 -0.59926548204E-02  0.20364788462E-01 -0.12241502074E-01  0.24504915710E-01  0.00000000000E+00 0.  1.
     999901    1    3    3    0    0 -0.11199294404E+00  0.21470898598E-01  0.42874093747E-01  0.88839270985E+00  0.88000000000E+00 0. -1.
        -11    1    4    4    0    0  0.30594296012E-01 -0.15496580857E-01 -0.18452702198E-01  0.38947635437E-01  0.51100000000E-03 0.  1.
         11    1    4    4    0    0  0.87391302845E-01 -0.26339106203E-01 -0.12179889476E-01  0.92084739003E-01  0.51100000000E-03 0. -1.
</event>
<event>
 8    1  0.1061721E+005  0.1043930E+01  0.7957747E-01            NaN
         13   -1    0    0    0    0  0.00000000000E+00  0.00000000000E+00  0.74505805969E-08  0.10566000000E+00  0.10566000000E+00 0. -1.
     999900   -1    0    0    0    0 -0.00000000000E+00 -0.00000000000E+00 -0.74505805969E-08  0.93827000000E+00  0.93827000000E+00 0.  1.
     999902    2    1    2    0    0 -0.18470731237E-01  0.65193981212E-02  0.14090797349E-01  0.10198007432E+01  0.10195152450E+01 0.  0.
     999903    2    3    3    0    0 -0.25713213007E-01 -0.10729578920E+00  0.67364834334E-01  0.13084378505E+00  0.20211864818E-01 0.  0.
         14    1    1    2    0    0  0.18470731237E-01 -0.65193981212E-02 -0.14090797349E-01  0.24129256810E-01  0.00000000000E+00 0.  1.
     999901    1    3    3    0    0  0.72424817705E-02  0.11381518732E+00 -0.53274036985E-01  0.88895695814E+00  0.88000000000E+00 0.  1.
        -11    1    4    4    0    0 -0.16250040822E-01 -0.31184600816E-01  0.16783598821E-01  0.38967851688E-01  0.51100000000E-03 0. -1.
         11    1    4    4    0    0 -0.94631721848E-02 -0.76111188380E-01  0.50581235514E-01  0.91875933364E-01  0.51100000000E-03 0.  1.
</event>
<event>
 8    1  0.1061721E+005  0.1043930E+01  0.7957747E-01            NaN
         13   -1    0    0    0    0  0.00000000000E+00  0.00000000000E+00  0.74505805969E-08  0.10566000000E+00  0.10566000000E+00 0.  1.
     999900   -1    0    0    0    0 -0.00000000000E+00 -0.00000000000E+00 -0.74505805969E-08  0.93827000000E+00  0.93827000000E+00 0.  1.
     999902    2    1    2    0    0 -0.20996640945E-01 -0.12201456084E-01 -0.57580535848E-02  0.10189722428E+01  0.10186665510E+01 0.  0.
     999903    2    3    3    0    0 -0.39081356134E-01  0.11664547362E+00  0.33849803815E-01  0.12852439451E+00  0.15465828571E-01 0.  0.
         14    1    1    2    0    0  0.20996640945E-01  0.12201456084E-01  0.57580535848E-02  0.24957757163E-01  0.00000000000E+00 0. -1.
     999901    1    3    3    0    0  0.18084715188E-01 -0.12884692970E+00 -0.39607857400E-01  0.89044784832E+00  0.88000000000E+00 0.  1.
        -11    1    4    4    0    0 -0.19208177361E-01  0.78531387103E-01  0.19060670573E-01  0.83064451612E-01  0.51100000000E-03 0. -1.
         11    1    4    4    0    0 -0.19873178773E-01  0.38114086516E-01  0.14789133242E-01  0.45459942901E-01  0.51100000000E-03 0.  1.
</event>
<event>
 8    1  0.1061721E+005  0.1043930E+01  0.7957747E-01            NaN
         13   -1    0    0    0    0  0.00000000000E+00  0.00000000000E+00  0.74505805969E-08  0.10566000000E+00  0.10566000000E+00 0.  1.
     999900   -1    0    0    0    0 -0.00000000000E+00 -0.00000000000E+00 -0.74505805969E-08  0.93827000000E+00  0.93827000000E+00 0. -1.
     999902    2    1    2    0    0  0.22825968334E-01 -0.41891800891E-02 -0.40006971714E-02  0.10203804854E+01  0.10201086978E+01 0.  0.
     999903    2    3    3    0    0 -0.10582322471E+00 -0.68165518143E-01  0.15385917013E-01  0.12851758814E+00  0.20855485293E-01 0.  0.
         14    1    1    2    0    0 -0.22825968334E-01  0.41891800891E-02  0.40006971714E-02  0.23549514603E-01  0.00000000000E+00 0. -1.
     999901    1    3    3    0    0  0.12864919304E+00  0.63976338054E-01 -0.19386614185E-01  0.89186289726E+00  0.88000000000E+00 0.  1.
        -11    1    4    4    0    0 -0.65350922259E-01 -0.39456094611E-01  0.19293964723E-01  0.78740362190E-01  0.51100000000E-03 0.  1.
         11    1    4    4    0    0 -0.40472302448E-01 -0.28709423532E-01 -0.39080477093E-02  0.49777225946E-01  0.51100000000E-03 0. -1.
</event>
<event>
 8    1  0.1061721E+005  0.1043930E+01  0.7957747E-01            NaN
         13   -1    0    0    0    0  0.00000000000E+00  0.00000000000E+00  0.74505805969E-08  0.10566000000E+00  0.10566000000E+00 0.  1.
     999900   -1    0    0    0    0 -0.00000000000E+00 -0.00000000000E+00 -0.74505805969E-08  0.93827000000E+00  0.93827000000E+00 0. -1.
     999902    2    1    2    0    0 -0.11277725407E-01 -0.45072931150E-02  0.20124803554E-01  0.10204244581E+01  0.10201536964E+01 0.  0.
     999903    2    3    3    0    0 -0.18021561757E-01 -0.84087055700E-01  0.99565178046E-01  0.13324398546E+00  0.21102733436E-01 0.  0.
         14    1    1    2    0    0  0.11277725407E-01  0.45072931150E-02 -0.20124803554E-01  0.23505541892E-01  0.00000000000E+00 0. -1.
     999901    1    3    3    0    0  0.67438363499E-02  0.79579762585E-01 -0.79440374493E-01  0.88718047264E+00  0.88000000000E+00 0.  1.
        -11    1    4    4    0    0 -0.16676101958E-01 -0.48240339919E-01  0.45623625949E-01  0.68461661810E-01  0.51100000000E-03 0.  1.
         11    1    4    4    0    0 -0.13454597983E-02 -0.35846715781E-01  0.53941552097E-01  0.64782323654E-01  0.51100000000E-03 0. -1.
</event>
<event>
 8    1  0.1061721E+005  0.1043930E+01  0.7957747E-01            NaN
         13   -1    0    0    0    0  0.00000000000E+00  0.00000000000E+00  0.74505805969E-08  0.10566000000E+00  0.10566000000E+00 0.  1.
     999900   -1    0    0    0    0 -0.00000000000E+00 -0.00000000000E+00 -0.74505805969E-08  0.93827000000E+00  0.93827000000E+00 0. -1.
     999902    2    1    2    0    0  0.14709491307E-01  0.13840551957E-01  0.12846813113E-01  0.10199931953E+01  0.10197122868E+01 0.  0.
     999903    2    3    3    0    0 -0.17410735566E-01 -0.55645724898E-01  0.11542019685E+00  0.13073431807E+00  0.19236934995E-01 0.  0.
         14    1    1    2    0    0 -0.14709491307E-01 -0.13840551957E-01 -0.12846813113E-01  0.23936804719E-01  0.00000000000E+00 0. -1.
     999901    1    3    3    0    0  0.32120226873E-01  0.69486276856E-01 -0.10257338374E+00  0.88925887721E+00  0.88000000000E+00 0.  1.
        -11    1    4    4    0    0 -0.18556166799E-01 -0.27328662636E-01  0.60655244855E-01  0.69068856782E-01  0.51100000000E-03 0.  1.
         11    1    4    4    0    0  0.11454312334E-02 -0.28317062262E-01  0.54764951996E-01  0.61665461289E-01  0.51100000000E-03 0. -1.
</event>
<event>
 8    1  0.1061721E+005  0.1043930E+01  0.7957747E-01            NaN
         13   -1    0    0    0    0  0.00000000000E+00  0.00000000000E+00  0.74505805969E-08  0.10566000000E+00  0.10566000000E+00 0.  1.
     999900   -1    0    0    0    0 -0.00000000000E+00 -0.00000000000E+00 -0.74505805969E-08  0.93827000000E+00  0.93827000000E+00 0. -1.
     999902    2    1    2    0    0  0.67404126416E-02  0.66202899027E-02 -0.21941008614E-01  0.10200413152E+01  0.10197615484E+01 0.  0.
     999903    2    3    3    0    0 -0.10173052095E+00 -0.21525586749E-01  0.71617691697E-01  0.12801476618E+00  0.21124318208E-01 0.  0.
         14    1    1    2    0    0 -0.67404126416E-02 -0.66202899027E-02  0.21941008614E-01  0.23888684769E-01  0.00000000000E+00 0.  1.
     999901    1    3    3    0    0  0.10847093359E+00  0.28145876651E-01 -0.93558700311E-01  0.89202654905E+00  0.88000000000E+00 0. -1.
        -11    1    4    4    0    0 -0.21270965577E-01 -0.69541426360E-02  0.26264734026E-01  0.34509584913E-01  0.51100000000E-03 0.  1.
         11    1    4    4    0    0 -0.80459555368E-01 -0.14571444113E-01  0.45352957671E-01  0.93505181269E-01  0.51100000000E-03 0. -1.
</event>
<event>
 8    1  0.1061721E+005  0.1043930E+01  0.7957747E-01            NaN
         13   -1    0    0    0    0  0.00000000000E+00  0.00000000000E+00  0.74505805969E-08  0.10566000000E+00  0.10566000000E+00 0.  1.
     999900   -1    0    0    0    0 -0.00000000000E+00 -0.00000000000E+00 -0.74505805969E-08  0.93827000000E+00  0.93827000000E+00 0. -1.
     999902    2    1    2    0    0  0.15652629985E-01  0.10306440161E-01  0.27516803521E-03  0.10251869146E+01  0.10250155640E+01 0.  0.
     999903    2    3    3    0    0  0.17241488769E-02 -0.79077810946E-01 -0.10667237524E+00  0.13410817284E+00  0.18701163330E-01 0.  0.
         14    1    1    2    0    0 -0.15652629985E-01 -0.10306440161E-01 -0.27516803521E-03  0.18743085437E-01  0.00000000000E+00 0. -1.
     999901    1    3    3    0    0  0.13928481108E-01  0.89384251107E-01  0.10694754328E+00  0.89107874172E+00  0.88000000000E+00 0. -1.
        -11    1    4    4    0    0 -0.56836039897E-02 -0.65596932752E-01 -0.84736855366E-01  0.10731195981E+00  0.51100000000E-03 0. -1.
         11    1    4    4    0    0  0.74077528666E-02 -0.13480878194E-01 -0.21935519878E-01  0.26796213030E-01  0.51100000000E-03 0.  1.
</event>
<event>
 8    1  0.1061721E+005  0.1043930E+01  0.7957747E-01            NaN
         13   -1    0    0    0    0  0.00000000000E+00  0.00000000000E+00  0.74505805969E-08  0.10566000000E+00  0.10566000000E+00 0.  1.
     999900   -1    0    0    0    0 -0.00000000000E+00 -0.00000000000E+00 -0.74505805969E-08  0.93827000000E+00  0.93827000000E+00 0. -1.
     999902    2    1    2    0    0  0.31990439901E-02  0.11033919811E-01  0.23533468750E-01  0.10177421131E+01  0.10174051324E+01 0.  0.
     999903    2    3    3    0    0  0.88582216379E-01 -0.20967732125E-02 -0.88047295647E-01  0.12649973966E+00  0.19966280271E-01 0.  0.
         14    1    1    2    0    0 -0.31990439901E-02 -0.11033919811E-01 -0.23533468750E-01  0.26187886899E-01  0.00000000000E+00 0. -1.
     999901    1    3    3    0    0 -0.85383172389E-01  0.13130693024E-01  0.11158076440E+00  0.89124237344E+00  0.88000000000E+00 0.  1.
        -11    1    4    4    0    0  0.56193054495E-01  0.76136330219E-02 -0.60074142732E-01  0.82612290413E-01  0.51100000000E-03 0. -1.
         11    1    4    4    0    0  0.32389161884E-01 -0.97104062345E-02 -0.27973152915E-01  0.43887449251E-01  0.51100000000E-03 0.  1.
</event>
<event>
 8    1  0.1061721E+005  0.1043930E+01  0.7957747E-01            NaN
         13   -1    0    0    0    0  0.00000000000E+00  0.00000000000E+00  0.74505805969E-08  0.10566000000E+00  0.10566000000E+00 0. -1.
     999900   -1    0    0    0    0 -0.00000000000E+00 -0.00000000000E+00 -0.74505805969E-08  0.93827000000E+00  0.93827000000E+00 0.  1.
     999902    2    1    2    0    0  0.16845742751E-01  0.50511198963E-02  0.14981216965E-01  0.10208274087E+01  0.10205659551E+01 0.  0.
     999903    2    3    3    0    0  0.13156968398E+00 -0.13568904020E-04  0.54751132636E-02  0.13331538079E+00  0.20794998510E-01 0.  0.
         14    1    1    2    0    0 -0.16845742751E-01 -0.50511198963E-02 -0.14981216965E-01  0.23102591257E-01  0.00000000000E+00 0.  1.
     999901    1    3    3    0    0 -0.11472394123E+00  0.50646888003E-02  0.95061037012E-02  0.88751202796E+00  0.88000000000E+00 0.  1.
        -11    1    4    4    0    0  0.18835096904E-01  0.44519742872E-02 -0.50289593525E-02  0.20003312316E-01  0.51100000000E-03 0. -1.
         11    1    4    4    0    0  0.11273458707E+00 -0.44655431912E-02  0.10504072616E-01  0.11331206847E+00  0.51100000000E-03 0.  1.
</event>
<event>
 8    1  0.1061721E+005  0.1043930E+01  0.7957747E-01            NaN
         13   -1    0    0    0    0  0.00000000000E+00  0.00000000000E+00  0.74505805969E-08  0.10566000000E+00  0.10566000000E+00 0.  1.
     999900   -1    0    0    0    0 -0.00000000000E+00 -0.00000000000E+00 -0.74505805969E-08  0.93827000000E+00  0.93827000000E+00 0. -1.
     999902    2    1    2    0    0  0.13871514772E-01  0.20428274472E-01  0.40492217404E-03  0.10192339015E+01  0.10189346636E+01 0.  0.
     999903    2    3    3    0    0  0.12312704498E+00 -0.34320390873E-02  0.40347504626E-01  0.13125783461E+00  0.20703862438E-01 0.  0.
         14    1    1    2    0    0 -0.13871514772E-01 -0.20428274472E-01 -0.40492217404E-03  0.24696098516E-01  0.00000000000E+00 0. -1.
     999901    1    3    3    0    0 -0.10925553021E+00  0.23860313559E-01 -0.39942582452E-01  0.88797606687E+00  0.88000000000E+00 0.  1.
        -11    1    4    4    0    0  0.70497446295E-01  0.12774816755E-02  0.33194019862E-01  0.77933471430E-01  0.51100000000E-03 0.  1.
         11    1    4    4    0    0  0.52629598684E-01 -0.47095207628E-02  0.71534847637E-02  0.53324363182E-01  0.51100000000E-03 0. -1.
</event>
<event>
 8    1  0.1061721E+005  0.1043930E+01  0.7957747E-01            NaN
         13   -1    0    0    0    0  0.00000000000E+00  0.00000000000E+00  0.74505805969E-08  0.10566000000E+00  0.10566000000E+00 0.  1.
     999900   -1    0    0    0    0 -0.00000000000E+00 -0.00000000000E+00 -0.74505805969E-08  0.93827000000E+00  0.93827000000E+00 0.  1.
     999902    2    1    2    0    0  0.13952302794E-02  0.24208147809E-01 -0.14541468380E-02  0.10196381159E+01  0.10193487096E+01 0.  0.
     999903    2    3    3    0    0  0.97182177993E-01 -0.13583496421E-01 -0.82598581626E-01  0.12992593382E+00  0.20720412597E-01 0.  0.
         14    1    1    2    0    0 -0.13952302794E-02 -0.24208147809E-01  0.14541468380E-02  0.24291884054E-01  0.00000000000E+00 0. -1.
     999901    1    3    3    0    0 -0.95786947713E-01  0.37791644229E-01  0.81144434788E-01  0.88971218213E+00  0.88000000000E+00 0. -1.
        -11    1    4    4    0    0  0.86316752559E-01 -0.51319581963E-02 -0.69879206838E-01  0.11117681160E+00  0.51100000000E-03 0. -1.
         11    1    4    4    0    0  0.10865425433E-01 -0.84515382245E-02 -0.12719374788E-01  0.18749122225E-01  0.51100000000E-03 0.  1.
</event>
<event>
 8    1  0.1061721E+005  0.1043930E+01  0.7957747E-01            NaN
         13   -1    0    0    0    0  0.00000000000E+00  0.00000000000E+00  0.74505805969E-08  0.10566000000E+00  0.10566000000E+00 0.  1.
     999900   -1    0    0    0    0 -0.00000000000E+00 -0.00000000000E+00 -0.74505805969E-08  0.93827000000E+00  0.93827000000E+00 0. -1.
     999902    2    1    2    0    0  0.12505830323E-02 -0.25413234027E-01  0.36217069235E-02  0.10182295490E+01  0.10179051534E+01 0.  0.
     999903    2    3    3    0    0 -0.10089663959E+00 -0.35939235710E-01 -0.69521312042E-01  0.12924431118E+00  0.19977952874E-01 0.  0.
         14    1    1    2    0    0 -0.12505830323E-02  0.25413234027E-01 -0.36217069235E-02  0.25700451021E-01  0.00000000000E+00 0. -1.
     999901    1    3    3    0    0  0.10214722262E+00  0.10526001683E-01  0.73143018965E-01  0.88898523780E+00  0.88000000000E+00 0.  1.
        -11    1    4    4    0    0 -0.15452943410E-01  0.17595789881E-02 -0.10027875930E-01  0.18512401111E-01  0.51100000000E-03 0. -1.
         11    1    4    4    0    0 -0.85443696178E-01 -0.37698814698E-01 -0.59493436112E-01  0.11073191007E+00  0.51100000000E-03 0.  1.
</event>
