<event>
 8    1  0.1054833E+005  0.1043930E+01  0.7957747E-01            NaN
         13   -1    0    0    0    0  0.00000000000E+00  0.00000000000E+00  0.74505805969E-08  0.10566000000E+00  0.10566000000E+00 0.  1.
     999900   -1    0    0    0    0 -0.00000000000E+00 -0.00000000000E+00 -0.74505805969E-08  0.93827000000E+00  0.93827000000E+00 0. -1.
     999902    2    1    2    0    0 -0.11820984268E-01 -0.16955646861E-01  0.11006239565E-01  0.10205127641E+01  0.10202440564E+01 0.  0.
     999903    2    3    3    0    0  0.73970387961E-01  0.83136014365E-01 -0.60442027260E-01  0.12782953076E+00  0.17433734387E-01 0.  0.
         14    1    1    2    0    0  0.11820984268E-01  0.16955646861E-01 -0.11006239565E-01  0.23417235936E-01  0.00000000000E+00 0.  1.
     999901    1    3    3    0    0 -0.85791372229E-01 -0.10009166123E+00  0.71448266825E-01  0.89268323331E+00  0.88000000000E+00 0.  1.
        -11    1    4    4    0    0  0.21021831843E-01  0.35768479415E-01 -0.24894482612E-01  0.48386960219E-01  0.51100000000E-03 0.  1.
         11    1    4    4    0    0  0.52948556117E-01  0.47367534949E-01 -0.35547544648E-01  0.79442570537E-01  0.51100000000E-03 0. -1.
</event>
<event>
 8    1  0.1054833E+005  0.1043930E+01  0.7957747E-01            NaN
         13   -1    0    0    0    0  0.00000000000E+00  0.00000000000E+00  0.74505805969E-08  0.10566000000E+00  0.10566000000E+00 0.  1.
     999900   -1    0    0    0    0 -0.00000000000E+00 -0.00000000000E+00 -0.74505805969E-08  0.93827000000E+00  0.93827000000E+00 0.  1.
     999902    2    1    2    0    0 -0.12158048700E-01  0.14956878522E-01  0.12639032656E-01  0.10208806722E+01  0.10206204365E+01 0.  0.
     999903    2    3    3    0    0  0.10158152062E+00 -0.63664595998E-01 -0.39580401810E-01  0.12855511774E+00  0.24245081464E-01 0.  0.
         14    1    1    2    0    0  0.12158048700E-01 -0.14956878522E-01 -0.12639032656E-01  0.23049327751E-01  0.00000000000E+00 0.  1.
     999901    1    3    3    0    0 -0.11373956932E+00  0.78621474520E-01  0.52219434466E-01  0.89232555450E+00  0.88000000000E+00 0. -1.
        -11    1    4    4    0    0  0.43888617340E-01 -0.37069341302E-01 -0.93772417323E-02  0.58211172296E-01  0.51100000000E-03 0. -1.
         11    1    4    4    0    0  0.57692903283E-01 -0.26595254696E-01 -0.30203160078E-01  0.70343945448E-01  0.51100000000E-03 0.  1.
</event>
<event>
 8    1  0.1054833E+005  0.1043930E+01  0.7957747E-01            NaN
         13   -1    0    0    0    0  0.00000000000E+00  0.00000000000E+00  0.74505805969E-08  0.10566000000E+00  0.10566000000E+00 0.  1.
     999900   -1    0    0    0    0 -0.00000000000E+00 -0.00000000000E+00 -0.74505805969E-08  0.93827000000E+00  0.93827000000E+00 0.  1.
     999902    2    1    2    0    0  0.21939772837E-02  0.14456380633E-01 -0.19726238291E-01  0.10193754698E+01  0.10190796943E+01 0.  0.
     999903    2    3    3    0    0  0.28650330712E-01  0.45711447283E-01  0.11491493657E+00  0.12819363435E+00  0.17826591896E-01 0.  0.
         14    1    1    2    0    0 -0.21939772837E-02 -0.14456380633E-01  0.19726238291E-01  0.24554530222E-01  0.00000000000E+00 0.  1.
     999901    1    3    3    0    0 -0.26456353428E-01 -0.31255066650E-01 -0.13464117486E+00  0.89118183543E+00  0.88000000000E+00 0.  1.
        -11    1    4    4    0    0  0.28869295842E-01  0.46035579711E-01  0.10473327320E+00  0.11799165428E+00  0.51100000000E-03 0.  1.
         11    1    4    4    0    0 -0.21896512970E-03 -0.32413242799E-03  0.10181663364E-01  0.10201980073E-01  0.51100000000E-03 0. -1.
</event>
<event>
 8    1  0.1054833E+005  0.1043930E+01  0.7957747E-01            NaN
         13   -1    0    0    0    0  0.00000000000E+00  0.00000000000E+00  0.74505805969E-08  0.10566000000E+00  0.10566000000E+00 0. -1.
     999900   -1    0    0    0    0 -0.00000000000E+00 -0.00000000000E+00 -0.74505805969E-08  0.93827000000E+00  0.93827000000E+00 0.  1.
     999902    2    1    2    0    0  0.21507410327E-01  0.57995246467E-02 -0.10099912160E-01  0.10194716392E+01  0.10191782042E+01 0.  0.
     999903    2    3    3    0    0 -0.14425347484E-01  0.12633510467E+00  0.18416745120E-01  0.13007117327E+00  0.20265347110E-01 0.  0.
         14    1    1    2    0    0 -0.21507410327E-01 -0.57995246467E-02  0.10099912160E-01  0.24458360753E-01  0.00000000000E+00 0. -1.
     999901    1    3    3    0    0  0.35932757811E-01 -0.12053558002E+00 -0.28516657280E-01  0.88940046598E+00  0.88000000000E+00 0. -1.
        -11    1    4    4    0    0 -0.87153681579E-03  0.49241564599E-01  0.15893844447E-01  0.51752938785E-01  0.51100000000E-03 0.  1.
         11    1    4    4    0    0 -0.13553810668E-01  0.77093540070E-01  0.25229006725E-02  0.78318234486E-01  0.51100000000E-03 0. -1.
</event>
<event>
 8    1  0.1054833E+005  0.1043930E+01  0.7957747E-01            NaN
         13   -1    0    0    0    0  0.00000000000E+00  0.00000000000E+00  0.74505805969E-08  0.10566000000E+00  0.10566000000E+00 0.  1.
     999900   -1    0    0    0    0 -0.00000000000E+00 -0.00000000000E+00 -0.74505805969E-08  0.93827000000E+00  0.93827000000E+00 0. -1.
     999902    2    1    2    0    0  0.71583686322E-02 -0.28166910235E-03 -0.22664342925E-01  0.10201603972E+01  0.10198834453E+01 0.  0.
     999903    2    3    3    0    0  0.11115221493E+00  0.65225148135E-01  0.12093430885E-01  0.13093940887E+00  0.19741907006E-01 0.  0.
         14    1    1    2    0    0 -0.71583686322E-02  0.28166910235E-03  0.22664342925E-01  0.23769602840E-01  0.00000000000E+00 0.  1.
     999901    1    3    3    0    0 -0.10399384630E+00 -0.65506817237E-01 -0.34757773810E-01  0.88922098829E+00  0.88000000000E+00 0. -1.
        -11    1    4    4    0    0  0.41775472159E-01  0.18827198656E-01 -0.37776668078E-02  0.45980271540E-01  0.51100000000E-03 0. -1.
         11    1    4    4    0    0  0.69376742770E-01  0.46397949479E-01  0.15871097693E-01  0.84959137332E-01  0.51100000000E-03 0.  1.
</event>
<event>
 8    1  0.1054833E+005  0.1043930E+01  0.7957747E-01            NaN
         13   -1    0    0    0    0  0.00000000000E+00  0.00000000000E+00  0.74505805969E-08  0.10566000000E+00  0.10566000000E+00 0.  1.
     999900   -1    0    0    0    0 -0.00000000000E+00 -0.00000000000E+00 -0.74505805969E-08  0.93827000000E+00  0.93827000000E+00 0. -1.
     999902    2    1    2    0    0 -0.24225367829E-02 -0.24570342031E-01  0.21267177632E-02  0.10191490936E+01  0.10188477716E+01 0.  0.
     999903    2    3    3    0    0 -0.30337882334E-01 -0.12446199991E+00 -0.27750113906E-01  0.13255435256E+00  0.19733500316E-01 0.  0.
         14    1    1    2    0    0  0.24225367829E-02  0.24570342031E-01 -0.21267177632E-02  0.24780906368E-01  0.00000000000E+00 0. -1.
     999901    1    3    3    0    0  0.27915345551E-01  0.99891657876E-01  0.29876831669E-01  0.88659474107E+00  0.88000000000E+00 0. -1.
        -11    1    4    4    0    0 -0.12461319754E-03 -0.37869761164E-01 -0.68068169481E-02  0.38480231509E-01  0.51100000000E-03 0.  1.
         11    1    4    4    0    0 -0.30213269136E-01 -0.86592238743E-01 -0.20943296958E-01  0.94074121048E-01  0.51100000000E-03 0. -1.
</event>
<event>
 8    1  0.1054833E+005  0.1043930E+01  0.7957747E-01            NaN
         13   -1    0    0    0    0  0.00000000000E+00  0.00000000000E+00  0.74505805969E-08  0.10566000000E+00  0.10566000000E+00 0. -1.
     999900   -1    0    0    0    0 -0.00000000000E+00 -0.00000000000E+00 -0.74505805969E-08  0.93827000000E+00  0.93827000000E+00 0. -1.
     999902    2    1    2    0    0 -0.55011059896E-03 -0.18456675278E-01  0.15085928248E-01  0.10200859921E+01  0.10198072830E+01 0.  0.
     999903    2    3    3    0    0  0.85456131170E-01 -0.17380458626E-01 -0.93419077026E-01  0.12925965205E+00  0.19393375148E-01 0.  0.
         14    1    1    2    0    0  0.55011059896E-03  0.18456675278E-01 -0.15085928248E-01  0.23844007949E-01  0.00000000000E+00 0.  1.
     999901    1    3    3    0    0 -0.86006241769E-01 -0.10762166518E-02  0.10850500527E+00  0.89082634000E+00  0.88000000000E+00 0.  1.
        -11    1    4    4    0    0  0.61213674569E-01 -0.16898438448E-01 -0.56006314455E-01  0.84673724118E-01  0.51100000000E-03 0. -1.
         11    1    4    4    0    0  0.24242456600E-01 -0.48202017758E-03 -0.37412762572E-01  0.44585927934E-01  0.51100000000E-03 0.  1.
</event>
<event>
 8    1  0.1054833E+005  0.1043930E+01  0.7957747E-01            NaN
         13   -1    0    0    0    0  0.00000000000E+00  0.00000000000E+00  0.74505805969E-08  0.10566000000E+00  0.10566000000E+00 0. -1.
     999900   -1    0    0    0    0 -0.00000000000E+00 -0.00000000000E+00 -0.74505805969E-08  0.93827000000E+00  0.93827000000E+00 0.  1.
     999902    2    1    2    0    0  0.17442008710E-01  0.12308835031E-01  0.12590625318E-01  0.10191458330E+01  0.10188444307E+01 0.  0.
     999903    2    3    3    0    0  0.86657849985E-01  0.87087267485E-01  0.45704415225E-01  0.13264757033E+00  0.20315246045E-01 0.  0.
         14    1    1    2    0    0 -0.17442008710E-01 -0.12308835031E-01 -0.12590625318E-01  0.24784166994E-01  0.00000000000E+00 0.  1.
     999901    1    3    3    0    0 -0.69215841275E-01 -0.74778432454E-01 -0.33113789907E-01  0.88649826267E+00  0.88000000000E+00 0.  1.
        -11    1    4    4    0    0  0.23490153433E-01  0.36155336865E-01  0.19976398041E-01  0.47521713898E-01  0.51100000000E-03 0. -1.
         11    1    4    4    0    0  0.63167696551E-01  0.50931930620E-01  0.25728017184E-01  0.85125856433E-01  0.51100000000E-03 0.  1.
</event>
<event>
 8    1  0.1054833E+005  0.1043930E+01  0.7957747E-01            NaN
         13   -1    0    0    0    0  0.00000000000E+00  0.00000000000E+00  0.74505805969E-08  0.10566000000E+00  0.10566000000E+00 0.  1.
     999900   -1    0    0    0    0 -0.00000000000E+00 -0.00000000000E+00 -0.74505805969E-08  0.93827000000E+00  0.93827000000E+00 0. -1.
     999902    2    1    2    0    0  0.15841525672E-01 -0.17836200367E-01  0.11780760274E-02  0.10200454476E+01  0.10197657787E+01 0.  0.
     999903    2    3    3    0    0  0.90237691829E-01 -0.36188220166E-01  0.87792184928E-01  0.13247934303E+00  0.19770692668E-01 0.  0.
         14    1    1    2    0    0 -0.15841525672E-01  0.17836200367E-01 -0.11780760274E-02  0.23884552377E-01  0.00000000000E+00 0. -1.
     999901    1    3    3    0    0 -0.74396166157E-01  0.18352019800E-01 -0.86614108901E-01  0.88756610460E+00  0.88000000000E+00 0. -1.
        -11    1    4    4    0    0  0.26284772792E-01 -0.11715218688E-01  0.38668235911E-01  0.48204037373E-01  0.51100000000E-03 0.  1.
         11    1    4    4    0    0  0.63952919037E-01 -0.24473001478E-01  0.49123949017E-01  0.84275305652E-01  0.51100000000E-03 0. -1.
</event>
<event>
 8    1  0.1054833E+005  0.1043930E+01  0.7957747E-01            NaN
         13   -1    0    0    0    0  0.00000000000E+00  0.00000000000E+00  0.74505805969E-08  0.10566000000E+00  0.10566000000E+00 0.  1.
     999900   -1    0    0    0    0 -0.00000000000E+00 -0.00000000000E+00 -0.74505805969E-08  0.93827000000E+00  0.93827000000E+00 0. -1.
     999902    2    1    2    0    0 -0.13768746220E-01 -0.48141901264E-02  0.20305839572E-01  0.10189283617E+01  0.10186215805E+01 0.  0.
     999903    2    3    3    0    0  0.23671992817E-01  0.12326452675E+00  0.21253821885E-01  0.12886832698E+00  0.20020338568E-01 0.  0.
         14    1    1    2    0    0  0.13768746220E-01  0.48141901264E-02 -0.20305839572E-01  0.25001638342E-01  0.00000000000E+00 0. -1.
     999901    1    3    3    0    0 -0.37440739037E-01 -0.12807871687E+00 -0.94798231279E-03  0.89006003468E+00  0.88000000000E+00 0.  1.
        -11    1    4    4    0    0  0.19727050003E-01  0.11598886302E+00  0.24105486930E-01  0.12009957730E+00  0.51100000000E-03 0. -1.
         11    1    4    4    0    0  0.39449428136E-02  0.72756637308E-02 -0.28516650448E-02  0.87687496859E-02  0.51100000000E-03 0.  1.
</event>
<event>
 8    1  0.1054833E+005  0.1043930E+01  0.7957747E-01            NaN
         13   -1    0    0    0    0  0.00000000000E+00  0.00000000000E+00  0.74505805969E-08  0.10566000000E+00  0.10566000000E+00 0. -1.
     999900   -1    0    0    0    0 -0.00000000000E+00 -0.00000000000E+00 -0.74505805969E-08  0.93827000000E+00  0.93827000000E+00 0. -1.
     999902    2    1    2    0    0  0.12813919195E-01 -0.78145130275E-02 -0.17121052513E-01  0.10211617419E+01  0.10209078849E+01 0.  0.
     999903    2    3    3    0    0 -0.28587974141E-01 -0.11870641984E+00  0.43474292856E-01  0.13117133313E+00  0.20184601071E-01 0.  0.
         14    1    1    2    0    0 -0.12813919195E-01  0.78145130275E-02  0.17121052513E-01  0.22768258127E-01  0.00000000000E+00 0. -1.
     999901    1    3    3    0    0  0.41401893336E-01  0.11089190681E+00 -0.60595345370E-01  0.88999040874E+00  0.88000000000E+00 0.  1.
        -11    1    4    4    0    0 -0.25023415712E-01 -0.75760592617E-01  0.35563298930E-01  0.87354725569E-01  0.51100000000E-03 0. -1.
         11    1    4    4    0    0 -0.35645584291E-02 -0.42945827221E-01  0.79109939267E-02  0.43816607564E-01  0.51100000000E-03 0.  1.
</event>
<event>
 8    1  0.1054833E+005  0.1043930E+01  0.7957747E-01            NaN
         13   -1    0    0    0    0  0.00000000000E+00  0.00000000000E+00  0.74505805969E-08  0.10566000000E+00  0.10566000000E+00 0.  1.
     999900   -1    0    0    0    0 -0.00000000000E+00 -0.00000000000E+00 -0.74505805969E-08  0.93827000000E+00  0.93827000000E+00 0. -1.
     999902    2    1    2    0    0 -0.43154159300E-02 -0.20645199112E-01 -0.10512216243E-01  0.10203640553E+01  0.10200918839E+01 0.  0.
     999903    2    3    3    0    0 -0.84858878381E-01 -0.10047755993E+00 -0.58655995238E-02  0.13307489934E+00  0.19435902005E-01 0.  0.
         14    1    1    2    0    0  0.43154159300E-02  0.20645199112E-01  0.10512216243E-01  0.23565944738E-01  0.00000000000E+00 0.  1.
     999901    1    3    3    0    0  0.80543462451E-01  0.79832360814E-01 -0.46466167195E-02  0.88728915593E+00  0.88000000000E+00 0. -1.
        -11    1    4    4    0    0 -0.10763762103E-01 -0.24766324145E-01 -0.11871558126E-02  0.27035159445E-01  0.51100000000E-03 0. -1.
         11    1    4    4    0    0 -0.74095116278E-01 -0.75711235781E-01 -0.46784437112E-02  0.10603973989E+00  0.51100000000E-03 0.  1.
</event>
<event>
 8    1  0.1054833E+005  0.1043930E+01  0.7957747E-01            NaN
         13   -1    0    0    0    0  0.00000000000E+00  0.00000000000E+00  0.74505805969E-08  0.10566000000E+00  0.10566000000E+00 0. -1.
     999900   -1    0    0    0    0 -0.00000000000E+00 -0.00000000000E+00 -0.74505805969E-08  0.93827000000E+00  0.93827000000E+00 0.  1.
     999902    2    1    2    0    0 -0.16525734176E-01 -0.11614875352E-01  0.13039138204E-01  0.10198878631E+01  0.10196044473E+01 0.  0.
     999903    2    3    3    0    0  0.12479579091E+00 -0.10571900204E-01 -0.16175563885E-01  0.12813321075E+00  0.21695997965E-01 0.  0.
         14    1    1    2    0    0  0.16525734176E-01  0.11614875352E-01 -0.13039138204E-01  0.24042136856E-01  0.00000000000E+00 0. -1.
     999901    1    3    3    0    0 -0.14132152508E+00 -0.10429751476E-02  0.29214702089E-01  0.89175465239E+00  0.88000000000E+00 0.  1.
        -11    1    4    4    0    0  0.89605965707E-01 -0.82161409735E-02 -0.16813364106E-02  0.89999011528E-01  0.51100000000E-03 0.  1.
         11    1    4    4    0    0  0.35189825201E-01 -0.23557592307E-02 -0.14494227474E-01  0.38134199222E-01  0.51100000000E-03 0. -1.
</event>
<event>
 8    1  0.1054833E+005  0.1043930E+01  0.7957747E-01            NaN
         13   -1    0    0    0    0  0.00000000000E+00  0.00000000000E+00  0.74505805969E-08  0.10566000000E+00  0.10566000000E+00 0. -1.
     999900   -1    0    0    0    0 -0.00000000000E+00 -0.00000000000E+00 -0.74505805969E-08  0.93827000000E+00  0.93827000000E+00 0. -1.
     999902    2    1    2    0    0 -0.76719625191E-02 -0.19013994420E-02 -0.22155355341E-01  0.10204069454E+01  0.10201357753E+01 0.  0.
     999903    2    3    3    0    0  0.42770935797E-01  0.85835368438E-02 -0.12412098406E+00  0.13302235608E+00  0.19644298854E-01 0.  0.
         14    1    1    2    0    0  0.76719625191E-02  0.19013994420E-02  0.22155355341E-01  0.23523054627E-01  0.00000000000E+00 0. -1.
     999901    1    3    3    0    0 -0.50442898316E-01 -0.10484936286E-01  0.10196562872E+00  0.88738458930E+00  0.88000000000E+00 0.  1.
        -11    1    4    4    0    0  0.28789557367E-01 -0.39440238575E-02 -0.75467167944E-01  0.80869948040E-01  0.51100000000E-03 0.  1.
         11    1    4    4    0    0  0.13981378430E-01  0.12527560701E-01 -0.48653816120E-01  0.52152408036E-01  0.51100000000E-03 0. -1.
</event>
<event>
 8    1  0.1054833E+005  0.1043930E+01  0.7957747E-01            NaN
         13   -1    0    0    0    0  0.00000000000E+00  0.00000000000E+00  0.74505805969E-08  0.10566000000E+00  0.10566000000E+00 0. -1.
     999900   -1    0    0    0    0 -0.00000000000E+00 -0.00000000000E+00 -0.74505805969E-08  0.93827000000E+00  0.93827000000E+00 0.  1.
     999902    2    1    2    0    0  0.64971944091E-02  0.30844380615E-01 -0.44541982655E-02  0.10120955967E+01  0.10115948140E+01 0.  0.
     999903    2    3    3    0    0 -0.84611714605E-01  0.30614639302E-01  0.81744555710E-01  0.12320240219E+00  0.20006527136E-01 0.  0.
         14    1    1    2    0    0 -0.64971944091E-02 -0.30844380615E-01  0.44541982655E-02  0.31834403291E-01  0.00000000000E+00 0.  1.
     999901    1    3    3    0    0  0.91108909014E-01  0.22974131311E-03 -0.86198753975E-01  0.88889319452E+00  0.88000000000E+00 0.  1.
        -11    1    4    4    0    0 -0.78687951583E-01  0.24683484840E-01  0.79406911153E-01  0.11448487589E+00  0.51100000000E-03 0. -1.
         11    1    4    4    0    0 -0.59237630222E-02  0.59311544624E-02  0.23376445565E-02  0.87175262932E-02  0.51100000000E-03 0.  1.
</event>
<event>
 8    1  0.1054833E+005  0.1043930E+01  0.7957747E-01            NaN
         13   -1    0    0    0    0  0.00000000000E+00  0.00000000000E+00  0.74505805969E-08  0.10566000000E+00  0.10566000000E+00 0. -1.
     999900   -1    0    0    0    0 -0.00000000000E+00 -0.00000000000E+00 -0.74505805969E-08  0.93827000000E+00  0.93827000000E+00 0. -1.
     999902    2    1    2    0    0 -0.19581411286E-01 -0.12914148218E-01  0.99966432943E-03  0.10204522186E+01  0.10201821034E+01 0.  0.
     999903    2    3    3    0    0 -0.32242925232E-01  0.12352581177E+00  0.10203909991E-01  0.12980026929E+00  0.21112975354E-01 0.  0.
         14    1    1    2    0    0  0.19581411286E-01  0.12914148218E-01 -0.99966432943E-03  0.23477781431E-01  0.00000000000E+00 0. -1.
     999901    1    3    3    0    0  0.12661513946E-01 -0.13643995999E+00 -0.92042456617E-02  0.89065194928E+00  0.88000000000E+00 0.  1.
        -11    1    4    4    0    0 -0.23592412539E-01  0.49476484904E-01  0.56581072234E-02  0.55107166378E-01  0.51100000000E-03 0. -1.
         11    1    4    4    0    0 -0.86505126926E-02  0.74049326863E-01  0.45458027677E-02  0.74693102912E-01  0.51100000000E-03 0.  1.
</event>
<event>
 8    1  0.1054833E+005  0.1043930E+01  0.7957747E-01            NaN
         13   -1    0    0    0    0  0.00000000000E+00  0.00000000000E+00  0.74505805969E-08  0.10566000000E+00  0.10566000000E+00 0.  1.
     999900   -1    0    0    0    0 -0.00000000000E+00 -0.00000000000E+00 -0.74505805969E-08  0.93827000000E+00  0.93827000000E+00 0.  1.
     999902    2    1    2    0    0  0.14035946667E-01 -0.13316747872E-01  0.14501381259E-01  0.10197508017E+01  0.10194641062E+01 0.  0.
     999903    2    3    3    0    0  0.12588731670E+00 -0.34944719214E-01  0.74252430777E-02  0.13237908146E+00  0.20008424928E-01 0.  0.
         14    1    1    2    0    0 -0.14035946667E-01  0.13316747872E-01 -0.14501381259E-01  0.24179198314E-01  0.00000000000E+00 0.  1.
     999901    1    3    3    0    0 -0.11185137003E+00  0.21627971343E-01  0.70761381809E-02  0.88737172022E+00  0.88000000000E+00 0. -1.
        -11    1    4    4    0    0  0.44567249381E-01 -0.28716138197E-02  0.19988994346E-03  0.44663037966E-01  0.51100000000E-03 0.  1.
         11    1    4    4    0    0  0.81320067314E-01 -0.32073105395E-01  0.72253531342E-02  0.87716043496E-01  0.51100000000E-03 0. -1.
</event>
<event>
 8    1  0.1054833E+005  0.1043930E+01  0.7957747E-01            NaN
         13   -1    0    0    0    0  0.00000000000E+00  0.00000000000E+00  0.74505805969E-08  0.10566000000E+00  0.10566000000E+00 0. -1.
     999900   -1    0    0    0    0 -0.00000000000E+00 -0.00000000000E+00 -0.74505805969E-08  0.93827000000E+00  0.93827000000E+00 0. -1.
     999902    2    1    2    0    0  0.11289535040E-02 -0.28348336736E-02  0.23696231566E-01  0.10200381142E+01  0.10197582714E+01 0.  0.
     999903    2    3    3    0    0 -0.54176918518E-01 -0.58455343677E-01  0.10443041236E+00  0.13286823835E+00  0.19902061024E-01 0.  0.
         14    1    1    2    0    0 -0.11289535040E-02  0.28348336736E-02 -0.23696231566E-01  0.23891885828E-01  0.00000000000E+00 0.  1.
     999901    1    3    3    0    0  0.55305872022E-01  0.55620510004E-01 -0.80734180793E-01  0.88716987582E+00  0.88000000000E+00 0. -1.
        -11    1    4    4    0    0 -0.26043717101E-01 -0.42363133720E-01  0.63710526424E-01  0.80822042768E-01  0.51100000000E-03 0. -1.
         11    1    4    4    0    0 -0.28133201417E-01 -0.16092209957E-01  0.40719885935E-01  0.52046195585E-01  0.51100000000E-03 0.  1.
</event>
<event>
 7    1  0.1054833E+005  0.1043930E+01  0.7957747E-01            NaN
         13   -1    0    0    0    0  0.00000000000E+00  0.00000000000E+00  0.74505805969E-08  0.10566000000E+00  0.10566000000E+00 0. -1.
     999900   -1    0    0    0    0 -0.00000000000E+00 -0.00000000000E+00 -0.74505805969E-08  0.93827000000E+00  0.93827000000E+00 0.  1.
     999903    2    1    2    0    0  0.68798969436E-01 -0.18881354423E-01  0.35571092474E-01  0.82190299482E-01  0.20003473919E-01 0.  0.
         14    1    1    2    0    0  0.34536707235E-01 -0.62389562370E-01 -0.34485202291E-02  0.71394214969E-01  0.00000000000E+00 0. -1.
     999901    1    1    2    0    0 -0.10333567667E+00  0.81270916793E-01 -0.32122572245E-01  0.89034548555E+00  0.88000000000E+00 0. -1.
        -11    1    3    3    0    0  0.79359045892E-02  0.49755804608E-03 -0.18231088199E-02  0.81737991428E-02  0.51100000000E-03 0. -1.
         11    1    3    3    0    0  0.60863064847E-01 -0.19378912469E-01  0.37394201294E-01  0.74016500339E-01  0.51100000000E-03 0.  1.
</event>
<event>
 8    1  0.1054833E+005  0.1043930E+01  0.7957747E-01            NaN
         13   -1    0    0    0    0  0.00000000000E+00  0.00000000000E+00  0.74505805969E-08  0.10566000000E+00  0.10566000000E+00 0.  1.
     999900   -1    0    0    0    0 -0.00000000000E+00 -0.00000000000E+00 -0.74505805969E-08  0.93827000000E+00  0.93827000000E+00 0. -1.
     999902    2    1    2    0    0  0.10301259539E-01  0.17339732741E-01  0.10585651824E-01  0.10211519776E+01  0.10208979004E+01 0.  0.
     999903    2    3    3    0    0 -0.66536233519E-01  0.23221826915E-01 -0.10735369648E+00  0.12994589075E+00  0.19869442841E-01 0.  0.
         14    1    1    2    0    0 -0.10301259539E-01 -0.17339732741E-01 -0.10585651824E-01  0.22778022393E-01  0.00000000000E+00 0. -1.
     999901    1    3    3    0    0  0.76837493057E-01 -0.58820941743E-02  0.11793934830E+00  0.89120608686E+00  0.88000000000E+00 0.  1.
        -11    1    4    4    0    0 -0.19444945719E-01  0.68087729406E-03 -0.42053843899E-01  0.46339577205E-01  0.51100000000E-03 0.  1.
         11    1    4    4    0    0 -0.47091287799E-01  0.22540949621E-01 -0.65299852581E-01  0.83606313545E-01  0.51100000000E-03 0. -1.
</event>
<event>
 8    1  0.1054833E+005  0.1043930E+01  0.7957747E-01            NaN
         13   -1    0    0    0    0  0.00000000000E+00  0.00000000000E+00  0.74505805969E-08  0.10566000000E+00  0.10566000000E+00 0.  1.
     999900   -1    0    0    0    0 -0.00000000000E+00 -0.00000000000E+00 -0.74505805969E-08  0.93827000000E+00  0.93827000000E+00 0.  1.
     999902    2    1    2    0    0  0.13350033075E-01 -0.18078507251E-01  0.71248015289E-02  0.10203541945E+01  0.10200817926E+01 0.  0.
     999903    2    3    3    0    0  0.12823694065E+00 -0.17232957957E-01  0.21228575383E-01  0.13277398241E+00  0.20894741072E-01 0.  0.
         14    1    1    2    0    0 -0.13350033075E-01  0.18078507251E-01 -0.71248015289E-02  0.23575805487E-01  0.00000000000E+00 0.  1.
     999901    1    3    3    0    0 -0.11488690757E+00 -0.84554929424E-03 -0.14103773854E-01  0.88758021211E+00  0.88000000000E+00 0.  1.
        -11    1    4    4    0    0  0.35543615263E-01  0.35501948460E-02  0.15290001980E-02  0.35756837556E-01  0.51100000000E-03 0. -1.
         11    1    4    4    0    0  0.92693325386E-01 -0.20783152803E-01  0.19699575185E-01  0.97017144850E-01  0.51100000000E-03 0.  1.
</event>
<event>
 8    1  0.1054833E+005  0.1043930E+01  0.7957747E-01            NaN
         13   -1    0    0    0    0  0.00000000000E+00  0.00000000000E+00  0.74505805969E-08  0.10566000000E+00  0.10566000000E+00 0. -1.
     999900   -1    0    0    0    0 -0.00000000000E+00 -0.00000000000E+00 -0.74505805969E-08  0.93827000000E+00  0.93827000000E+00 0. -1.
     999902    2    1    2    0    0 -0.70279666978E-02 -0.91871400673E-02  0.21455834322E-01  0.10195548347E+01  0.10192634165E+01 0.  0.
     999903    2    3    3    0    0  0.64229962317E-01  0.75939626317E-01  0.82040676848E-01  0.13051333848E+00  0.20266819160E-01 0.  0.
         14    1    1    2    0    0  0.70279666978E-02  0.91871400673E-02 -0.21455834322E-01  0.24375165332E-01  0.00000000000E+00 0.  1.
     999901    1    3    3    0    0 -0.71257929015E-01 -0.85126766384E-01 -0.60584842526E-01  0.88904149619E+00  0.88000000000E+00 0. -1.
        -11    1    4    4    0    0  0.29880941419E-01  0.31408737363E-01  0.48400277693E-01  0.64978669151E-01  0.51100000000E-03 0.  1.
         11    1    4    4    0    0  0.34349020897E-01  0.44530888954E-01  0.33640399155E-01  0.65534669328E-01  0.51100000000E-03 0. -1.
</event>
<event>
 8    1  0.1054833E+005  0.1043930E+01  0.7957747E-01            NaN
         13   -1    0    0    0    0  0.00000000000E+00  0.00000000000E+00  0.74505805969E-08  0.10566000000E+00  0.10566000000E+00 0. -1.
     999900   -1    0    0    0    0 -0.00000000000E+00 -0.00000000000E+00 -0.74505805969E-08  0.93827000000E+00  0.93827000000E+00 0. -1.
     999902    2    1    2    0    0  0.81118856836E-03  0.23715693674E-01  0.61515398625E-02  0.10194160530E+01  0.10191212664E+01 0.  0.
     999903    2    3    3    0    0  0.11149864479E+00  0.43485190765E-01  0.49858703594E-01  0.13118586770E+00  0.20023285271E-01 0.  0.
         14    1    1    2    0    0 -0.81118856836E-03 -0.23715693674E-01 -0.61515398625E-02  0.24513946969E-01  0.00000000000E+00 0.  1.
     999901    1    3    3    0    0 -0.11068745622E+00 -0.19769497091E-01 -0.43707163732E-01  0.88823018534E+00  0.88000000000E+00 0. -1.
        -11    1    4    4    0    0  0.42434881727E-01  0.17686291483E-01  0.88450812317E-02  0.46819020457E-01  0.51100000000E-03 0.  1.
         11    1    4    4    0    0  0.69063763063E-01  0.25798899281E-01  0.41013622363E-01  0.84366847238E-01  0.51100000000E-03 0. -1.
</event>
<event>
 8    1  0.1054833E+005  0.1043930E+01  0.7957747E-01            NaN
         13   -1    0    0    0    0  0.00000000000E+00  0.00000000000E+00  0.74505805969E-08  0.10566000000E+00  0.10566000000E+00 0.  1.
     999900   -1    0    0    0    0 -0.00000000000E+00 -0.00000000000E+00 -0.74505805969E-08  0.93827000000E+00  0.93827000000E+00 0. -1.
     999902    2    1    2    0    0 -0.48901576987E-02  0.16453482892E-02  0.22801420555E-01  0.10205521132E+01  0.10202843183E+01 0.  0.
     999903    2    3    3    0    0  0.60351395894E-02  0.14394503028E-02 -0.12612245085E+00  0.12797285955E+00  0.20777036537E-01 0.  0.
         14    1    1    2    0    0  0.48901576987E-02 -0.16453482892E-02 -0.22801420555E-01  0.23377886830E-01  0.00000000000E+00 0. -1.
     999901    1    3    3    0    0 -0.10925297288E-01  0.20589798640E-03  0.14892387140E+00  0.89257925362E+00  0.88000000000E+00 0.  1.
        -11    1    4    4    0    0 -0.66377371909E-02  0.28968948842E-02 -0.24545316528E-01  0.25596586480E-01  0.51100000000E-03 0. -1.
         11    1    4    4    0    0  0.12672876780E-01 -0.14574445813E-02 -0.10157713432E+00  0.10237627307E+00  0.51100000000E-03 0.  1.
</event>
<event>
 8    1  0.1054833E+005  0.1043930E+01  0.7957747E-01            NaN
         13   -1    0    0    0    0  0.00000000000E+00  0.00000000000E+00  0.74505805969E-08  0.10566000000E+00  0.10566000000E+00 0. -1.
     999900   -1    0    0    0    0 -0.00000000000E+00 -0.00000000000E+00 -0.74505805969E-08  0.93827000000E+00  0.93827000000E+00 0. -1.
     999902    2    1    2    0    0  0.23976456531E-01  0.85693395463E-03  0.26975984928E-02  0.10197870540E+01  0.10195012279E+01 0.  0.
     999903    2    3    3    0    0 -0.16328818165E-01  0.84357083548E-01 -0.94973733123E-01  0.12954187476E+00  0.19450950775E-01 0.  0.
         14    1    1    2    0    0 -0.23976456531E-01 -0.85693395463E-03 -0.26975984928E-02  0.24142945993E-01  0.00000000000E+00 0. -1.
     999901    1    3    3    0    0  0.40305274696E-01 -0.83500149593E-01  0.97671331615E-01  0.89024517925E+00  0.88000000000E+00 0.  1.
        -11    1    4    4    0    0 -0.38113699422E-02  0.57359626177E-01 -0.70788507538E-01  0.91191705635E-01  0.51100000000E-03 0. -1.
         11    1    4    4    0    0 -0.12517448223E-01  0.26997457371E-01 -0.24185225584E-01  0.38350169127E-01  0.51100000000E-03 0.  1.
</event>
<event>
 8    1  0.1054833E+005  0.1043930E+01  0.7957747E-01            NaN
         13   -1    0    0    0    0  0.00000000000E+00  0.00000000000E+00  0.74505805969E-08  0.10566000000E+00  0.10566000000E+00 0. -1.
     999900   -1    0    0    0    0 -0.00000000000E+00 -0.00000000000E+00 -0.74505805969E-08  0.93827000000E+00  0.93827000000E+00 0. -1.
     999902    2    1    2    0    0  0.21893017037E-01 -0.23601598760E-03 -0.65592089042E-02  0.10210742979E+01  0.10208184651E+01 0.  0.
     999903    2    3    3    0    0  0.87026467106E-01 -0.53224294357E-01 -0.83922451553E-01  0.13369884448E+00  0.20639080740E-01 0.  0.
         14    1    1    2    0    0 -0.21893017037E-01  0.23601598760E-03  0.65592089042E-02  0.22855702133E-01  0.00000000000E+00 0. -1.
     999901    1    3    3    0    0 -0.65133450069E-01  0.52988278369E-01  0.77363242649E-01  0.88737545339E+00  0.88000000000E+00 0. -1.
        -11    1    4    4    0    0  0.60348937632E-01 -0.46593375221E-01 -0.56777934448E-01  0.95062778462E-01  0.51100000000E-03 0.  1.
         11    1    4    4    0    0  0.26677529474E-01 -0.66309191357E-02 -0.27144517105E-01  0.38636066017E-01  0.51100000000E-03 0. -1.
</event>
<event>
 8    1  0.1054833E+005  0.1043930E+01  0.7957747E-01            NaN
         13   -1    0    0    0    0  0.00000000000E+00  0.00000000000E+00  0.74505805969E-08  0.10566000000E+00  0.10566000000E+00 0.  1.
     999900   -1    0    0    0    0 -0.00000000000E+00 -0.00000000000E+00 -0.74505805969E-08  0.93827000000E+00  0.93827000000E+00 0. -1.
     999902    2    1    2    0    0 -0.14968913080E-01 -0.13151287679E-01  0.12937648522E-01  0.10201727385E+01  0.10198960775E+01 0.  0.
     999903    2    3    3    0    0  0.11694962743E+00 -0.40850330148E-01 -0.29223046305E-01  0.12891112565E+00  0.20448155246E-01 0.  0.
         14    1    1    2    0    0  0.14968913080E-01  0.13151287679E-01 -0.12937648522E-01  0.23757261536E-01  0.00000000000E+00 0.  1.
     999901    1    3    3    0    0 -0.13191854051E+00  0.27699042469E-01  0.42160694827E-01  0.89126161281E+00  0.88000000000E+00 0.  1.
        -11    1    4    4    0    0  0.10946122635E+00 -0.42291377251E-01 -0.24352852425E-01  0.11984841762E+00  0.51100000000E-03 0. -1.
         11    1    4    4    0    0  0.74884010787E-02  0.14410471028E-02 -0.48701938801E-02  0.90627080333E-02  0.51100000000E-03 0.  1.
</event>
<event>
 8    1  0.1054833E+005  0.1043930E+01  0.7957747E-01            NaN
         13   -1    0    0    0    0  0.00000000000E+00  0.00000000000E+00  0.74505805969E-08  0.10566000000E+00  0.10566000000E+00 0. -1.
     999900   -1    0    0    0    0 -0.00000000000E+00 -0.00000000000E+00 -0.74505805969E-08  0.93827000000E+00  0.93827000000E+00 0.  1.
     999902    2    1    2    0    0  0.55857173213E-02 -0.72005140682E-02 -0.17752574840E-01  0.10239750118E+01  0.10237805542E+01 0.  0.
     999903    2    3    3    0    0 -0.92701830594E-01  0.30845017101E-01 -0.90628066748E-01  0.13469511107E+00  0.19603111675E-01 0.  0.
         14    1    1    2    0    0 -0.55857173213E-02  0.72005140682E-02  0.17752574840E-01  0.19954988206E-01  0.00000000000E+00 0.  1.
     999901    1    3    3    0    0  0.98287547915E-01 -0.38045531169E-01  0.72875491908E-01  0.88927990073E+00  0.88000000000E+00 0. -1.
        -11    1    4    4    0    0 -0.39310013841E-01  0.53134740137E-02 -0.44814036253E-01  0.59850389811E-01  0.51100000000E-03 0.  1.
         11    1    4    4    0    0 -0.53391816752E-01  0.25531543088E-01 -0.45814030495E-01  0.74844721255E-01  0.51100000000E-03 0. -1.
</event>
<event>
 8    1  0.1054833E+005  0.1043930E+01  0.7957747E-01            NaN
         13   -1    0    0    0    0  0.00000000000E+00  0.00000000000E+00  0.74505805969E-08  0.10566000000E+00  0.10566000000E+00 0.  1.
     999900   -1    0    0    0    0 -0.00000000000E+00 -0.00000000000E+00 -0.74505805969E-08  0.93827000000E+00  0.93827000000E+00 0. -1.
     999902    2    1    2    0    0  0.53464033155E-02 -0.23084020517E-01 -0.50737146858E-02  0.10196978187E+01  0.10194098502E+01 0.  0.
     999903    2    3    3    0    0 -0.83791112592E-01 -0.44693556899E-01  0.86749795501E-01  0.13017883302E+00  0.20063323956E-01 0.  0.
         14    1    1    2    0    0 -0.53464033155E-02  0.23084020517E-01  0.50737146858E-02  0.24232181337E-01  0.00000000000E+00 0.  1.
     999901    1    3    3    0    0  0.89137515907E-01  0.21609536382E-01 -0.91823510187E-01  0.88951898565E+00  0.88000000000E+00 0.  1.
        -11    1    4    4    0    0 -0.47980213597E-01 -0.16128238797E-01  0.38116910088E-01  0.63367033536E-01  0.51100000000E-03 0.  1.
         11    1    4    4    0    0 -0.35810898995E-01 -0.28565318102E-01  0.48632885413E-01  0.66811799480E-01  0.51100000000E-03 0. -1.
</event>
<event>
 8    1  0.1054833E+005  0.1043930E+01  0.7957747E-01            NaN
         13   -1    0    0    0    0  0.00000000000E+00  0.00000000000E+00  0.74505805969E-08  0.10566000000E+00  0.10566000000E+00 0. -1.
     999900   -1    0    0    0    0 -0.00000000000E+00 -0.00000000000E+00 -0.74505805969E-08  0.93827000000E+00  0.93827000000E+00 0.  1.
     999902    2    1    2    0    0 -0.12333377910E-01  0.17300741532E-01  0.92696396733E-02  0.10207491008E+01  0.10204858513E+01 0.  0.
     999903    2    3    3    0    0 -0.93941127120E-01 -0.83512311280E-01  0.30754260642E-01  0.13098245426E+00  0.20281451550E-01 0.  0.
         14    1    1    2    0    0  0.12333377910E-01 -0.17300741532E-01 -0.92696396733E-02  0.23180899204E-01  0.00000000000E+00 0.  1.
     999901    1    3    3    0    0  0.81607749210E-01  0.10081305281E+00 -0.21484620968E-01  0.88976664654E+00  0.88000000000E+00 0.  1.
        -11    1    4    4    0    0 -0.33745981141E-01 -0.38996597268E-01  0.50318270503E-02  0.51818010828E-01  0.51100000000E-03 0.  1.
         11    1    4    4    0    0 -0.60195145978E-01 -0.44515714012E-01  0.25722433591E-01  0.79164443434E-01  0.51100000000E-03 0. -1.
</event>
<event>
 8    1  0.1054833E+005  0.1043930E+01  0.7957747E-01            NaN
         13   -1    0    0    0    0  0.00000000000E+00  0.00000000000E+00  0.74505805969E-08  0.10566000000E+00  0.10566000000E+00 0.  1.
     999900   -1    0    0    0    0 -0.00000000000E+00 -0.00000000000E+00 -0.74505805969E-08  0.93827000000E+00  0.93827000000E+00 0.  1.
     999902    2    1    2    0    0  0.76489533422E-02 -0.14178659876E-02 -0.22018906706E-01  0.10205772896E+01  0.10203100778E+01 0.  0.
     999903    2    3    3    0    0 -0.17030486667E-01  0.37968157949E-01 -0.12505798807E+00  0.13334711318E+00  0.20256695635E-01 0.  0.
         14    1    1    2    0    0 -0.76489533422E-02  0.14178659876E-02  0.22018906706E-01  0.23352710415E-01  0.00000000000E+00 0.  1.
     999901    1    3    3    0    0  0.24679440009E-01 -0.39386023937E-01  0.10303908136E+00  0.88723017641E+00  0.88000000000E+00 0. -1.
        -11    1    4    4    0    0 -0.74634639144E-02  0.59908774611E-02 -0.53934153442E-01  0.54779083004E-01  0.51100000000E-03 0.  1.
         11    1    4    4    0    0 -0.95670227526E-02  0.31977280488E-01 -0.71123834629E-01  0.78568030172E-01  0.51100000000E-03 0. -1.
</event>
<event>
 8    1  0.1482572E+005  0.1043930E+01  0.7957747E-01            NaN
         13   -1    0    0    0    0  0.00000000000E+00  0.00000000000E+00  0.74505805969E-08  0.10566000000E+00  0.10566000000E+00 0. -1.
     999900   -1    0    0    0    0 -0.00000000000E+00 -0.00000000000E+00 -0.74505805969E-08  0.93827000000E+00  0.93827000000E+00 0. -1.
     999902    2    1    2    0    0  0.22647959576E-01  0.46458157478E-02 -0.41339898854E-02  0.10204437583E+01  0.10201734462E+01 0.  0.
     999903    2    3    3    0    0  0.70017584169E-01  0.11114465062E+00  0.13734764709E-02  0.13274098408E+00  0.19044342003E-01 0.  0.
         14    1    1    2    0    0 -0.22647959576E-01 -0.46458157478E-02  0.41339898854E-02  0.23486241702E-01  0.00000000000E+00 0. -1.
     999901    1    3    3    0    0 -0.47369624594E-01 -0.10649883488E+00 -0.55074663563E-02  0.88770277422E+00  0.88000000000E+00 0. -1.
        -11    1    4    4    0    0  0.21493923770E-01  0.41368184680E-01  0.87289511111E-02  0.47431752774E-01  0.51100000000E-03 0. -1.
         11    1    4    4    0    0  0.48523660400E-01  0.69776465944E-01 -0.73554746402E-02  0.85309231309E-01  0.51100000000E-03 0.  1.
</event>
<event>
 8    1  0.1054833E+005  0.1043930E+01  0.7957747E-01            NaN
         13   -1    0    0    0    0  0.00000000000E+00  0.00000000000E+00  0.74505805969E-08  0.10566000000E+00  0.10566000000E+00 0.  1.
     999900   -1    0    0    0    0 -0.00000000000E+00 -0.00000000000E+00 -0.74505805969E-08  0.93827000000E+00  0.93827000000E+00 0. -1.
     999902    2    1    2    0    0 -0.45277785182E-02  0.12343437463E-01  0.19435285688E-01  0.10204653126E+01  0.10201955021E+01 0.  0.
     999903    2    3    3    0    0 -0.10775356075E+00  0.50977679426E-01  0.55435712590E-01  0.13285943296E+00  0.19208254555E-01 0.  0.
         14    1    1    2    0    0  0.45277785182E-02 -0.12343437463E-01 -0.19435285688E-01  0.23464687437E-01  0.00000000000E+00 0. -1.
     999901    1    3    3    0    0  0.10322578223E+00 -0.38634241963E-01 -0.36000426902E-01  0.88760587960E+00  0.88000000000E+00 0.  1.
        -11    1    4    4    0    0 -0.87377737853E-01  0.33776361984E-01  0.47493211974E-01  0.10503131917E+00  0.51100000000E-03 0. -1.
         11    1    4    4    0    0 -0.20375822893E-01  0.17201317442E-01  0.79425006164E-02  0.27828113794E-01  0.51100000000E-03 0.  1.
</event>
<event>
 8    1  0.1054833E+005  0.1043930E+01  0.7957747E-01            NaN
         13   -1    0    0    0    0  0.00000000000E+00  0.00000000000E+00  0.74505805969E-08  0.10566000000E+00  0.10566000000E+00 0.  1.
     999900   -1    0    0    0    0 -0.00000000000E+00 -0.00000000000E+00 -0.74505805969E-08  0.93827000000E+00  0.93827000000E+00 0.  1.
     999902    2    1    2    0    0  0.23841844649E-01  0.15391711056E-03 -0.14064025484E-01  0.10162487056E+01  0.10158716344E+01 0.  0.
     999903    2    3    3    0    0 -0.62517852700E-02 -0.12468825317E+00 -0.10092727457E-01  0.12691920241E+00  0.20503060650E-01 0.  0.
         14    1    1    2    0    0 -0.23841844649E-01 -0.15391711056E-03  0.14064025484E-01  0.27681294398E-01  0.00000000000E+00 0.  1.
     999901    1    3    3    0    0  0.30093629920E-01  0.12484217028E+00 -0.39712980269E-02  0.88932950319E+00  0.88000000000E+00 0.  1.
        -11    1    4    4    0    0  0.24737692645E-02 -0.78732828169E-01 -0.13880270423E-01  0.79986878886E-01  0.51100000000E-03 0. -1.
         11    1    4    4    0    0 -0.87255545345E-02 -0.45955424996E-01  0.37875429665E-02  0.46932323523E-01  0.51100000000E-03 0.  1.
</event>
<event>
 8    1  0.1054833E+005  0.1043930E+01  0.7957747E-01            NaN
         13   -1    0    0    0    0  0.00000000000E+00  0.00000000000E+00  0.74505805969E-08  0.10566000000E+00  0.10566000000E+00 0.  1.
     999900   -1    0    0    0    0 -0.00000000000E+00 -0.00000000000E+00 -0.74505805969E-08  0.93827000000E+00  0.93827000000E+00 0.  1.
     999902    2    1    2    0    0  0.23407096551E-01  0.28348274671E-02  0.23360879800E-02  0.10202364202E+01  0.10199612578E+01 0.  0.
     999903    2    3    3    0    0  0.12982591615E+00 -0.87167675336E-03 -0.19982489905E-01  0.13353645842E+00  0.24024102494E-01 0.  0.
         14    1    1    2    0    0 -0.23407096551E-01 -0.28348274671E-02 -0.23360879800E-02  0.23693579779E-01  0.00000000000E+00 0.  1.
     999901    1    3    3    0    0 -0.10641881960E+00  0.37065042204E-02  0.22318577885E-01  0.88669996180E+00  0.88000000000E+00 0. -1.
        -11    1    4    4    0    0  0.83473276274E-01  0.95216059710E-02 -0.71065301215E-02  0.84316147467E-01  0.51100000000E-03 0. -1.
         11    1    4    4    0    0  0.46352639874E-01 -0.10393282724E-01 -0.12875959783E-01  0.49220310954E-01  0.51100000000E-03 0.  1.
</event>
<event>
 8    1  0.1054833E+005  0.1043930E+01  0.7957747E-01            NaN
         13   -1    0    0    0    0  0.00000000000E+00  0.00000000000E+00  0.74505805969E-08  0.10566000000E+00  0.10566000000E+00 0.  1.
     999900   -1    0    0    0    0 -0.00000000000E+00 -0.00000000000E+00 -0.74505805969E-08  0.93827000000E+00  0.93827000000E+00 0. -1.
     999902    2    1    2    0    0  0.14888768847E-01 -0.56904262501E-02  0.17576126916E-01  0.10202028715E+01  0.10199269201E+01 0.  0.
     999903    2    3    3    0    0 -0.34081544996E-01 -0.10112337265E+00  0.74138657106E-01  0.13188712882E+00  0.22587298776E-01 0.  0.
         14    1    1    2    0    0 -0.14888768847E-01  0.56904262501E-02 -0.17576126916E-01  0.23727128483E-01  0.00000000000E+00 0. -1.
     999901    1    3    3    0    0  0.48970313843E-01  0.95432946401E-01 -0.56562530189E-01  0.88831574269E+00  0.88000000000E+00 0. -1.
        -11    1    4    4    0    0 -0.23549381375E-01 -0.38748441198E-01  0.37041882475E-01  0.58552346125E-01  0.51100000000E-03 0.  1.
         11    1    4    4    0    0 -0.10532163621E-01 -0.62374931453E-01  0.37096774630E-01  0.73334782698E-01  0.51100000000E-03 0. -1.
</event>
<event>
 7    1  0.1240750E+005  0.1043930E+01  0.7957747E-01            NaN
         13   -1    0    0    0    0  0.00000000000E+00  0.00000000000E+00  0.74505805969E-08  0.10566000000E+00  0.10566000000E+00 0. -1.
     999900   -1    0    0    0    0 -0.00000000000E+00 -0.00000000000E+00 -0.74505805969E-08  0.93827000000E+00  0.93827000000E+00 0.  1.
     999903    2    1    2    0    0 -0.72326028058E-01  0.35485976866E-01  0.70535597551E-01  0.10906208325E+00  0.20711315570E-01 0.  0.
         14    1    1    2    0    0  0.92410839454E-02  0.10952913610E-01  0.41880971972E-01  0.44264881818E-01  0.00000000000E+00 0. -1.
     999901    1    1    2    0    0  0.63084944113E-01 -0.46438890476E-01 -0.11241656952E+00  0.89060303493E+00  0.88000000000E+00 0.  1.
        -11    1    3    3    0    0 -0.36634637696E-01  0.91646683560E-02  0.41182402649E-01  0.55877895756E-01  0.51100000000E-03 0.  1.
         11    1    3    3    0    0 -0.35691390362E-01  0.26321308510E-01  0.29353194902E-01  0.53184187496E-01  0.51100000000E-03 0. -1.
</event>
<event>
 8    1  0.1054833E+005  0.1043930E+01  0.7957747E-01            NaN
         13   -1    0    0    0    0  0.00000000000E+00  0.00000000000E+00  0.74505805969E-08  0.10566000000E+00  0.10566000000E+00 0. -1.
     999900   -1    0    0    0    0 -0.00000000000E+00 -0.00000000000E+00 -0.74505805969E-08  0.93827000000E+00  0.93827000000E+00 0.  1.
     999902    2    1    2    0    0  0.15775893619E-02 -0.24325559801E-01  0.79119815732E-02  0.10183014788E+01  0.10179789195E+01 0.  0.
     999903    2    3    3    0    0 -0.58573677612E-01 -0.11564853052E+00  0.89742434075E-02  0.13153251884E+00  0.20366839435E-01 0.  0.
         14    1    1    2    0    0 -0.15775893619E-02  0.24325559801E-01 -0.79119815732E-02  0.25628521226E-01  0.00000000000E+00 0.  1.
     999901    1    3    3    0    0  0.60151266974E-01  0.91322970715E-01 -0.10622618343E-02  0.88676895993E+00  0.88000000000E+00 0. -1.
        -11    1    4    4    0    0 -0.31317838509E-01 -0.76118920071E-01  0.13059888982E-01  0.83340979254E-01  0.51100000000E-03 0.  1.
         11    1    4    4    0    0 -0.27255839103E-01 -0.39529610445E-01 -0.40856455749E-02  0.48191539588E-01  0.51100000000E-03 0. -1.
</event>
<event>
 8    1  0.1054833E+005  0.1043930E+01  0.7957747E-01            NaN
         13   -1    0    0    0    0  0.00000000000E+00  0.00000000000E+00  0.74505805969E-08  0.10566000000E+00  0.10566000000E+00 0. -1.
     999900   -1    0    0    0    0 -0.00000000000E+00 -0.00000000000E+00 -0.74505805969E-08  0.93827000000E+00  0.93827000000E+00 0.  1.
     999902    2    1    2    0    0 -0.20032360468E-01  0.20973026462E-02  0.17342009220E-01  0.10173510717E+01  0.10170038170E+01 0.  0.
     999903    2    3    3    0    0 -0.11756020723E+00  0.40384227809E-01  0.35916896887E-01  0.13094112369E+00  0.20106372378E-01 0.  0.
         14    1    1    2    0    0  0.20032360468E-01 -0.20973026462E-02 -0.17342009220E-01  0.26578928272E-01  0.00000000000E+00 0.  1.
     999901    1    3    3    0    0  0.97527846764E-01 -0.38286925163E-01 -0.18574887667E-01  0.88640994804E+00  0.88000000000E+00 0.  1.
        -11    1    4    4    0    0 -0.74340352838E-01  0.15760074934E-01  0.18278380253E-01  0.78161552746E-01  0.51100000000E-03 0.  1.
         11    1    4    4    0    0 -0.43219854395E-01  0.24624152875E-01  0.17638516634E-01  0.52779570941E-01  0.51100000000E-03 0. -1.
</event>
<event>
 8    1  0.1054833E+005  0.1043930E+01  0.7957747E-01            NaN
         13   -1    0    0    0    0  0.00000000000E+00  0.00000000000E+00  0.74505805969E-08  0.10566000000E+00  0.10566000000E+00 0.  1.
     999900   -1    0    0    0    0 -0.00000000000E+00 -0.00000000000E+00 -0.74505805969E-08  0.93827000000E+00  0.93827000000E+00 0. -1.
     999902    2    1    2    0    0  0.11384221002E-01 -0.16676538937E-02  0.21969203674E-01  0.10191302527E+01  0.10188284666E+01 0.  0.
     999903    2    3    3    0    0  0.28632937286E-01 -0.10852510565E+00 -0.59955715828E-01  0.12872151190E+00  0.19416387735E-01 0.  0.
         14    1    1    2    0    0 -0.11384221002E-01  0.16676538937E-02 -0.21969203674E-01  0.24799747326E-01  0.00000000000E+00 0. -1.
     999901    1    3    3    0    0 -0.17248716284E-01  0.10685745175E+00  0.81924919502E-01  0.89040874077E+00  0.88000000000E+00 0.  1.
        -11    1    4    4    0    0  0.19423892375E-01 -0.71081108240E-01 -0.28693718975E-01  0.79078455810E-01  0.51100000000E-03 0. -1.
         11    1    4    4    0    0  0.92090449105E-02 -0.37443997407E-01 -0.31261996853E-01  0.49643056092E-01  0.51100000000E-03 0.  1.
</event>
<event>
 8    1  0.1054833E+005  0.1043930E+01  0.7957747E-01            NaN
         13   -1    0    0    0    0  0.00000000000E+00  0.00000000000E+00  0.74505805969E-08  0.10566000000E+00  0.10566000000E+00 0.  1.
     999900   -1    0    0    0    0 -0.00000000000E+00 -0.00000000000E+00 -0.74505805969E-08  0.93827000000E+00  0.93827000000E+00 0. -1.
     999902    2    1    2    0    0  0.17636242688E-01 -0.13658290473E-01 -0.65447001454E-02  0.10206830850E+01  0.10204183167E+01 0.  0.
     999903    2    3    3    0    0  0.55657645219E-01 -0.92445462487E-01 -0.76079075651E-01  0.13361596532E+00  0.20524702947E-01 0.  0.
         14    1    1    2    0    0 -0.17636242688E-01  0.13658290473E-01  0.65447001454E-02  0.23246914952E-01  0.00000000000E+00 0. -1.
     999901    1    3    3    0    0 -0.38021402532E-01  0.78787172014E-01  0.69534375505E-01  0.88706711973E+00  0.88000000000E+00 0.  1.
        -11    1    4    4    0    0  0.23027386811E-01 -0.38462230088E-01 -0.44124197541E-01  0.62903176520E-01  0.51100000000E-03 0. -1.
         11    1    4    4    0    0  0.32630258408E-01 -0.53983232398E-01 -0.31954878110E-01  0.70712788801E-01  0.51100000000E-03 0.  1.
</event>
<event>
 8    1  0.1054833E+005  0.1043930E+01  0.7957747E-01            NaN
         13   -1    0    0    0    0  0.00000000000E+00  0.00000000000E+00  0.74505805969E-08  0.10566000000E+00  0.10566000000E+00 0.  1.
     999900   -1    0    0    0    0 -0.00000000000E+00 -0.00000000000E+00 -0.74505805969E-08  0.93827000000E+00  0.93827000000E+00 0. -1.
     999902    2    1    2    0    0  0.12667232940E-02 -0.12197113661E-01  0.20688173971E-01  0.10198805777E+01  0.10195969881E+01 0.  0.
     999903    2    3    3    0    0  0.18380561140E-01  0.20740199982E-01 -0.12275949050E+00  0.12749333974E+00  0.20412208280E-01 0.  0.
         14    1    1    2    0    0 -0.12667232940E-02  0.12197113661E-01 -0.20688173971E-01  0.24049422276E-01  0.00000000000E+00 0. -1.
     999901    1    3    3    0    0 -0.17113837846E-01 -0.32937313642E-01  0.14344766447E+00  0.89238723798E+00  0.88000000000E+00 0.  1.
        -11    1    4    4    0    0 -0.26861663590E-02  0.10935903054E-02 -0.35043096462E-01  0.35166619970E-01  0.51100000000E-03 0. -1.
         11    1    4    4    0    0  0.21066727499E-01  0.19646609676E-01 -0.87716394038E-01  0.92326719769E-01  0.51100000000E-03 0.  1.
</event>
<event>
 8    1  0.1054833E+005  0.1043930E+01  0.7957747E-01            NaN
         13   -1    0    0    0    0  0.00000000000E+00  0.00000000000E+00  0.74505805969E-08  0.10566000000E+00  0.10566000000E+00 0.  1.
     999900   -1    0    0    0    0 -0.00000000000E+00 -0.00000000000E+00 -0.74505805969E-08  0.93827000000E+00  0.93827000000E+00 0. -1.
     999902    2    1    2    0    0 -0.37547653991E-02  0.23402727730E-01  0.77535005161E-03  0.10202152979E+01  0.10199396389E+01 0.  0.
     999903    2    3    3    0    0 -0.15131840709E-01  0.46854388868E-01 -0.12017661902E+00  0.13155968570E+00  0.21005351303E-01 0.  0.
         14    1    1    2    0    0  0.37547653991E-02 -0.23402727730E-01 -0.77535005161E-03  0.23714702109E-01  0.00000000000E+00 0. -1.
     999901    1    3    3    0    0  0.11377075310E-01 -0.23451661138E-01  0.12095196907E+00  0.88865561219E+00  0.88000000000E+00 0.  1.
        -11    1    4    4    0    0 -0.10257785503E-01  0.76560141679E-02 -0.42895175081E-01  0.44767107151E-01  0.51100000000E-03 0. -1.
         11    1    4    4    0    0 -0.48740552063E-02  0.39198374700E-01 -0.77281443939E-01  0.86792578552E-01  0.51100000000E-03 0.  1.
</event>
<event>
 8    1  0.1054833E+005  0.1043930E+01  0.7957747E-01            NaN
         13   -1    0    0    0    0  0.00000000000E+00  0.00000000000E+00  0.74505805969E-08  0.10566000000E+00  0.10566000000E+00 0.  1.
     999900   -1    0    0    0    0 -0.00000000000E+00 -0.00000000000E+00 -0.74505805969E-08  0.93827000000E+00  0.93827000000E+00 0.  1.
     999902    2    1    2    0    0 -0.15595092937E-01  0.14861185053E-01 -0.48573593301E-02  0.10218470726E+01  0.10216084299E+01 0.  0.
     999903    2    3    3    0    0 -0.56774948722E-02 -0.12638133723E+00  0.22911956514E-01  0.13009657844E+00  0.19891848172E-01 0.  0.
         14    1    1    2    0    0  0.15595092937E-01 -0.14861185053E-01  0.48573593301E-02  0.22082927446E-01  0.00000000000E+00 0.  1.
     999901    1    3    3    0    0 -0.99175980652E-02  0.14124252228E+00 -0.27769315844E-01  0.89175049411E+00  0.88000000000E+00 0. -1.
        -11    1    4    4    0    0 -0.11101950947E-02 -0.26255580064E-01  0.13153287692E-01  0.29391463314E-01  0.51100000000E-03 0.  1.
         11    1    4    4    0    0 -0.45672997775E-02 -0.10012575716E+00  0.97586688221E-02  0.10070511513E+00  0.51100000000E-03 0. -1.
</event>
<event>
 8    1  0.1054833E+005  0.1043930E+01  0.7957747E-01            NaN
         13   -1    0    0    0    0  0.00000000000E+00  0.00000000000E+00  0.74505805969E-08  0.10566000000E+00  0.10566000000E+00 0. -1.
     999900   -1    0    0    0    0 -0.00000000000E+00 -0.00000000000E+00 -0.74505805969E-08  0.93827000000E+00  0.93827000000E+00 0. -1.
     999902    2    1    2    0    0  0.20763430177E-01 -0.21504096664E-02 -0.13760274869E-01  0.10189282109E+01  0.10186214260E+01 0.  0.
     999903    2    3    3    0    0 -0.61179924045E-01  0.10595686560E+00  0.29712816944E-01  0.12747332926E+00  0.19918777769E-01 0.  0.
         14    1    1    2    0    0 -0.20763430177E-01  0.21504096664E-02  0.13760274869E-01  0.25001789114E-01  0.00000000000E+00 0. -1.
     999901    1    3    3    0    0  0.81943354222E-01 -0.10810727526E+00 -0.43473091813E-01  0.89145488163E+00  0.88000000000E+00 0.  1.
        -11    1    4    4    0    0 -0.53459381015E-01  0.88864601724E-01  0.32097718585E-01  0.10856034044E+00  0.51100000000E-03 0. -1.
         11    1    4    4    0    0 -0.77205430308E-02  0.17092263874E-01 -0.23849016410E-02  0.18912988813E-01  0.51100000000E-03 0.  1.
</event>
<event>
 8    1  0.1054833E+005  0.1043930E+01  0.7957747E-01            NaN
         13   -1    0    0    0    0  0.00000000000E+00  0.00000000000E+00  0.74505805969E-08  0.10566000000E+00  0.10566000000E+00 0.  1.
     999900   -1    0    0    0    0 -0.00000000000E+00 -0.00000000000E+00 -0.74505805969E-08  0.93827000000E+00  0.93827000000E+00 0. -1.
     999902    2    1    2    0    0 -0.24917666177E-01  0.10657312211E-02  0.26647958346E-03  0.10189881299E+01  0.10186828319E+01 0.  0.
     999903    2    3    3    0    0  0.10617729329E+00 -0.64991609091E-01 -0.21689888841E-01  0.12655799670E+00  0.69963123640E-02 0.  0.
         14    1    1    2    0    0  0.24917666177E-01 -0.10657312211E-02 -0.26647958346E-03  0.24941870061E-01  0.00000000000E+00 0. -1.
     999901    1    3    3    0    0 -0.13109495947E+00  0.66057340312E-01  0.21956368425E-01  0.89243013324E+00  0.88000000000E+00 0.  1.
        -11    1    4    4    0    0  0.60102070141E-01 -0.39944613280E-01 -0.14694269160E-01  0.73647903110E-01  0.51100000000E-03 0. -1.
         11    1    4    4    0    0  0.46075223150E-01 -0.25046995811E-01 -0.69956196811E-02  0.52910093585E-01  0.51100000000E-03 0.  1.
</event>
<event>
 7    1  0.1054833E+005  0.1043930E+01  0.7957747E-01            NaN
         13   -1    0    0    0    0  0.00000000000E+00  0.00000000000E+00  0.74505805969E-08  0.10566000000E+00  0.10566000000E+00 0.  1.
     999900   -1    0    0    0    0 -0.00000000000E+00 -0.00000000000E+00 -0.74505805969E-08  0.93827000000E+00  0.93827000000E+00 0. -1.
     999903    2    1    2    0    0  0.75716595558E-01  0.23649962158E-01 -0.62413240257E-01  0.10291475312E+00  0.20092543332E-01 0.  0.
         14    1    1    2    0    0  0.24473919949E-01  0.18272635463E-01  0.44728948448E-01  0.54162171243E-01  0.00000000000E+00 0.  1.
     999901    1    1    2    0    0 -0.10019051551E+00 -0.41922597621E-01  0.17684291808E-01  0.88685307564E+00  0.88000000000E+00 0.  1.
        -11    1    3    3    0    0  0.40217197996E-01  0.22953206438E-01 -0.36132762424E-01  0.58737639907E-01  0.51100000000E-03 0.  1.
         11    1    3    3    0    0  0.35499397562E-01  0.69675572063E-03 -0.26280477833E-01  0.44177113214E-01  0.51100000000E-03 0. -1.
</event>
<event>
 8    1  0.1054833E+005  0.1043930E+01  0.7957747E-01            NaN
         13   -1    0    0    0    0  0.00000000000E+00  0.00000000000E+00  0.74505805969E-08  0.10566000000E+00  0.10566000000E+00 0. -1.
     999900   -1    0    0    0    0 -0.00000000000E+00 -0.00000000000E+00 -0.74505805969E-08  0.93827000000E+00  0.93827000000E+00 0. -1.
     999902    2    1    2    0    0 -0.22709928372E-01  0.23513975147E-02 -0.34625332254E-02  0.10208375975E+01  0.10205763771E+01 0.  0.
     999903    2    3    3    0    0  0.11744693874E+00 -0.39831876323E-01  0.26237294956E-01  0.12825401274E+00  0.19502162597E-01 0.  0.
         14    1    1    2    0    0  0.22709928372E-01 -0.23513975147E-02  0.34625332254E-02  0.23092402501E-01  0.00000000000E+00 0.  1.
     999901    1    3    3    0    0 -0.14015686711E+00  0.42183273838E-01 -0.29699828182E-01  0.89258358476E+00  0.88000000000E+00 0. -1.
        -11    1    4    4    0    0  0.79357835414E-01 -0.31577239077E-01  0.98669509549E-02  0.85979101597E-01  0.51100000000E-03 0.  1.
         11    1    4    4    0    0  0.38089103327E-01 -0.82546372463E-02  0.16370344001E-01  0.42274911142E-01  0.51100000000E-03 0. -1.
</event>
<event>
 8    1  0.1054833E+005  0.1043930E+01  0.7957747E-01            NaN
         13   -1    0    0    0    0  0.00000000000E+00  0.00000000000E+00  0.74505805969E-08  0.10566000000E+00  0.10566000000E+00 0.  1.
     999900   -1    0    0    0    0 -0.00000000000E+00 -0.00000000000E+00 -0.74505805969E-08  0.93827000000E+00  0.93827000000E+00 0.  1.
     999902    2    1    2    0    0 -0.67162831009E-02  0.18110529212E-02  0.23036471493E-01  0.10198661809E+01  0.10195822476E+01 0.  0.
     999903    2    3    3    0    0 -0.59931323664E-01  0.24091129473E-01  0.11458682985E+00  0.13323789887E+00  0.21214382965E-01 0.  0.
         14    1    1    2    0    0  0.67162831009E-02 -0.18110529212E-02 -0.23036471493E-01  0.24063819112E-01  0.00000000000E+00 0. -1.
     999901    1    3    3    0    0  0.53215040563E-01 -0.22280076552E-01 -0.91550358362E-01  0.88662828202E+00  0.88000000000E+00 0. -1.
        -11    1    4    4    0    0 -0.19732705408E-01 -0.99847380798E-03  0.43802672939E-01  0.48055300334E-01  0.51100000000E-03 0. -1.
         11    1    4    4    0    0 -0.40198618255E-01  0.25089603281E-01  0.70784156916E-01  0.85182598539E-01  0.51100000000E-03 0.  1.
</event>
<event>
 8    1  0.1054833E+005  0.1043930E+01  0.7957747E-01            NaN
         13   -1    0    0    0    0  0.00000000000E+00  0.00000000000E+00  0.74505805969E-08  0.10566000000E+00  0.10566000000E+00 0. -1.
     999900   -1    0    0    0    0 -0.00000000000E+00 -0.00000000000E+00 -0.74505805969E-08  0.93827000000E+00  0.93827000000E+00 0. -1.
     999902    2    1    2    0    0 -0.16821659988E-01  0.14113668408E-01 -0.86630039402E-02  0.10203246718E+01  0.10200515793E+01 0.  0.
     999903    2    3    3    0    0 -0.13728025512E-01 -0.11475831134E+00 -0.55432487037E-01  0.12970413407E+00  0.19810933044E-01 0.  0.
         14    1    1    2    0    0  0.16821659988E-01 -0.14113668408E-01  0.86630039402E-02  0.23605328169E-01  0.00000000000E+00 0.  1.
     999901    1    3    3    0    0 -0.30936344763E-02  0.12887197975E+00  0.46769483097E-01  0.89062053776E+00  0.88000000000E+00 0. -1.
        -11    1    4    4    0    0  0.32581874849E-02 -0.43362315138E-01 -0.15601082756E-01  0.46201310197E-01  0.51100000000E-03 0.  1.
         11    1    4    4    0    0 -0.16986212997E-01 -0.71395996205E-01 -0.39831404282E-01  0.83502823869E-01  0.51100000000E-03 0. -1.
</event>
<event>
 8    1  0.1054833E+005  0.1043930E+01  0.7957747E-01            NaN
         13   -1    0    0    0    0  0.00000000000E+00  0.00000000000E+00  0.74505805969E-08  0.10566000000E+00  0.10566000000E+00 0.  1.
     999900   -1    0    0    0    0 -0.00000000000E+00 -0.00000000000E+00 -0.74505805969E-08  0.93827000000E+00  0.93827000000E+00 0. -1.
     999902    2    1    2    0    0 -0.64902629591E-02 -0.91605599614E-02  0.19189234715E-01  0.10216979038E+01  0.10214559905E+01 0.  0.
     999903    2    3    3    0    0  0.30611005556E-01  0.28992848995E-01 -0.11966123267E+00  0.12922289630E+00  0.24538283751E-01 0.  0.
         14    1    1    2    0    0  0.64902629591E-02  0.91605599614E-02 -0.19189234715E-01  0.22232096191E-01  0.00000000000E+00 0. -1.
     999901    1    3    3    0    0 -0.37101268515E-01 -0.38153408957E-01  0.13885046738E+00  0.89247500751E+00  0.88000000000E+00 0.  1.
        -11    1    4    4    0    0  0.28293330023E-01  0.21731781899E-01 -0.66057213930E-01  0.75077290185E-01  0.51100000000E-03 0. -1.
         11    1    4    4    0    0  0.23176755331E-02  0.72610670959E-02 -0.53604018739E-01  0.54145606112E-01  0.51100000000E-03 0.  1.
</event>
<event>
 8    1  0.1054833E+005  0.1043930E+01  0.7957747E-01            NaN
         13   -1    0    0    0    0  0.00000000000E+00  0.00000000000E+00  0.74505805969E-08  0.10566000000E+00  0.10566000000E+00 0.  1.
     999900   -1    0    0    0    0 -0.00000000000E+00 -0.00000000000E+00 -0.74505805969E-08  0.93827000000E+00  0.93827000000E+00 0. -1.
     999902    2    1    2    0    0 -0.16694215311E-01 -0.15044130730E-01 -0.11361487183E-01  0.10187485369E+01  0.10184372712E+01 0.  0.
     999903    2    3    3    0    0  0.77355563547E-01  0.85887445848E-01 -0.48784963452E-01  0.12721443173E+00  0.21047622563E-01 0.  0.
         14    1    1    2    0    0  0.16694215311E-01  0.15044130730E-01  0.11361487183E-01  0.25181463128E-01  0.00000000000E+00 0. -1.
     999901    1    3    3    0    0 -0.94049778857E-01 -0.10093157658E+00  0.37423476269E-01  0.89153410514E+00  0.88000000000E+00 0. -1.
        -11    1    4    4    0    0  0.41698412762E-01  0.61172538630E-01 -0.32809614766E-01  0.80978818535E-01  0.51100000000E-03 0.  1.
         11    1    4    4    0    0  0.35657150785E-01  0.24714907219E-01 -0.15975348686E-01  0.46235613195E-01  0.51100000000E-03 0. -1.
</event>
<event>
 8    1  0.1054833E+005  0.1043930E+01  0.7957747E-01            NaN
         13   -1    0    0    0    0  0.00000000000E+00  0.00000000000E+00  0.74505805969E-08  0.10566000000E+00  0.10566000000E+00 0. -1.
     999900   -1    0    0    0    0 -0.00000000000E+00 -0.00000000000E+00 -0.74505805969E-08  0.93827000000E+00  0.93827000000E+00 0.  1.
     999902    2    1    2    0    0  0.21368521800E-01  0.69192055752E-02  0.78091732793E-02  0.10201503382E+01  0.10198731490E+01 0.  0.
     999903    2    3    3    0    0 -0.11201642900E+00 -0.34709763418E-01 -0.48222863779E-01  0.12736587071E+00  0.12007180673E-01 0.  0.
         14    1    1    2    0    0 -0.21368521800E-01 -0.69192055752E-02 -0.78091732793E-02  0.23779661835E-01  0.00000000000E+00 0. -1.
     999901    1    3    3    0    0  0.13338495080E+00  0.41628968994E-01  0.56032037059E-01  0.89278446746E+00  0.88000000000E+00 0. -1.
        -11    1    4    4    0    0 -0.16696878238E-01 -0.34728796599E-02 -0.11362364565E-01  0.20499050845E-01  0.51100000000E-03 0.  1.
         11    1    4    4    0    0 -0.95319550759E-01 -0.31236883759E-01 -0.36860499214E-01  0.10686681986E+00  0.51100000000E-03 0. -1.
</event>
<event>
 8    1  0.1054833E+005  0.1043930E+01  0.7957747E-01            NaN
         13   -1    0    0    0    0  0.00000000000E+00  0.00000000000E+00  0.74505805969E-08  0.10566000000E+00  0.10566000000E+00 0.  1.
     999900   -1    0    0    0    0 -0.00000000000E+00 -0.00000000000E+00 -0.74505805969E-08  0.93827000000E+00  0.93827000000E+00 0.  1.
     999902    2    1    2    0    0 -0.43758428928E-02 -0.23567413328E-01  0.12024123908E-02  0.10199296507E+01  0.10196472309E+01 0.  0.
     999903    2    3    3    0    0  0.12397773979E+00  0.29650711272E-01  0.16293543079E-02  0.12902730291E+00  0.19893352170E-01 0.  0.
         14    1    1    2    0    0  0.43758428928E-02  0.23567413328E-01 -0.12024123908E-02  0.24000349322E-01  0.00000000000E+00 0. -1.
     999901    1    3    3    0    0 -0.12835358268E+00 -0.53218124600E-01 -0.42694191711E-03  0.89090234776E+00  0.88000000000E+00 0.  1.
        -11    1    4    4    0    0  0.70330801706E-01  0.84197129177E-02 -0.46599696827E-02  0.70987954419E-01  0.51100000000E-03 0.  1.
         11    1    4    4    0    0  0.53646938080E-01  0.21230998354E-01  0.62893239906E-02  0.58039348495E-01  0.51100000000E-03 0. -1.
</event>
<event>
 8    1  0.1054833E+005  0.1043930E+01  0.7957747E-01            NaN
         13   -1    0    0    0    0  0.00000000000E+00  0.00000000000E+00  0.74505805969E-08  0.10566000000E+00  0.10566000000E+00 0.  1.
     999900   -1    0    0    0    0 -0.00000000000E+00 -0.00000000000E+00 -0.74505805969E-08  0.93827000000E+00  0.93827000000E+00 0.  1.
     999902    2    1    2    0    0  0.57630503616E-02  0.54675128242E-02 -0.22722716150E-01  0.10198586836E+01  0.10195745712E+01 0.  0.
     999903    2    3    3    0    0  0.97138741935E-01 -0.76446451788E-01  0.33178111810E-01  0.12958663684E+00  0.20295668695E-01 0.  0.
         14    1    1    2    0    0 -0.57630503616E-02 -0.54675128242E-02  0.22722716150E-01  0.24071316441E-01  0.00000000000E+00 0.  1.
     999901    1    3    3    0    0 -0.91375691573E-01  0.81913964612E-01 -0.55900827960E-01  0.89027204672E+00  0.88000000000E+00 0. -1.
        -11    1    4    4    0    0  0.14407350761E-01 -0.48299105619E-02 -0.13236561516E-03  0.15204553056E-01  0.51100000000E-03 0.  1.
         11    1    4    4    0    0  0.82731391174E-01 -0.71616541226E-01  0.33310477425E-01  0.11438208378E+00  0.51100000000E-03 0. -1.
</event>
<event>
 8    1  0.1054833E+005  0.1043930E+01  0.7957747E-01            NaN
         13   -1    0    0    0    0  0.00000000000E+00  0.00000000000E+00  0.74505805969E-08  0.10566000000E+00  0.10566000000E+00 0.  1.
     999900   -1    0    0    0    0 -0.00000000000E+00 -0.00000000000E+00 -0.74505805969E-08  0.93827000000E+00  0.93827000000E+00 0.  1.
     999902    2    1    2    0    0  0.14634282670E-01 -0.85822513194E-03  0.18813717585E-01  0.10200793239E+01  0.10198004571E+01 0.  0.
     999903    2    3    3    0    0 -0.90840804730E-01  0.48958271467E-01 -0.72908089835E-01  0.12765590013E+00  0.18206458326E-01 0.  0.
         14    1    1    2    0    0 -0.14634282670E-01  0.85822513194E-03 -0.18813717585E-01  0.23850676070E-01  0.00000000000E+00 0. -1.
     999901    1    3    3    0    0  0.10547508740E+00 -0.49816496599E-01  0.91721807420E-01  0.89242342380E+00  0.88000000000E+00 0. -1.
        -11    1    4    4    0    0 -0.19985036961E-01  0.19854626615E-01 -0.18819521863E-01  0.33882789503E-01  0.51100000000E-03 0. -1.
         11    1    4    4    0    0 -0.70855767769E-01  0.29103644852E-01 -0.54088567972E-01  0.93773110624E-01  0.51100000000E-03 0.  1.
</event>
<event>
 8    1  0.1054833E+005  0.1043930E+01  0.7957747E-01            NaN
         13   -1    0    0    0    0  0.00000000000E+00  0.00000000000E+00  0.74505805969E-08  0.10566000000E+00  0.10566000000E+00 0. -1.
     999900   -1    0    0    0    0 -0.00000000000E+00 -0.00000000000E+00 -0.74505805969E-08  0.93827000000E+00  0.93827000000E+00 0. -1.
     999902    2    1    2    0    0 -0.13503138295E-01 -0.11192659797E-01 -0.18652912823E-01  0.10183264547E+01  0.10180045318E+01 0.  0.
     999903    2    3    3    0    0  0.21140796799E-01 -0.10358535432E+00 -0.74833366175E-01  0.13103120753E+00  0.19806204481E-01 0.  0.
         14    1    1    2    0    0  0.13503138295E-01  0.11192659797E-01  0.18652912823E-01  0.25603545339E-01  0.00000000000E+00 0. -1.
     999901    1    3    3    0    0 -0.34643935095E-01  0.92392694519E-01  0.56180453351E-01  0.88729524713E+00  0.88000000000E+00 0.  1.
        -11    1    4    4    0    0 -0.12037214416E-02 -0.15058132022E-01 -0.17908930784E-01  0.23434743611E-01  0.51100000000E-03 0. -1.
         11    1    4    4    0    0  0.22344518241E-01 -0.88527222294E-01 -0.56924435391E-01  0.10759646392E+00  0.51100000000E-03 0.  1.
</event>
<event>
 8    1  0.1054833E+005  0.1043930E+01  0.7957747E-01            NaN
         13   -1    0    0    0    0  0.00000000000E+00  0.00000000000E+00  0.74505805969E-08  0.10566000000E+00  0.10566000000E+00 0. -1.
     999900   -1    0    0    0    0 -0.00000000000E+00 -0.00000000000E+00 -0.74505805969E-08  0.93827000000E+00  0.93827000000E+00 0. -1.
     999902    2    1    2    0    0 -0.75267782296E-02 -0.37982484712E-03  0.22670995209E-01  0.10200391925E+01  0.10197593754E+01 0.  0.
     999903    2    3    3    0    0  0.12691440276E-01  0.38345599610E-01 -0.11935695280E+00  0.12758170174E+00  0.19988766124E-01 0.  0.
         14    1    1    2    0    0  0.75267782296E-02  0.37982484712E-03 -0.22670995209E-01  0.23890807463E-01  0.00000000000E+00 0.  1.
     999901    1    3    3    0    0 -0.20218218505E-01 -0.38725424457E-01  0.14202794801E+00  0.89245749079E+00  0.88000000000E+00 0.  1.
        -11    1    4    4    0    0 -0.15622715104E-03  0.11783765736E-01 -0.61635219730E-01  0.62753828362E-01  0.51100000000E-03 0. -1.
         11    1    4    4    0    0  0.12847667427E-01  0.26561833874E-01 -0.57721733074E-01  0.64827873381E-01  0.51100000000E-03 0.  1.
</event>
<event>
 8    1  0.1054833E+005  0.1043930E+01  0.7957747E-01            NaN
         13   -1    0    0    0    0  0.00000000000E+00  0.00000000000E+00  0.74505805969E-08  0.10566000000E+00  0.10566000000E+00 0. -1.
     999900   -1    0    0    0    0 -0.00000000000E+00 -0.00000000000E+00 -0.74505805969E-08  0.93827000000E+00  0.93827000000E+00 0.  1.
     999902    2    1    2    0    0  0.21285585061E-01 -0.13401506377E-02 -0.93450475249E-02  0.10206447676E+01  0.10203791156E+01 0.  0.
     999903    2    3    3    0    0  0.11886402051E+00  0.56445804126E-01  0.55933017347E-02  0.13324185915E+00  0.20182265203E-01 0.  0.
         14    1    1    2    0    0 -0.21285585061E-01  0.13401506377E-02  0.93450475249E-02  0.23285232410E-01  0.00000000000E+00 0. -1.
     999901    1    3    3    0    0 -0.97578435453E-01 -0.57785954764E-01 -0.14938349260E-01  0.88740290844E+00  0.88000000000E+00 0.  1.
        -11    1    4    4    0    0  0.46700556916E-01  0.28575639277E-01 -0.57565205234E-02  0.55053681311E-01  0.51100000000E-03 0.  1.
         11    1    4    4    0    0  0.72163463598E-01  0.27870164849E-01  0.11349822258E-01  0.78188177837E-01  0.51100000000E-03 0. -1.
</event>
<event>
 8    1  0.1054833E+005  0.1043930E+01  0.7957747E-01            NaN
         13   -1    0    0    0    0  0.00000000000E+00  0.00000000000E+00  0.74505805969E-08  0.10566000000E+00  0.10566000000E+00 0. -1.
     999900   -1    0    0    0    0 -0.00000000000E+00 -0.00000000000E+00 -0.74505805969E-08  0.93827000000E+00  0.93827000000E+00 0. -1.
     999902    2    1    2    0    0  0.26446301623E-01 -0.10618619416E-01  0.47766929759E-02  0.10150340013E+01  0.10146226121E+01 0.  0.
     999903    2    3    3    0    0  0.18442595724E-01  0.47305710294E-01 -0.11274958610E+00  0.12529712242E+00  0.20222268873E-01 0.  0.
         14    1    1    2    0    0 -0.26446301623E-01  0.10618619416E-01 -0.47766929759E-02  0.28895998748E-01  0.00000000000E+00 0.  1.
     999901    1    3    3    0    0  0.80037058998E-02 -0.57924329710E-01  0.11752627907E+00  0.88973687883E+00  0.88000000000E+00 0.  1.
        -11    1    4    4    0    0 -0.20880611858E-02  0.13572227459E-01 -0.43005703206E-01  0.45147724051E-01  0.51100000000E-03 0.  1.
         11    1    4    4    0    0  0.20530656909E-01  0.33733482835E-01 -0.69743882891E-01  0.80149398369E-01  0.51100000000E-03 0. -1.
</event>
<event>
 8    1  0.1054833E+005  0.1043930E+01  0.7957747E-01            NaN
         13   -1    0    0    0    0  0.00000000000E+00  0.00000000000E+00  0.74505805969E-08  0.10566000000E+00  0.10566000000E+00 0. -1.
     999900   -1    0    0    0    0 -0.00000000000E+00 -0.00000000000E+00 -0.74505805969E-08  0.93827000000E+00  0.93827000000E+00 0. -1.
     999902    2    1    2    0    0  0.92122277187E-02 -0.21143018198E-01  0.31072884726E-02  0.10206588247E+01  0.10203934971E+01 0.  0.
     999903    2    3    3    0    0 -0.11681267352E+00  0.35658956519E-01  0.36647434510E-01  0.12923654460E+00  0.21030647389E-01 0.  0.
         14    1    1    2    0    0 -0.92122277187E-02  0.21143018198E-01 -0.31072884726E-02  0.23271175297E-01  0.00000000000E+00 0. -1.
     999901    1    3    3    0    0  0.12602490124E+00 -0.56801974717E-01 -0.33540146037E-01  0.89142228010E+00  0.88000000000E+00 0.  1.
        -11    1    4    4    0    0 -0.87399867424E-01  0.23333780446E-01  0.35921077584E-01  0.97333381075E-01  0.51100000000E-03 0. -1.
         11    1    4    4    0    0 -0.29412806095E-01  0.12325176073E-01  0.72635692630E-03  0.31903163527E-01  0.51100000000E-03 0.  1.
</event>
<event>
 8    1  0.1054833E+005  0.1043930E+01  0.7957747E-01            NaN
         13   -1    0    0    0    0  0.00000000000E+00  0.00000000000E+00  0.74505805969E-08  0.10566000000E+00  0.10566000000E+00 0. -1.
     999900   -1    0    0    0    0 -0.00000000000E+00 -0.00000000000E+00 -0.74505805969E-08  0.93827000000E+00  0.93827000000E+00 0. -1.
     999902    2    1    2    0    0 -0.73508813296E-02 -0.20197536941E-01  0.90166351866E-02  0.10206217254E+01  0.10203555413E+01 0.  0.
     999903    2    3    3    0    0  0.50870633329E-01  0.46606431312E-01  0.10895199046E+00  0.13054330741E+00  0.20274074783E-01 0.  0.
         14    1    1    2    0    0  0.73508813296E-02  0.20197536941E-01 -0.90166351866E-02  0.23308274601E-01  0.00000000000E+00 0.  1.
     999901    1    3    3    0    0 -0.58221514658E-01 -0.66803968253E-01 -0.99935355273E-01  0.89007841799E+00  0.88000000000E+00 0. -1.
        -11    1    4    4    0    0  0.28720671823E-01  0.26244466864E-01  0.79125427548E-01  0.88174505593E-01  0.51100000000E-03 0.  1.
         11    1    4    4    0    0  0.22149961506E-01  0.20361964447E-01  0.29826562912E-01  0.42368801812E-01  0.51100000000E-03 0. -1.
</event>
<event>
 8    1  0.1054833E+005  0.1043930E+01  0.7957747E-01            NaN
         13   -1    0    0    0    0  0.00000000000E+00  0.00000000000E+00  0.74505805969E-08  0.10566000000E+00  0.10566000000E+00 0.  1.
     999900   -1    0    0    0    0 -0.00000000000E+00 -0.00000000000E+00 -0.74505805969E-08  0.93827000000E+00  0.93827000000E+00 0. -1.
     999902    2    1    2    0    0 -0.16373630201E-02  0.24551209197E-01 -0.80275595723E-04  0.10193241211E+01  0.10190270922E+01 0.  0.
     999903    2    3    3    0    0  0.66930178599E-01  0.85254904335E-01 -0.72220280984E-01  0.13163575986E+00  0.19082892002E-01 0.  0.
         14    1    1    2    0    0  0.16373630201E-02 -0.24551209197E-01  0.80275595723E-04  0.24605878868E-01  0.00000000000E+00 0. -1.
     999901    1    3    3    0    0 -0.68567541619E-01 -0.60703695137E-01  0.72140005388E-01  0.88768836128E+00  0.88000000000E+00 0.  1.
        -11    1    4    4    0    0  0.59279611633E-01  0.82690797899E-01 -0.64568098673E-01  0.12050369662E+00  0.51100000000E-03 0. -1.
         11    1    4    4    0    0  0.76505669660E-02  0.25641064354E-02 -0.76521823106E-02  0.11132063233E-01  0.51100000000E-03 0.  1.
</event>
<event>
 8    1  0.1054833E+005  0.1043930E+01  0.7957747E-01            NaN
         13   -1    0    0    0    0  0.00000000000E+00  0.00000000000E+00  0.74505805969E-08  0.10566000000E+00  0.10566000000E+00 0. -1.
     999900   -1    0    0    0    0 -0.00000000000E+00 -0.00000000000E+00 -0.74505805969E-08  0.93827000000E+00  0.93827000000E+00 0.  1.
     999902    2    1    2    0    0  0.14129903434E-01  0.10878210220E-01 -0.17103332095E-01  0.10192214266E+01  0.10189218826E+01 0.  0.
     999903    2    3    3    0    0  0.97177591553E-01  0.80124908080E-01  0.31562008622E-01  0.13126853428E+00  0.19281662506E-01 0.  0.
         14    1    1    2    0    0 -0.14129903434E-01 -0.10878210220E-01  0.17103332095E-01  0.24708573358E-01  0.00000000000E+00 0. -1.
     999901    1    3    3    0    0 -0.83047688119E-01 -0.69246697860E-01 -0.48665340717E-01  0.88795289236E+00  0.88000000000E+00 0.  1.
        -11    1    4    4    0    0  0.79294248385E-01  0.56462797899E-01  0.28589737188E-01  0.10145570249E+00  0.51100000000E-03 0.  1.
         11    1    4    4    0    0  0.17883343167E-01  0.23662110182E-01  0.29722714339E-02  0.29812831794E-01  0.51100000000E-03 0. -1.
</event>
<event>
 8    1  0.1054833E+005  0.1043930E+01  0.7957747E-01            NaN
         13   -1    0    0    0    0  0.00000000000E+00  0.00000000000E+00  0.74505805969E-08  0.10566000000E+00  0.10566000000E+00 0. -1.
     999900   -1    0    0    0    0 -0.00000000000E+00 -0.00000000000E+00 -0.74505805969E-08  0.93827000000E+00  0.93827000000E+00 0. -1.
     999902    2    1    2    0    0  0.22364660077E-01 -0.14991579911E-02  0.91701527176E-02  0.10197118829E+01  0.10194242527E+01 0.  0.
     999903    2    3    3    0    0 -0.11763812037E+00  0.10220328181E-01 -0.42687574239E-01  0.12706001978E+00  0.19463739624E-01 0.  0.
         14    1    1    2    0    0 -0.22364660077E-01  0.14991579911E-02 -0.91701527176E-02  0.24218117101E-01  0.00000000000E+00 0. -1.
     999901    1    3    3    0    0  0.14000278044E+00 -0.11719486172E-01  0.51857726956E-01  0.89265186312E+00  0.88000000000E+00 0.  1.
        -11    1    4    4    0    0 -0.10756978069E+00  0.14405905483E-01 -0.36454408496E-01  0.11449005568E+00  0.51100000000E-03 0.  1.
         11    1    4    4    0    0 -0.10068339679E-01 -0.41855773020E-02 -0.62331657425E-02  0.12569964098E-01  0.51100000000E-03 0. -1.
</event>
<event>
 8    1  0.1054833E+005  0.1043930E+01  0.7957747E-01            NaN
         13   -1    0    0    0    0  0.00000000000E+00  0.00000000000E+00  0.74505805969E-08  0.10566000000E+00  0.10566000000E+00 0. -1.
     999900   -1    0    0    0    0 -0.00000000000E+00 -0.00000000000E+00 -0.74505805969E-08  0.93827000000E+00  0.93827000000E+00 0.  1.
     999902    2    1    2    0    0 -0.11969202720E-01 -0.85235745713E-02 -0.18804595106E-01  0.10200652575E+01  0.10197860578E+01 0.  0.
     999903    2    3    3    0    0  0.10664264361E-01  0.51254245097E-01  0.11522003857E+00  0.12762575592E+00  0.16490970636E-01 0.  0.
         14    1    1    2    0    0  0.11969202720E-01  0.85235745713E-02  0.18804595106E-01  0.23864742494E-01  0.00000000000E+00 0. -1.
     999901    1    3    3    0    0 -0.22633467081E-01 -0.59777819668E-01 -0.13402463367E+00  0.89243950158E+00  0.88000000000E+00 0.  1.
        -11    1    4    4    0    0  0.66016345671E-03  0.35035420620E-01  0.63894245271E-01  0.72874221873E-01  0.51100000000E-03 0.  1.
         11    1    4    4    0    0  0.10004100904E-01  0.16218824477E-01  0.51325793295E-01  0.54751534049E-01  0.51100000000E-03 0. -1.
</event>
<event>
 8    1  0.1054833E+005  0.1043930E+01  0.7957747E-01            NaN
         13   -1    0    0    0    0  0.00000000000E+00  0.00000000000E+00  0.74505805969E-08  0.10566000000E+00  0.10566000000E+00 0. -1.
     999900   -1    0    0    0    0 -0.00000000000E+00 -0.00000000000E+00 -0.74505805969E-08  0.93827000000E+00  0.93827000000E+00 0.  1.
     999902    2    1    2    0    0  0.20869024970E-01  0.74142852434E-02  0.22513264465E-01  0.10123493904E+01  0.10118566861E+01 0.  0.
     999903    2    3    3    0    0 -0.71310565909E-01  0.18162889520E-01  0.98478696042E-01  0.12421462791E+00  0.17780125021E-01 0.  0.
         14    1    1    2    0    0 -0.20869024970E-01 -0.74142852434E-02 -0.22513264465E-01  0.31580609648E-01  0.00000000000E+00 0.  1.
     999901    1    3    3    0    0  0.92179590879E-01 -0.10748604277E-01 -0.75965431577E-01  0.88813476245E+00  0.88000000000E+00 0.  1.
        -11    1    4    4    0    0 -0.43853408839E-01  0.12585388316E-01  0.74359400358E-01  0.87241589901E-01  0.51100000000E-03 0.  1.
         11    1    4    4    0    0 -0.27457157070E-01  0.55775012042E-02  0.24119295685E-01  0.36973038006E-01  0.51100000000E-03 0. -1.
</event>
<event>
 8    1  0.1054833E+005  0.1043930E+01  0.7957747E-01            NaN
         13   -1    0    0    0    0  0.00000000000E+00  0.00000000000E+00  0.74505805969E-08  0.10566000000E+00  0.10566000000E+00 0. -1.
     999900   -1    0    0    0    0 -0.00000000000E+00 -0.00000000000E+00 -0.74505805969E-08  0.93827000000E+00  0.93827000000E+00 0. -1.
     999902    2    1    2    0    0 -0.35446062446E-02  0.33427538550E-02 -0.23837519855E-01  0.10195996570E+01  0.10193093225E+01 0.  0.
     999903    2    3    3    0    0  0.75876870873E-02 -0.12527407764E+00 -0.27926129595E-01  0.13017122593E+00  0.20334990085E-01 0.  0.
         14    1    1    2    0    0  0.35446062446E-02 -0.33427538550E-02  0.23837519855E-01  0.24330342981E-01  0.00000000000E+00 0. -1.
     999901    1    3    3    0    0 -0.11132293332E-01  0.12861683150E+00  0.40886097402E-02  0.88942843109E+00  0.88000000000E+00 0.  1.
        -11    1    4    4    0    0  0.11077426146E-01 -0.86706923902E-01 -0.11744934929E-01  0.88198665750E-01  0.51100000000E-03 0. -1.
         11    1    4    4    0    0 -0.34897390589E-02 -0.38567153739E-01 -0.16181194666E-01  0.41972560180E-01  0.51100000000E-03 0.  1.
</event>
<event>
 8    1  0.1054833E+005  0.1043930E+01  0.7957747E-01            NaN
         13   -1    0    0    0    0  0.00000000000E+00  0.00000000000E+00  0.74505805969E-08  0.10566000000E+00  0.10566000000E+00 0.  1.
     999900   -1    0    0    0    0 -0.00000000000E+00 -0.00000000000E+00 -0.74505805969E-08  0.93827000000E+00  0.93827000000E+00 0. -1.
     999902    2    1    2    0    0 -0.21418399425E-01  0.72152640112E-02  0.65019836683E-02  0.10204122692E+01  0.10201412233E+01 0.  0.
     999903    2    3    3    0    0  0.12499442579E-01  0.75380317594E-01  0.10528103868E+00  0.13161859450E+00  0.20023210754E-01 0.  0.
         14    1    1    2    0    0  0.21418399425E-01 -0.72152640112E-02 -0.65019836683E-02  0.23517730765E-01  0.00000000000E+00 0. -1.
     999901    1    3    3    0    0 -0.33917842004E-01 -0.68165053583E-01 -0.98779055007E-01  0.88879367473E+00  0.88000000000E+00 0. -1.
        -11    1    4    4    0    0 -0.13415659185E-02  0.48536278806E-01  0.69668527548E-01  0.84920757246E-01  0.51100000000E-03 0. -1.
         11    1    4    4    0    0  0.13841008497E-01  0.26844038788E-01  0.35612511127E-01  0.46697837257E-01  0.51100000000E-03 0.  1.
</event>
<event>
 8    1  0.1054833E+005  0.1043930E+01  0.7957747E-01            NaN
         13   -1    0    0    0    0  0.00000000000E+00  0.00000000000E+00  0.74505805969E-08  0.10566000000E+00  0.10566000000E+00 0.  1.
     999900   -1    0    0    0    0 -0.00000000000E+00 -0.00000000000E+00 -0.74505805969E-08  0.93827000000E+00  0.93827000000E+00 0.  1.
     999902    2    1    2    0    0  0.12583344312E-01 -0.70448559086E-02  0.17885104034E-01  0.10209550681E+01  0.10206965287E+01 0.  0.
     999903    2    3    3    0    0  0.25493781077E-01 -0.11806744492E+00 -0.47784577600E-01  0.13145790582E+00  0.20198037573E-01 0.  0.
         14    1    1    2    0    0 -0.12583344312E-01  0.70448559086E-02 -0.17885104034E-01  0.22974931886E-01  0.00000000000E+00 0.  1.
     999901    1    3    3    0    0 -0.12910436765E-01  0.11102258901E+00  0.65669681634E-01  0.88949716230E+00  0.88000000000E+00 0. -1.
        -11    1    4    4    0    0  0.10235892096E-01 -0.55753230826E-01 -0.11814656371E-01  0.57905470041E-01  0.51100000000E-03 0.  1.
         11    1    4    4    0    0  0.15257888981E-01 -0.62314214095E-01 -0.35969921229E-01  0.73552435776E-01  0.51100000000E-03 0. -1.
</event>
<event>
 8    1  0.1054833E+005  0.1043930E+01  0.7957747E-01            NaN
         13   -1    0    0    0    0  0.00000000000E+00  0.00000000000E+00  0.74505805969E-08  0.10566000000E+00  0.10566000000E+00 0.  1.
     999900   -1    0    0    0    0 -0.00000000000E+00 -0.00000000000E+00 -0.74505805969E-08  0.93827000000E+00  0.93827000000E+00 0. -1.
     999902    2    1    2    0    0  0.90241618221E-02  0.82307277834E-02  0.21405788172E-01  0.10192847541E+01  0.10189867624E+01 0.  0.
     999903    2    3    3    0    0  0.23824027256E-01 -0.10714531545E+00  0.67595591693E-01  0.13042921733E+00  0.19872438675E-01 0.  0.
         14    1    1    2    0    0 -0.90241618221E-02 -0.82307277834E-02 -0.21405788172E-01  0.24645245864E-01  0.00000000000E+00 0. -1.
     999901    1    3    3    0    0 -0.14799865433E-01  0.11537604323E+00 -0.46189803521E-01  0.88885553681E+00  0.88000000000E+00 0. -1.
        -11    1    4    4    0    0  0.24099223037E-01 -0.68033129526E-01  0.47983481951E-01  0.86671534688E-01  0.51100000000E-03 0.  1.
         11    1    4    4    0    0 -0.27519578188E-03 -0.39112185921E-01  0.19612109742E-01  0.43757682638E-01  0.51100000000E-03 0. -1.
</event>
<event>
 8    1  0.1054833E+005  0.1043930E+01  0.7957747E-01            NaN
         13   -1    0    0    0    0  0.00000000000E+00  0.00000000000E+00  0.74505805969E-08  0.10566000000E+00  0.10566000000E+00 0.  1.
     999900   -1    0    0    0    0 -0.00000000000E+00 -0.00000000000E+00 -0.74505805969E-08  0.93827000000E+00  0.93827000000E+00 0. -1.
     999902    2    1    2    0    0  0.15535077233E-01  0.26041140024E-03 -0.17006659647E-01  0.10208945293E+01  0.10206346099E+01 0.  0.
     999903    2    3    3    0    0 -0.12402068266E+00  0.11492835489E-01  0.25993728804E-01  0.12878970872E+00  0.19947434384E-01 0.  0.
         14    1    1    2    0    0 -0.15535077233E-01 -0.26041140024E-03  0.17006659647E-01  0.23035470716E-01  0.00000000000E+00 0.  1.
     999901    1    3    3    0    0  0.13955575990E+00 -0.11232424088E-01 -0.43000388451E-01  0.89210482057E+00  0.88000000000E+00 0.  1.
        -11    1    4    4    0    0 -0.10522709468E+00  0.71899635215E-02  0.28713520073E-01  0.10931223347E+00  0.51100000000E-03 0.  1.
         11    1    4    4    0    0 -0.18793587984E-01  0.43028719670E-02 -0.27197912695E-02  0.19477475248E-01  0.51100000000E-03 0. -1.
</event>
<event>
 8    1  0.1054833E+005  0.1043930E+01  0.7957747E-01            NaN
         13   -1    0    0    0    0  0.00000000000E+00  0.00000000000E+00  0.74505805969E-08  0.10566000000E+00  0.10566000000E+00 0. -1.
     999900   -1    0    0    0    0 -0.00000000000E+00 -0.00000000000E+00 -0.74505805969E-08  0.93827000000E+00  0.93827000000E+00 0. -1.
     999902    2    1    2    0    0 -0.78781624587E-02  0.84467531730E-02  0.22073849714E-01  0.10190167922E+01  0.10187122041E+01 0.  0.
     999903    2    3    3    0    0 -0.40096007306E-01  0.32364044631E-01  0.12061678837E+00  0.13260789267E+00  0.19527477451E-01 0.  0.
         14    1    1    2    0    0  0.78781624587E-02 -0.84467531730E-02 -0.22073849714E-01  0.24913207824E-01  0.00000000000E+00 0.  1.
     999901    1    3    3    0    0  0.32217844847E-01 -0.23917291458E-01 -0.98542938657E-01  0.88640889950E+00  0.88000000000E+00 0. -1.
        -11    1    4    4    0    0 -0.22795770489E-01  0.24589767014E-01  0.56098268093E-01  0.65357330102E-01  0.51100000000E-03 0.  1.
         11    1    4    4    0    0 -0.17300236818E-01  0.77742776179E-02  0.64518520278E-01  0.67250562572E-01  0.51100000000E-03 0. -1.
</event>
<event>
 8    1  0.1054833E+005  0.1043930E+01  0.7957747E-01            NaN
         13   -1    0    0    0    0  0.00000000000E+00  0.00000000000E+00  0.74505805969E-08  0.10566000000E+00  0.10566000000E+00 0.  1.
     999900   -1    0    0    0    0 -0.00000000000E+00 -0.00000000000E+00 -0.74505805969E-08  0.93827000000E+00  0.93827000000E+00 0. -1.
     999902    2    1    2    0    0  0.13965423234E-01 -0.10667546965E-01 -0.15229855399E-01  0.10206753639E+01  0.10204104176E+01 0.  0.
     999903    2    3    3    0    0  0.28806856805E-01 -0.10508345069E+00 -0.74494674313E-01  0.13351869804E+00  0.20135034616E-01 0.  0.
         14    1    1    2    0    0 -0.13965423234E-01  0.10667546965E-01  0.15229855399E-01  0.23254636093E-01  0.00000000000E+00 0.  1.
     999901    1    3    3    0    0 -0.14841433571E-01  0.94415903721E-01  0.59264818914E-01  0.88715666586E+00  0.88000000000E+00 0. -1.
        -11    1    4    4    0    0  0.26806708164E-01 -0.67397214523E-01 -0.42706659115E-01  0.84173059715E-01  0.51100000000E-03 0. -1.
         11    1    4    4    0    0  0.20001486404E-02 -0.37686236164E-01 -0.31788015198E-01  0.49345638328E-01  0.51100000000E-03 0.  1.
</event>
<event>
 8    1  0.1054833E+005  0.1043930E+01  0.7957747E-01            NaN
         13   -1    0    0    0    0  0.00000000000E+00  0.00000000000E+00  0.74505805969E-08  0.10566000000E+00  0.10566000000E+00 0. -1.
     999900   -1    0    0    0    0 -0.00000000000E+00 -0.00000000000E+00 -0.74505805969E-08  0.93827000000E+00  0.93827000000E+00 0. -1.
     999902    2    1    2    0    0  0.14069146564E-01 -0.83791255855E-02 -0.34822873462E-03  0.10275509923E+01  0.10274204445E+01 0.  0.
     999903    2    3    3    0    0  0.41708549008E-01 -0.78394189873E-01 -0.10451579076E+00  0.13821588852E+00  0.17170592780E-01 0.  0.
         14    1    1    2    0    0 -0.14069146564E-01  0.83791255855E-02  0.34822873462E-03  0.16379007719E-01  0.00000000000E+00 0. -1.
     999901    1    3    3    0    0 -0.27639402444E-01  0.70015064287E-01  0.10416756202E+00  0.88933510376E+00  0.88000000000E+00 0.  1.
        -11    1    4    4    0    0  0.29055955786E-01 -0.43414975865E-01 -0.70957358892E-01  0.88115359603E-01  0.51100000000E-03 0. -1.
         11    1    4    4    0    0  0.12652593222E-01 -0.34979214008E-01 -0.33558431867E-01  0.50100528922E-01  0.51100000000E-03 0.  1.
</event>
<event>
 8    1  0.1054833E+005  0.1043930E+01  0.7957747E-01            NaN
         13   -1    0    0    0    0  0.00000000000E+00  0.00000000000E+00  0.74505805969E-08  0.10566000000E+00  0.10566000000E+00 0. -1.
     999900   -1    0    0    0    0 -0.00000000000E+00 -0.00000000000E+00 -0.74505805969E-08  0.93827000000E+00  0.93827000000E+00 0.  1.
     999902    2    1    2    0    0  0.50698193156E-02  0.19204151315E-02 -0.22506011436E-01  0.10207802351E+01  0.10205177004E+01 0.  0.
     999903    2    3    3    0    0  0.27795223098E-01  0.12371917092E+00  0.25997493768E-01  0.13077800430E+00  0.18655000609E-01 0.  0.
         14    1    1    2    0    0 -0.50698193156E-02 -0.19204151315E-02  0.22506011436E-01  0.23149764857E-01  0.00000000000E+00 0. -1.
     999901    1    3    3    0    0 -0.22725403782E-01 -0.12179875578E+00 -0.48503505204E-01  0.89000223084E+00  0.88000000000E+00 0.  1.
        -11    1    4    4    0    0  0.52977648170E-02  0.50136120368E-01  0.31753606444E-02  0.50517728708E-01  0.51100000000E-03 0. -1.
         11    1    4    4    0    0  0.22497458281E-01  0.73583050547E-01  0.22822133123E-01  0.80260275593E-01  0.51100000000E-03 0.  1.
</event>
<event>
 8    1  0.1054833E+005  0.1043930E+01  0.7957747E-01            NaN
         13   -1    0    0    0    0  0.00000000000E+00  0.00000000000E+00  0.74505805969E-08  0.10566000000E+00  0.10566000000E+00 0. -1.
     999900   -1    0    0    0    0 -0.00000000000E+00 -0.00000000000E+00 -0.74505805969E-08  0.93827000000E+00  0.93827000000E+00 0. -1.
     999902    2    1    2    0    0 -0.30885938788E-02  0.20012010145E-01  0.11734432291E-01  0.10205266485E+01  0.10202582631E+01 0.  0.
     999903    2    3    3    0    0  0.67734279731E-01  0.94276582377E-01 -0.59265451484E-01  0.13172290769E+00  0.19040063926E-01 0.  0.
         14    1    1    2    0    0  0.30885938788E-02 -0.20012010145E-01 -0.11734432291E-01  0.23403351541E-01  0.00000000000E+00 0.  1.
     999901    1    3    3    0    0 -0.70822873610E-01 -0.74264572232E-01  0.70999883776E-01  0.88880374077E+00  0.88000000000E+00 0.  1.
        -11    1    4    4    0    0  0.12964488868E-01  0.17838200203E-01 -0.20149982080E-01  0.29875780440E-01  0.51100000000E-03 0.  1.
         11    1    4    4    0    0  0.54769790863E-01  0.76438382174E-01 -0.39115469405E-01  0.10184712725E+00  0.51100000000E-03 0. -1.
</event>
<event>
 8    1  0.1054833E+005  0.1043930E+01  0.7957747E-01            NaN
         13   -1    0    0    0    0  0.00000000000E+00  0.00000000000E+00  0.74505805969E-08  0.10566000000E+00  0.10566000000E+00 0.  1.
     999900   -1    0    0    0    0 -0.00000000000E+00 -0.00000000000E+00 -0.74505805969E-08  0.93827000000E+00  0.93827000000E+00 0. -1.
     999902    2    1    2    0    0  0.19647923875E-01 -0.12512026853E-01 -0.22886044189E-02  0.10205242435E+01  0.10202558023E+01 0.  0.
     999903    2    3    3    0    0  0.99679635447E-01 -0.77889739131E-01  0.38021307420E-01  0.13356076671E+00  0.19748858207E-01 0.  0.
         14    1    1    2    0    0 -0.19647923875E-01  0.12512026853E-01  0.22886044189E-02  0.23405756530E-01  0.00000000000E+00 0. -1.
     999901    1    3    3    0    0 -0.80031711573E-01  0.65377712278E-01 -0.40309911839E-01  0.88696347676E+00  0.88000000000E+00 0. -1.
        -11    1    4    4    0    0  0.78564227209E-01 -0.54346779069E-01  0.21681652417E-01  0.97960529627E-01  0.51100000000E-03 0. -1.
         11    1    4    4    0    0  0.21115408238E-01 -0.23542960062E-01  0.16339655003E-01  0.35600237080E-01  0.51100000000E-03 0.  1.
</event>
<event>
 8    1  0.1054833E+005  0.1043930E+01  0.7957747E-01            NaN
         13   -1    0    0    0    0  0.00000000000E+00  0.00000000000E+00  0.74505805969E-08  0.10566000000E+00  0.10566000000E+00 0. -1.
     999900   -1    0    0    0    0 -0.00000000000E+00 -0.00000000000E+00 -0.74505805969E-08  0.93827000000E+00  0.93827000000E+00 0. -1.
     999902    2    1    2    0    0  0.15511379144E-02  0.21414491670E-01  0.93985597414E-02  0.10204924360E+01  0.10202232562E+01 0.  0.
     999903    2    3    3    0    0 -0.89506163321E-01  0.94330734932E-01  0.16728211605E-01  0.13276391078E+00  0.20899332944E-01 0.  0.
         14    1    1    2    0    0 -0.15511379144E-02 -0.21414491670E-01 -0.93985597414E-02  0.23437564027E-01  0.00000000000E+00 0.  1.
     999901    1    3    3    0    0  0.91057301236E-01 -0.72916243262E-01 -0.73296518634E-02  0.88772852519E+00  0.88000000000E+00 0. -1.
        -11    1    4    4    0    0 -0.56206034828E-01  0.48902519108E-01  0.17070468323E-01  0.76434525811E-01  0.51100000000E-03 0. -1.
         11    1    4    4    0    0 -0.33300128493E-01  0.45428215824E-01 -0.34225671811E-03  0.56329384972E-01  0.51100000000E-03 0.  1.
</event>
<event>
 8    1  0.1054833E+005  0.1043930E+01  0.7957747E-01            NaN
         13   -1    0    0    0    0  0.00000000000E+00  0.00000000000E+00  0.74505805969E-08  0.10566000000E+00  0.10566000000E+00 0. -1.
     999900   -1    0    0    0    0 -0.00000000000E+00 -0.00000000000E+00 -0.74505805969E-08  0.93827000000E+00  0.93827000000E+00 0.  1.
     999902    2    1    2    0    0 -0.12403164105E-01 -0.19254535936E-01  0.78416475138E-02  0.10197211779E+01  0.10194337710E+01 0.  0.
     999903    2    3    3    0    0  0.78209649861E-01 -0.26384114587E-01  0.98799539312E-01  0.13037599682E+00  0.20583506626E-01 0.  0.
         14    1    1    2    0    0  0.12403164105E-01  0.19254535936E-01 -0.78416475138E-02  0.24208822145E-01  0.00000000000E+00 0. -1.
     999901    1    3    3    0    0 -0.90612813966E-01  0.71295786508E-02 -0.90957891798E-01  0.88934518103E+00  0.88000000000E+00 0.  1.
        -11    1    4    4    0    0  0.24865278250E-01 -0.24746871145E-02  0.41956330841E-01  0.48836471590E-01  0.51100000000E-03 0. -1.
         11    1    4    4    0    0  0.53344371611E-01 -0.23909427472E-01  0.56843208471E-01  0.81539525231E-01  0.51100000000E-03 0.  1.
</event>
<event>
 8    1  0.1054833E+005  0.1043930E+01  0.7957747E-01            NaN
         13   -1    0    0    0    0  0.00000000000E+00  0.00000000000E+00  0.74505805969E-08  0.10566000000E+00  0.10566000000E+00 0.  1.
     999900   -1    0    0    0    0 -0.00000000000E+00 -0.00000000000E+00 -0.74505805969E-08  0.93827000000E+00  0.93827000000E+00 0. -1.
     999902    2    1    2    0    0 -0.54975279126E-02  0.23449931847E-01 -0.85575616110E-03  0.10198290781E+01  0.10195442581E+01 0.  0.
     999903    2    3    3    0    0  0.84177579168E-03 -0.34197815561E-01 -0.12318312457E+00  0.12947665654E+00  0.20492028587E-01 0.  0.
         14    1    1    2    0    0  0.54975279126E-02 -0.23449931847E-01  0.85575616110E-03  0.24100921878E-01  0.00000000000E+00 0.  1.
     999901    1    3    3    0    0 -0.63393037043E-02  0.57647747408E-01  0.12232736841E+00  0.89035242158E+00  0.88000000000E+00 0.  1.
        -11    1    4    4    0    0 -0.71365334002E-02 -0.10206531800E-01 -0.62576418642E-01  0.63805741838E-01  0.51100000000E-03 0.  1.
         11    1    4    4    0    0  0.79783091919E-02 -0.23991283762E-01 -0.60606705924E-01  0.65670914704E-01  0.51100000000E-03 0. -1.
</event>
<event>
 8    1  0.1054833E+005  0.1043930E+01  0.7957747E-01            NaN
         13   -1    0    0    0    0  0.00000000000E+00  0.00000000000E+00  0.74505805969E-08  0.10566000000E+00  0.10566000000E+00 0.  1.
     999900   -1    0    0    0    0 -0.00000000000E+00 -0.00000000000E+00 -0.74505805969E-08  0.93827000000E+00  0.93827000000E+00 0.  1.
     999902    2    1    2    0    0  0.18908958437E-01  0.71924661560E-02 -0.79648794363E-02  0.10221878846E+01  0.10219566291E+01 0.  0.
     999903    2    3    3    0    0  0.12598943283E+00  0.42720714378E-01 -0.84082830438E-02  0.13498515632E+00  0.21257859285E-01 0.  0.
         14    1    1    2    0    0 -0.18908958437E-01 -0.71924661560E-02  0.79648794363E-02  0.21742115422E-01  0.00000000000E+00 0.  1.
     999901    1    3    3    0    0 -0.10708047439E+00 -0.35528248222E-01  0.44340360755E-03  0.88720272826E+00  0.88000000000E+00 0.  1.
        -11    1    4    4    0    0  0.70975461518E-01  0.13877979614E-01 -0.16021155389E-03  0.72321513014E-01  0.51100000000E-03 0.  1.
         11    1    4    4    0    0  0.55013971313E-01  0.28842734764E-01 -0.82480714900E-02  0.62663643308E-01  0.51100000000E-03 0. -1.
</event>
<event>
 8    1  0.1054833E+005  0.1043930E+01  0.7957747E-01            NaN
         13   -1    0    0    0    0  0.00000000000E+00  0.00000000000E+00  0.74505805969E-08  0.10566000000E+00  0.10566000000E+00 0.  1.
     999900   -1    0    0    0    0 -0.00000000000E+00 -0.00000000000E+00 -0.74505805969E-08  0.93827000000E+00  0.93827000000E+00 0.  1.
     999902    2    1    2    0    0 -0.93915074039E-02 -0.20597679611E-01  0.70849537739E-02  0.10202095155E+01  0.10199337204E+01 0.  0.
     999903    2    3    3    0    0  0.10318972003E-02  0.81298343073E-01 -0.97233353134E-01  0.12814799519E+00  0.18897045018E-01 0.  0.
         14    1    1    2    0    0  0.93915074039E-02  0.20597679611E-01 -0.70849537739E-02  0.23720484537E-01  0.00000000000E+00 0.  1.
     999901    1    3    3    0    0 -0.10423404604E-01 -0.10189602268E+00  0.10431830691E+00  0.89206152028E+00  0.88000000000E+00 0. -1.
        -11    1    4    4    0    0  0.54909691904E-02  0.60735194710E-01 -0.61071574369E-01  0.86307085085E-01  0.51100000000E-03 0.  1.
         11    1    4    4    0    0 -0.44590719901E-02  0.20563148363E-01 -0.36161778765E-01  0.41840910101E-01  0.51100000000E-03 0. -1.
</event>
<event>
 8    1  0.1054833E+005  0.1043930E+01  0.7957747E-01            NaN
         13   -1    0    0    0    0  0.00000000000E+00  0.00000000000E+00  0.74505805969E-08  0.10566000000E+00  0.10566000000E+00 0.  1.
     999900   -1    0    0    0    0 -0.00000000000E+00 -0.00000000000E+00 -0.74505805969E-08  0.93827000000E+00  0.93827000000E+00 0. -1.
     999902    2    1    2    0    0 -0.62297095950E-02 -0.57821091020E-03 -0.25114017037E-01  0.10180483953E+01  0.10177193512E+01 0.  0.
     999903    2    3    3    0    0  0.62743223691E-02 -0.44323917250E-01  0.11559439117E+00  0.12570939371E+00  0.20900039136E-01 0.  0.
         14    1    1    2    0    0  0.62297095950E-02  0.57821091020E-03  0.25114017037E-01  0.25881604688E-01  0.00000000000E+00 0.  1.
     999901    1    3    3    0    0 -0.12504031964E-01  0.43745706340E-01 -0.14070840821E+00  0.89233900160E+00  0.88000000000E+00 0. -1.
        -11    1    4    4    0    0  0.56317027893E-02 -0.19069133987E-01  0.77388527075E-01  0.79903649423E-01  0.51100000000E-03 0. -1.
         11    1    4    4    0    0  0.64261957984E-03 -0.25254783263E-01  0.38205864094E-01  0.45805744287E-01  0.51100000000E-03 0.  1.
</event>
<event>
 8    1  0.1054833E+005  0.1043930E+01  0.7957747E-01            NaN
         13   -1    0    0    0    0  0.00000000000E+00  0.00000000000E+00  0.74505805969E-08  0.10566000000E+00  0.10566000000E+00 0. -1.
     999900   -1    0    0    0    0 -0.00000000000E+00 -0.00000000000E+00 -0.74505805969E-08  0.93827000000E+00  0.93827000000E+00 0. -1.
     999902    2    1    2    0    0 -0.22267680073E-01  0.86777797005E-02 -0.19887658689E-02  0.10199485775E+01  0.10196666083E+01 0.  0.
     999903    2    3    3    0    0 -0.28580086274E-02 -0.25743392259E-01 -0.12651572155E+00  0.13030341501E+00  0.17374167721E-01 0.  0.
         14    1    1    2    0    0  0.22267680073E-01 -0.86777797005E-02  0.19887658689E-02  0.23981422519E-01  0.00000000000E+00 0. -1.
     999901    1    3    3    0    0 -0.19409671446E-01  0.34421171959E-01  0.12452695568E+00  0.88964516248E+00  0.88000000000E+00 0.  1.
        -11    1    4    4    0    0  0.65036037375E-02 -0.14048547440E-01 -0.50422851522E-01  0.52748304459E-01  0.51100000000E-03 0. -1.
         11    1    4    4    0    0 -0.93616123648E-02 -0.11694844819E-01 -0.76092870030E-01  0.77555110546E-01  0.51100000000E-03 0.  1.
</event>
<event>
 8    1  0.1054833E+005  0.1043930E+01  0.7957747E-01            NaN
         13   -1    0    0    0    0  0.00000000000E+00  0.00000000000E+00  0.74505805969E-08  0.10566000000E+00  0.10566000000E+00 0. -1.
     999900   -1    0    0    0    0 -0.00000000000E+00 -0.00000000000E+00 -0.74505805969E-08  0.93827000000E+00  0.93827000000E+00 0.  1.
     999902    2    1    2    0    0  0.39539712311E-03 -0.14342091706E-01 -0.18694451741E-01  0.10203644646E+01  0.10200923028E+01 0.  0.
     999903    2    3    3    0    0  0.49611544967E-01 -0.56804026113E-01 -0.10825217971E+00  0.13343389700E+00  0.19951633487E-01 0.  0.
         14    1    1    2    0    0 -0.39539712311E-03  0.14342091706E-01  0.18694451741E-01  0.23565535413E-01  0.00000000000E+00 0. -1.
     999901    1    3    3    0    0 -0.49216147844E-01  0.42461934407E-01  0.89557727974E-01  0.88693056759E+00  0.88000000000E+00 0. -1.
        -11    1    4    4    0    0  0.25380735846E-01 -0.14508161886E-01 -0.42277288024E-01  0.51403294808E-01  0.51100000000E-03 0.  1.
         11    1    4    4    0    0  0.24230809121E-01 -0.42295864228E-01 -0.65974891690E-01  0.82030602192E-01  0.51100000000E-03 0. -1.
</event>
<event>
 8    1  0.1054833E+005  0.1043930E+01  0.7957747E-01            NaN
         13   -1    0    0    0    0  0.00000000000E+00  0.00000000000E+00  0.74505805969E-08  0.10566000000E+00  0.10566000000E+00 0.  1.
     999900   -1    0    0    0    0 -0.00000000000E+00 -0.00000000000E+00 -0.74505805969E-08  0.93827000000E+00  0.93827000000E+00 0.  1.
     999902    2    1    2    0    0 -0.39305615280E-02 -0.17208473284E-01  0.11675512726E-01  0.10227663882E+01  0.10225474006E+01 0.  0.
     999903    2    3    3    0    0  0.12397210289E+00 -0.10068794979E-01  0.42404536111E-01  0.13296060072E+00  0.20246326415E-01 0.  0.
         14    1    1    2    0    0  0.39305615280E-02  0.17208473284E-01 -0.11675512726E-01  0.21163611793E-01  0.00000000000E+00 0. -1.
     999901    1    3    3    0    0 -0.12790266442E+00 -0.71396783055E-02 -0.30729023385E-01  0.88980578749E+00  0.88000000000E+00 0.  1.
        -11    1    4    4    0    0  0.66037726575E-01 -0.37250295339E-02  0.33014419592E-01  0.73926113101E-01  0.51100000000E-03 0. -1.
         11    1    4    4    0    0  0.57934376314E-01 -0.63437654449E-02  0.93901165197E-02  0.59034487617E-01  0.51100000000E-03 0.  1.
</event>
<event>
 8    1  0.1054833E+005  0.1043930E+01  0.7957747E-01            NaN
         13   -1    0    0    0    0  0.00000000000E+00  0.00000000000E+00  0.74505805969E-08  0.10566000000E+00  0.10566000000E+00 0.  1.
     999900   -1    0    0    0    0 -0.00000000000E+00 -0.00000000000E+00 -0.74505805969E-08  0.93827000000E+00  0.93827000000E+00 0.  1.
     999902    2    1    2    0    0  0.22893782097E-01 -0.12447911835E-01  0.63812108354E-02  0.10171009929E+01  0.10167470847E+01 0.  0.
     999903    2    3    3    0    0 -0.39080755564E-01  0.54175742895E-01 -0.10421657734E+00  0.12552293947E+00  0.20798960726E-01 0.  0.
         14    1    1    2    0    0 -0.22893782097E-01  0.12447911835E-01 -0.63812108354E-02  0.26829007054E-01  0.00000000000E+00 0.  1.
     999901    1    3    3    0    0  0.61974537662E-01 -0.66623654730E-01  0.11059778818E+00  0.89157805347E+00  0.88000000000E+00 0. -1.
        -11    1    4    4    0    0 -0.24380696048E-01  0.16384372733E-01 -0.45654586545E-01  0.54290592216E-01  0.51100000000E-03 0. -1.
         11    1    4    4    0    0 -0.14700059516E-01  0.37791370162E-01 -0.58561990796E-01  0.71232347255E-01  0.51100000000E-03 0.  1.
</event>
<event>
 8    1  0.1054833E+005  0.1043930E+01  0.7957747E-01            NaN
         13   -1    0    0    0    0  0.00000000000E+00  0.00000000000E+00  0.74505805969E-08  0.10566000000E+00  0.10566000000E+00 0.  1.
     999900   -1    0    0    0    0 -0.00000000000E+00 -0.00000000000E+00 -0.74505805969E-08  0.93827000000E+00  0.93827000000E+00 0. -1.
     999902    2    1    2    0    0 -0.18291965573E-01  0.30757850067E-02 -0.12319757499E-01  0.10216626948E+01  0.10214200062E+01 0.  0.
     999903    2    3    3    0    0 -0.58789238578E-01 -0.20180503970E-01 -0.11703981131E+00  0.13422414828E+00  0.21316126242E-01 0.  0.
         14    1    1    2    0    0  0.18291965573E-01 -0.30757850067E-02  0.12319757499E-01  0.22267305243E-01  0.00000000000E+00 0.  1.
     999901    1    3    3    0    0  0.40497273005E-01  0.23256288976E-01  0.10472005381E+00  0.88743854647E+00  0.88000000000E+00 0.  1.
        -11    1    4    4    0    0 -0.56397007160E-02  0.43356611332E-02 -0.11236067358E-01  0.13308437635E-01  0.51100000000E-03 0.  1.
         11    1    4    4    0    0 -0.53149537862E-01 -0.24516165103E-01 -0.10580374395E+00  0.12091571065E+00  0.51100000000E-03 0. -1.
</event>
<event>
 8    1  0.1054833E+005  0.1043930E+01  0.7957747E-01            NaN
         13   -1    0    0    0    0  0.00000000000E+00  0.00000000000E+00  0.74505805969E-08  0.10566000000E+00  0.10566000000E+00 0. -1.
     999900   -1    0    0    0    0 -0.00000000000E+00 -0.00000000000E+00 -0.74505805969E-08  0.93827000000E+00  0.93827000000E+00 0. -1.
     999902    2    1    2    0    0  0.18057751131E-01 -0.12120497838E-01  0.91862467212E-02  0.10203211887E+01  0.10200480146E+01 0.  0.
     999903    2    3    3    0    0  0.92462842574E-01 -0.30333156208E-01  0.89298061216E-01  0.13336813389E+00  0.18532074299E-01 0.  0.
         14    1    1    2    0    0 -0.18057751131E-01  0.12120497838E-01 -0.91862467212E-02  0.23608811333E-01  0.00000000000E+00 0.  1.
     999901    1    3    3    0    0 -0.74405091443E-01  0.18212658370E-01 -0.80111814495E-01  0.88695305478E+00  0.88000000000E+00 0. -1.
        -11    1    4    4    0    0  0.75249575253E-01 -0.18657735271E-01  0.63428161460E-01  0.10016986797E+00  0.51100000000E-03 0.  1.
         11    1    4    4    0    0  0.17213267321E-01 -0.11675420937E-01  0.25869899756E-01  0.33198265923E-01  0.51100000000E-03 0. -1.
</event>
<event>
 8    1  0.1054833E+005  0.1043930E+01  0.7957747E-01            NaN
         13   -1    0    0    0    0  0.00000000000E+00  0.00000000000E+00  0.74505805969E-08  0.10566000000E+00  0.10566000000E+00 0. -1.
     999900   -1    0    0    0    0 -0.00000000000E+00 -0.00000000000E+00 -0.74505805969E-08  0.93827000000E+00  0.93827000000E+00 0. -1.
     999902    2    1    2    0    0  0.21941123190E-01 -0.81985880026E-02 -0.88056857582E-02  0.10189066143E+01  0.10185992925E+01 0.  0.
     999903    2    3    3    0    0  0.34093657940E-01 -0.59677886144E-01  0.10811778917E+00  0.12959851173E+00  0.19557359297E-01 0.  0.
         14    1    1    2    0    0 -0.21941123190E-01  0.81985880026E-02  0.88056857582E-02  0.25023385737E-01  0.00000000000E+00 0.  1.
     999901    1    3    3    0    0 -0.12152534750E-01  0.51479298142E-01 -0.11692347492E+00  0.88930810253E+00  0.88000000000E+00 0. -1.
        -11    1    4    4    0    0  0.64377597475E-02 -0.90561696899E-02  0.68788738698E-02  0.13078187441E-01  0.51100000000E-03 0. -1.
         11    1    4    4    0    0  0.27655898193E-01 -0.50621716454E-01  0.10123891530E+00  0.11652032429E+00  0.51100000000E-03 0.  1.
</event>
<event>
 8    1  0.1054833E+005  0.1043930E+01  0.7957747E-01            NaN
         13   -1    0    0    0    0  0.00000000000E+00  0.00000000000E+00  0.74505805969E-08  0.10566000000E+00  0.10566000000E+00 0.  1.
     999900   -1    0    0    0    0 -0.00000000000E+00 -0.00000000000E+00 -0.74505805969E-08  0.93827000000E+00  0.93827000000E+00 0.  1.
     999902    2    1    2    0    0  0.67808078132E-02  0.22488460849E-01 -0.31386953913E-02  0.10202327083E+01  0.10199574586E+01 0.  0.
     999903    2    3    3    0    0 -0.73016842513E-01 -0.93753310474E-01  0.42123836856E-01  0.12786030215E+00  0.21276670788E-01 0.  0.
         14    1    1    2    0    0 -0.67808078132E-02 -0.22488460849E-01  0.31386953913E-02  0.23697291717E-01  0.00000000000E+00 0. -1.
     999901    1    3    3    0    0  0.79797650326E-01  0.11624177132E+00 -0.45262532248E-01  0.89237240613E+00  0.88000000000E+00 0.  1.
        -11    1    4    4    0    0 -0.12714521467E-01 -0.68312571530E-02  0.14381884669E-02  0.14513946310E-01  0.51100000000E-03 0. -1.
         11    1    4    4    0    0 -0.60302321046E-01 -0.86922053321E-01  0.40685648389E-01  0.11334635584E+00  0.51100000000E-03 0.  1.
</event>
<event>
 8    1  0.1054833E+005  0.1043930E+01  0.7957747E-01            NaN
         13   -1    0    0    0    0  0.00000000000E+00  0.00000000000E+00  0.74505805969E-08  0.10566000000E+00  0.10566000000E+00 0. -1.
     999900   -1    0    0    0    0 -0.00000000000E+00 -0.00000000000E+00 -0.74505805969E-08  0.93827000000E+00  0.93827000000E+00 0. -1.
     999902    2    1    2    0    0  0.22189983999E-01  0.66130941431E-02 -0.89243118351E-02  0.10191152514E+01  0.10188130957E+01 0.  0.
     999903    2    3    3    0    0  0.20712453129E-01  0.49799595120E-01  0.11582696964E+00  0.12926687156E+00  0.19622227092E-01 0.  0.
         14    1    1    2    0    0 -0.22189983999E-01 -0.66130941431E-02  0.89243118351E-02  0.24814748553E-01  0.00000000000E+00 0.  1.
     999901    1    3    3    0    0  0.14775308697E-02 -0.43186500976E-01 -0.12475128148E+00  0.88984837989E+00  0.88000000000E+00 0. -1.
        -11    1    4    4    0    0  0.95005825106E-02  0.81334407390E-02  0.14630120353E-01  0.19253972807E-01  0.51100000000E-03 0.  1.
         11    1    4    4    0    0  0.11211870618E-01  0.41666154381E-01  0.10119684929E+00  0.11001289875E+00  0.51100000000E-03 0. -1.
</event>
<event>
 8    1  0.1054833E+005  0.1043930E+01  0.7957747E-01            NaN
         13   -1    0    0    0    0  0.00000000000E+00  0.00000000000E+00  0.74505805969E-08  0.10566000000E+00  0.10566000000E+00 0.  1.
     999900   -1    0    0    0    0 -0.00000000000E+00 -0.00000000000E+00 -0.74505805969E-08  0.93827000000E+00  0.93827000000E+00 0.  1.
     999902    2    1    2    0    0 -0.14720133492E-01  0.28528172975E-02 -0.17946448793E-01  0.10205441940E+01  0.10202762156E+01 0.  0.
     999903    2    3    3    0    0 -0.24728197065E-01  0.76205204562E-01 -0.10444535219E+00  0.13320953656E+00  0.20426260188E-01 0.  0.
         14    1    1    2    0    0  0.14720133492E-01 -0.28528172975E-02  0.17946448793E-01  0.23385805969E-01  0.00000000000E+00 0.  1.
     999901    1    3    3    0    0  0.10008063573E-01 -0.73352387264E-01  0.86498903396E-01  0.88733465747E+00  0.88000000000E+00 0. -1.
        -11    1    4    4    0    0 -0.23149411292E-01  0.71004892516E-01 -0.85655924262E-01  0.11364325095E+00  0.51100000000E-03 0. -1.
         11    1    4    4    0    0 -0.15787857726E-02  0.52003120458E-02 -0.18789427926E-01  0.19566285613E-01  0.51100000000E-03 0.  1.
</event>
<event>
 8    1  0.1054833E+005  0.1043930E+01  0.7957747E-01            NaN
         13   -1    0    0    0    0  0.00000000000E+00  0.00000000000E+00  0.74505805969E-08  0.10566000000E+00  0.10566000000E+00 0.  1.
     999900   -1    0    0    0    0 -0.00000000000E+00 -0.00000000000E+00 -0.74505805969E-08  0.93827000000E+00  0.93827000000E+00 0. -1.
     999902    2    1    2    0    0 -0.86895032877E-02  0.19663909653E-01  0.15759598284E-01  0.10172740110E+01  0.10169247129E+01 0.  0.
     999903    2    3    3    0    0 -0.92509847175E-01 -0.24881042373E-01 -0.80931694692E-01  0.12690368979E+00  0.19428566134E-01 0.  0.
         14    1    1    2    0    0  0.86895032877E-02 -0.19663909653E-01 -0.15759598284E-01  0.26655988977E-01  0.00000000000E+00 0. -1.
     999901    1    3    3    0    0  0.83820343887E-01  0.44544952026E-01  0.96691292977E-01  0.89037032124E+00  0.88000000000E+00 0.  1.
        -11    1    4    4    0    0 -0.43840084342E-01 -0.16583889270E-01 -0.50510551956E-01  0.68909762431E-01  0.51100000000E-03 0.  1.
         11    1    4    4    0    0 -0.48669762833E-01 -0.82971531030E-02 -0.30421142737E-01  0.57993927356E-01  0.51100000000E-03 0. -1.
</event>
<event>
 8    1  0.1054833E+005  0.1043930E+01  0.7957747E-01            NaN
         13   -1    0    0    0    0  0.00000000000E+00  0.00000000000E+00  0.74505805969E-08  0.10566000000E+00  0.10566000000E+00 0. -1.
     999900   -1    0    0    0    0 -0.00000000000E+00 -0.00000000000E+00 -0.74505805969E-08  0.93827000000E+00  0.93827000000E+00 0. -1.
     999902    2    1    2    0    0 -0.92548162432E-02 -0.10592210207E-01  0.18564041141E-01  0.10206390111E+01  0.10203732262E+01 0.  0.
     999903    2    3    3    0    0  0.10877294630E+00 -0.49600036397E-01 -0.45826598524E-01  0.12957317867E+00  0.19935246221E-01 0.  0.
         14    1    1    2    0    0  0.92548162432E-02  0.10592210207E-01 -0.18564041141E-01  0.23290988907E-01  0.00000000000E+00 0.  1.
     999901    1    3    3    0    0 -0.11802776254E+00  0.39007826190E-01  0.64390639665E-01  0.89106583242E+00  0.88000000000E+00 0.  1.
        -11    1    4    4    0    0  0.16758695470E-01 -0.52646696437E-03 -0.42327240366E-02  0.17300523550E-01  0.51100000000E-03 0. -1.
         11    1    4    4    0    0  0.92014250826E-01 -0.49073569433E-01 -0.41593874487E-01  0.11227265512E+00  0.51100000000E-03 0.  1.
</event>
<event>
 8    1  0.1054833E+005  0.1043930E+01  0.7957747E-01            NaN
         13   -1    0    0    0    0  0.00000000000E+00  0.00000000000E+00  0.74505805969E-08  0.10566000000E+00  0.10566000000E+00 0. -1.
     999900   -1    0    0    0    0 -0.00000000000E+00 -0.00000000000E+00 -0.74505805969E-08  0.93827000000E+00  0.93827000000E+00 0. -1.
     999902    2    1    2    0    0  0.12275959275E-01  0.15196347543E-01 -0.14071441511E-01  0.10198544186E+01  0.10195702043E+01 0.  0.
     999903    2    3    3    0    0 -0.68943913969E-01  0.37426980005E-02  0.10578045020E+00  0.12795065143E+00  0.20361593657E-01 0.  0.
         14    1    1    2    0    0 -0.12275959275E-01 -0.15196347543E-01  0.14071441511E-01  0.24075581425E-01  0.00000000000E+00 0. -1.
     999901    1    3    3    0    0  0.81219873244E-01  0.11453649542E-01 -0.11985189171E+00  0.89190376714E+00  0.88000000000E+00 0. -1.
        -11    1    4    4    0    0 -0.46414630306E-01  0.12014257228E-01  0.68648415566E-01  0.83734857520E-01  0.51100000000E-03 0.  1.
         11    1    4    4    0    0 -0.22529283663E-01 -0.82715592272E-02  0.37132034631E-01  0.44215793911E-01  0.51100000000E-03 0. -1.
</event>
<event>
 8    1  0.1054833E+005  0.1043930E+01  0.7957747E-01            NaN
         13   -1    0    0    0    0  0.00000000000E+00  0.00000000000E+00  0.74505805969E-08  0.10566000000E+00  0.10566000000E+00 0. -1.
     999900   -1    0    0    0    0 -0.00000000000E+00 -0.00000000000E+00 -0.74505805969E-08  0.93827000000E+00  0.93827000000E+00 0. -1.
     999902    2    1    2    0    0  0.27884350841E-02 -0.74038284509E-02 -0.22241486541E-01  0.10203233109E+01  0.10200501865E+01 0.  0.
     999903    2    3    3    0    0  0.72789165647E-01 -0.72853648524E-01  0.76237982965E-01  0.12965952073E+00  0.19835436254E-01 0.  0.
         14    1    1    2    0    0 -0.27884350841E-02  0.74038284509E-02  0.22241486541E-01  0.23606689084E-01  0.00000000000E+00 0. -1.
     999901    1    3    3    0    0 -0.70000730563E-01  0.65449820073E-01 -0.98479469507E-01  0.89066379018E+00  0.88000000000E+00 0. -1.
        -11    1    4    4    0    0  0.43442831800E-01 -0.54999354256E-01  0.56593361006E-01  0.90084839092E-01  0.51100000000E-03 0.  1.
         11    1    4    4    0    0  0.29346333847E-01 -0.17854294269E-01  0.19644621960E-01  0.39574681642E-01  0.51100000000E-03 0. -1.
</event>
<event>
 8    1  0.1054833E+005  0.1043930E+01  0.7957747E-01            NaN
         13   -1    0    0    0    0  0.00000000000E+00  0.00000000000E+00  0.74505805969E-08  0.10566000000E+00  0.10566000000E+00 0.  1.
     999900   -1    0    0    0    0 -0.00000000000E+00 -0.00000000000E+00 -0.74505805969E-08  0.93827000000E+00  0.93827000000E+00 0. -1.
     999902    2    1    2    0    0 -0.60061444570E-02  0.11932442114E-02 -0.22239510606E-01  0.10208628494E+01  0.10206022065E+01 0.  0.
     999903    2    3    3    0    0 -0.12074144629E+00  0.48910372475E-01 -0.99931787513E-02  0.13204842198E+00  0.19136372143E-01 0.  0.
         14    1    1    2    0    0  0.60061444570E-02 -0.11932442114E-02  0.22239510606E-01  0.23067150560E-01  0.00000000000E+00 0.  1.
     999901    1    3    3    0    0  0.11473530183E+00 -0.47717128264E-01 -0.12246331854E-01  0.88881442746E+00  0.88000000000E+00 0.  1.
        -11    1    4    4    0    0 -0.92499553380E-01  0.45555676398E-01 -0.55615571827E-02  0.10326024921E+00  0.51100000000E-03 0. -1.
         11    1    4    4    0    0 -0.28241892907E-01  0.33546960774E-02 -0.44316215686E-02  0.28788172770E-01  0.51100000000E-03 0.  1.
</event>
<event>
 8    1  0.1054833E+005  0.1043930E+01  0.7957747E-01            NaN
         13   -1    0    0    0    0  0.00000000000E+00  0.00000000000E+00  0.74505805969E-08  0.10566000000E+00  0.10566000000E+00 0.  1.
     999900   -1    0    0    0    0 -0.00000000000E+00 -0.00000000000E+00 -0.74505805969E-08  0.93827000000E+00  0.93827000000E+00 0. -1.
     999902    2    1    2    0    0 -0.12778850001E-01 -0.16699690313E-01 -0.34405632817E-02  0.10226223455E+01  0.10224003352E+01 0.  0.
     999903    2    3    3    0    0 -0.58276564052E-01  0.95275748416E-01  0.66876278291E-01  0.13158194291E+00  0.19176677211E-01 0.  0.
         14    1    1    2    0    0  0.12778850001E-01  0.16699690313E-01  0.34405632817E-02  0.21307654483E-01  0.00000000000E+00 0.  1.
     999901    1    3    3    0    0  0.45497714051E-01 -0.11197543873E+00 -0.70316841573E-01  0.89104040260E+00  0.88000000000E+00 0.  1.
        -11    1    4    4    0    0 -0.15826771365E-01  0.14628025108E-01  0.18458240045E-01  0.28380161327E-01  0.51100000000E-03 0. -1.
         11    1    4    4    0    0 -0.42449792686E-01  0.80647723308E-01  0.48418038247E-01  0.10320178159E+00  0.51100000000E-03 0.  1.
</event>
<event>
 8    1  0.1086230E+005  0.1043930E+01  0.7957747E-01            NaN
         13   -1    0    0    0    0  0.00000000000E+00  0.00000000000E+00  0.74505805969E-08  0.10566000000E+00  0.10566000000E+00 0. -1.
     999900   -1    0    0    0    0 -0.00000000000E+00 -0.00000000000E+00 -0.74505805969E-08  0.93827000000E+00  0.93827000000E+00 0.  1.
     999902    2    1    2    0    0 -0.19746397010E-01 -0.95607920729E-02 -0.19084027578E-02  0.10219079442E+01  0.10216706297E+01 0.  0.
     999903    2    3    3    0    0 -0.52967068503E-01 -0.10946100170E-01 -0.12025443664E+00  0.13336345133E+00  0.19983822585E-01 0.  0.
         14    1    1    2    0    0  0.19746397010E-01  0.95607920729E-02  0.19084027578E-02  0.22022055786E-01  0.00000000000E+00 0.  1.
     999901    1    3    3    0    0  0.33220671492E-01  0.13853080967E-02  0.11834603388E+00  0.88854449288E+00  0.88000000000E+00 0.  1.
        -11    1    4    4    0    0 -0.30393899824E-01 -0.14593305741E-01 -0.58678714994E-01  0.67677222412E-01  0.51100000000E-03 0.  1.
         11    1    4    4    0    0 -0.22573168678E-01  0.36472055719E-02 -0.61575721646E-01  0.65686228922E-01  0.51100000000E-03 0. -1.
</event>
<event>
 8    1  0.1054833E+005  0.1043930E+01  0.7957747E-01            NaN
         13   -1    0    0    0    0  0.00000000000E+00  0.00000000000E+00  0.74505805969E-08  0.10566000000E+00  0.10566000000E+00 0.  1.
     999900   -1    0    0    0    0 -0.00000000000E+00 -0.00000000000E+00 -0.74505805969E-08  0.93827000000E+00  0.93827000000E+00 0.  1.
     999902    2    1    2    0    0  0.17496704700E-01  0.11596417272E-01 -0.41678138048E-02  0.10225294804E+01  0.10223055101E+01 0.  0.
     999903    2    3    3    0    0 -0.10566373435E-01 -0.84831989666E-01  0.97449902859E-01  0.13100711140E+00  0.18927888206E-01 0.  0.
         14    1    1    2    0    0 -0.17496704700E-01 -0.11596417272E-01  0.41678138048E-02  0.21400519639E-01  0.00000000000E+00 0. -1.
     999901    1    3    3    0    0  0.28063078135E-01  0.96428406938E-01 -0.10161771666E+00  0.89152236896E+00  0.88000000000E+00 0.  1.
        -11    1    4    4    0    0 -0.96212086387E-02 -0.61296368459E-01  0.82010856918E-01  0.10283897226E+00  0.51100000000E-03 0. -1.
         11    1    4    4    0    0 -0.94516479666E-03 -0.23535621207E-01  0.15439045941E-01  0.28168139140E-01  0.51100000000E-03 0.  1.
</event>
<event>
 8    1  0.1054833E+005  0.1043930E+01  0.7957747E-01            NaN
         13   -1    0    0    0    0  0.00000000000E+00  0.00000000000E+00  0.74505805969E-08  0.10566000000E+00  0.10566000000E+00 0.  1.
     999900   -1    0    0    0    0 -0.00000000000E+00 -0.00000000000E+00 -0.74505805969E-08  0.93827000000E+00  0.93827000000E+00 0.  1.
     999902    2    1    2    0    0 -0.15146372710E-01  0.56145210624E-02 -0.16252537409E-01  0.10210153666E+01  0.10207581978E+01 0.  0.
     999903    2    3    3    0    0 -0.18170801644E-03  0.12981672587E+00  0.11622559382E-01  0.13173073840E+00  0.19117746203E-01 0.  0.
         14    1    1    2    0    0  0.15146372710E-01 -0.56145210624E-02  0.16252537409E-01  0.22914633431E-01  0.00000000000E+00 0.  1.
     999901    1    3    3    0    0 -0.14964664694E-01 -0.12420220481E+00 -0.27875096791E-01  0.88928462816E+00  0.88000000000E+00 0.  1.
        -11    1    4    4    0    0  0.40204652286E-02  0.19624789336E-01  0.74488552604E-02  0.21378565500E-01  0.51100000000E-03 0.  1.
         11    1    4    4    0    0 -0.42021732451E-02  0.11019193654E+00  0.41737041213E-02  0.11035217290E+00  0.51100000000E-03 0. -1.
</event>
<event>
 8    1  0.1054833E+005  0.1043930E+01  0.7957747E-01            NaN
         13   -1    0    0    0    0  0.00000000000E+00  0.00000000000E+00  0.74505805969E-08  0.10566000000E+00  0.10566000000E+00 0. -1.
     999900   -1    0    0    0    0 -0.00000000000E+00 -0.00000000000E+00 -0.74505805969E-08  0.93827000000E+00  0.93827000000E+00 0.  1.
     999902    2    1    2    0    0  0.15378428918E-01  0.53952569314E-02 -0.22346996887E-01  0.10162714906E+01  0.10158950484E+01 0.  0.
     999903    2    3    3    0    0  0.15371289268E-01 -0.10971479330E+00 -0.61901779150E-01  0.12789380935E+00  0.15855087688E-01 0.  0.
         14    1    1    2    0    0 -0.15378428918E-01 -0.53952569314E-02  0.22346996887E-01  0.27658509418E-01  0.00000000000E+00 0. -1.
     999901    1    3    3    0    0  0.71396505221E-05  0.11511005023E+00  0.39554782263E-01  0.88837768123E+00  0.88000000000E+00 0. -1.
        -11    1    4    4    0    0  0.25415574599E-02 -0.40011595033E-01 -0.14542868534E-01  0.42651417299E-01  0.51100000000E-03 0. -1.
         11    1    4    4    0    0  0.12829731808E-01 -0.69703198264E-01 -0.47358910616E-01  0.85242392049E-01  0.51100000000E-03 0.  1.
</event>
<event>
 8    1  0.1054833E+005  0.1043930E+01  0.7957747E-01            NaN
         13   -1    0    0    0    0  0.00000000000E+00  0.00000000000E+00  0.74505805969E-08  0.10566000000E+00  0.10566000000E+00 0.  1.
     999900   -1    0    0    0    0 -0.00000000000E+00 -0.00000000000E+00 -0.74505805969E-08  0.93827000000E+00  0.93827000000E+00 0. -1.
     999902    2    1    2    0    0 -0.37964166713E-02  0.23208019118E-01  0.11265818470E-02  0.10203865483E+01  0.10201149023E+01 0.  0.
     999903    2    3    3    0    0  0.55161740549E-01 -0.10569218869E+00  0.42344284908E-01  0.12809162682E+00  0.20019241386E-01 0.  0.
         14    1    1    2    0    0  0.37964166713E-02 -0.23208019118E-01 -0.11265818470E-02  0.23543451693E-01  0.00000000000E+00 0. -1.
     999901    1    3    3    0    0 -0.58958157220E-01  0.12890020781E+00 -0.41217703061E-01  0.89229492149E+00  0.88000000000E+00 0.  1.
        -11    1    4    4    0    0  0.20920862417E-01 -0.27598518321E-01  0.49763103119E-02  0.34991220086E-01  0.51100000000E-03 0. -1.
         11    1    4    4    0    0  0.34240878131E-01 -0.78093670368E-01  0.37367974597E-01  0.93100406729E-01  0.51100000000E-03 0.  1.
</event>
<event>
 8    1  0.1054833E+005  0.1043930E+01  0.7957747E-01            NaN
         13   -1    0    0    0    0  0.00000000000E+00  0.00000000000E+00  0.74505805969E-08  0.10566000000E+00  0.10566000000E+00 0.  1.
     999900   -1    0    0    0    0 -0.00000000000E+00 -0.00000000000E+00 -0.74505805969E-08  0.93827000000E+00  0.93827000000E+00 0. -1.
     999902    2    1    2    0    0 -0.40689539468E-02 -0.23661442378E-01  0.47332394147E-02  0.10194591235E+01  0.10191653844E+01 0.  0.
     999903    2    3    3    0    0 -0.79056894480E-01 -0.60984617788E-01  0.83820361353E-01  0.13195082297E+00  0.20397316801E-01 0.  0.
         14    1    1    2    0    0  0.40689539468E-02  0.23661442378E-01 -0.47332394147E-02  0.24470876507E-01  0.00000000000E+00 0.  1.
     999901    1    3    3    0    0  0.74987940533E-01  0.37323175410E-01 -0.79087121938E-01  0.88750830053E+00  0.88000000000E+00 0. -1.
        -11    1    4    4    0    0 -0.45980360555E-01 -0.23423743808E-01  0.37922450186E-01  0.64040914109E-01  0.51100000000E-03 0. -1.
         11    1    4    4    0    0 -0.33076533925E-01 -0.37560873980E-01  0.45897911167E-01  0.67909908858E-01  0.51100000000E-03 0.  1.
</event>
<event>
 8    1  0.1054833E+005  0.1043930E+01  0.7957747E-01            NaN
         13   -1    0    0    0    0  0.00000000000E+00  0.00000000000E+00  0.74505805969E-08  0.10566000000E+00  0.10566000000E+00 0.  1.
     999900   -1    0    0    0    0 -0.00000000000E+00 -0.00000000000E+00 -0.74505805969E-08  0.93827000000E+00  0.93827000000E+00 0.  1.
     999902    2    1    2    0    0  0.16079495358E-01  0.10178014434E-01  0.13724877521E-01  0.10204669565E+01  0.10201971843E+01 0.  0.
     999903    2    3    3    0    0  0.12506049826E+00 -0.20780939768E-01 -0.31643265451E-01  0.13204499353E+00  0.19042278888E-01 0.  0.
         14    1    1    2    0    0 -0.16079495358E-01 -0.10178014434E-01 -0.13724877521E-01  0.23463043531E-01  0.00000000000E+00 0. -1.
     999901    1    3    3    0    0 -0.10898100290E+00  0.30958954201E-01  0.45368142971E-01  0.88842196294E+00  0.88000000000E+00 0. -1.
        -11    1    4    4    0    0  0.62059023242E-02  0.22302551542E-02  0.92343448656E-03  0.66784065436E-02  0.51100000000E-03 0. -1.
         11    1    4    4    0    0  0.11885459593E+00 -0.23011194922E-01 -0.32566699937E-01  0.12536658698E+00  0.51100000000E-03 0.  1.
</event>
<event>
 8    1  0.1054833E+005  0.1043930E+01  0.7957747E-01            NaN
         13   -1    0    0    0    0  0.00000000000E+00  0.00000000000E+00  0.74505805969E-08  0.10566000000E+00  0.10566000000E+00 0. -1.
     999900   -1    0    0    0    0 -0.00000000000E+00 -0.00000000000E+00 -0.74505805969E-08  0.93827000000E+00  0.93827000000E+00 0. -1.
     999902    2    1    2    0    0  0.56058888721E-03  0.19492713634E-01 -0.15279723549E-01  0.10191560198E+01  0.10188548682E+01 0.  0.
     999903    2    3    3    0    0 -0.69386242366E-01  0.37598295693E-01  0.99647369470E-01  0.12874678351E+00  0.20446357955E-01 0.  0.
         14    1    1    2    0    0 -0.56058888721E-03 -0.19492713634E-01  0.15279723549E-01  0.24773980230E-01  0.00000000000E+00 0. -1.
     999901    1    3    3    0    0  0.69946831253E-01 -0.18105582059E-01 -0.11492709302E+00  0.89040923626E+00  0.88000000000E+00 0. -1.
        -11    1    4    4    0    0 -0.38518182490E-01  0.13699639261E-01  0.63604976612E-01  0.75612066954E-01  0.51100000000E-03 0.  1.
         11    1    4    4    0    0 -0.30868059876E-01  0.23898656431E-01  0.36042392858E-01  0.53134716557E-01  0.51100000000E-03 0. -1.
</event>
<event>
 8    1  0.1054833E+005  0.1043930E+01  0.7957747E-01            NaN
         13   -1    0    0    0    0  0.00000000000E+00  0.00000000000E+00  0.74505805969E-08  0.10566000000E+00  0.10566000000E+00 0. -1.
     999900   -1    0    0    0    0 -0.00000000000E+00 -0.00000000000E+00 -0.74505805969E-08  0.93827000000E+00  0.93827000000E+00 0.  1.
     999902    2    1    2    0    0 -0.17776713601E-01 -0.15499552389E-01  0.66998248827E-03  0.10203355823E+01  0.10200627451E+01 0.  0.
     999903    2    3    3    0    0 -0.11531999422E+00  0.19740919206E-02 -0.62151762872E-01  0.13254811249E+00  0.20088862357E-01 0.  0.
         14    1    1    2    0    0  0.17776713601E-01  0.15499552389E-01 -0.66998248827E-03  0.23594417713E-01  0.00000000000E+00 0. -1.
     999901    1    3    3    0    0  0.97543280619E-01 -0.17473644309E-01  0.62821745360E-01  0.88778746980E+00  0.88000000000E+00 0. -1.
        -11    1    4    4    0    0 -0.90649629658E-01  0.97977269945E-02 -0.49051653181E-01  0.10353587114E+00  0.51100000000E-03 0.  1.
         11    1    4    4    0    0 -0.24670364561E-01 -0.78236350739E-02 -0.13100109690E-01  0.29012241352E-01  0.51100000000E-03 0. -1.
</event>
<event>
 8    1  0.1054833E+005  0.1043930E+01  0.7957747E-01            NaN
         13   -1    0    0    0    0  0.00000000000E+00  0.00000000000E+00  0.74505805969E-08  0.10566000000E+00  0.10566000000E+00 0. -1.
     999900   -1    0    0    0    0 -0.00000000000E+00 -0.00000000000E+00 -0.74505805969E-08  0.93827000000E+00  0.93827000000E+00 0.  1.
     999902    2    1    2    0    0 -0.34038140157E-02 -0.39051048955E-02  0.23915698908E-01  0.10194596823E+01  0.10191659567E+01 0.  0.
     999903    2    3    3    0    0 -0.23788095195E-01 -0.40457386413E-01 -0.11655020334E+00  0.12733734882E+00  0.20692436235E-01 0.  0.
         14    1    1    2    0    0  0.34038140157E-02  0.39051048955E-02 -0.23915698908E-01  0.24470317700E-01  0.00000000000E+00 0.  1.
     999901    1    3    3    0    0  0.20384281180E-01  0.36552281517E-01  0.14046590225E+00  0.89212233348E+00  0.88000000000E+00 0. -1.
        -11    1    4    4    0    0 -0.66952952247E-02 -0.27602230590E-02 -0.36529962990E-01  0.37244397250E-01  0.51100000000E-03 0.  1.
         11    1    4    4    0    0 -0.17092799971E-01 -0.37697163354E-01 -0.80020240349E-01  0.90092951568E-01  0.51100000000E-03 0. -1.
</event>
<event>
 8    1  0.1054833E+005  0.1043930E+01  0.7957747E-01            NaN
         13   -1    0    0    0    0  0.00000000000E+00  0.00000000000E+00  0.74505805969E-08  0.10566000000E+00  0.10566000000E+00 0.  1.
     999900   -1    0    0    0    0 -0.00000000000E+00 -0.00000000000E+00 -0.74505805969E-08  0.93827000000E+00  0.93827000000E+00 0.  1.
     999902    2    1    2    0    0 -0.23636496641E-01 -0.53340933048E-02  0.17478526353E-01  0.10140529953E+01  0.10136127672E+01 0.  0.
     999903    2    3    3    0    0  0.11242476543E-01 -0.48934946101E-01  0.11481234378E+00  0.12692761008E+00  0.20192119428E-01 0.  0.
         14    1    1    2    0    0  0.23636496641E-01  0.53340933048E-02 -0.17478526353E-01  0.29877004675E-01  0.00000000000E+00 0. -1.
     999901    1    3    3    0    0 -0.34878973184E-01  0.43600852796E-01 -0.97333817427E-01  0.88712538525E+00  0.88000000000E+00 0.  1.
        -11    1    4    4    0    0  0.16923571396E-01 -0.35767685799E-01  0.88834045854E-01  0.97249593521E-01  0.51100000000E-03 0.  1.
         11    1    4    4    0    0 -0.56810948534E-02 -0.13167260302E-01  0.25978297927E-01  0.29678016557E-01  0.51100000000E-03 0. -1.
</event>
<event>
 8    1  0.1054833E+005  0.1043930E+01  0.7957747E-01            NaN
         13   -1    0    0    0    0  0.00000000000E+00  0.00000000000E+00  0.74505805969E-08  0.10566000000E+00  0.10566000000E+00 0. -1.
     999900   -1    0    0    0    0 -0.00000000000E+00 -0.00000000000E+00 -0.74505805969E-08  0.93827000000E+00  0.93827000000E+00 0. -1.
     999902    2    1    2    0    0 -0.18675810344E-02 -0.23021761697E-01  0.66414634388E-02  0.10198967229E+01  0.10196135185E+01 0.  0.
     999903    2    3    3    0    0 -0.42755209181E-01  0.48242765613E-01 -0.10921237834E+00  0.12850873577E+00  0.20779298328E-01 0.  0.
         14    1    1    2    0    0  0.18675810344E-02  0.23021761697E-01 -0.66414634388E-02  0.24033277079E-01  0.00000000000E+00 0.  1.
     999901    1    3    3    0    0  0.40887628147E-01 -0.71264527310E-01  0.11585384178E+00  0.89138798715E+00  0.88000000000E+00 0.  1.
        -11    1    4    4    0    0 -0.35366089049E-01  0.28948828340E-01 -0.62505479578E-01  0.77433784714E-01  0.51100000000E-03 0. -1.
         11    1    4    4    0    0 -0.73891201319E-02  0.19293937273E-01 -0.46706898764E-01  0.51074951052E-01  0.51100000000E-03 0.  1.
</event>
<event>
 8    1  0.1054833E+005  0.1043930E+01  0.7957747E-01            NaN
         13   -1    0    0    0    0  0.00000000000E+00  0.00000000000E+00  0.74505805969E-08  0.10566000000E+00  0.10566000000E+00 0.  1.
     999900   -1    0    0    0    0 -0.00000000000E+00 -0.00000000000E+00 -0.74505805969E-08  0.93827000000E+00  0.93827000000E+00 0.  1.
     999902    2    1    2    0    0 -0.22241080072E-01 -0.13997472623E-01  0.13646684251E-01  0.10143187374E+01  0.10138864207E+01 0.  0.
     999903    2    3    3    0    0  0.93361510734E-01 -0.64833822317E-02 -0.76150139904E-01  0.12219548907E+00  0.19351687526E-01 0.  0.
         14    1    1    2    0    0  0.22241080072E-01  0.13997472623E-01 -0.13646684251E-01  0.29611262614E-01  0.00000000000E+00 0. -1.
     999901    1    3    3    0    0 -0.11560259081E+00 -0.75140903909E-02  0.89796824155E-01  0.89212324831E+00  0.88000000000E+00 0.  1.
        -11    1    4    4    0    0  0.57888392877E-01  0.51650026566E-02 -0.49145342985E-01  0.76113527973E-01  0.51100000000E-03 0.  1.
         11    1    4    4    0    0  0.35473117857E-01 -0.11648384888E-01 -0.27004796919E-01  0.46081961098E-01  0.51100000000E-03 0. -1.
</event>
<event>
 8    1  0.1054833E+005  0.1043930E+01  0.7957747E-01            NaN
         13   -1    0    0    0    0  0.00000000000E+00  0.00000000000E+00  0.74505805969E-08  0.10566000000E+00  0.10566000000E+00 0.  1.
     999900   -1    0    0    0    0 -0.00000000000E+00 -0.00000000000E+00 -0.74505805969E-08  0.93827000000E+00  0.93827000000E+00 0. -1.
     999902    2    1    2    0    0  0.42734663789E-02 -0.27122082599E-02 -0.23570546064E-01  0.10198221334E+01  0.10195371472E+01 0.  0.
     999903    2    3    3    0    0  0.13947865432E-01 -0.12243144048E+00 -0.40718577504E-01  0.13149767495E+00  0.21204607891E-01 0.  0.
         14    1    1    2    0    0 -0.42734663789E-02  0.27122082599E-02  0.23570546064E-01  0.24107866565E-01  0.00000000000E+00 0.  1.
     999901    1    3    3    0    0 -0.96743990532E-02  0.11971923222E+00  0.17148031440E-01  0.88832445848E+00  0.88000000000E+00 0.  1.
        -11    1    4    4    0    0  0.18283311625E-01 -0.86271264107E-01 -0.23841201918E-01  0.91354663398E-01  0.51100000000E-03 0. -1.
         11    1    4    4    0    0 -0.43354461924E-02 -0.36160176371E-01 -0.16877375586E-01  0.40143011553E-01  0.51100000000E-03 0.  1.
</event>
<event>
 8    1  0.1054833E+005  0.1043930E+01  0.7957747E-01            NaN
         13   -1    0    0    0    0  0.00000000000E+00  0.00000000000E+00  0.74505805969E-08  0.10566000000E+00  0.10566000000E+00 0.  1.
     999900   -1    0    0    0    0 -0.00000000000E+00 -0.00000000000E+00 -0.74505805969E-08  0.93827000000E+00  0.93827000000E+00 0.  1.
     999902    2    1    2    0    0 -0.98368772232E-02  0.84018116763E-02 -0.21197251014E-01  0.10190969969E+01  0.10187943909E+01 0.  0.
     999903    2    3    3    0    0 -0.45437344852E-01 -0.54147382092E-01  0.10401971507E+00  0.12732399689E+00  0.19869770126E-01 0.  0.
         14    1    1    2    0    0  0.98368772232E-02 -0.84018116763E-02  0.21197251014E-01  0.24833003111E-01  0.00000000000E+00 0.  1.
     999901    1    3    3    0    0  0.35600467629E-01  0.62549193769E-01 -0.12521696609E+00  0.89177300000E+00  0.88000000000E+00 0.  1.
        -11    1    4    4    0    0 -0.31781448390E-02 -0.14697749151E-01  0.15536519234E-01  0.21627967673E-01  0.51100000000E-03 0. -1.
         11    1    4    4    0    0 -0.42259200013E-01 -0.39449632941E-01  0.88483195838E-01  0.10569602921E+00  0.51100000000E-03 0.  1.
</event>
<event>
 8    1  0.1054833E+005  0.1043930E+01  0.7957747E-01            NaN
         13   -1    0    0    0    0  0.00000000000E+00  0.00000000000E+00  0.74505805969E-08  0.10566000000E+00  0.10566000000E+00 0.  1.
     999900   -1    0    0    0    0 -0.00000000000E+00 -0.00000000000E+00 -0.74505805969E-08  0.93827000000E+00  0.93827000000E+00 0. -1.
     999902    2    1    2    0    0 -0.38399996515E-02 -0.18640300215E-01 -0.14867029615E-01  0.10197797421E+01  0.10194937407E+01 0.  0.
     999903    2    3    3    0    0 -0.57917685927E-01  0.79047533879E-01  0.79546118527E-01  0.12771407652E+00  0.19502036114E-01 0.  0.
         14    1    1    2    0    0  0.38399996515E-02  0.18640300215E-01  0.14867029615E-01  0.24150257948E-01  0.00000000000E+00 0.  1.
     999901    1    3    3    0    0  0.54077686275E-01 -0.97687834094E-01 -0.94413148141E-01  0.89206566553E+00  0.88000000000E+00 0. -1.
        -11    1    4    4    0    0 -0.45766890137E-01  0.73371642064E-01  0.68006689527E-01  0.11001444011E+00  0.51100000000E-03 0. -1.
         11    1    4    4    0    0 -0.12150795790E-01  0.56758918157E-02  0.11539429000E-01  0.17699636405E-01  0.51100000000E-03 0.  1.
</event>
<event>
 8    1  0.1054833E+005  0.1043930E+01  0.7957747E-01            NaN
         13   -1    0    0    0    0  0.00000000000E+00  0.00000000000E+00  0.74505805969E-08  0.10566000000E+00  0.10566000000E+00 0. -1.
     999900   -1    0    0    0    0 -0.00000000000E+00 -0.00000000000E+00 -0.74505805969E-08  0.93827000000E+00  0.93827000000E+00 0. -1.
     999902    2    1    2    0    0 -0.12328496513E-01 -0.84274381146E-02  0.17030300442E-01  0.10212795105E+01  0.10210283022E+01 0.  0.
     999903    2    3    3    0    0  0.12205254351E+00 -0.39168733567E-01  0.14772052365E-01  0.13054476280E+00  0.19816874011E-01 0.  0.
         14    1    1    2    0    0  0.12328496513E-01  0.84274381146E-02 -0.17030300442E-01  0.22650489456E-01  0.00000000000E+00 0.  1.
     999901    1    3    3    0    0 -0.13438104002E+00  0.30741295452E-01  0.22582480764E-02  0.89073474775E+00  0.88000000000E+00 0. -1.
        -11    1    4    4    0    0  0.34899149766E-01 -0.20742643566E-02  0.29337660983E-02  0.35087338621E-01  0.51100000000E-03 0.  1.
         11    1    4    4    0    0  0.87153393745E-01 -0.37094469210E-01  0.11838286267E-01  0.95457424174E-01  0.51100000000E-03 0. -1.
</event>
<event>
 7    1  0.1054833E+005  0.1043930E+01  0.7957747E-01            NaN
         13   -1    0    0    0    0  0.00000000000E+00  0.00000000000E+00  0.74505805969E-08  0.10566000000E+00  0.10566000000E+00 0.  1.
     999900   -1    0    0    0    0 -0.00000000000E+00 -0.00000000000E+00 -0.74505805969E-08  0.93827000000E+00  0.93827000000E+00 0.  1.
     999902    2    1    2    0    0  0.99088620250E-02 -0.28793558532E-02 -0.24664523599E-01  0.10171939763E+01  0.10168425495E+01 0.  0.
         14    1    1    2    0    0 -0.99088620250E-02  0.28793558532E-02  0.24664523599E-01  0.26736023659E-01  0.00000000000E+00 0.  1.
     999901    1    3    3    0    0 -0.10775885891E+00 -0.49552292533E-01 -0.43990982227E-01  0.88904589751E+00  0.88000000000E+00 0.  1.
        -11    1    3    3    0    0  0.65989936048E-01  0.28100512675E-01  0.12550329610E-01  0.72815399240E-01  0.51100000000E-03 0.  1.
         11    1    3    3    0    0  0.51677784892E-01  0.18572424005E-01  0.67761290188E-02  0.55332679586E-01  0.51100000000E-03 0. -1.
</event>
<event>
 8    1  0.1054833E+005  0.1043930E+01  0.7957747E-01            NaN
         13   -1    0    0    0    0  0.00000000000E+00  0.00000000000E+00  0.74505805969E-08  0.10566000000E+00  0.10566000000E+00 0.  1.
     999900   -1    0    0    0    0 -0.00000000000E+00 -0.00000000000E+00 -0.74505805969E-08  0.93827000000E+00  0.93827000000E+00 0.  1.
     999902    2    1    2    0    0 -0.11809025113E-01 -0.97768036652E-02 -0.93936876858E-02  0.10259500019E+01  0.10257924381E+01 0.  0.
     999903    2    3    3    0    0 -0.11847839340E+00 -0.51160048978E-01 -0.44027576730E-01  0.13786755447E+00  0.20360617596E-01 0.  0.
         14    1    1    2    0    0  0.11809025113E-01  0.97768036652E-02  0.93936876858E-02  0.17979998119E-01  0.00000000000E+00 0.  1.
     999901    1    3    3    0    0  0.10666936829E+00  0.41383245313E-01  0.34633889044E-01  0.88808244741E+00  0.88000000000E+00 0. -1.
        -11    1    4    4    0    0 -0.71163445507E-01 -0.19863765785E-01 -0.26413050217E-01  0.78464740555E-01  0.51100000000E-03 0. -1.
         11    1    4    4    0    0 -0.47314947895E-01 -0.31296283194E-01 -0.17614526513E-01  0.59402813918E-01  0.51100000000E-03 0.  1.
</event>
<event>
 8    1  0.1054833E+005  0.1043930E+01  0.7957747E-01            NaN
         13   -1    0    0    0    0  0.00000000000E+00  0.00000000000E+00  0.74505805969E-08  0.10566000000E+00  0.10566000000E+00 0.  1.
     999900   -1    0    0    0    0 -0.00000000000E+00 -0.00000000000E+00 -0.74505805969E-08  0.93827000000E+00  0.93827000000E+00 0.  1.
     999902    2    1    2    0    0 -0.14139494911E-01 -0.16903556696E-01  0.83451987396E-02  0.10203652406E+01  0.10200930969E+01 0.  0.
     999903    2    3    3    0    0  0.78627959802E-02  0.96154319082E-01  0.84313909696E-01  0.12961419278E+00  0.19583844444E-01 0.  0.
         14    1    1    2    0    0  0.14139494911E-01  0.16903556696E-01 -0.83451987396E-02  0.23564759437E-01  0.00000000000E+00 0.  1.
     999901    1    3    3    0    0 -0.22002290891E-01 -0.11305787578E+00 -0.75968710956E-01  0.89075104778E+00  0.88000000000E+00 0.  1.
        -11    1    4    4    0    0 -0.50161420977E-02  0.56429289128E-01  0.49978408973E-01  0.75548188843E-01  0.51100000000E-03 0.  1.
         11    1    4    4    0    0  0.12878938078E-01  0.39725029954E-01  0.34335500723E-01  0.54066003938E-01  0.51100000000E-03 0. -1.
</event>
<event>
 8    1  0.1054833E+005  0.1043930E+01  0.7957747E-01            NaN
         13   -1    0    0    0    0  0.00000000000E+00  0.00000000000E+00  0.74505805969E-08  0.10566000000E+00  0.10566000000E+00 0. -1.
     999900   -1    0    0    0    0 -0.00000000000E+00 -0.00000000000E+00 -0.74505805969E-08  0.93827000000E+00  0.93827000000E+00 0.  1.
     999902    2    1    2    0    0  0.15425974690E-01 -0.14720005899E-02  0.94318565157E-02  0.10257892338E+01  0.10256288143E+01 0.  0.
     999903    2    3    3    0    0 -0.64525857623E-01  0.10902574195E+00 -0.39007653640E-01  0.13396613882E+00  0.19368288480E-01 0.  0.
         14    1    1    2    0    0 -0.15425974690E-01  0.14720005899E-02 -0.94318565157E-02  0.18140766197E-01  0.00000000000E+00 0.  1.
     999901    1    3    3    0    0  0.79951832314E-01 -0.11049774254E+00  0.48439510156E-01  0.89182309498E+00  0.88000000000E+00 0. -1.
        -11    1    4    4    0    0 -0.28151277839E-01  0.66210706933E-01 -0.23339163200E-01  0.75639472608E-01  0.51100000000E-03 0. -1.
         11    1    4    4    0    0 -0.36374579784E-01  0.42815035017E-01 -0.15668490440E-01  0.58326666214E-01  0.51100000000E-03 0.  1.
</event>
<event>
 7    1  0.1054833E+005  0.1043930E+01  0.7957747E-01            NaN
         13   -1    0    0    0    0  0.00000000000E+00  0.00000000000E+00  0.74505805969E-08  0.10566000000E+00  0.10566000000E+00 0.  1.
     999900   -1    0    0    0    0 -0.00000000000E+00 -0.00000000000E+00 -0.74505805969E-08  0.93827000000E+00  0.93827000000E+00 0.  1.
     999903    2    1    2    0    0 -0.32745443737E-01 -0.53250929180E-01 -0.82809172658E-01  0.10587229181E+00  0.21063180011E-01 0.  0.
         14    1    1    2    0    0  0.41860541507E-01 -0.81790318094E-02 -0.24787552311E-01  0.49331777245E-01  0.00000000000E+00 0. -1.
     999901    1    1    2    0    0 -0.91150977703E-02  0.61429960989E-01  0.10759672497E+00  0.88872593095E+00  0.88000000000E+00 0. -1.
        -11    1    3    3    0    0 -0.25789605796E-01 -0.40810387340E-01 -0.47221639139E-01  0.67533220017E-01  0.51100000000E-03 0. -1.
         11    1    3    3    0    0 -0.69558379407E-02 -0.12440541840E-01 -0.35587533519E-01  0.38339071790E-01  0.51100000000E-03 0.  1.
</event>
<event>
 8    1  0.1054833E+005  0.1043930E+01  0.7957747E-01            NaN
         13   -1    0    0    0    0  0.00000000000E+00  0.00000000000E+00  0.74505805969E-08  0.10566000000E+00  0.10566000000E+00 0.  1.
     999900   -1    0    0    0    0 -0.00000000000E+00 -0.00000000000E+00 -0.74505805969E-08  0.93827000000E+00  0.93827000000E+00 0. -1.
     999902    2    1    2    0    0  0.28161024769E-01 -0.16175629130E-01  0.96085240896E-02  0.10100623454E+01  0.10094943900E+01 0.  0.
     999903    2    3    3    0    0  0.69533565969E-01 -0.76698785006E-01 -0.65109015844E-01  0.12385839012E+00  0.19598378520E-01 0.  0.
         14    1    1    2    0    0 -0.28161024769E-01  0.16175629130E-01 -0.96085240896E-02  0.33867654613E-01  0.00000000000E+00 0. -1.
     999901    1    3    3    0    0 -0.41372541200E-01  0.60523155876E-01  0.74717539933E-01  0.88620395527E+00  0.88000000000E+00 0.  1.
        -11    1    4    4    0    0  0.39871438667E-01 -0.38275197739E-01 -0.24043554689E-01  0.60275003330E-01  0.51100000000E-03 0. -1.
         11    1    4    4    0    0  0.29662127302E-01 -0.38423587267E-01 -0.41065461154E-01  0.63583386788E-01  0.51100000000E-03 0.  1.
</event>
<event>
 8    1  0.1054833E+005  0.1043930E+01  0.7957747E-01            NaN
         13   -1    0    0    0    0  0.00000000000E+00  0.00000000000E+00  0.74505805969E-08  0.10566000000E+00  0.10566000000E+00 0. -1.
     999900   -1    0    0    0    0 -0.00000000000E+00 -0.00000000000E+00 -0.74505805969E-08  0.93827000000E+00  0.93827000000E+00 0.  1.
     999902    2    1    2    0    0  0.20777318077E-01 -0.70607085297E-02 -0.81825783849E-02  0.10205098134E+01  0.10202410373E+01 0.  0.
     999903    2    3    3    0    0 -0.98032592676E-01  0.28673095828E-01 -0.76381385197E-01  0.12919405739E+00  0.20602252494E-01 0.  0.
         14    1    1    2    0    0 -0.20777318077E-01  0.70607085297E-02  0.81825783849E-02  0.23420186601E-01  0.00000000000E+00 0.  1.
     999901    1    3    3    0    0  0.11880991075E+00 -0.35733804357E-01  0.68198806812E-01  0.89131575601E+00  0.88000000000E+00 0. -1.
        -11    1    4    4    0    0 -0.11941040789E-01  0.43326797775E-03 -0.17283387364E-01  0.21017915597E-01  0.51100000000E-03 0. -1.
         11    1    4    4    0    0 -0.86091551887E-01  0.28239827850E-01 -0.59097997834E-01  0.10817614179E+00  0.51100000000E-03 0.  1.
</event>
<event>
 8    1  0.1054833E+005  0.1043930E+01  0.7957747E-01            NaN
         13   -1    0    0    0    0  0.00000000000E+00  0.00000000000E+00  0.74505805969E-08  0.10566000000E+00  0.10566000000E+00 0.  1.
     999900   -1    0    0    0    0 -0.00000000000E+00 -0.00000000000E+00 -0.74505805969E-08  0.93827000000E+00  0.93827000000E+00 0.  1.
     999902    2    1    2    0    0  0.73226986824E-02 -0.18210514729E-01  0.12146410093E-01  0.10208479715E+01  0.10205869884E+01 0.  0.
     999903    2    3    3    0    0 -0.84102752672E-01  0.93016624370E-01 -0.20960424498E-01  0.12853291942E+00  0.18868136189E-01 0.  0.
         14    1    1    2    0    0 -0.73226986824E-02  0.18210514729E-01 -0.12146410093E-01  0.23082028525E-01  0.00000000000E+00 0. -1.
     999901    1    3    3    0    0  0.91425451355E-01 -0.11122713910E+00  0.33106834592E-01  0.89231505206E+00  0.88000000000E+00 0. -1.
        -11    1    4    4    0    0 -0.40588805108E-01  0.33776740516E-01 -0.14399141057E-01  0.54734958519E-01  0.51100000000E-03 0. -1.
         11    1    4    4    0    0 -0.43513947564E-01  0.59239883854E-01 -0.65612834415E-02  0.73797960900E-01  0.51100000000E-03 0.  1.
</event>
<event>
 8    1  0.1054833E+005  0.1043930E+01  0.7957747E-01            NaN
         13   -1    0    0    0    0  0.00000000000E+00  0.00000000000E+00  0.74505805969E-08  0.10566000000E+00  0.10566000000E+00 0. -1.
     999900   -1    0    0    0    0 -0.00000000000E+00 -0.00000000000E+00 -0.74505805969E-08  0.93827000000E+00  0.93827000000E+00 0. -1.
     999902    2    1    2    0    0 -0.19338698710E-02  0.51486129484E-02 -0.21427783156E-01  0.10218076593E+01  0.10215681547E+01 0.  0.
     999903    2    3    3    0    0 -0.25621931050E-01 -0.93540774581E-01  0.83644599586E-01  0.12976454089E+00  0.20881981995E-01 0.  0.
         14    1    1    2    0    0  0.19338698710E-02 -0.51486129484E-02  0.21427783156E-01  0.22122340721E-01  0.00000000000E+00 0. -1.
     999901    1    3    3    0    0  0.23688061179E-01  0.98689387530E-01 -0.10507238274E+00  0.89204311839E+00  0.88000000000E+00 0. -1.
        -11    1    4    4    0    0 -0.38731072047E-02 -0.53334652355E-01  0.46292983118E-01  0.70731092938E-01  0.51100000000E-03 0.  1.
         11    1    4    4    0    0 -0.21748823845E-01 -0.40206122226E-01  0.37351616468E-01  0.59033447951E-01  0.51100000000E-03 0. -1.
</event>
<event>
 8    1  0.1054833E+005  0.1043930E+01  0.7957747E-01            NaN
         13   -1    0    0    0    0  0.00000000000E+00  0.00000000000E+00  0.74505805969E-08  0.10566000000E+00  0.10566000000E+00 0. -1.
     999900   -1    0    0    0    0 -0.00000000000E+00 -0.00000000000E+00 -0.74505805969E-08  0.93827000000E+00  0.93827000000E+00 0.  1.
     999902    2    1    2    0    0 -0.13185584789E-01 -0.18002901677E-01 -0.74142078358E-02  0.10204154387E+01  0.10201444667E+01 0.  0.
     999903    2    3    3    0    0  0.11536506819E+00 -0.39370219955E-01  0.39401178950E-01  0.12958800698E+00  0.19531653104E-01 0.  0.
         14    1    1    2    0    0  0.13185584789E-01  0.18002901677E-01  0.74142078358E-02  0.23514561294E-01  0.00000000000E+00 0.  1.
     999901    1    3    3    0    0 -0.12855065298E+00  0.21367318278E-01 -0.46815386786E-01  0.89082743172E+00  0.88000000000E+00 0.  1.
        -11    1    4    4    0    0  0.82328761196E-01 -0.20577974381E-01  0.32941974519E-01  0.91032481873E-01  0.51100000000E-03 0.  1.
         11    1    4    4    0    0  0.33036306994E-01 -0.18792245575E-01  0.64592044317E-02  0.38555525109E-01  0.51100000000E-03 0. -1.
</event>
<event>
 8    1  0.1054833E+005  0.1043930E+01  0.7957747E-01            NaN
         13   -1    0    0    0    0  0.00000000000E+00  0.00000000000E+00  0.74505805969E-08  0.10566000000E+00  0.10566000000E+00 0. -1.
     999900   -1    0    0    0    0 -0.00000000000E+00 -0.00000000000E+00 -0.74505805969E-08  0.93827000000E+00  0.93827000000E+00 0.  1.
     999902    2    1    2    0    0  0.11225611523E-01  0.12668048651E-01 -0.15443318785E-01  0.10210173418E+01  0.10207602179E+01 0.  0.
     999903    2    3    3    0    0  0.93977313224E-01  0.48564172214E-01  0.74405067171E-01  0.13185531591E+00  0.25680655955E-01 0.  0.
         14    1    1    2    0    0 -0.11225611523E-01 -0.12668048651E-01  0.15443318785E-01  0.22912658200E-01  0.00000000000E+00 0. -1.
     999901    1    3    3    0    0 -0.82751701701E-01 -0.35896123563E-01 -0.89848385955E-01  0.88916202589E+00  0.88000000000E+00 0.  1.
        -11    1    4    4    0    0  0.22361396215E-01  0.81528143343E-02  0.30325180238E-01  0.38553574409E-01  0.51100000000E-03 0.  1.
         11    1    4    4    0    0  0.71615917009E-01  0.40411357879E-01  0.44079886933E-01  0.93301741504E-01  0.51100000000E-03 0. -1.
</event>
<event>
 8    1  0.1054833E+005  0.1043930E+01  0.7957747E-01            NaN
         13   -1    0    0    0    0  0.00000000000E+00  0.00000000000E+00  0.74505805969E-08  0.10566000000E+00  0.10566000000E+00 0. -1.
     999900   -1    0    0    0    0 -0.00000000000E+00 -0.00000000000E+00 -0.74505805969E-08  0.93827000000E+00  0.93827000000E+00 0. -1.
     999902    2    1    2    0    0  0.17421709272E-01  0.39330051693E-02  0.16225028238E-01  0.10198004326E+01  0.10195149269E+01 0.  0.
     999903    2    3    3    0    0  0.84646414025E-01 -0.29041134801E-01 -0.92162212702E-01  0.12999469599E+00  0.19908405678E-01 0.  0.
         14    1    1    2    0    0 -0.17421709272E-01 -0.39330051693E-02 -0.16225028238E-01  0.24129567442E-01  0.00000000000E+00 0.  1.
     999901    1    3    3    0    0 -0.67224704754E-01  0.32974139970E-01  0.10838724094E+00  0.88980573657E+00  0.88000000000E+00 0.  1.
        -11    1    4    4    0    0  0.70569296182E-01 -0.30955270905E-01 -0.73117838496E-01  0.10622962764E+00  0.51100000000E-03 0. -1.
         11    1    4    4    0    0  0.14077117844E-01  0.19141361037E-02 -0.19044374206E-01  0.23765068351E-01  0.51100000000E-03 0.  1.
</event>
<event>
 8    1  0.1054833E+005  0.1043930E+01  0.7957747E-01            NaN
         13   -1    0    0    0    0  0.00000000000E+00  0.00000000000E+00  0.74505805969E-08  0.10566000000E+00  0.10566000000E+00 0. -1.
     999900   -1    0    0    0    0 -0.00000000000E+00 -0.00000000000E+00 -0.74505805969E-08  0.93827000000E+00  0.93827000000E+00 0.  1.
     999902    2    1    2    0    0  0.16387463520E-01 -0.16976181507E-01  0.54534473940E-02  0.10197126552E+01  0.10194250436E+01 0.  0.
     999903    2    3    3    0    0 -0.19492092230E-01 -0.11255407331E+00  0.62756468567E-01  0.13195924794E+00  0.20652062645E-01 0.  0.
         14    1    1    2    0    0 -0.16387463520E-01  0.16976181507E-01 -0.54534473940E-02  0.24217344769E-01  0.00000000000E+00 0.  1.
     999901    1    3    3    0    0  0.35879555751E-01  0.95577891803E-01 -0.57303021173E-01  0.88775340729E+00  0.88000000000E+00 0.  1.
        -11    1    4    4    0    0  0.43013094994E-02 -0.22332392776E-01  0.11223037476E-01  0.25366409318E-01  0.51100000000E-03 0.  1.
         11    1    4    4    0    0 -0.23793401730E-01 -0.90221680534E-01  0.51533431092E-01  0.10659283862E+00  0.51100000000E-03 0. -1.
</event>
<event>
 8    1  0.1054833E+005  0.1043930E+01  0.7957747E-01            NaN
         13   -1    0    0    0    0  0.00000000000E+00  0.00000000000E+00  0.74505805969E-08  0.10566000000E+00  0.10566000000E+00 0.  1.
     999900   -1    0    0    0    0 -0.00000000000E+00 -0.00000000000E+00 -0.74505805969E-08  0.93827000000E+00  0.93827000000E+00 0.  1.
     999902    2    1    2    0    0 -0.93731628220E-02  0.21895480584E-01  0.26403650060E-03  0.10201111426E+01  0.10198330282E+01 0.  0.
     999903    2    3    3    0    0 -0.68014145675E-01 -0.10303540772E+00 -0.30711269234E-01  0.12881660024E+00  0.20206810328E-01 0.  0.
         14    1    1    2    0    0  0.93731628220E-02 -0.21895480584E-01 -0.26403650060E-03  0.23818857373E-01  0.00000000000E+00 0. -1.
     999901    1    3    3    0    0  0.58640982853E-01  0.12493088830E+00  0.30975305734E-01  0.89129454239E+00  0.88000000000E+00 0.  1.
        -11    1    4    4    0    0 -0.23736889436E-01 -0.49811067989E-01 -0.20335005372E-01  0.58807788419E-01  0.51100000000E-03 0. -1.
         11    1    4    4    0    0 -0.44277256240E-01 -0.53224339731E-01 -0.10376263862E-01  0.70008811821E-01  0.51100000000E-03 0.  1.
</event>
<event>
 8    1  0.1054833E+005  0.1043930E+01  0.7957747E-01            NaN
         13   -1    0    0    0    0  0.00000000000E+00  0.00000000000E+00  0.74505805969E-08  0.10566000000E+00  0.10566000000E+00 0. -1.
     999900   -1    0    0    0    0 -0.00000000000E+00 -0.00000000000E+00 -0.74505805969E-08  0.93827000000E+00  0.93827000000E+00 0.  1.
     999902    2    1    2    0    0 -0.18262287979E-01 -0.27833318432E-02 -0.15485898597E-01  0.10198245825E+01  0.10195396549E+01 0.  0.
     999903    2    3    3    0    0 -0.75508888721E-01  0.10429590437E+00  0.14928827436E-01  0.13096678076E+00  0.18713626842E-01 0.  0.
         14    1    1    2    0    0  0.18262287979E-01  0.27833318432E-02  0.15485898597E-01  0.24105417518E-01  0.00000000000E+00 0. -1.
     999901    1    3    3    0    0  0.57246600742E-01 -0.10707923621E+00 -0.30414726034E-01  0.88885780172E+00  0.88000000000E+00 0.  1.
        -11    1    4    4    0    0 -0.39708106656E-02  0.15877238789E-01  0.21824527401E-02  0.16519027509E-01  0.51100000000E-03 0.  1.
         11    1    4    4    0    0 -0.71538078055E-01  0.88418665580E-01  0.12746374696E-01  0.11444775325E+00  0.51100000000E-03 0. -1.
</event>
<event>
 8    1  0.1054833E+005  0.1043930E+01  0.7957747E-01            NaN
         13   -1    0    0    0    0  0.00000000000E+00  0.00000000000E+00  0.74505805969E-08  0.10566000000E+00  0.10566000000E+00 0. -1.
     999900   -1    0    0    0    0 -0.00000000000E+00 -0.00000000000E+00 -0.74505805969E-08  0.93827000000E+00  0.93827000000E+00 0.  1.
     999902    2    1    2    0    0  0.11037265770E-01 -0.19873736249E-01  0.56465746099E-02  0.10205062848E+01  0.10202374267E+01 0.  0.
     999903    2    3    3    0    0 -0.77901159784E-01 -0.10441773709E+00 -0.91691777387E-02  0.13186842937E+00  0.18263469823E-01 0.  0.
         14    1    1    2    0    0 -0.11037265770E-01  0.19873736249E-01 -0.56465746099E-02  0.23423715183E-01  0.00000000000E+00 0. -1.
     999901    1    3    3    0    0  0.88938425554E-01  0.84544000837E-01  0.14815752349E-01  0.88863785545E+00  0.88000000000E+00 0.  1.
        -11    1    4    4    0    0 -0.14779092121E-01 -0.29255590868E-01 -0.78459437473E-02  0.33706544101E-01  0.51100000000E-03 0.  1.
         11    1    4    4    0    0 -0.63122067663E-01 -0.75162146218E-01 -0.13232339914E-02  0.98161885267E-01  0.51100000000E-03 0. -1.
</event>
<event>
 8    1  0.1054833E+005  0.1043930E+01  0.7957747E-01            NaN
         13   -1    0    0    0    0  0.00000000000E+00  0.00000000000E+00  0.74505805969E-08  0.10566000000E+00  0.10566000000E+00 0.  1.
     999900   -1    0    0    0    0 -0.00000000000E+00 -0.00000000000E+00 -0.74505805969E-08  0.93827000000E+00  0.93827000000E+00 0.  1.
     999902    2    1    2    0    0 -0.49446022228E-02 -0.86202681837E-03  0.23632478440E-01  0.10197704011E+01  0.10194841758E+01 0.  0.
     999903    2    3    3    0    0 -0.10826732556E+00 -0.70367066291E-01  0.32829290187E-02  0.13077060368E+00  0.20416546271E-01 0.  0.
         14    1    1    2    0    0  0.49446022228E-02  0.86202681837E-03 -0.23632478440E-01  0.24159598892E-01  0.00000000000E+00 0. -1.
     999901    1    3    3    0    0  0.10332272333E+00  0.69505039473E-01  0.20349549422E-01  0.88899979743E+00  0.88000000000E+00 0.  1.
        -11    1    4    4    0    0 -0.26951762562E-01 -0.18491861764E-01 -0.80111329047E-02  0.33656883815E-01  0.51100000000E-03 0. -1.
         11    1    4    4    0    0 -0.81315562995E-01 -0.51875204527E-01  0.11294061923E-01  0.97113719863E-01  0.51100000000E-03 0.  1.
</event>
<event>
 8    1  0.1054833E+005  0.1043930E+01  0.7957747E-01            NaN
         13   -1    0    0    0    0  0.00000000000E+00  0.00000000000E+00  0.74505805969E-08  0.10566000000E+00  0.10566000000E+00 0.  1.
     999900   -1    0    0    0    0 -0.00000000000E+00 -0.00000000000E+00 -0.74505805969E-08  0.93827000000E+00  0.93827000000E+00 0. -1.
     999902    2    1    2    0    0  0.22396376918E-01  0.63093803966E-02  0.27700966064E-02  0.10204975564E+01  0.10202284955E+01 0.  0.
     999903    2    3    3    0    0 -0.84355128568E-01 -0.89170759168E-01 -0.32653608649E-01  0.12821554944E+00  0.17485907272E-01 0.  0.
         14    1    1    2    0    0 -0.22396376918E-01 -0.63093803966E-02 -0.27700966064E-02  0.23432443646E-01  0.00000000000E+00 0.  1.
     999901    1    3    3    0    0  0.10675150549E+00  0.95480139564E-01  0.35423705256E-01  0.89228200692E+00  0.88000000000E+00 0.  1.
        -11    1    4    4    0    0 -0.42907552435E-01 -0.39373133965E-01 -0.75237476526E-02  0.58721117445E-01  0.51100000000E-03 0.  1.
         11    1    4    4    0    0 -0.41447576133E-01 -0.49797625202E-01 -0.25129860997E-01  0.69494431991E-01  0.51100000000E-03 0. -1.
</event>
<event>
 8    1  0.1054833E+005  0.1043930E+01  0.7957747E-01            NaN
         13   -1    0    0    0    0  0.00000000000E+00  0.00000000000E+00  0.74505805969E-08  0.10566000000E+00  0.10566000000E+00 0. -1.
     999900   -1    0    0    0    0 -0.00000000000E+00 -0.00000000000E+00 -0.74505805969E-08  0.93827000000E+00  0.93827000000E+00 0. -1.
     999902    2    1    2    0    0 -0.19658822756E-01 -0.14180440736E-01 -0.23245488290E-02  0.10195792764E+01  0.10192884494E+01 0.  0.
     999903    2    3    3    0    0  0.28383130608E-01 -0.79209055811E-01  0.97473685180E-01  0.13025569213E+00  0.19640504174E-01 0.  0.
         14    1    1    2    0    0  0.19658822756E-01  0.14180440736E-01  0.23245488290E-02  0.24350723581E-01  0.00000000000E+00 0. -1.
     999901    1    3    3    0    0 -0.48041953364E-01  0.65028615075E-01 -0.99798234009E-01  0.88932358429E+00  0.88000000000E+00 0. -1.
        -11    1    4    4    0    0  0.61490276192E-02 -0.32978436890E-01  0.50922798544E-01  0.60981803621E-01  0.51100000000E-03 0. -1.
         11    1    4    4    0    0  0.22234102989E-01 -0.46230618922E-01  0.46550886636E-01  0.69273888509E-01  0.51100000000E-03 0.  1.
</event>
<event>
 7    1  0.1054833E+005  0.1043930E+01  0.7957747E-01            NaN
         13   -1    0    0    0    0  0.00000000000E+00  0.00000000000E+00  0.74505805969E-08  0.10566000000E+00  0.10566000000E+00 0. -1.
     999900   -1    0    0    0    0 -0.00000000000E+00 -0.00000000000E+00 -0.74505805969E-08  0.93827000000E+00  0.93827000000E+00 0.  1.
     999903    2    1    2    0    0 -0.38048773215E-01 -0.77739717391E-01  0.64695301260E-01  0.10999662143E+00  0.20557283788E-01 0.  0.
         14    1    1    2    0    0 -0.40932106612E-01  0.15369595240E-01 -0.17009989094E-01  0.46914832820E-01  0.00000000000E+00 0.  1.
     999901    1    1    2    0    0  0.78980879827E-01  0.62370122151E-01 -0.47685312166E-01  0.88701854575E+00  0.88000000000E+00 0.  1.
        -11    1    3    3    0    0 -0.18734352413E-01 -0.17592875213E-01  0.16614576307E-01  0.30607033268E-01  0.51100000000E-03 0. -1.
         11    1    3    3    0    0 -0.19314420803E-01 -0.60146842178E-01  0.48080724954E-01  0.79389588159E-01  0.51100000000E-03 0.  1.
</event>
<event>
 8    1  0.1054833E+005  0.1043930E+01  0.7957747E-01            NaN
         13   -1    0    0    0    0  0.00000000000E+00  0.00000000000E+00  0.74505805969E-08  0.10566000000E+00  0.10566000000E+00 0. -1.
     999900   -1    0    0    0    0 -0.00000000000E+00 -0.00000000000E+00 -0.74505805969E-08  0.93827000000E+00  0.93827000000E+00 0.  1.
     999902    2    1    2    0    0  0.68285930373E-03 -0.24036066917E-01 -0.81444278794E-02  0.10185423945E+01  0.10182259468E+01 0.  0.
     999903    2    3    3    0    0  0.10933489661E+00 -0.55206151370E-01 -0.41631858880E-01  0.13068077945E+00  0.18504477210E-01 0.  0.
         14    1    1    2    0    0 -0.68285930373E-03  0.24036066917E-01  0.81444278794E-02  0.25387605542E-01  0.00000000000E+00 0. -1.
     999901    1    3    3    0    0 -0.10865203731E+00  0.31170084453E-01  0.33487431000E-01  0.88786161501E+00  0.88000000000E+00 0. -1.
        -11    1    4    4    0    0  0.10506179705E+00 -0.56354318000E-01 -0.41451238766E-01  0.12622304335E+00  0.51100000000E-03 0. -1.
         11    1    4    4    0    0  0.42730995576E-02  0.11481666299E-02 -0.18062011346E-03  0.44577360918E-02  0.51100000000E-03 0.  1.
</event>
<event>
 8    1  0.1054833E+005  0.1043930E+01  0.7957747E-01            NaN
         13   -1    0    0    0    0  0.00000000000E+00  0.00000000000E+00  0.74505805969E-08  0.10566000000E+00  0.10566000000E+00 0.  1.
     999900   -1    0    0    0    0 -0.00000000000E+00 -0.00000000000E+00 -0.74505805969E-08  0.93827000000E+00  0.93827000000E+00 0.  1.
     999902    2    1    2    0    0 -0.17449616177E-01  0.15230761771E-01  0.82921853008E-02  0.10193286678E+01  0.10190317500E+01 0.  0.
     999903    2    3    3    0    0  0.10587428301E+00 -0.55513426711E-01 -0.40568620054E-01  0.12657959745E+00  0.92453885230E-02 0.  0.
         14    1    1    2    0    0  0.17449616177E-01 -0.15230761771E-01 -0.82921853008E-02  0.24601332198E-01  0.00000000000E+00 0. -1.
     999901    1    3    3    0    0 -0.12332389919E+00  0.70744188482E-01  0.48860805355E-01  0.89274907035E+00  0.88000000000E+00 0. -1.
        -11    1    4    4    0    0  0.49342138132E-01 -0.30476545068E-01 -0.21864415858E-01  0.61982095774E-01  0.51100000000E-03 0. -1.
         11    1    4    4    0    0  0.56532144880E-01 -0.25036881643E-01 -0.18704204196E-01  0.64597501676E-01  0.51100000000E-03 0.  1.
</event>
<event>
 8    1  0.1054833E+005  0.1043930E+01  0.7957747E-01            NaN
         13   -1    0    0    0    0  0.00000000000E+00  0.00000000000E+00  0.74505805969E-08  0.10566000000E+00  0.10566000000E+00 0.  1.
     999900   -1    0    0    0    0 -0.00000000000E+00 -0.00000000000E+00 -0.74505805969E-08  0.93827000000E+00  0.93827000000E+00 0. -1.
     999902    2    1    2    0    0  0.22091771829E-01 -0.13326399618E-02 -0.57502866894E-02  0.10210632532E+01  0.10208071703E+01 0.  0.
     999903    2    3    3    0    0  0.11521168595E+00 -0.59080133625E-01 -0.28588082006E-01  0.13397382349E+00  0.19170607117E-01 0.  0.
         14    1    1    2    0    0 -0.22091771829E-01  0.13326399618E-02  0.57502866894E-02  0.22866746792E-01  0.00000000000E+00 0.  1.
     999901    1    3    3    0    0 -0.93119914124E-01  0.57747493663E-01  0.22837795317E-01  0.88708942972E+00  0.88000000000E+00 0.  1.
        -11    1    4    4    0    0  0.35621057265E-01 -0.27545086775E-01 -0.59788724180E-02  0.45426859484E-01  0.51100000000E-03 0. -1.
         11    1    4    4    0    0  0.79590628688E-01 -0.31535046850E-01 -0.22609209588E-01  0.88546964002E-01  0.51100000000E-03 0.  1.
</event>
<event>
 8    1  0.1054833E+005  0.1043930E+01  0.7957747E-01            NaN
         13   -1    0    0    0    0  0.00000000000E+00  0.00000000000E+00  0.74505805969E-08  0.10566000000E+00  0.10566000000E+00 0.  1.
     999900   -1    0    0    0    0 -0.00000000000E+00 -0.00000000000E+00 -0.74505805969E-08  0.93827000000E+00  0.93827000000E+00 0.  1.
     999902    2    1    2    0    0 -0.22927669578E-01 -0.80660300888E-02 -0.91874309039E-03  0.10196075215E+01  0.10193173769E+01 0.  0.
     999903    2    3    3    0    0  0.31613552167E-01 -0.80156994158E-01 -0.95193747716E-01  0.12996735349E+00  0.20127170064E-01 0.  0.
         14    1    1    2    0    0  0.22927669578E-01  0.80660300888E-02  0.91874309039E-03  0.24322478544E-01  0.00000000000E+00 0.  1.
     999901    1    3    3    0    0 -0.54541221745E-01  0.72090964069E-01  0.94275004625E-01  0.88964016797E+00  0.88000000000E+00 0. -1.
        -11    1    4    4    0    0  0.27075901277E-01 -0.48969412238E-01 -0.69987056425E-01  0.89607795157E-01  0.51100000000E-03 0.  1.
         11    1    4    4    0    0  0.45376508892E-02 -0.31187581920E-01 -0.25206691291E-01  0.40359558328E-01  0.51100000000E-03 0. -1.
</event>
<event>
 8    1  0.1054833E+005  0.1043930E+01  0.7957747E-01            NaN
         13   -1    0    0    0    0  0.00000000000E+00  0.00000000000E+00  0.74505805969E-08  0.10566000000E+00  0.10566000000E+00 0. -1.
     999900   -1    0    0    0    0 -0.00000000000E+00 -0.00000000000E+00 -0.74505805969E-08  0.93827000000E+00  0.93827000000E+00 0.  1.
     999902    2    1    2    0    0  0.23431553110E-01  0.25536300530E-02  0.39777890860E-02  0.10200264121E+01  0.10197462919E+01 0.  0.
     999903    2    3    3    0    0 -0.12468907994E+00 -0.93978341765E-03 -0.16820968169E-01  0.12739854219E+00  0.19979833156E-01 0.  0.
         14    1    1    2    0    0 -0.23431553110E-01 -0.25536300530E-02 -0.39777890860E-02  0.23903587881E-01  0.00000000000E+00 0.  1.
     999901    1    3    3    0    0  0.14812063305E+00  0.34934134706E-02  0.20798757255E-01  0.89262786993E+00  0.88000000000E+00 0.  1.
        -11    1    4    4    0    0 -0.46254328644E-01  0.85369222200E-02 -0.25034241832E-02  0.47104885235E-01  0.51100000000E-03 0.  1.
         11    1    4    4    0    0 -0.78434751294E-01 -0.94767056376E-02 -0.14317543986E-01  0.80293656954E-01  0.51100000000E-03 0. -1.
</event>
<event>
 7    1  0.1054833E+005  0.1043930E+01  0.7957747E-01            NaN
         13   -1    0    0    0    0  0.00000000000E+00  0.00000000000E+00  0.74505805969E-08  0.10566000000E+00  0.10566000000E+00 0. -1.
     999900   -1    0    0    0    0 -0.00000000000E+00 -0.00000000000E+00 -0.74505805969E-08  0.93827000000E+00  0.93827000000E+00 0. -1.
     999902    2    1    2    0    0  0.21616914144E-02 -0.12003265959E-01  0.19909923279E-01  0.10205814166E+01  0.10203143003E+01 0.  0.
         14    1    1    2    0    0 -0.21616914144E-02  0.12003265959E-01 -0.19909923279E-01  0.23348583435E-01  0.00000000000E+00 0.  1.
     999901    1    3    3    0    0 -0.25849125387E-01 -0.12082726226E+00  0.81464752364E-01  0.89235862212E+00  0.88000000000E+00 0. -1.
        -11    1    3    3    0    0  0.17725694222E-01  0.77704557651E-01 -0.43518595795E-01  0.90809293668E-01  0.51100000000E-03 0.  1.
         11    1    3    3    0    0  0.10285122579E-01  0.31119438650E-01 -0.18036233290E-01  0.37413500780E-01  0.51100000000E-03 0. -1.
</event>
<event>
 8    1  0.1054833E+005  0.1043930E+01  0.7957747E-01            NaN
         13   -1    0    0    0    0  0.00000000000E+00  0.00000000000E+00  0.74505805969E-08  0.10566000000E+00  0.10566000000E+00 0.  1.
     999900   -1    0    0    0    0 -0.00000000000E+00 -0.00000000000E+00 -0.74505805969E-08  0.93827000000E+00  0.93827000000E+00 0. -1.
     999902    2    1    2    0    0 -0.20640454453E-02 -0.13693746001E-01  0.13494249112E-01  0.10245941855E+01  0.10244117196E+01 0.  0.
     999903    2    3    3    0    0 -0.10956930371E+00 -0.10433228928E-01  0.76923072390E-01  0.13577967890E+00  0.20116598973E-01 0.  0.
         14    1    1    2    0    0  0.20640454453E-02  0.13693746001E-01 -0.13494249112E-01  0.19335814496E-01  0.00000000000E+00 0. -1.
     999901    1    3    3    0    0  0.10750525827E+00 -0.32605170732E-02 -0.63428823279E-01  0.88881450660E+00  0.88000000000E+00 0. -1.
        -11    1    4    4    0    0 -0.75650581573E-01  0.70918070272E-03  0.45982758596E-01  0.88533545274E-01  0.51100000000E-03 0.  1.
         11    1    4    4    0    0 -0.33918722140E-01 -0.11142409630E-01  0.30940313794E-01  0.47246133627E-01  0.51100000000E-03 0. -1.
</event>
<event>
 8    1  0.1054833E+005  0.1043930E+01  0.7957747E-01            NaN
         13   -1    0    0    0    0  0.00000000000E+00  0.00000000000E+00  0.74505805969E-08  0.10566000000E+00  0.10566000000E+00 0.  1.
     999900   -1    0    0    0    0 -0.00000000000E+00 -0.00000000000E+00 -0.74505805969E-08  0.93827000000E+00  0.93827000000E+00 0. -1.
     999902    2    1    2    0    0  0.15676838968E-01  0.16871540744E-01  0.84021383759E-02  0.10194145335E+01  0.10191197099E+01 0.  0.
     999903    2    3    3    0    0 -0.13872310992E-01  0.87602847220E-01 -0.93159881948E-01  0.13026273886E+00  0.20564962400E-01 0.  0.
         14    1    1    2    0    0 -0.15676838968E-01 -0.16871540744E-01 -0.84021383759E-02  0.24515466473E-01  0.00000000000E+00 0. -1.
     999901    1    3    3    0    0  0.29549149960E-01 -0.70731306476E-01  0.10156202032E+00  0.88915179466E+00  0.88000000000E+00 0.  1.
        -11    1    4    4    0    0  0.50682060258E-02  0.11448130743E-01 -0.14199026889E-01  0.18937262089E-01  0.51100000000E-03 0.  1.
         11    1    4    4    0    0 -0.18940517017E-01  0.76154716478E-01 -0.78960855058E-01  0.11132547678E+00  0.51100000000E-03 0. -1.
</event>
<event>
 8    1  0.1054833E+005  0.1043930E+01  0.7957747E-01            NaN
         13   -1    0    0    0    0  0.00000000000E+00  0.00000000000E+00  0.74505805969E-08  0.10566000000E+00  0.10566000000E+00 0. -1.
     999900   -1    0    0    0    0 -0.00000000000E+00 -0.00000000000E+00 -0.74505805969E-08  0.93827000000E+00  0.93827000000E+00 0.  1.
     999902    2    1    2    0    0 -0.10216627806E-01 -0.37029671240E-02 -0.20778995462E-01  0.10204809467E+01  0.10202114999E+01 0.  0.
     999903    2    3    3    0    0  0.20909646045E-02 -0.68337789713E-01  0.10703674651E+00  0.12881621091E+00  0.21501754642E-01 0.  0.
         14    1    1    2    0    0  0.10216627806E-01  0.37029671240E-02  0.20778995462E-01  0.23449053322E-01  0.00000000000E+00 0. -1.
     999901    1    3    3    0    0 -0.12307592411E-01  0.64634822589E-01 -0.12781574197E+00  0.89166473577E+00  0.88000000000E+00 0.  1.
        -11    1    4    4    0    0 -0.57092315474E-02 -0.57151731285E-01  0.79444667175E-01  0.98033830780E-01  0.51100000000E-03 0. -1.
         11    1    4    4    0    0  0.78001961519E-02 -0.11186058427E-01  0.27592079337E-01  0.30782380127E-01  0.51100000000E-03 0.  1.
</event>
<event>
 8    1  0.1054833E+005  0.1043930E+01  0.7957747E-01            NaN
         13   -1    0    0    0    0  0.00000000000E+00  0.00000000000E+00  0.74505805969E-08  0.10566000000E+00  0.10566000000E+00 0. -1.
     999900   -1    0    0    0    0 -0.00000000000E+00 -0.00000000000E+00 -0.74505805969E-08  0.93827000000E+00  0.93827000000E+00 0. -1.
     999902    2    1    2    0    0  0.62146790042E-02 -0.15085921659E-01 -0.18223215347E-01  0.10194699746E+01  0.10191764990E+01 0.  0.
     999903    2    3    3    0    0  0.74841548414E-01  0.10148616450E+00 -0.19113152084E-01  0.12913324585E+00  0.20233231265E-01 0.  0.
         14    1    1    2    0    0 -0.62146790042E-02  0.15085921659E-01  0.18223215347E-01  0.24460025450E-01  0.00000000000E+00 0. -1.
     999901    1    3    3    0    0 -0.68626869410E-01 -0.11657208616E+00  0.88993673700E-03  0.89033672870E+00  0.88000000000E+00 0. -1.
        -11    1    4    4    0    0  0.44761129414E-01  0.74995485025E-01 -0.17098031560E-01  0.88997108295E-01  0.51100000000E-03 0.  1.
         11    1    4    4    0    0  0.30080419000E-01  0.26490679480E-01 -0.20151205239E-02  0.40136137560E-01  0.51100000000E-03 0. -1.
</event>
<event>
 8    1  0.1054833E+005  0.1043930E+01  0.7957747E-01            NaN
         13   -1    0    0    0    0  0.00000000000E+00  0.00000000000E+00  0.74505805969E-08  0.10566000000E+00  0.10566000000E+00 0. -1.
     999900   -1    0    0    0    0 -0.00000000000E+00 -0.00000000000E+00 -0.74505805969E-08  0.93827000000E+00  0.93827000000E+00 0. -1.
     999902    2    1    2    0    0  0.17309367715E-01  0.17792192012E-01 -0.89117926399E-02  0.10175558392E+01  0.10172139842E+01 0.  0.
     999903    2    3    3    0    0 -0.11748566759E-01  0.52484623493E-01  0.11414357179E+00  0.12784209255E+00  0.20547046519E-01 0.  0.
         14    1    1    2    0    0 -0.17309367715E-01 -0.17792192012E-01  0.89117926399E-02  0.26374160751E-01  0.00000000000E+00 0.  1.
     999901    1    3    3    0    0  0.29057934474E-01 -0.34692431481E-01 -0.12305536443E+00  0.88971374670E+00  0.88000000000E+00 0. -1.
        -11    1    4    4    0    0 -0.47408071988E-02  0.14026230410E-01  0.54884496521E-01  0.56848742042E-01  0.51100000000E-03 0.  1.
         11    1    4    4    0    0 -0.70077595605E-02  0.38458393083E-01  0.59259075271E-01  0.70993350503E-01  0.51100000000E-03 0. -1.
</event>
<event>
 8    1  0.1054833E+005  0.1043930E+01  0.7957747E-01            NaN
         13   -1    0    0    0    0  0.00000000000E+00  0.00000000000E+00  0.74505805969E-08  0.10566000000E+00  0.10566000000E+00 0.  1.
     999900   -1    0    0    0    0 -0.00000000000E+00 -0.00000000000E+00 -0.74505805969E-08  0.93827000000E+00  0.93827000000E+00 0. -1.
     999902    2    1    2    0    0 -0.55526449137E-02 -0.15735655440E-01 -0.17424445501E-01  0.10198042043E+01  0.10195187890E+01 0.  0.
     999903    2    3    3    0    0 -0.53325474071E-02 -0.26516063754E-03  0.12620367248E+00  0.12802596901E+00  0.20851269052E-01 0.  0.
         14    1    1    2    0    0  0.55526449137E-02  0.15735655440E-01  0.17424445501E-01  0.24125795711E-01  0.00000000000E+00 0.  1.
     999901    1    3    3    0    0 -0.22009750666E-03 -0.15470494802E-01 -0.14362811798E+00  0.89177823528E+00  0.88000000000E+00 0. -1.
        -11    1    4    4    0    0  0.95047963074E-03 -0.98846616681E-02  0.64038710479E-01  0.64806076170E-01  0.51100000000E-03 0.  1.
         11    1    4    4    0    0 -0.62830270378E-02  0.96195010305E-02  0.62164961998E-01  0.63219892835E-01  0.51100000000E-03 0. -1.
</event>
<event>
 8    1  0.1054833E+005  0.1043930E+01  0.7957747E-01            NaN
         13   -1    0    0    0    0  0.00000000000E+00  0.00000000000E+00  0.74505805969E-08  0.10566000000E+00  0.10566000000E+00 0.  1.
     999900   -1    0    0    0    0 -0.00000000000E+00 -0.00000000000E+00 -0.74505805969E-08  0.93827000000E+00  0.93827000000E+00 0. -1.
     999902    2    1    2    0    0 -0.22516908036E-02  0.16986967577E-01 -0.15949619832E-01  0.10205202253E+01  0.10202516909E+01 0.  0.
     999903    2    3    3    0    0  0.91166170265E-02 -0.30236092879E-01  0.12272620964E+00  0.12833737322E+00  0.20283609488E-01 0.  0.
         14    1    1    2    0    0  0.22516908036E-02 -0.16986967577E-01  0.15949619832E-01  0.23409774705E-01  0.00000000000E+00 0.  1.
     999901    1    3    3    0    0 -0.11368307830E-01  0.47223060456E-01 -0.13867582947E+00  0.89218285208E+00  0.88000000000E+00 0. -1.
        -11    1    4    4    0    0 -0.40069176766E-02 -0.21118203197E-01  0.73442626060E-01  0.76525252950E-01  0.51100000000E-03 0. -1.
         11    1    4    4    0    0  0.13123534703E-01 -0.91178896818E-02  0.49283583577E-01  0.51812120267E-01  0.51100000000E-03 0.  1.
</event>
<event>
 8    1  0.1054833E+005  0.1043930E+01  0.7957747E-01            NaN
         13   -1    0    0    0    0  0.00000000000E+00  0.00000000000E+00  0.74505805969E-08  0.10566000000E+00  0.10566000000E+00 0. -1.
     999900   -1    0    0    0    0 -0.00000000000E+00 -0.00000000000E+00 -0.74505805969E-08  0.93827000000E+00  0.93827000000E+00 0. -1.
     999902    2    1    2    0    0  0.81608173870E-03 -0.16719076365E-01 -0.16631566093E-01  0.10203333372E+01  0.10200604475E+01 0.  0.
     999903    2    3    3    0    0 -0.31720651681E-02  0.12459779755E+00  0.22251779833E-01  0.12820202471E+00  0.20148058976E-01 0.  0.
         14    1    1    2    0    0 -0.81608173870E-03  0.16719076365E-01  0.16631566093E-01  0.23596662785E-01  0.00000000000E+00 0.  1.
     999901    1    3    3    0    0  0.39881469068E-02 -0.14131687392E+00 -0.38883345926E-01  0.89213131251E+00  0.88000000000E+00 0.  1.
        -11    1    4    4    0    0 -0.25155479191E-02  0.65998565582E-01  0.21936474340E-01  0.69596039166E-01  0.51100000000E-03 0.  1.
         11    1    4    4    0    0 -0.65651724892E-03  0.58599231971E-01  0.31530549310E-03  0.58605985539E-01  0.51100000000E-03 0. -1.
</event>
<event>
 8    1  0.1054833E+005  0.1043930E+01  0.7957747E-01            NaN
         13   -1    0    0    0    0  0.00000000000E+00  0.00000000000E+00  0.74505805969E-08  0.10566000000E+00  0.10566000000E+00 0.  1.
     999900   -1    0    0    0    0 -0.00000000000E+00 -0.00000000000E+00 -0.74505805969E-08  0.93827000000E+00  0.93827000000E+00 0.  1.
     999902    2    1    2    0    0  0.78726942124E-02  0.17668110576E-01  0.15816026223E-01  0.10189442414E+01  0.10186378547E+01 0.  0.
     999903    2    3    3    0    0  0.11010135498E-01 -0.56177377819E-02  0.12920886910E+00  0.13135761970E+00  0.20176975464E-01 0.  0.
         14    1    1    2    0    0 -0.78726942124E-02 -0.17668110576E-01 -0.15816026223E-01  0.24985758563E-01  0.00000000000E+00 0. -1.
     999901    1    3    3    0    0 -0.31374412861E-02  0.23285848358E-01 -0.11339284287E+00  0.88758662174E+00  0.88000000000E+00 0.  1.
        -11    1    4    4    0    0  0.84381137806E-02 -0.11406805440E-01  0.52499477001E-01  0.54385413310E-01  0.51100000000E-03 0.  1.
         11    1    4    4    0    0  0.25720217178E-02  0.57890676578E-02  0.76709392094E-01  0.76972206390E-01  0.51100000000E-03 0. -1.
</event>
<event>
 8    1  0.1054833E+005  0.1043930E+01  0.7957747E-01            NaN
         13   -1    0    0    0    0  0.00000000000E+00  0.00000000000E+00  0.74505805969E-08  0.10566000000E+00  0.10566000000E+00 0. -1.
     999900   -1    0    0    0    0 -0.00000000000E+00 -0.00000000000E+00 -0.74505805969E-08  0.93827000000E+00  0.93827000000E+00 0.  1.
     999902    2    1    2    0    0  0.92655136361E-02  0.18291118921E-01  0.11693490962E-01  0.10203259219E+01  0.10200528586E+01 0.  0.
     999903    2    3    3    0    0 -0.12306819627E+00  0.35587391914E-01  0.12570355889E-01  0.13026292367E+00  0.19954248658E-01 0.  0.
         14    1    1    2    0    0 -0.92655136361E-02 -0.18291118921E-01 -0.11693490962E-01  0.23604078147E-01  0.00000000000E+00 0.  1.
     999901    1    3    3    0    0  0.13233370991E+00 -0.17296272994E-01 -0.87686492694E-03  0.89006299818E+00  0.88000000000E+00 0. -1.
        -11    1    4    4    0    0 -0.86222865794E-01  0.16565506495E-01  0.38412936918E-02  0.87885239087E-01  0.51100000000E-03 0. -1.
         11    1    4    4    0    0 -0.36845330479E-01  0.19021885420E-01  0.87290621967E-02  0.42377684586E-01  0.51100000000E-03 0.  1.
</event>
<event>
 8    1  0.1054833E+005  0.1043930E+01  0.7957747E-01            NaN
         13   -1    0    0    0    0  0.00000000000E+00  0.00000000000E+00  0.74505805969E-08  0.10566000000E+00  0.10566000000E+00 0. -1.
     999900   -1    0    0    0    0 -0.00000000000E+00 -0.00000000000E+00 -0.74505805969E-08  0.93827000000E+00  0.93827000000E+00 0. -1.
     999902    2    1    2    0    0 -0.46263908681E-02  0.17748716167E-01 -0.13192408405E-01  0.10213366369E+01  0.10210867082E+01 0.  0.
     999903    2    3    3    0    0 -0.47571984146E-01  0.65748603815E-01 -0.10494168733E+00  0.13422545817E+00  0.20438769535E-01 0.  0.
         14    1    1    2    0    0  0.46263908681E-02 -0.17748716167E-01  0.13192408405E-01  0.22593363131E-01  0.00000000000E+00 0. -1.
     999901    1    3    3    0    0  0.42945593278E-01 -0.47999887649E-01  0.91749278929E-01  0.88711117870E+00  0.88000000000E+00 0.  1.
        -11    1    4    4    0    0 -0.34616304649E-01  0.46403270812E-01 -0.88357308546E-01  0.10563535007E+00  0.51100000000E-03 0. -1.
         11    1    4    4    0    0 -0.12955679497E-01  0.19345333004E-01 -0.16584378788E-01  0.28590108098E-01  0.51100000000E-03 0.  1.
</event>
<event>
 8    1  0.1054833E+005  0.1043930E+01  0.7957747E-01            NaN
         13   -1    0    0    0    0  0.00000000000E+00  0.00000000000E+00  0.74505805969E-08  0.10566000000E+00  0.10566000000E+00 0. -1.
     999900   -1    0    0    0    0 -0.00000000000E+00 -0.00000000000E+00 -0.74505805969E-08  0.93827000000E+00  0.93827000000E+00 0. -1.
     999902    2    1    2    0    0  0.12895236018E-01 -0.15688629037E-01  0.12297248677E-01  0.10201888434E+01  0.10199125618E+01 0.  0.
     999903    2    3    3    0    0  0.44231262971E-01 -0.10574629765E+00  0.65703946093E-01  0.13342810586E+00  0.18637779116E-01 0.  0.
         14    1    1    2    0    0 -0.12895236018E-01  0.15688629037E-01 -0.12297248677E-01  0.23741156628E-01  0.00000000000E+00 0.  1.
     999901    1    3    3    0    0 -0.31336026953E-01  0.90057668616E-01 -0.53406697417E-01  0.88676073751E+00  0.88000000000E+00 0. -1.
        -11    1    4    4    0    0  0.11068576290E-01 -0.37732350489E-01  0.31504232957E-01  0.50388703791E-01  0.51100000000E-03 0. -1.
         11    1    4    4    0    0  0.33162686681E-01 -0.68013947164E-01  0.34199713136E-01  0.83039402071E-01  0.51100000000E-03 0.  1.
</event>
<event>
 8    1  0.1054833E+005  0.1043930E+01  0.7957747E-01            NaN
         13   -1    0    0    0    0  0.00000000000E+00  0.00000000000E+00  0.74505805969E-08  0.10566000000E+00  0.10566000000E+00 0. -1.
     999900   -1    0    0    0    0 -0.00000000000E+00 -0.00000000000E+00 -0.74505805969E-08  0.93827000000E+00  0.93827000000E+00 0. -1.
     999902    2    1    2    0    0  0.66216180260E-02 -0.15828488391E-01  0.16019528430E-01  0.10204563518E+01  0.10201863328E+01 0.  0.
     999903    2    3    3    0    0  0.44649066403E-01 -0.64449867802E-01  0.10627825195E+00  0.13368875959E+00  0.20743505341E-01 0.  0.
         14    1    1    2    0    0 -0.66216180260E-02  0.15828488391E-01 -0.16019528430E-01  0.23473648228E-01  0.00000000000E+00 0.  1.
     999901    1    3    3    0    0 -0.38027448377E-01  0.48621379411E-01 -0.90258723519E-01  0.88676759218E+00  0.88000000000E+00 0. -1.
        -11    1    4    4    0    0  0.25499071530E-01 -0.43278766615E-01  0.82223845552E-01  0.96354948949E-01  0.51100000000E-03 0. -1.
         11    1    4    4    0    0  0.19149994873E-01 -0.21171101188E-01  0.24054406398E-01  0.37333810645E-01  0.51100000000E-03 0.  1.
</event>
<event>
 8    1  0.1054833E+005  0.1043930E+01  0.7957747E-01            NaN
         13   -1    0    0    0    0  0.00000000000E+00  0.00000000000E+00  0.74505805969E-08  0.10566000000E+00  0.10566000000E+00 0. -1.
     999900   -1    0    0    0    0 -0.00000000000E+00 -0.00000000000E+00 -0.74505805969E-08  0.93827000000E+00  0.93827000000E+00 0.  1.
     999902    2    1    2    0    0 -0.79540470309E-03  0.15782009785E-01  0.17881913623E-01  0.10200664852E+01  0.10197873146E+01 0.  0.
     999903    2    3    3    0    0 -0.69047146822E-01  0.10505755638E+00 -0.32384698885E-01  0.13149732314E+00  0.20932716803E-01 0.  0.
         14    1    1    2    0    0  0.79540470309E-03 -0.15782009785E-01 -0.17881913623E-01  0.23863514752E-01  0.00000000000E+00 0.  1.
     999901    1    3    3    0    0  0.68251742119E-01 -0.89275546598E-01  0.50266612508E-01  0.88856916211E+00  0.88000000000E+00 0.  1.
        -11    1    4    4    0    0 -0.13242179629E-01  0.15665272586E-01 -0.13158625940E-01  0.24375533720E-01  0.51100000000E-03 0. -1.
         11    1    4    4    0    0 -0.55804967193E-01  0.89392283797E-01 -0.19226072945E-01  0.10712178942E+00  0.51100000000E-03 0.  1.
</event>
<event>
 8    1  0.1054833E+005  0.1043930E+01  0.7957747E-01            NaN
         13   -1    0    0    0    0  0.00000000000E+00  0.00000000000E+00  0.74505805969E-08  0.10566000000E+00  0.10566000000E+00 0.  1.
     999900   -1    0    0    0    0 -0.00000000000E+00 -0.00000000000E+00 -0.74505805969E-08  0.93827000000E+00  0.93827000000E+00 0.  1.
     999902    2    1    2    0    0  0.18730458988E-02 -0.23384307637E-01  0.23071517813E-02  0.10203576201E+01  0.10200852983E+01 0.  0.
     999903    2    3    3    0    0  0.29621301785E-01  0.51631476559E-01 -0.11286219646E+00  0.12925644046E+00  0.20642701408E-01 0.  0.
         14    1    1    2    0    0 -0.18730458988E-02  0.23384307637E-01 -0.23071517813E-02  0.23572379896E-01  0.00000000000E+00 0.  1.
     999901    1    3    3    0    0 -0.27748255886E-01 -0.75015784196E-01  0.11516934824E+00  0.89110117964E+00  0.88000000000E+00 0. -1.
        -11    1    4    4    0    0  0.21567732131E-01  0.29097811597E-01 -0.48108586513E-01  0.60220818047E-01  0.51100000000E-03 0. -1.
         11    1    4    4    0    0  0.80535696540E-02  0.22533664962E-01 -0.64753609943E-01  0.69035622416E-01  0.51100000000E-03 0.  1.
</event>
<event>
 7    1  0.1054833E+005  0.1043930E+01  0.7957747E-01            NaN
         13   -1    0    0    0    0  0.00000000000E+00  0.00000000000E+00  0.74505805969E-08  0.10566000000E+00  0.10566000000E+00 0. -1.
     999900   -1    0    0    0    0 -0.00000000000E+00 -0.00000000000E+00 -0.74505805969E-08  0.93827000000E+00  0.93827000000E+00 0. -1.
     999903    2    1    2    0    0  0.14796054577E-02 -0.50158977651E-01  0.10421586930E+00  0.11736071962E+00  0.19861491012E-01 0.  0.
         14    1    1    2    0    0  0.99216269058E-02  0.35885040453E-01  0.11117085949E-01  0.38855686955E-01  0.00000000000E+00 0. -1.
     999901    1    1    2    0    0 -0.11401232363E-01  0.14273937198E-01 -0.11533295525E+00  0.88771359342E+00  0.88000000000E+00 0. -1.
        -11    1    3    3    0    0 -0.12300261408E-02 -0.14670648326E-01  0.13778577273E-01  0.20170552776E-01  0.51100000000E-03 0.  1.
         11    1    3    3    0    0  0.27096315985E-02 -0.35488329325E-01  0.90437292025E-01  0.97190166846E-01  0.51100000000E-03 0. -1.
</event>
<event>
 8    1  0.1054833E+005  0.1043930E+01  0.7957747E-01            NaN
         13   -1    0    0    0    0  0.00000000000E+00  0.00000000000E+00  0.74505805969E-08  0.10566000000E+00  0.10566000000E+00 0.  1.
     999900   -1    0    0    0    0 -0.00000000000E+00 -0.00000000000E+00 -0.74505805969E-08  0.93827000000E+00  0.93827000000E+00 0.  1.
     999902    2    1    2    0    0 -0.20942324320E-01 -0.11496069771E-01  0.80552494724E-03  0.10200262464E+01  0.10197461222E+01 0.  0.
     999903    2    3    3    0    0  0.10982844883E+00 -0.59980787058E-01 -0.22595461130E-01  0.12873540209E+00  0.20056567456E-01 0.  0.
         14    1    1    2    0    0  0.20942324320E-01  0.11496069771E-01 -0.80552494724E-03  0.23903753649E-01  0.00000000000E+00 0. -1.
     999901    1    3    3    0    0 -0.13077077315E+00  0.48484717288E-01  0.23400986077E-01  0.89129084426E+00  0.88000000000E+00 0. -1.
        -11    1    4    4    0    0  0.22855072395E-01 -0.37642921001E-02 -0.36052669030E-02  0.23447458276E-01  0.51100000000E-03 0. -1.
         11    1    4    4    0    0  0.86973376435E-01 -0.56216494958E-01 -0.18990194227E-01  0.10528794381E+00  0.51100000000E-03 0.  1.
</event>
<event>
 8    1  0.1054833E+005  0.1043930E+01  0.7957747E-01            NaN
         13   -1    0    0    0    0  0.00000000000E+00  0.00000000000E+00  0.74505805969E-08  0.10566000000E+00  0.10566000000E+00 0. -1.
     999900   -1    0    0    0    0 -0.00000000000E+00 -0.00000000000E+00 -0.74505805969E-08  0.93827000000E+00  0.93827000000E+00 0.  1.
     999902    2    1    2    0    0  0.42079092139E-02  0.72723137043E-02 -0.22329854670E-01  0.10200717633E+01  0.10197927176E+01 0.  0.
     999903    2    3    3    0    0  0.84502098237E-01 -0.41173370122E-02  0.94794799595E-01  0.12861505348E+00  0.19955472445E-01 0.  0.
         14    1    1    2    0    0 -0.42079092139E-02 -0.72723137043E-02  0.22329854670E-01  0.23858236652E-01  0.00000000000E+00 0. -1.
     999901    1    3    3    0    0 -0.80294189023E-01  0.11389650717E-01 -0.11712465426E+00  0.89145670987E+00  0.88000000000E+00 0.  1.
        -11    1    4    4    0    0  0.39589288162E-01 -0.17784146610E-02  0.29846719500E-01  0.49614133891E-01  0.51100000000E-03 0.  1.
         11    1    4    4    0    0  0.44912810076E-01 -0.23389223513E-02  0.64948080095E-01  0.79000919588E-01  0.51100000000E-03 0. -1.
</event>
<event>
 8    1  0.1054833E+005  0.1043930E+01  0.7957747E-01            NaN
         13   -1    0    0    0    0  0.00000000000E+00  0.00000000000E+00  0.74505805969E-08  0.10566000000E+00  0.10566000000E+00 0. -1.
     999900   -1    0    0    0    0 -0.00000000000E+00 -0.00000000000E+00 -0.74505805969E-08  0.93827000000E+00  0.93827000000E+00 0. -1.
     999902    2    1    2    0    0 -0.25600481955E-01 -0.59451611095E-02  0.49894574288E-03  0.10176435289E+01  0.10173039729E+01 0.  0.
     999903    2    3    3    0    0 -0.87594298830E-01  0.48501510752E-01  0.80678889275E-01  0.13015465754E+00  0.20149292114E-01 0.  0.
         14    1    1    2    0    0  0.25600481955E-01  0.59451611095E-02 -0.49894574288E-03  0.26286471117E-01  0.00000000000E+00 0.  1.
     999901    1    3    3    0    0  0.61993816875E-01 -0.54446671862E-01 -0.80179943532E-01  0.88748887134E+00  0.88000000000E+00 0. -1.
        -11    1    4    4    0    0 -0.13518895557E-01  0.15093096415E-01  0.10731747476E-01  0.22934550821E-01  0.51100000000E-03 0.  1.
         11    1    4    4    0    0 -0.74075403273E-01  0.33408414337E-01  0.69947141799E-01  0.10722010672E+00  0.51100000000E-03 0. -1.
</event>
<event>
 8    1  0.1054833E+005  0.1043930E+01  0.7957747E-01            NaN
         13   -1    0    0    0    0  0.00000000000E+00  0.00000000000E+00  0.74505805969E-08  0.10566000000E+00  0.10566000000E+00 0. -1.
     999900   -1    0    0    0    0 -0.00000000000E+00 -0.00000000000E+00 -0.74505805969E-08  0.93827000000E+00  0.93827000000E+00 0.  1.
     999902    2    1    2    0    0  0.49842830306E-02  0.10941091377E-04  0.21541255969E-01  0.10218196200E+01  0.10215803771E+01 0.  0.
     999903    2    3    3    0    0  0.12596276266E+00  0.27377789869E-01 -0.21470979217E-01  0.13208101265E+00  0.19189319974E-01 0.  0.
         14    1    1    2    0    0 -0.49842830306E-02 -0.10941091377E-04 -0.21541255969E-01  0.22110380046E-01  0.00000000000E+00 0.  1.
     999901    1    3    3    0    0 -0.12097847963E+00 -0.27366848778E-01  0.43012235186E-01  0.88973860730E+00  0.88000000000E+00 0. -1.
        -11    1    4    4    0    0  0.60568959660E-01  0.22057669648E-01 -0.14728875137E-01  0.66123676156E-01  0.51100000000E-03 0.  1.
         11    1    4    4    0    0  0.65393802996E-01  0.53201202214E-02 -0.67421040802E-02  0.65957336498E-01  0.51100000000E-03 0. -1.
</event>
<event>
 8    1  0.1054833E+005  0.1043930E+01  0.7957747E-01            NaN
         13   -1    0    0    0    0  0.00000000000E+00  0.00000000000E+00  0.74505805969E-08  0.10566000000E+00  0.10566000000E+00 0.  1.
     999900   -1    0    0    0    0 -0.00000000000E+00 -0.00000000000E+00 -0.74505805969E-08  0.93827000000E+00  0.93827000000E+00 0.  1.
     999902    2    1    2    0    0 -0.15442338898E-01 -0.10351020450E-01 -0.17710045510E-01  0.10182540352E+01  0.10179302653E+01 0.  0.
     999903    2    3    3    0    0 -0.41563236543E-01 -0.71900500527E-01  0.96098542325E-01  0.12840964745E+00  0.18892408889E-01 0.  0.
         14    1    1    2    0    0  0.15442338898E-01  0.10351020450E-01  0.17710045510E-01  0.25675964772E-01  0.00000000000E+00 0.  1.
     999901    1    3    3    0    0  0.26120897645E-01  0.61549480078E-01 -0.11380858784E+00  0.88984438778E+00  0.88000000000E+00 0.  1.
        -11    1    4    4    0    0 -0.32450225968E-01 -0.59021262936E-01  0.65360081878E-01  0.93854824426E-01  0.51100000000E-03 0. -1.
         11    1    4    4    0    0 -0.91130105753E-02 -0.12879237592E-01  0.30738460447E-01  0.34554823026E-01  0.51100000000E-03 0.  1.
</event>
<event>
 8    1  0.1054833E+005  0.1043930E+01  0.7957747E-01            NaN
         13   -1    0    0    0    0  0.00000000000E+00  0.00000000000E+00  0.74505805969E-08  0.10566000000E+00  0.10566000000E+00 0.  1.
     999900   -1    0    0    0    0 -0.00000000000E+00 -0.00000000000E+00 -0.74505805969E-08  0.93827000000E+00  0.93827000000E+00 0.  1.
     999902    2    1    2    0    0 -0.30148154847E-01 -0.35914666026E-02  0.34104509340E-02  0.10133777325E+01  0.10129170685E+01 0.  0.
     999903    2    3    3    0    0  0.13246049114E-01  0.10417880254E+00 -0.61949227610E-01  0.12333875841E+00  0.18602736579E-01 0.  0.
         14    1    1    2    0    0  0.30148154847E-01  0.35914666026E-02 -0.34104509340E-02  0.30552267487E-01  0.00000000000E+00 0. -1.
     999901    1    3    3    0    0 -0.43394203961E-01 -0.10777026914E+00  0.65359678544E-01  0.89003897411E+00  0.88000000000E+00 0. -1.
        -11    1    4    4    0    0  0.96619849076E-02  0.36112456214E-01 -0.13656115154E-01  0.39802186476E-01  0.51100000000E-03 0. -1.
         11    1    4    4    0    0  0.35840642062E-02  0.68066346325E-01 -0.48293112455E-01  0.83536571931E-01  0.51100000000E-03 0.  1.
</event>
<event>
 8    1  0.1054833E+005  0.1043930E+01  0.7957747E-01            NaN
         13   -1    0    0    0    0  0.00000000000E+00  0.00000000000E+00  0.74505805969E-08  0.10566000000E+00  0.10566000000E+00 0.  1.
     999900   -1    0    0    0    0 -0.00000000000E+00 -0.00000000000E+00 -0.74505805969E-08  0.93827000000E+00  0.93827000000E+00 0.  1.
     999902    2    1    2    0    0 -0.10071529415E-02 -0.21337181366E-01  0.59702114901E-02  0.10217504353E+01  0.10215096764E+01 0.  0.
     999903    2    3    3    0    0 -0.11416136116E+00 -0.56733410996E-01 -0.32372776521E-01  0.13297208685E+00  0.19546941394E-01 0.  0.
         14    1    1    2    0    0  0.10071529415E-02  0.21337181366E-01 -0.59702114901E-02  0.22179564715E-01  0.00000000000E+00 0. -1.
     999901    1    3    3    0    0  0.11315420822E+00  0.35396229630E-01  0.38342988011E-01  0.88877834843E+00  0.88000000000E+00 0. -1.
        -11    1    4    4    0    0 -0.62415104012E-01 -0.20307420458E-01 -0.18336421039E-01  0.68150729945E-01  0.51100000000E-03 0. -1.
         11    1    4    4    0    0 -0.51746257147E-01 -0.36425990538E-01 -0.14036355482E-01  0.64821356910E-01  0.51100000000E-03 0.  1.
</event>
<event>
 8    1  0.1054833E+005  0.1043930E+01  0.7957747E-01            NaN
         13   -1    0    0    0    0  0.00000000000E+00  0.00000000000E+00  0.74505805969E-08  0.10566000000E+00  0.10566000000E+00 0. -1.
     999900   -1    0    0    0    0 -0.00000000000E+00 -0.00000000000E+00 -0.74505805969E-08  0.93827000000E+00  0.93827000000E+00 0. -1.
     999902    2    1    2    0    0 -0.90953383498E-02  0.24648433231E-02 -0.22017518612E-01  0.10199806418E+01  0.10196994351E+01 0.  0.
     999903    2    3    3    0    0 -0.10991483396E-01  0.12624538911E+00  0.22436464235E-01  0.13020461635E+00  0.19777163900E-01 0.  0.
         14    1    1    2    0    0  0.90953383498E-02 -0.24648433231E-02  0.22017518612E-01  0.23949358199E-01  0.00000000000E+00 0. -1.
     999901    1    3    3    0    0  0.18961450466E-02 -0.12378054579E+00 -0.44453982847E-01  0.88977602545E+00  0.88000000000E+00 0.  1.
        -11    1    4    4    0    0 -0.44258764431E-02  0.50740973624E-02 -0.22710525343E-03  0.67562966282E-02  0.51100000000E-03 0.  1.
         11    1    4    4    0    0 -0.65656069533E-02  0.12117129175E+00  0.22663569488E-01  0.12344831972E+00  0.51100000000E-03 0. -1.
</event>
<event>
 8    1  0.1054833E+005  0.1043930E+01  0.7957747E-01            NaN
         13   -1    0    0    0    0  0.00000000000E+00  0.00000000000E+00  0.74505805969E-08  0.10566000000E+00  0.10566000000E+00 0.  1.
     999900   -1    0    0    0    0 -0.00000000000E+00 -0.00000000000E+00 -0.74505805969E-08  0.93827000000E+00  0.93827000000E+00 0. -1.
     999902    2    1    2    0    0 -0.84159081575E-02  0.62584045926E-02  0.21927768517E-01  0.10196231662E+01  0.10193333993E+01 0.  0.
     999903    2    3    3    0    0 -0.46299352709E-01  0.10460894418E+00 -0.57888245977E-01  0.12974756803E+00  0.19917859434E-01 0.  0.
         14    1    1    2    0    0  0.84159081575E-02 -0.62584045926E-02 -0.21927768517E-01  0.24306833818E-01  0.00000000000E+00 0. -1.
     999901    1    3    3    0    0  0.37883444551E-01 -0.98350539589E-01  0.79816014493E-01  0.88987559815E+00  0.88000000000E+00 0.  1.
        -11    1    4    4    0    0 -0.43900214125E-01  0.81421856287E-01 -0.42419569937E-01  0.10176653928E+00  0.51100000000E-03 0.  1.
         11    1    4    4    0    0 -0.23991385844E-02  0.23187087895E-01 -0.15468676040E-01  0.27981028759E-01  0.51100000000E-03 0. -1.
</event>
<event>
 8    1  0.1054833E+005  0.1043930E+01  0.7957747E-01            NaN
         13   -1    0    0    0    0  0.00000000000E+00  0.00000000000E+00  0.74505805969E-08  0.10566000000E+00  0.10566000000E+00 0. -1.
     999900   -1    0    0    0    0 -0.00000000000E+00 -0.00000000000E+00 -0.74505805969E-08  0.93827000000E+00  0.93827000000E+00 0.  1.
     999902    2    1    2    0    0 -0.17009705343E-01 -0.48145644647E-02  0.15953551801E-01  0.10201176939E+01  0.10198397342E+01 0.  0.
     999903    2    3    3    0    0  0.12305051039E+00 -0.13077414093E-01 -0.26561326676E-01  0.12798953404E+00  0.19062263341E-01 0.  0.
         14    1    1    2    0    0  0.17009705343E-01  0.48145644647E-02 -0.15953551801E-01  0.23812306103E-01  0.00000000000E+00 0. -1.
     999901    1    3    3    0    0 -0.14006021573E+00  0.82628496286E-02  0.42514878478E-01  0.89212815986E+00  0.88000000000E+00 0.  1.
        -11    1    4    4    0    0  0.30666199876E-01  0.48528338014E-02 -0.80175876359E-02  0.32070370176E-01  0.51100000000E-03 0.  1.
         11    1    4    4    0    0  0.92384310511E-01 -0.17930247895E-01 -0.18543739040E-01  0.95919163866E-01  0.51100000000E-03 0. -1.
</event>
<event>
 8    1  0.1054833E+005  0.1043930E+01  0.7957747E-01            NaN
         13   -1    0    0    0    0  0.00000000000E+00  0.00000000000E+00  0.74505805969E-08  0.10566000000E+00  0.10566000000E+00 0.  1.
     999900   -1    0    0    0    0 -0.00000000000E+00 -0.00000000000E+00 -0.74505805969E-08  0.93827000000E+00  0.93827000000E+00 0. -1.
     999902    2    1    2    0    0 -0.10277801343E-01 -0.19606590821E-01  0.41948067404E-02  0.10213989546E+01  0.10211504181E+01 0.  0.
     999903    2    3    3    0    0  0.11896712115E+00  0.35286005505E-01  0.35925986801E-01  0.12970151996E+00  0.11555503158E-01 0.  0.
         14    1    1    2    0    0  0.10277801343E-01  0.19606590821E-01 -0.41948067404E-02  0.22531045418E-01  0.00000000000E+00 0.  1.
     999901    1    3    3    0    0 -0.12924492249E+00 -0.54892596325E-01 -0.31731180061E-01  0.89169743462E+00  0.88000000000E+00 0. -1.
        -11    1    4    4    0    0  0.11159269872E+00  0.35597195032E-01  0.32573213438E-01  0.12157864145E+00  0.51100000000E-03 0.  1.
         11    1    4    4    0    0  0.73744224288E-02 -0.31118952744E-03  0.33527733630E-02  0.81228785109E-02  0.51100000000E-03 0. -1.
</event>
<event>
 8    1  0.1054833E+005  0.1043930E+01  0.7957747E-01            NaN
         13   -1    0    0    0    0  0.00000000000E+00  0.00000000000E+00  0.74505805969E-08  0.10566000000E+00  0.10566000000E+00 0.  1.
     999900   -1    0    0    0    0 -0.00000000000E+00 -0.00000000000E+00 -0.74505805969E-08  0.93827000000E+00  0.93827000000E+00 0.  1.
     999902    2    1    2    0    0  0.18611384525E-01  0.11398213577E-01 -0.73971177806E-02  0.10208861232E+01  0.10206260120E+01 0.  0.
     999903    2    3    3    0    0  0.80353161299E-01 -0.57751041226E-01  0.83371706171E-01  0.13137353428E+00  0.22723354192E-01 0.  0.
         14    1    1    2    0    0 -0.18611384525E-01 -0.11398213577E-01  0.73971177806E-02  0.23043876804E-01  0.00000000000E+00 0.  1.
     999901    1    3    3    0    0 -0.61741776774E-01  0.69149254803E-01 -0.90768823952E-01  0.88951258892E+00  0.88000000000E+00 0.  1.
        -11    1    4    4    0    0  0.26847756884E-01 -0.11719795164E-01  0.35776867312E-01  0.46242848140E-01  0.51100000000E-03 0.  1.
         11    1    4    4    0    0  0.53505404415E-01 -0.46031246062E-01  0.47594838859E-01  0.85130686140E-01  0.51100000000E-03 0. -1.
</event>
<event>
 8    1  0.1054833E+005  0.1043930E+01  0.7957747E-01            NaN
         13   -1    0    0    0    0  0.00000000000E+00  0.00000000000E+00  0.74505805969E-08  0.10566000000E+00  0.10566000000E+00 0. -1.
     999900   -1    0    0    0    0 -0.00000000000E+00 -0.00000000000E+00 -0.74505805969E-08  0.93827000000E+00  0.93827000000E+00 0. -1.
     999902    2    1    2    0    0 -0.56722228889E-03  0.99922523968E-02  0.21293364967E-01  0.10204018415E+01  0.10201305524E+01 0.  0.
     999903    2    3    3    0    0  0.19082874553E-01  0.12899844748E+00 -0.33734161682E-03  0.13191071145E+00  0.19888852231E-01 0.  0.
         14    1    1    2    0    0  0.56722228889E-03 -0.99922523968E-02 -0.21293364967E-01  0.23528158464E-01  0.00000000000E+00 0.  1.
     999901    1    3    3    0    0 -0.19650096842E-01 -0.11900619508E+00  0.21630706584E-01  0.88849113009E+00  0.88000000000E+00 0.  1.
        -11    1    4    4    0    0 -0.31648597382E-03  0.65073349405E-01  0.12009650429E-02  0.65087206148E-01  0.51100000000E-03 0. -1.
         11    1    4    4    0    0  0.19399360527E-01  0.63925098073E-01 -0.15383066597E-02  0.66823505303E-01  0.51100000000E-03 0.  1.
</event>
<event>
 8    1  0.1126719E+005  0.1043930E+01  0.7957747E-01            NaN
         13   -1    0    0    0    0  0.00000000000E+00  0.00000000000E+00  0.74505805969E-08  0.10566000000E+00  0.10566000000E+00 0.  1.
     999900   -1    0    0    0    0 -0.00000000000E+00 -0.00000000000E+00 -0.74505805969E-08  0.93827000000E+00  0.93827000000E+00 0. -1.
     999902    2    1    2    0    0  0.19241403443E-01 -0.14293849336E-01 -0.15669555489E-02  0.10199091531E+01  0.10196262450E+01 0.  0.
     999903    2    3    3    0    0  0.22523704924E-02  0.49275822354E-01 -0.11834407871E+00  0.12975937533E+00  0.19974851159E-01 0.  0.
         14    1    1    2    0    0 -0.19241403443E-01  0.14293849336E-01  0.15669555489E-02  0.24020846883E-01  0.00000000000E+00 0.  1.
     999901    1    3    3    0    0  0.16989032950E-01 -0.63569671690E-01  0.11677712316E+00  0.89014977779E+00  0.88000000000E+00 0.  1.
        -11    1    4    4    0    0 -0.86885318987E-02  0.24701836958E-01 -0.62796922717E-01  0.68039591117E-01  0.51100000000E-03 0. -1.
         11    1    4    4    0    0  0.10940902391E-01  0.24573985396E-01 -0.55547155993E-01  0.61719784213E-01  0.51100000000E-03 0.  1.
</event>
<event>
 8    1  0.1054833E+005  0.1043930E+01  0.7957747E-01            NaN
         13   -1    0    0    0    0  0.00000000000E+00  0.00000000000E+00  0.74505805969E-08  0.10566000000E+00  0.10566000000E+00 0. -1.
     999900   -1    0    0    0    0 -0.00000000000E+00 -0.00000000000E+00 -0.74505805969E-08  0.93827000000E+00  0.93827000000E+00 0.  1.
     999902    2    1    2    0    0 -0.21819793991E-01 -0.54753101551E-02 -0.54316197945E-02  0.10207872922E+01  0.10205249193E+01 0.  0.
     999903    2    3    3    0    0  0.16629278075E-01  0.12325919715E+00  0.30497979423E-01  0.12986538730E+00  0.21576132610E-01 0.  0.
         14    1    1    2    0    0  0.21819793991E-01  0.54753101551E-02  0.54316197945E-02  0.23142707808E-01  0.00000000000E+00 0.  1.
     999901    1    3    3    0    0 -0.38449072066E-01 -0.12873450731E+00 -0.35929599217E-01  0.89092190489E+00  0.88000000000E+00 0.  1.
        -11    1    4    4    0    0  0.21487763367E-01  0.96516521881E-01  0.26649691418E-01  0.10240913116E+00  0.51100000000E-03 0. -1.
         11    1    4    4    0    0 -0.48584852918E-02  0.26742675271E-01  0.38482880050E-02  0.27456256146E-01  0.51100000000E-03 0.  1.
</event>
<event>
 8    1  0.1054833E+005  0.1043930E+01  0.7957747E-01            NaN
         13   -1    0    0    0    0  0.00000000000E+00  0.00000000000E+00  0.74505805969E-08  0.10566000000E+00  0.10566000000E+00 0.  1.
     999900   -1    0    0    0    0 -0.00000000000E+00 -0.00000000000E+00 -0.74505805969E-08  0.93827000000E+00  0.93827000000E+00 0.  1.
     999902    2    1    2    0    0 -0.12819902560E-01  0.17344161549E-01  0.98225105418E-02  0.10202308111E+01  0.10199555168E+01 0.  0.
     999903    2    3    3    0    0 -0.31128852148E-01  0.65564069917E-01  0.10925088566E+00  0.13313082858E+00  0.22812470295E-01 0.  0.
         14    1    1    2    0    0  0.12819902560E-01 -0.17344161549E-01 -0.98225105418E-02  0.23699188907E-01  0.00000000000E+00 0. -1.
     999901    1    3    3    0    0  0.18308949588E-01 -0.48219908368E-01 -0.99428375116E-01  0.88709998251E+00  0.88000000000E+00 0.  1.
        -11    1    4    4    0    0 -0.12500980415E-01  0.24183235824E-01  0.61478919278E-01  0.67238545811E-01  0.51100000000E-03 0. -1.
         11    1    4    4    0    0 -0.18627871734E-01  0.41380834093E-01  0.47771966381E-01  0.65892282768E-01  0.51100000000E-03 0.  1.
</event>
<event>
 8    1  0.1054833E+005  0.1043930E+01  0.7957747E-01            NaN
         13   -1    0    0    0    0  0.00000000000E+00  0.00000000000E+00  0.74505805969E-08  0.10566000000E+00  0.10566000000E+00 0. -1.
     999900   -1    0    0    0    0 -0.00000000000E+00 -0.00000000000E+00 -0.74505805969E-08  0.93827000000E+00  0.93827000000E+00 0.  1.
     999902    2    1    2    0    0  0.37738369315E-03  0.13173085692E-01 -0.20102462995E-01  0.10198929115E+01  0.10196096161E+01 0.  0.
     999903    2    3    3    0    0  0.76788180263E-01 -0.10079029368E+00  0.97343594845E-02  0.12876076774E+00  0.20723648920E-01 0.  0.
         14    1    1    2    0    0 -0.37738369315E-03 -0.13173085692E-01  0.20102462995E-01  0.24037088500E-01  0.00000000000E+00 0. -1.
     999901    1    3    3    0    0 -0.76410796570E-01  0.11396337938E+00 -0.29836822479E-01  0.89113214376E+00  0.88000000000E+00 0.  1.
        -11    1    4    4    0    0  0.37868190204E-01 -0.60342079483E-01  0.13461337570E-01  0.72502655923E-01  0.51100000000E-03 0. -1.
         11    1    4    4    0    0  0.38919990059E-01 -0.40448214202E-01 -0.37269780858E-02  0.56258111815E-01  0.51100000000E-03 0.  1.
</event>
<event>
 8    1  0.1054833E+005  0.1043930E+01  0.7957747E-01            NaN
         13   -1    0    0    0    0  0.00000000000E+00  0.00000000000E+00  0.74505805969E-08  0.10566000000E+00  0.10566000000E+00 0. -1.
     999900   -1    0    0    0    0 -0.00000000000E+00 -0.00000000000E+00 -0.74505805969E-08  0.93827000000E+00  0.93827000000E+00 0. -1.
     999902    2    1    2    0    0 -0.44072143559E-02 -0.18603754134E-01  0.13596740080E-01  0.10204695109E+01  0.10201997982E+01 0.  0.
     999903    2    3    3    0    0 -0.52396139728E-01 -0.10433740697E+00  0.62645484927E-01  0.13364428827E+00  0.17455344579E-01 0.  0.
         14    1    1    2    0    0  0.44072143559E-02  0.18603754134E-01 -0.13596740080E-01  0.23460489063E-01  0.00000000000E+00 0.  1.
     999901    1    3    3    0    0  0.47988925372E-01  0.85733652833E-01 -0.49048744847E-01  0.88682522267E+00  0.88000000000E+00 0. -1.
        -11    1    4    4    0    0 -0.62207202008E-02 -0.18902666566E-01  0.17677402033E-01  0.26622543582E-01  0.51100000000E-03 0. -1.
         11    1    4    4    0    0 -0.46175419527E-01 -0.85434740402E-01  0.44968082894E-01  0.10702174469E+00  0.51100000000E-03 0.  1.
</event>
<event>
 8    1  0.1054833E+005  0.1043930E+01  0.7957747E-01            NaN
         13   -1    0    0    0    0  0.00000000000E+00  0.00000000000E+00  0.74505805969E-08  0.10566000000E+00  0.10566000000E+00 0. -1.
     999900   -1    0    0    0    0 -0.00000000000E+00 -0.00000000000E+00 -0.74505805969E-08  0.93827000000E+00  0.93827000000E+00 0. -1.
     999902    2    1    2    0    0  0.15100341683E-01 -0.11345988418E-01 -0.11571720137E-01  0.10217792330E+01  0.10215391057E+01 0.  0.
     999903    2    3    3    0    0 -0.11765652024E+00  0.43040842975E-01 -0.28680077792E-01  0.12999730465E+00  0.19523868355E-01 0.  0.
         14    1    1    2    0    0 -0.15100341683E-01  0.11345988418E-01  0.11571720137E-01  0.22150767008E-01  0.00000000000E+00 0. -1.
     999901    1    3    3    0    0  0.13275686192E+00 -0.54386831393E-01  0.17108357655E-01  0.89178192834E+00  0.88000000000E+00 0.  1.
        -11    1    4    4    0    0 -0.52942380987E-01  0.29700527342E-01 -0.14581517028E-01  0.62433154564E-01  0.51100000000E-03 0. -1.
         11    1    4    4    0    0 -0.64714139251E-01  0.13340315633E-01 -0.14098560764E-01  0.67564150086E-01  0.51100000000E-03 0.  1.
</event>
<event>
 8    1  0.1054833E+005  0.1043930E+01  0.7957747E-01            NaN
         13   -1    0    0    0    0  0.00000000000E+00  0.00000000000E+00  0.74505805969E-08  0.10566000000E+00  0.10566000000E+00 0.  1.
     999900   -1    0    0    0    0 -0.00000000000E+00 -0.00000000000E+00 -0.74505805969E-08  0.93827000000E+00  0.93827000000E+00 0.  1.
     999902    2    1    2    0    0 -0.40275678785E-02 -0.19799264377E-01 -0.10598115711E-01  0.10211143863E+01  0.10208594603E+01 0.  0.
     999903    2    3    3    0    0 -0.10096205909E+00 -0.70588223283E-01 -0.47447167994E-01  0.13357077237E+00  0.20344110673E-01 0.  0.
         14    1    1    2    0    0  0.40275678785E-02  0.19799264377E-01  0.10598115711E-01  0.22815613722E-01  0.00000000000E+00 0.  1.
     999901    1    3    3    0    0  0.96934491213E-01  0.50788958906E-01  0.36849052283E-01  0.88754361391E+00  0.88000000000E+00 0. -1.
        -11    1    4    4    0    0 -0.52667606100E-01 -0.44871577485E-01 -0.34620490742E-01  0.77370373519E-01  0.51100000000E-03 0.  1.
         11    1    4    4    0    0 -0.48294452991E-01 -0.25716645798E-01 -0.12826677252E-01  0.56200398852E-01  0.51100000000E-03 0. -1.
</event>
<event>
 8    1  0.1054833E+005  0.1043930E+01  0.7957747E-01            NaN
         13   -1    0    0    0    0  0.00000000000E+00  0.00000000000E+00  0.74505805969E-08  0.10566000000E+00  0.10566000000E+00 0.  1.
     999900   -1    0    0    0    0 -0.00000000000E+00 -0.00000000000E+00 -0.74505805969E-08  0.93827000000E+00  0.93827000000E+00 0.  1.
     999902    2    1    2    0    0  0.66064853155E-02 -0.16459578485E-01  0.13563796413E-01  0.10216019919E+01  0.10213579637E+01 0.  0.
     999903    2    3    3    0    0  0.89943535029E-01  0.53084738891E-01 -0.75522553241E-01  0.13046908733E+00  0.20265677972E-01 0.  0.
         14    1    1    2    0    0 -0.66064853155E-02  0.16459578485E-01 -0.13563796413E-01  0.22328008089E-01  0.00000000000E+00 0. -1.
     999901    1    3    3    0    0 -0.83337049713E-01 -0.69544317376E-01  0.89086349654E-01  0.89113290458E+00  0.88000000000E+00 0. -1.
        -11    1    4    4    0    0  0.42288126193E-01  0.19775328519E-01 -0.44810530383E-01  0.64711621748E-01  0.51100000000E-03 0. -1.
         11    1    4    4    0    0  0.47655408835E-01  0.33309410372E-01 -0.30712022858E-01  0.65757465581E-01  0.51100000000E-03 0.  1.
</event>
<event>
 8    1  0.1054833E+005  0.1043930E+01  0.7957747E-01            NaN
         13   -1    0    0    0    0  0.00000000000E+00  0.00000000000E+00  0.74505805969E-08  0.10566000000E+00  0.10566000000E+00 0.  1.
     999900   -1    0    0    0    0 -0.00000000000E+00 -0.00000000000E+00 -0.74505805969E-08  0.93827000000E+00  0.93827000000E+00 0. -1.
     999902    2    1    2    0    0 -0.13555543222E-01  0.20837407089E-01 -0.43939097682E-02  0.10186860556E+01  0.10183732239E+01 0.  0.
     999903    2    3    3    0    0 -0.12588712998E+00 -0.21953305664E-01  0.17878235034E-01  0.13023488703E+00  0.17662881625E-01 0.  0.
         14    1    1    2    0    0  0.13555543222E-01 -0.20837407089E-01  0.43939097682E-02  0.25243944408E-01  0.00000000000E+00 0.  1.
     999901    1    3    3    0    0  0.11233158676E+00  0.42790712754E-01 -0.22272144802E-01  0.88845116856E+00  0.88000000000E+00 0. -1.
        -11    1    4    4    0    0 -0.47165843855E-01 -0.22940592988E-02  0.36466804063E-03  0.47225773031E-01  0.51100000000E-03 0.  1.
         11    1    4    4    0    0 -0.78721286127E-01 -0.19659246366E-01  0.17513566993E-01  0.83009114000E-01  0.51100000000E-03 0. -1.
</event>
<event>
 8    1  0.1054833E+005  0.1043930E+01  0.7957747E-01            NaN
         13   -1    0    0    0    0  0.00000000000E+00  0.00000000000E+00  0.74505805969E-08  0.10566000000E+00  0.10566000000E+00 0.  1.
     999900   -1    0    0    0    0 -0.00000000000E+00 -0.00000000000E+00 -0.74505805969E-08  0.93827000000E+00  0.93827000000E+00 0. -1.
     999902    2    1    2    0    0  0.32760361207E-02  0.21270564620E-01 -0.14276480962E-01  0.10181039039E+01  0.10177762877E+01 0.  0.
     999903    2    3    3    0    0 -0.45692062908E-02  0.42364615271E-01  0.11872947630E+00  0.12782468281E+00  0.20659688305E-01 0.  0.
         14    1    1    2    0    0 -0.32760361207E-02 -0.21270564620E-01  0.14276480962E-01  0.25826096116E-01  0.00000000000E+00 0.  1.
     999901    1    3    3    0    0  0.78452424115E-02 -0.21094050651E-01 -0.13300595726E+00  0.89027922107E+00  0.88000000000E+00 0. -1.
        -11    1    4    4    0    0 -0.11682146019E-01  0.19774920109E-01  0.69370712896E-01  0.73075829997E-01  0.51100000000E-03 0.  1.
         11    1    4    4    0    0  0.71129397284E-02  0.22589695162E-01  0.49358763404E-01  0.54748852818E-01  0.51100000000E-03 0. -1.
</event>
<event>
 8    1  0.1054833E+005  0.1043930E+01  0.7957747E-01            NaN
         13   -1    0    0    0    0  0.00000000000E+00  0.00000000000E+00  0.74505805969E-08  0.10566000000E+00  0.10566000000E+00 0. -1.
     999900   -1    0    0    0    0 -0.00000000000E+00 -0.00000000000E+00 -0.74505805969E-08  0.93827000000E+00  0.93827000000E+00 0.  1.
     999902    2    1    2    0    0  0.29084389348E-02 -0.22444123536E-01  0.81011829794E-02  0.10198919705E+01  0.10196086526E+01 0.  0.
     999903    2    3    3    0    0 -0.73834314298E-01 -0.66562583073E-01  0.84618174809E-01  0.13214722185E+00  0.20507786386E-01 0.  0.
         14    1    1    2    0    0 -0.29084389348E-02  0.22444123536E-01 -0.81011829794E-02  0.24038029537E-01  0.00000000000E+00 0.  1.
     999901    1    3    3    0    0  0.76742753232E-01  0.44118459536E-01 -0.76516991829E-01  0.88774474861E+00  0.88000000000E+00 0.  1.
        -11    1    4    4    0    0 -0.38462648014E-01 -0.32745163292E-01  0.29752876668E-01  0.58626920457E-01  0.51100000000E-03 0.  1.
         11    1    4    4    0    0 -0.35371666284E-01 -0.33817419781E-01  0.54865298141E-01  0.73520301396E-01  0.51100000000E-03 0. -1.
</event>
<event>
 8    1  0.1054833E+005  0.1043930E+01  0.7957747E-01            NaN
         13   -1    0    0    0    0  0.00000000000E+00  0.00000000000E+00  0.74505805969E-08  0.10566000000E+00  0.10566000000E+00 0.  1.
     999900   -1    0    0    0    0 -0.00000000000E+00 -0.00000000000E+00 -0.74505805969E-08  0.93827000000E+00  0.93827000000E+00 0. -1.
     999902    2    1    2    0    0 -0.11988474431E-01  0.12332325975E-01 -0.16093391623E-01  0.10203756578E+01  0.10201037575E+01 0.  0.
     999903    2    3    3    0    0 -0.20763606840E-01  0.40071354564E-01 -0.12411574915E+00  0.13329320030E+00  0.18042096177E-01 0.  0.
         14    1    1    2    0    0  0.11988474431E-01 -0.12332325975E-01  0.16093391623E-01  0.23554342213E-01  0.00000000000E+00 0.  1.
     999901    1    3    3    0    0  0.87751324091E-02 -0.27739028589E-01  0.10802235752E+00  0.88708245749E+00  0.88000000000E+00 0.  1.
        -11    1    4    4    0    0 -0.13989318309E-01  0.26576817321E-01 -0.56269484813E-01  0.63785141591E-01  0.51100000000E-03 0.  1.
         11    1    4    4    0    0 -0.67742885317E-02  0.13494537243E-01 -0.67846264334E-01  0.69508058710E-01  0.51100000000E-03 0. -1.
</event>
<event>
 8    1  0.1054833E+005  0.1043930E+01  0.7957747E-01            NaN
         13   -1    0    0    0    0  0.00000000000E+00  0.00000000000E+00  0.74505805969E-08  0.10566000000E+00  0.10566000000E+00 0.  1.
     999900   -1    0    0    0    0 -0.00000000000E+00 -0.00000000000E+00 -0.74505805969E-08  0.93827000000E+00  0.93827000000E+00 0. -1.
     999902    2    1    2    0    0  0.38903635252E-02  0.65303996770E-02  0.21516636627E-01  0.10211101249E+01  0.10208551026E+01 0.  0.
     999903    2    3    3    0    0  0.43285417294E-01 -0.53706668138E-01 -0.10691970048E+00  0.12887900725E+00  0.20492501217E-01 0.  0.
         14    1    1    2    0    0 -0.38903635252E-02 -0.65303996770E-02 -0.21516636627E-01  0.22819875110E-01  0.00000000000E+00 0. -1.
     999901    1    3    3    0    0 -0.39395053769E-01  0.60237067815E-01  0.12843633710E+00  0.89223111764E+00  0.88000000000E+00 0.  1.
        -11    1    4    4    0    0  0.44866882941E-01 -0.48040340593E-01 -0.10107305404E+00  0.12056921200E+00  0.51100000000E-03 0.  1.
         11    1    4    4    0    0 -0.15814656470E-02 -0.56663275456E-02 -0.58466464401E-02  0.83097952467E-02  0.51100000000E-03 0. -1.
</event>
<event>
 7    1  0.1054833E+005  0.1043930E+01  0.7957747E-01            NaN
         13   -1    0    0    0    0  0.00000000000E+00  0.00000000000E+00  0.74505805969E-08  0.10566000000E+00  0.10566000000E+00 0.  1.
     999900   -1    0    0    0    0 -0.00000000000E+00 -0.00000000000E+00 -0.74505805969E-08  0.93827000000E+00  0.93827000000E+00 0. -1.
     999902    2    1    2    0    0 -0.11452898444E-01 -0.34244607508E-02  0.22840468402E-01  0.10181504963E+01  0.10178240763E+01 0.  0.
         14    1    1    2    0    0  0.11452898444E-01  0.34244607508E-02 -0.22840468402E-01  0.25779503701E-01  0.00000000000E+00 0. -1.
     999901    1    3    3    0    0  0.43691488137E-01 -0.97261787644E-01  0.77037321877E-01  0.88977724765E+00  0.88000000000E+00 0.  1.
        -11    1    3    3    0    0 -0.37876036775E-01  0.70569988805E-01 -0.18154583212E-01  0.82125315794E-01  0.51100000000E-03 0. -1.
         11    1    3    3    0    0 -0.17268349807E-01  0.23267338088E-01 -0.36042270264E-01  0.46247932856E-01  0.51100000000E-03 0.  1.
</event>
<event>
 8    1  0.1054833E+005  0.1043930E+01  0.7957747E-01            NaN
         13   -1    0    0    0    0  0.00000000000E+00  0.00000000000E+00  0.74505805969E-08  0.10566000000E+00  0.10566000000E+00 0.  1.
     999900   -1    0    0    0    0 -0.00000000000E+00 -0.00000000000E+00 -0.74505805969E-08  0.93827000000E+00  0.93827000000E+00 0. -1.
     999902    2    1    2    0    0  0.41589259518E-03  0.10654299828E-01  0.19830392283E-01  0.10214148600E+01  0.10211666782E+01 0.  0.
     999903    2    3    3    0    0 -0.83478032785E-02 -0.19889091966E-01  0.13059907627E+00  0.13390181643E+00  0.20206828600E-01 0.  0.
         14    1    1    2    0    0 -0.41589259518E-03 -0.10654299828E-01 -0.19830392283E-01  0.22515140007E-01  0.00000000000E+00 0. -1.
     999901    1    3    3    0    0  0.87636958736E-02  0.30543391794E-01 -0.11076868398E+00  0.88751304357E+00  0.88000000000E+00 0. -1.
        -11    1    4    4    0    0 -0.44570586855E-03 -0.12488612771E-01  0.10920582677E+00  0.10991968806E+00  0.51100000000E-03 0.  1.
         11    1    4    4    0    0 -0.79020974099E-02 -0.74004791954E-02  0.21393249496E-01  0.23982128362E-01  0.51100000000E-03 0. -1.
</event>
<event>
 8    1  0.1054833E+005  0.1043930E+01  0.7957747E-01            NaN
         13   -1    0    0    0    0  0.00000000000E+00  0.00000000000E+00  0.74505805969E-08  0.10566000000E+00  0.10566000000E+00 0.  1.
     999900   -1    0    0    0    0 -0.00000000000E+00 -0.00000000000E+00 -0.74505805969E-08  0.93827000000E+00  0.93827000000E+00 0. -1.
     999902    2    1    2    0    0 -0.79028812512E-02 -0.16799412019E-01  0.29650500343E-01  0.10089467476E+01  0.10083400774E+01 0.  0.
     999903    2    3    3    0    0  0.42313681488E-01 -0.10771723761E+00  0.35989109314E-01  0.12281587007E+00  0.19876393886E-01 0.  0.
         14    1    1    2    0    0  0.79028812512E-02  0.16799412019E-01 -0.29650500343E-01  0.34983252377E-01  0.00000000000E+00 0. -1.
     999901    1    3    3    0    0 -0.50216562739E-01  0.90917825588E-01 -0.63386089702E-02  0.88613087755E+00  0.88000000000E+00 0.  1.
        -11    1    4    4    0    0  0.21159684565E-01 -0.39161627193E-01  0.22245924846E-01  0.49764521384E-01  0.51100000000E-03 0.  1.
         11    1    4    4    0    0  0.21153996923E-01 -0.68555610414E-01  0.13743184468E-01  0.73051348689E-01  0.51100000000E-03 0. -1.
</event>
<event>
 8    1  0.1054833E+005  0.1043930E+01  0.7957747E-01            NaN
         13   -1    0    0    0    0  0.00000000000E+00  0.00000000000E+00  0.74505805969E-08  0.10566000000E+00  0.10566000000E+00 0. -1.
     999900   -1    0    0    0    0 -0.00000000000E+00 -0.00000000000E+00 -0.74505805969E-08  0.93827000000E+00  0.93827000000E+00 0. -1.
     999902    2    1    2    0    0  0.23556352136E-01 -0.14579812391E-02 -0.15790295613E-02  0.10202758086E+01  0.10200015710E+01 0.  0.
     999903    2    3    3    0    0 -0.85541176183E-01 -0.67774501449E-01  0.65744906900E-01  0.12851762169E+00  0.16843706037E-01 0.  0.
         14    1    1    2    0    0 -0.23556352136E-01  0.14579812391E-02  0.15790295613E-02  0.23654191375E-01  0.00000000000E+00 0.  1.
     999901    1    3    3    0    0  0.10909752832E+00  0.66316520210E-01 -0.67323936462E-01  0.89175818693E+00  0.88000000000E+00 0.  1.
        -11    1    4    4    0    0 -0.56855637454E-01 -0.35473472208E-01  0.43807364994E-01  0.80064206044E-01  0.51100000000E-03 0.  1.
         11    1    4    4    0    0 -0.28685538729E-01 -0.32301029241E-01  0.21937541907E-01  0.48453415649E-01  0.51100000000E-03 0. -1.
</event>
<event>
 8    1  0.1054833E+005  0.1043930E+01  0.7957747E-01            NaN
         13   -1    0    0    0    0  0.00000000000E+00  0.00000000000E+00  0.74505805969E-08  0.10566000000E+00  0.10566000000E+00 0.  1.
     999900   -1    0    0    0    0 -0.00000000000E+00 -0.00000000000E+00 -0.74505805969E-08  0.93827000000E+00  0.93827000000E+00 0.  1.
     999902    2    1    2    0    0 -0.18677574468E-01  0.99092056150E-02  0.10386357133E-01  0.10203732481E+01  0.10201012915E+01 0.  0.
     999903    2    3    3    0    0  0.35144794452E-01  0.39180263654E-01 -0.11704988867E+00  0.12908561837E+00  0.13862568089E-01 0.  0.
         14    1    1    2    0    0  0.18677574468E-01 -0.99092056150E-02 -0.10386357133E-01  0.23556751865E-01  0.00000000000E+00 0. -1.
     999901    1    3    3    0    0 -0.53822368919E-01 -0.29271058039E-01  0.12743624580E+00  0.89128762977E+00  0.88000000000E+00 0. -1.
        -11    1    4    4    0    0  0.14978307890E-02  0.66254373084E-02 -0.23586704537E-01  0.24550634789E-01  0.51100000000E-03 0.  1.
         11    1    4    4    0    0  0.33646963663E-01  0.32554826345E-01 -0.93463184134E-01  0.10453498358E+00  0.51100000000E-03 0. -1.
</event>
<event>
 8    1  0.1054833E+005  0.1043930E+01  0.7957747E-01            NaN
         13   -1    0    0    0    0  0.00000000000E+00  0.00000000000E+00  0.74505805969E-08  0.10566000000E+00  0.10566000000E+00 0.  1.
     999900   -1    0    0    0    0 -0.00000000000E+00 -0.00000000000E+00 -0.74505805969E-08  0.93827000000E+00  0.93827000000E+00 0.  1.
     999902    2    1    2    0    0 -0.11494159990E-01  0.13529115756E-01 -0.14916599272E-01  0.10207425547E+01  0.10204791548E+01 0.  0.
     999903    2    3    3    0    0 -0.79174005370E-01  0.10346676157E+00  0.15708442185E-01  0.13304483880E+00  0.21915293729E-01 0.  0.
         14    1    1    2    0    0  0.11494159990E-01 -0.13529115756E-01  0.14916599272E-01  0.23187445329E-01  0.00000000000E+00 0.  1.
     999901    1    3    3    0    0  0.67679845380E-01 -0.89937645810E-01 -0.30625041457E-01  0.88769771587E+00  0.88000000000E+00 0.  1.
        -11    1    4    4    0    0 -0.34874784299E-01  0.59830378749E-01  0.14983747419E-01  0.70856888224E-01  0.51100000000E-03 0.  1.
         11    1    4    4    0    0 -0.44299221071E-01  0.43636382818E-01  0.72469476612E-03  0.62187950573E-01  0.51100000000E-03 0. -1.
</event>
<event>
 8    1  0.1054833E+005  0.1043930E+01  0.7957747E-01            NaN
         13   -1    0    0    0    0  0.00000000000E+00  0.00000000000E+00  0.74505805969E-08  0.10566000000E+00  0.10566000000E+00 0. -1.
     999900   -1    0    0    0    0 -0.00000000000E+00 -0.00000000000E+00 -0.74505805969E-08  0.93827000000E+00  0.93827000000E+00 0.  1.
     999902    2    1    2    0    0  0.90637905150E-02  0.20551527125E-01  0.79825141282E-02  0.10200922548E+01  0.10198136938E+01 0.  0.
     999903    2    3    3    0    0 -0.11348282247E+00  0.57361216761E-02  0.60011775838E-01  0.12995506722E+00  0.19381748322E-01 0.  0.
         14    1    1    2    0    0 -0.90637905150E-02 -0.20551527125E-01 -0.79825141282E-02  0.23837745226E-01  0.00000000000E+00 0.  1.
     999901    1    3    3    0    0  0.12254661299E+00  0.14815405449E-01 -0.52029261710E-01  0.89013718755E+00  0.88000000000E+00 0.  1.
        -11    1    4    4    0    0 -0.13230767452E-01  0.70601221613E-02  0.75954988400E-02  0.16818182302E-01  0.51100000000E-03 0.  1.
         11    1    4    4    0    0 -0.10025205502E+00 -0.13240004851E-02  0.52416276998E-01  0.11313688492E+00  0.51100000000E-03 0. -1.
</event>
<event>
 8    1  0.1054833E+005  0.1043930E+01  0.7957747E-01            NaN
         13   -1    0    0    0    0  0.00000000000E+00  0.00000000000E+00  0.74505805969E-08  0.10566000000E+00  0.10566000000E+00 0.  1.
     999900   -1    0    0    0    0 -0.00000000000E+00 -0.00000000000E+00 -0.74505805969E-08  0.93827000000E+00  0.93827000000E+00 0. -1.
     999902    2    1    2    0    0 -0.12699002810E-01  0.12323364442E-01  0.15106004265E-01  0.10206636864E+01  0.10203984709E+01 0.  0.
     999903    2    3    3    0    0  0.10198883632E+00 -0.58758801865E-01 -0.46865362672E-01  0.12822521506E+00  0.19774327539E-01 0.  0.
         14    1    1    2    0    0  0.12699002810E-01 -0.12323364442E-01 -0.15106004265E-01  0.23266313597E-01  0.00000000000E+00 0. -1.
     999901    1    3    3    0    0 -0.11468783912E+00  0.71082166307E-01  0.61971366938E-01  0.89243847134E+00  0.88000000000E+00 0.  1.
        -11    1    4    4    0    0  0.78798678804E-01 -0.35562064312E-01 -0.31658014230E-01  0.92067275323E-01  0.51100000000E-03 0.  1.
         11    1    4    4    0    0  0.23190157511E-01 -0.23196737553E-01 -0.15207348443E-01  0.36157939739E-01  0.51100000000E-03 0. -1.
</event>
<event>
 8    1  0.1054833E+005  0.1043930E+01  0.7957747E-01            NaN
         13   -1    0    0    0    0  0.00000000000E+00  0.00000000000E+00  0.74505805969E-08  0.10566000000E+00  0.10566000000E+00 0. -1.
     999900   -1    0    0    0    0 -0.00000000000E+00 -0.00000000000E+00 -0.74505805969E-08  0.93827000000E+00  0.93827000000E+00 0. -1.
     999902    2    1    2    0    0  0.79009617617E-02  0.18131668450E-01  0.12686177129E-01  0.10204327302E+01  0.10201621612E+01 0.  0.
     999903    2    3    3    0    0 -0.83133726602E-01 -0.43376042303E-01  0.88434132590E-01  0.13037190885E+00  0.19584209575E-01 0.  0.
         14    1    1    2    0    0 -0.79009617617E-02 -0.18131668450E-01 -0.12686177129E-01  0.23497269792E-01  0.00000000000E+00 0.  1.
     999901    1    3    3    0    0  0.91034688363E-01  0.61507710752E-01 -0.75747955462E-01  0.89006082136E+00  0.88000000000E+00 0. -1.
        -11    1    4    4    0    0 -0.47786046734E-01 -0.17810483293E-01  0.37469851816E-01  0.63284836207E-01  0.51100000000E-03 0.  1.
         11    1    4    4    0    0 -0.35347679867E-01 -0.25565559010E-01  0.50964280774E-01  0.67087072639E-01  0.51100000000E-03 0. -1.
</event>
<event>
 8    1  0.1054833E+005  0.1043930E+01  0.7957747E-01            NaN
         13   -1    0    0    0    0  0.00000000000E+00  0.00000000000E+00  0.74505805969E-08  0.10566000000E+00  0.10566000000E+00 0.  1.
     999900   -1    0    0    0    0 -0.00000000000E+00 -0.00000000000E+00 -0.74505805969E-08  0.93827000000E+00  0.93827000000E+00 0.  1.
     999902    2    1    2    0    0  0.78129246124E-02  0.20044502170E-01 -0.90330302109E-02  0.10205972013E+01  0.10203304503E+01 0.  0.
     999903    2    3    3    0    0 -0.43079032746E-01 -0.10491063514E+00 -0.58268938678E-01  0.12895380158E+00  0.19281319978E-01 0.  0.
         14    1    1    2    0    0 -0.78129246124E-02 -0.20044502170E-01  0.90330302109E-02  0.23332798655E-01  0.00000000000E+00 0.  1.
     999901    1    3    3    0    0  0.50891957359E-01  0.12495513731E+00  0.49235908467E-01  0.89164339977E+00  0.88000000000E+00 0.  1.
        -11    1    4    4    0    0 -0.10637894989E-01 -0.42571250348E-01 -0.14762753324E-01  0.46299850677E-01  0.51100000000E-03 0. -1.
         11    1    4    4    0    0 -0.32441137758E-01 -0.62339384788E-01 -0.43506185354E-01  0.82653950903E-01  0.51100000000E-03 0.  1.
</event>
<event>
 8    1  0.1054833E+005  0.1043930E+01  0.7957747E-01            NaN
         13   -1    0    0    0    0  0.00000000000E+00  0.00000000000E+00  0.74505805969E-08  0.10566000000E+00  0.10566000000E+00 0. -1.
     999900   -1    0    0    0    0 -0.00000000000E+00 -0.00000000000E+00 -0.74505805969E-08  0.93827000000E+00  0.93827000000E+00 0. -1.
     999902    2    1    2    0    0  0.24857645430E-01 -0.44384006445E-03  0.35561565418E-03  0.10190658492E+01  0.10187624743E+01 0.  0.
     999903    2    3    3    0    0 -0.11721970084E+00 -0.35413267108E-01 -0.25620865133E-01  0.12660654445E+00  0.19448151985E-01 0.  0.
         14    1    1    2    0    0 -0.24857645430E-01  0.44384006445E-03 -0.35561565418E-03  0.24864150756E-01  0.00000000000E+00 0. -1.
     999901    1    3    3    0    0  0.14207734627E+00  0.34969427043E-01  0.25976480787E-01  0.89245930479E+00  0.88000000000E+00 0.  1.
        -11    1    4    4    0    0 -0.78853694574E-01 -0.15910799682E-01 -0.11238154787E-01  0.81225709837E-01  0.51100000000E-03 0.  1.
         11    1    4    4    0    0 -0.38366006269E-01 -0.19502467425E-01 -0.14382710346E-01  0.45380834617E-01  0.51100000000E-03 0. -1.
</event>
<event>
 8    1  0.1054833E+005  0.1043930E+01  0.7957747E-01            NaN
         13   -1    0    0    0    0  0.00000000000E+00  0.00000000000E+00  0.74505805969E-08  0.10566000000E+00  0.10566000000E+00 0.  1.
     999900   -1    0    0    0    0 -0.00000000000E+00 -0.00000000000E+00 -0.74505805969E-08  0.93827000000E+00  0.93827000000E+00 0.  1.
     999902    2    1    2    0    0 -0.89495481213E-02  0.12627408289E-01  0.28469265893E-01  0.10115256029E+01  0.10110064294E+01 0.  0.
     999903    2    3    3    0    0  0.32426707180E-01  0.11760039569E+00 -0.44719546277E-02  0.12371005527E+00  0.20070749666E-01 0.  0.
         14    1    1    2    0    0  0.89495481213E-02 -0.12627408289E-01 -0.28469265893E-01  0.32404397112E-01  0.00000000000E+00 0.  1.
     999901    1    3    3    0    0 -0.41376255301E-01 -0.10497298740E+00  0.32941220521E-01  0.88781554762E+00  0.88000000000E+00 0. -1.
        -11    1    4    4    0    0  0.16338811611E-02  0.72204611398E-02 -0.52869399129E-02  0.91113929431E-02  0.51100000000E-03 0. -1.
         11    1    4    4    0    0  0.30792826019E-01  0.11037993455E+00  0.81498528519E-03  0.11459866233E+00  0.51100000000E-03 0.  1.
</event>
<event>
 8    1  0.1054833E+005  0.1043930E+01  0.7957747E-01            NaN
         13   -1    0    0    0    0  0.00000000000E+00  0.00000000000E+00  0.74505805969E-08  0.10566000000E+00  0.10566000000E+00 0.  1.
     999900   -1    0    0    0    0 -0.00000000000E+00 -0.00000000000E+00 -0.74505805969E-08  0.93827000000E+00  0.93827000000E+00 0. -1.
     999902    2    1    2    0    0 -0.13281551760E-01 -0.23088886356E-01 -0.17846503733E-01  0.10118676547E+01  0.10113595585E+01 0.  0.
     999903    2    3    3    0    0  0.78003599084E-01  0.70985751899E-01  0.51921767869E-01  0.11942682863E+00  0.21056091156E-01 0.  0.
         14    1    1    2    0    0  0.13281551760E-01  0.23088886356E-01  0.17846503733E-01  0.32062345295E-01  0.00000000000E+00 0.  1.
     999901    1    3    3    0    0 -0.91285150844E-01 -0.94074638255E-01 -0.69768271602E-01  0.89244082608E+00  0.88000000000E+00 0. -1.
        -11    1    4    4    0    0  0.50519850549E-01  0.33602048249E-01  0.34924702437E-01  0.70009634389E-01  0.51100000000E-03 0. -1.
         11    1    4    4    0    0  0.27483748535E-01  0.37383703649E-01  0.16997065432E-01  0.49417194238E-01  0.51100000000E-03 0.  1.
</event>
<event>
 8    1  0.1054833E+005  0.1043930E+01  0.7957747E-01            NaN
         13   -1    0    0    0    0  0.00000000000E+00  0.00000000000E+00  0.74505805969E-08  0.10566000000E+00  0.10566000000E+00 0.  1.
     999900   -1    0    0    0    0 -0.00000000000E+00 -0.00000000000E+00 -0.74505805969E-08  0.93827000000E+00  0.93827000000E+00 0. -1.
     999902    2    1    2    0    0  0.20105761623E-01 -0.14248546931E-02  0.13146235293E-01  0.10198655997E+01  0.10195816524E+01 0.  0.
     999903    2    3    3    0    0 -0.50385657867E-01 -0.54225621737E-01 -0.10250341693E+00  0.12793970404E+00  0.19557219026E-01 0.  0.
         14    1    1    2    0    0 -0.20105761623E-01  0.14248546931E-02 -0.13146235293E-01  0.24064400340E-01  0.00000000000E+00 0. -1.
     999901    1    3    3    0    0  0.70491419490E-01  0.52800767044E-01  0.11564965222E+00  0.89192589562E+00  0.88000000000E+00 0. -1.
        -11    1    4    4    0    0 -0.43914792195E-01 -0.50479691951E-01 -0.99413695327E-01  0.11983343529E+00  0.51100000000E-03 0. -1.
         11    1    4    4    0    0 -0.64708656719E-02 -0.37459297857E-02 -0.30897216011E-02  0.81062687517E-02  0.51100000000E-03 0.  1.
</event>
<event>
 8    1  0.1054833E+005  0.1043930E+01  0.7957747E-01            NaN
         13   -1    0    0    0    0  0.00000000000E+00  0.00000000000E+00  0.74505805969E-08  0.10566000000E+00  0.10566000000E+00 0. -1.
     999900   -1    0    0    0    0 -0.00000000000E+00 -0.00000000000E+00 -0.74505805969E-08  0.93827000000E+00  0.93827000000E+00 0.  1.
     999902    2    1    2    0    0 -0.51113584368E-02  0.49353457903E-02 -0.10740366001E-01  0.10310521475E+01  0.10309717221E+01 0.  0.
     999903    2    3    3    0    0 -0.16957114372E-01 -0.27481845052E-01 -0.13639183628E+00  0.14145702151E+00  0.19093464725E-01 0.  0.
         14    1    1    2    0    0  0.51113584368E-02 -0.49353457903E-02  0.10740366001E-01  0.12877852499E-01  0.00000000000E+00 0. -1.
     999901    1    3    3    0    0  0.11845755935E-01  0.32417190843E-01  0.12565147028E+00  0.88959512599E+00  0.88000000000E+00 0. -1.
        -11    1    4    4    0    0 -0.14696652232E-01 -0.29000475447E-01 -0.10442406072E+00  0.10936939582E+00  0.51100000000E-03 0.  1.
         11    1    4    4    0    0 -0.22604621396E-02  0.15186303949E-02 -0.31967775561E-01  0.32087625694E-01  0.51100000000E-03 0. -1.
</event>
<event>
 8    1  0.1054833E+005  0.1043930E+01  0.7957747E-01            NaN
         13   -1    0    0    0    0  0.00000000000E+00  0.00000000000E+00  0.74505805969E-08  0.10566000000E+00  0.10566000000E+00 0.  1.
     999900   -1    0    0    0    0 -0.00000000000E+00 -0.00000000000E+00 -0.74505805969E-08  0.93827000000E+00  0.93827000000E+00 0. -1.
     999902    2    1    2    0    0  0.69543528430E-02 -0.11478659649E-01  0.20430931813E-01  0.10194852536E+01  0.10191921491E+01 0.  0.
     999903    2    3    3    0    0 -0.76851661571E-02  0.11945534657E+00  0.38724131044E-01  0.12948937125E+00  0.30647958134E-01 0.  0.
         14    1    1    2    0    0 -0.69543528430E-02  0.11478659649E-01 -0.20430931813E-01  0.24444746379E-01  0.00000000000E+00 0. -1.
     999901    1    3    3    0    0  0.14639519000E-01 -0.13093400622E+00 -0.18293199231E-01  0.88999588237E+00  0.88000000000E+00 0.  1.
        -11    1    4    4    0    0 -0.74465561980E-02  0.10196887131E+00  0.20595792218E-01  0.10429549221E+00  0.51100000000E-03 0. -1.
         11    1    4    4    0    0 -0.23860995913E-03  0.17486475258E-01  0.18128338826E-01  0.25193879043E-01  0.51100000000E-03 0.  1.
</event>
<event>
 8    1  0.1054833E+005  0.1043930E+01  0.7957747E-01            NaN
         13   -1    0    0    0    0  0.00000000000E+00  0.00000000000E+00  0.74505805969E-08  0.10566000000E+00  0.10566000000E+00 0. -1.
     999900   -1    0    0    0    0 -0.00000000000E+00 -0.00000000000E+00 -0.74505805969E-08  0.93827000000E+00  0.93827000000E+00 0. -1.
     999902    2    1    2    0    0 -0.20705695786E-01  0.69418954448E-03 -0.13454889907E-01  0.10192269273E+01  0.10189275183E+01 0.  0.
     999903    2    3    3    0    0  0.66662120784E-01 -0.10441911648E+00 -0.28057693310E-01  0.12855572854E+00  0.19802801664E-01 0.  0.
         14    1    1    2    0    0  0.20705695786E-01 -0.69418954448E-03  0.13454889907E-01  0.24703072674E-01  0.00000000000E+00 0. -1.
     999901    1    3    3    0    0 -0.87367816570E-01  0.10511330602E+00  0.14602803403E-01  0.89067119878E+00  0.88000000000E+00 0.  1.
        -11    1    4    4    0    0  0.57034270767E-01 -0.80544663360E-01 -0.15483710294E-01  0.99901737938E-01  0.51100000000E-03 0. -1.
         11    1    4    4    0    0  0.96278500165E-02 -0.23874453119E-01 -0.12573983016E-01  0.28653990604E-01  0.51100000000E-03 0.  1.
</event>
<event>
 8    1  0.1054833E+005  0.1043930E+01  0.7957747E-01            NaN
         13   -1    0    0    0    0  0.00000000000E+00  0.00000000000E+00  0.74505805969E-08  0.10566000000E+00  0.10566000000E+00 0. -1.
     999900   -1    0    0    0    0 -0.00000000000E+00 -0.00000000000E+00 -0.74505805969E-08  0.93827000000E+00  0.93827000000E+00 0.  1.
     999902    2    1    2    0    0  0.17854719783E-01 -0.15422582292E-01 -0.74129366607E-02  0.10191994785E+01  0.10188993956E+01 0.  0.
     999903    2    3    3    0    0  0.19686480302E-01 -0.11941494237E+00  0.47202887997E-01  0.13139282467E+00  0.19709788711E-01 0.  0.
         14    1    1    2    0    0 -0.17854719783E-01  0.15422582292E-01  0.74129366607E-02  0.24730521487E-01  0.00000000000E+00 0. -1.
     999901    1    3    3    0    0 -0.18317605187E-02  0.10399236008E+00 -0.54615824658E-01  0.88780665384E+00  0.88000000000E+00 0.  1.
        -11    1    4    4    0    0 -0.14478271913E-02 -0.31016643020E-01  0.18158962052E-01  0.35974120860E-01  0.51100000000E-03 0.  1.
         11    1    4    4    0    0  0.21134307493E-01 -0.88398299354E-01  0.29043925945E-01  0.95418703812E-01  0.51100000000E-03 0. -1.
</event>
<event>
 8    1  0.1054833E+005  0.1043930E+01  0.7957747E-01            NaN
         13   -1    0    0    0    0  0.00000000000E+00  0.00000000000E+00  0.74505805969E-08  0.10566000000E+00  0.10566000000E+00 0.  1.
     999900   -1    0    0    0    0 -0.00000000000E+00 -0.00000000000E+00 -0.74505805969E-08  0.93827000000E+00  0.93827000000E+00 0.  1.
     999902    2    1    2    0    0  0.50448286061E-02 -0.22556472028E-01 -0.60299605304E-02  0.10200426571E+01  0.10197629220E+01 0.  0.
     999903    2    3    3    0    0 -0.70702395131E-01 -0.75923212351E-01  0.77792664182E-01  0.13121653054E+00  0.20072778447E-01 0.  0.
         14    1    1    2    0    0 -0.50448286061E-02  0.22556472028E-01  0.60299605304E-02  0.23887342884E-01  0.00000000000E+00 0.  1.
     999901    1    3    3    0    0  0.75747223737E-01  0.53366740323E-01 -0.83822624713E-01  0.88882612658E+00  0.88000000000E+00 0.  1.
        -11    1    4    4    0    0 -0.22194674698E-01 -0.25571221864E-01  0.14257529803E-01  0.36742744177E-01  0.51100000000E-03 0.  1.
         11    1    4    4    0    0 -0.48507720433E-01 -0.50351990488E-01  0.63535134379E-01  0.94473786360E-01  0.51100000000E-03 0. -1.
</event>
<event>
 8    1  0.1054833E+005  0.1043930E+01  0.7957747E-01            NaN
         13   -1    0    0    0    0  0.00000000000E+00  0.00000000000E+00  0.74505805969E-08  0.10566000000E+00  0.10566000000E+00 0. -1.
     999900   -1    0    0    0    0 -0.00000000000E+00 -0.00000000000E+00 -0.74505805969E-08  0.93827000000E+00  0.93827000000E+00 0. -1.
     999902    2    1    2    0    0 -0.14225686984E-02 -0.11619602500E-01  0.20519569209E-01  0.10203060379E+01  0.10200325090E+01 0.  0.
     999903    2    3    3    0    0  0.21321998898E-01 -0.24654378345E-01 -0.12256840380E+00  0.12836355728E+00  0.19791998879E-01 0.  0.
         14    1    1    2    0    0  0.14225686984E-02  0.11619602500E-01 -0.20519569209E-01  0.23623962083E-01  0.00000000000E+00 0.  1.
     999901    1    3    3    0    0 -0.22744567597E-01  0.13034775845E-01  0.14308797301E+00  0.89194248063E+00  0.88000000000E+00 0.  1.
        -11    1    4    4    0    0  0.46681211480E-02 -0.33516684082E-02 -0.58998285059E-01  0.59279708139E-01  0.51100000000E-03 0. -1.
         11    1    4    4    0    0  0.16653877750E-01 -0.21302709937E-01 -0.63570118743E-01  0.69083849146E-01  0.51100000000E-03 0.  1.
</event>
<event>
 8    1  0.1054833E+005  0.1043930E+01  0.7957747E-01            NaN
         13   -1    0    0    0    0  0.00000000000E+00  0.00000000000E+00  0.74505805969E-08  0.10566000000E+00  0.10566000000E+00 0. -1.
     999900   -1    0    0    0    0 -0.00000000000E+00 -0.00000000000E+00 -0.74505805969E-08  0.93827000000E+00  0.93827000000E+00 0.  1.
     999902    2    1    2    0    0  0.17625999446E-01  0.21776738253E-04  0.16539837344E-01  0.10197588902E+01  0.10194723888E+01 0.  0.
     999903    2    3    3    0    0 -0.10078450303E+00  0.63179878171E-01 -0.41585772867E-01  0.12768906139E+00  0.20637510422E-01 0.  0.
         14    1    1    2    0    0 -0.17625999446E-01 -0.21776738253E-04 -0.16539837344E-01  0.24171109823E-01  0.00000000000E+00 0.  1.
     999901    1    3    3    0    0  0.11841050248E+00 -0.63158101433E-01  0.58125610211E-01  0.89206982879E+00  0.88000000000E+00 0. -1.
        -11    1    4    4    0    0 -0.54585752732E-01  0.27562751817E-01 -0.30392847271E-01  0.68288329715E-01  0.51100000000E-03 0.  1.
         11    1    4    4    0    0 -0.46198750298E-01  0.35617126355E-01 -0.11192925596E-01  0.59400731673E-01  0.51100000000E-03 0. -1.
</event>
<event>
 8    1  0.1054833E+005  0.1043930E+01  0.7957747E-01            NaN
         13   -1    0    0    0    0  0.00000000000E+00  0.00000000000E+00  0.74505805969E-08  0.10566000000E+00  0.10566000000E+00 0. -1.
     999900   -1    0    0    0    0 -0.00000000000E+00 -0.00000000000E+00 -0.74505805969E-08  0.93827000000E+00  0.93827000000E+00 0. -1.
     999902    2    1    2    0    0 -0.51420735746E-02  0.19927137888E-01  0.10903997745E-01  0.10206398967E+01  0.10203741323E+01 0.  0.
     999903    2    3    3    0    0 -0.11594506382E-01 -0.68324984230E-02 -0.12722368801E+00  0.12944016061E+00  0.19691946971E-01 0.  0.
         14    1    1    2    0    0  0.51420735746E-02 -0.19927137888E-01 -0.10903997745E-01  0.23290103303E-01  0.00000000000E+00 0.  1.
     999901    1    3    3    0    0  0.64524328078E-02  0.26759636311E-01  0.13812768576E+00  0.89119973608E+00  0.88000000000E+00 0.  1.
        -11    1    4    4    0    0  0.17929104566E-02 -0.52911682558E-02 -0.83400588476E-01  0.83589055914E-01  0.51100000000E-03 0.  1.
         11    1    4    4    0    0 -0.13387416839E-01 -0.15413301672E-02 -0.43823099534E-01  0.45851104699E-01  0.51100000000E-03 0. -1.
</event>
<event>
 8    1  0.1054833E+005  0.1043930E+01  0.7957747E-01            NaN
         13   -1    0    0    0    0  0.00000000000E+00  0.00000000000E+00  0.74505805969E-08  0.10566000000E+00  0.10566000000E+00 0. -1.
     999900   -1    0    0    0    0 -0.00000000000E+00 -0.00000000000E+00 -0.74505805969E-08  0.93827000000E+00  0.93827000000E+00 0.  1.
     999902    2    1    2    0    0  0.56942144413E-02 -0.17951516678E-01 -0.14381483165E-01  0.10202338381E+01  0.10199586150E+01 0.  0.
     999903    2    3    3    0    0 -0.10456710340E+00  0.39263644803E-01  0.60040883406E-01  0.12839875161E+00  0.20135014683E-01 0.  0.
         14    1    1    2    0    0 -0.56942144413E-02  0.17951516678E-01  0.14381483165E-01  0.23696161866E-01  0.00000000000E+00 0.  1.
     999901    1    3    3    0    0  0.11026131785E+00 -0.57215161481E-01 -0.74422366570E-01  0.89183508653E+00  0.88000000000E+00 0.  1.
        -11    1    4    4    0    0 -0.48807069563E-01  0.28684949628E-01  0.26978248238E-01  0.62713980686E-01  0.51100000000E-03 0. -1.
         11    1    4    4    0    0 -0.55760033842E-01  0.10578695174E-01  0.33062635167E-01  0.65684770920E-01  0.51100000000E-03 0.  1.
</event>
<event>
 8    1  0.1054833E+005  0.1043930E+01  0.7957747E-01            NaN
         13   -1    0    0    0    0  0.00000000000E+00  0.00000000000E+00  0.74505805969E-08  0.10566000000E+00  0.10566000000E+00 0. -1.
     999900   -1    0    0    0    0 -0.00000000000E+00 -0.00000000000E+00 -0.74505805969E-08  0.93827000000E+00  0.93827000000E+00 0.  1.
     999902    2    1    2    0    0  0.11309550981E-01  0.17953975374E-01  0.11768061584E-01  0.10196660669E+01  0.10193773342E+01 0.  0.
     999903    2    3    3    0    0 -0.69284088324E-01  0.97857622304E-01 -0.47529350643E-01  0.13039889076E+00  0.19194593046E-01 0.  0.
         14    1    1    2    0    0 -0.11309550981E-01 -0.17953975374E-01 -0.11768061584E-01  0.24263933081E-01  0.00000000000E+00 0.  1.
     999901    1    3    3    0    0  0.80593639306E-01 -0.79903646929E-01  0.59297412226E-01  0.88926717615E+00  0.88000000000E+00 0.  1.
        -11    1    4    4    0    0 -0.32353600436E-02  0.10036281381E-01  0.28108311700E-03  0.10560995563E-01  0.51100000000E-03 0. -1.
         11    1    4    4    0    0 -0.66048728281E-01  0.87821340923E-01 -0.47810433760E-01  0.11983789520E+00  0.51100000000E-03 0.  1.
</event>
<event>
 8    1  0.1054833E+005  0.1043930E+01  0.7957747E-01            NaN
         13   -1    0    0    0    0  0.00000000000E+00  0.00000000000E+00  0.74505805969E-08  0.10566000000E+00  0.10566000000E+00 0.  1.
     999900   -1    0    0    0    0 -0.00000000000E+00 -0.00000000000E+00 -0.74505805969E-08  0.93827000000E+00  0.93827000000E+00 0.  1.
     999902    2    1    2    0    0  0.23732418755E-01  0.11998768102E-02  0.28949295684E-02  0.10199915786E+01  0.10197106316E+01 0.  0.
     999903    2    3    3    0    0  0.17131642432E-01 -0.37995146322E-01  0.12250240253E+00  0.13101139448E+00  0.20494451455E-01 0.  0.
         14    1    1    2    0    0 -0.23732418755E-01 -0.11998768102E-02 -0.28949295684E-02  0.23938421450E-01  0.00000000000E+00 0.  1.
     999901    1    3    3    0    0  0.66007763228E-02  0.39195023132E-01 -0.11960747296E+00  0.88898018407E+00  0.88000000000E+00 0.  1.
        -11    1    4    4    0    0  0.12441377307E-01 -0.33004267567E-01  0.73460823224E-01  0.81491246258E-01  0.51100000000E-03 0.  1.
         11    1    4    4    0    0  0.46902651252E-02 -0.49908787546E-02  0.49041579307E-01  0.49520148219E-01  0.51100000000E-03 0. -1.
</event>
<event>
 8    1  0.1054833E+005  0.1043930E+01  0.7957747E-01            NaN
         13   -1    0    0    0    0  0.00000000000E+00  0.00000000000E+00  0.74505805969E-08  0.10566000000E+00  0.10566000000E+00 0. -1.
     999900   -1    0    0    0    0 -0.00000000000E+00 -0.00000000000E+00 -0.74505805969E-08  0.93827000000E+00  0.93827000000E+00 0. -1.
     999902    2    1    2    0    0  0.17323305240E-01 -0.26301998274E-02  0.14963431284E-01  0.10208883175E+01  0.10206282564E+01 0.  0.
     999903    2    3    3    0    0  0.45143487980E-01 -0.62764234829E-01  0.10695846561E+00  0.13361544457E+00  0.20873188084E-01 0.  0.
         14    1    1    2    0    0 -0.17323305240E-01  0.26301998274E-02 -0.14963431284E-01  0.23041682477E-01  0.00000000000E+00 0.  1.
     999901    1    3    3    0    0 -0.27820182741E-01  0.60134035002E-01 -0.91995034331E-01  0.88727287295E+00  0.88000000000E+00 0. -1.
        -11    1    4    4    0    0  0.29479370515E-01 -0.26091123096E-01  0.43554425430E-01  0.58711405075E-01  0.51100000000E-03 0. -1.
         11    1    4    4    0    0  0.15664117465E-01 -0.36673111734E-01  0.63404040185E-01  0.74904039497E-01  0.51100000000E-03 0.  1.
</event>
<event>
 8    1  0.1054833E+005  0.1043930E+01  0.7957747E-01            NaN
         13   -1    0    0    0    0  0.00000000000E+00  0.00000000000E+00  0.74505805969E-08  0.10566000000E+00  0.10566000000E+00 0.  1.
     999900   -1    0    0    0    0 -0.00000000000E+00 -0.00000000000E+00 -0.74505805969E-08  0.93827000000E+00  0.93827000000E+00 0.  1.
     999902    2    1    2    0    0  0.89502838437E-03 -0.16215327205E-01  0.17279999168E-01  0.10202163692E+01  0.10199407354E+01 0.  0.
     999903    2    3    3    0    0 -0.98230457578E-01 -0.14441886493E-03 -0.80610988884E-01  0.12911212080E+00  0.22859670943E-01 0.  0.
         14    1    1    2    0    0 -0.89502838437E-03  0.16215327205E-01 -0.17279999168E-01  0.23713630752E-01  0.00000000000E+00 0. -1.
     999901    1    3    3    0    0  0.99125485962E-01 -0.16070908340E-01  0.97890988052E-01  0.89110424845E+00  0.88000000000E+00 0.  1.
        -11    1    4    4    0    0 -0.64325852447E-02  0.34747028937E-02 -0.13426887120E-01  0.15296866733E-01  0.51100000000E-03 0.  1.
         11    1    4    4    0    0 -0.91797872333E-01 -0.36191217586E-02 -0.67184101764E-01  0.11381525407E+00  0.51100000000E-03 0. -1.
</event>
<event>
 8    1  0.1054833E+005  0.1043930E+01  0.7957747E-01            NaN
         13   -1    0    0    0    0  0.00000000000E+00  0.00000000000E+00  0.74505805969E-08  0.10566000000E+00  0.10566000000E+00 0. -1.
     999900   -1    0    0    0    0 -0.00000000000E+00 -0.00000000000E+00 -0.74505805969E-08  0.93827000000E+00  0.93827000000E+00 0. -1.
     999902    2    1    2    0    0  0.60897559230E-02  0.63127156222E-02  0.23183606092E-01  0.10191426020E+01  0.10188411202E+01 0.  0.
     999903    2    3    3    0    0  0.29659421136E-01  0.56896186523E-01  0.11422158399E+00  0.13268779211E+00  0.21038598407E-01 0.  0.
         14    1    1    2    0    0 -0.60897559230E-02 -0.63127156222E-02 -0.23183606092E-01  0.24787397951E-01  0.00000000000E+00 0.  1.
     999901    1    3    3    0    0 -0.23569665213E-01 -0.50583470901E-01 -0.91037977897E-01  0.88645480994E+00  0.88000000000E+00 0. -1.
        -11    1    4    4    0    0  0.32513224728E-01  0.49047575337E-01  0.95397692858E-01  0.11208815884E+00  0.51100000000E-03 0. -1.
         11    1    4    4    0    0 -0.28538035923E-02  0.78486111857E-02  0.18823891131E-01  0.20599633269E-01  0.51100000000E-03 0.  1.
</event>
<event>
 8    1  0.1054833E+005  0.1043930E+01  0.7957747E-01            NaN
         13   -1    0    0    0    0  0.00000000000E+00  0.00000000000E+00  0.74505805969E-08  0.10566000000E+00  0.10566000000E+00 0.  1.
     999900   -1    0    0    0    0 -0.00000000000E+00 -0.00000000000E+00 -0.74505805969E-08  0.93827000000E+00  0.93827000000E+00 0.  1.
     999902    2    1    2    0    0  0.91191264732E-02  0.79097621212E-02  0.20139608726E-01  0.10204496541E+01  0.10201794793E+01 0.  0.
     999903    2    3    3    0    0  0.77022635913E-01 -0.96508281415E-01  0.40835045874E-01  0.13143766568E+00  0.19026932606E-01 0.  0.
         14    1    1    2    0    0 -0.91191264732E-02 -0.79097621212E-02 -0.20139608726E-01  0.23480345910E-01  0.00000000000E+00 0. -1.
     999901    1    3    3    0    0 -0.67903509439E-01  0.10441804354E+00 -0.20695437148E-01  0.88901198841E+00  0.88000000000E+00 0. -1.
        -11    1    4    4    0    0  0.36187157891E-01 -0.47931492934E-01  0.10022727665E-01  0.60890513234E-01  0.51100000000E-03 0. -1.
         11    1    4    4    0    0  0.40835478022E-01 -0.48576788481E-01  0.30812318209E-01  0.70547152450E-01  0.51100000000E-03 0.  1.
</event>
<event>
 8    1  0.1054833E+005  0.1043930E+01  0.7957747E-01            NaN
         13   -1    0    0    0    0  0.00000000000E+00  0.00000000000E+00  0.74505805969E-08  0.10566000000E+00  0.10566000000E+00 0. -1.
     999900   -1    0    0    0    0 -0.00000000000E+00 -0.00000000000E+00 -0.74505805969E-08  0.93827000000E+00  0.93827000000E+00 0.  1.
     999902    2    1    2    0    0  0.18339594543E-01 -0.12762968238E-01  0.87100090586E-02  0.10199487919E+01  0.10196668278E+01 0.  0.
     999903    2    3    3    0    0  0.11723514726E+00 -0.58785471281E-01 -0.10472054851E-01  0.13300665580E+00  0.19526780780E-01 0.  0.
         14    1    1    2    0    0 -0.18339594543E-01  0.12762968238E-01 -0.87100090586E-02  0.23981208144E-01  0.00000000000E+00 0.  1.
     999901    1    3    3    0    0 -0.98895552718E-01  0.46022503043E-01  0.19182063910E-01  0.88694213605E+00  0.88000000000E+00 0. -1.
        -11    1    4    4    0    0  0.56425314389E-01 -0.37442837801E-01 -0.46262279165E-04  0.67720347516E-01  0.51100000000E-03 0. -1.
         11    1    4    4    0    0  0.60809832872E-01 -0.21342633480E-01 -0.10425792572E-01  0.65286308285E-01  0.51100000000E-03 0.  1.
</event>
<event>
 8    1  0.1054833E+005  0.1043930E+01  0.7957747E-01            NaN
         13   -1    0    0    0    0  0.00000000000E+00  0.00000000000E+00  0.74505805969E-08  0.10566000000E+00  0.10566000000E+00 0.  1.
     999900   -1    0    0    0    0 -0.00000000000E+00 -0.00000000000E+00 -0.74505805969E-08  0.93827000000E+00  0.93827000000E+00 0. -1.
     999902    2    1    2    0    0  0.16244272436E-01  0.12141304478E-01  0.11011381049E-01  0.10208532114E+01  0.10205923481E+01 0.  0.
     999903    2    3    3    0    0 -0.94452227741E-01  0.46192635924E-01  0.75795785769E-01  0.13090364682E+00  0.18324319136E-01 0.  0.
         14    1    1    2    0    0 -0.16244272436E-01 -0.12141304478E-01 -0.11011381049E-01  0.23076788642E-01  0.00000000000E+00 0. -1.
     999901    1    3    3    0    0  0.11069650018E+00 -0.34051331447E-01 -0.64784404720E-01  0.88994956454E+00  0.88000000000E+00 0. -1.
        -11    1    4    4    0    0 -0.49663858607E-01  0.34336116546E-01  0.43923825935E-01  0.74666132597E-01  0.51100000000E-03 0. -1.
         11    1    4    4    0    0 -0.44788369134E-01  0.11856519379E-01  0.31871959834E-01  0.56237514225E-01  0.51100000000E-03 0.  1.
</event>
<event>
 8    1  0.1054833E+005  0.1043930E+01  0.7957747E-01            NaN
         13   -1    0    0    0    0  0.00000000000E+00  0.00000000000E+00  0.74505805969E-08  0.10566000000E+00  0.10566000000E+00 0. -1.
     999900   -1    0    0    0    0 -0.00000000000E+00 -0.00000000000E+00 -0.74505805969E-08  0.93827000000E+00  0.93827000000E+00 0.  1.
     999902    2    1    2    0    0 -0.34514358167E-02 -0.13903967295E-01  0.14710876785E-01  0.10233960620E+01  0.10231900395E+01 0.  0.
     999903    2    3    3    0    0 -0.49125000435E-01 -0.19802655187E-01 -0.11934023467E+00  0.13205405717E+00  0.19767943301E-01 0.  0.
         14    1    1    2    0    0  0.34514358167E-02  0.13903967295E-01 -0.14710876785E-01  0.20533938042E-01  0.00000000000E+00 0. -1.
     999901    1    3    3    0    0  0.45673564618E-01  0.58986878921E-02  0.13405111146E+00  0.89134200479E+00  0.88000000000E+00 0. -1.
        -11    1    4    4    0    0 -0.44245276780E-01 -0.10334223996E-01 -0.89672511014E-01  0.10052791182E+00  0.51100000000E-03 0.  1.
         11    1    4    4    0    0 -0.48797236550E-02 -0.94684311908E-02 -0.29667723657E-01  0.31526145343E-01  0.51100000000E-03 0. -1.
</event>
<event>
 8    1  0.1054833E+005  0.1043930E+01  0.7957747E-01            NaN
         13   -1    0    0    0    0  0.00000000000E+00  0.00000000000E+00  0.74505805969E-08  0.10566000000E+00  0.10566000000E+00 0. -1.
     999900   -1    0    0    0    0 -0.00000000000E+00 -0.00000000000E+00 -0.74505805969E-08  0.93827000000E+00  0.93827000000E+00 0.  1.
     999902    2    1    2    0    0  0.13977793986E-01  0.13275604174E-01 -0.13233749751E-01  0.10205472601E+01  0.10202793528E+01 0.  0.
     999903    2    3    3    0    0 -0.81378009514E-01 -0.91877452216E-01  0.30723622497E-01  0.12808877645E+00  0.19973658045E-01 0.  0.
         14    1    1    2    0    0 -0.13977793986E-01 -0.13275604174E-01  0.13233749751E-01  0.23382739860E-01  0.00000000000E+00 0. -1.
     999901    1    3    3    0    0  0.95355803500E-01  0.10515305639E+00 -0.43957372249E-01  0.89245848369E+00  0.88000000000E+00 0.  1.
        -11    1    4    4    0    0 -0.50549310335E-04 -0.58884573477E-02  0.24666469633E-02  0.64048382814E-02  0.51100000000E-03 0. -1.
         11    1    4    4    0    0 -0.81327460204E-01 -0.85988994868E-01  0.28256975534E-01  0.12168393817E+00  0.51100000000E-03 0.  1.
</event>
<event>
 8    1  0.1054833E+005  0.1043930E+01  0.7957747E-01            NaN
         13   -1    0    0    0    0  0.00000000000E+00  0.00000000000E+00  0.74505805969E-08  0.10566000000E+00  0.10566000000E+00 0. -1.
     999900   -1    0    0    0    0 -0.00000000000E+00 -0.00000000000E+00 -0.74505805969E-08  0.93827000000E+00  0.93827000000E+00 0. -1.
     999902    2    1    2    0    0  0.73826499757E-02  0.21903663293E-01 -0.99317267570E-03  0.10207943051E+01  0.10205320931E+01 0.  0.
     999903    2    3    3    0    0  0.51523337722E-01  0.12120882443E+00 -0.14990116790E-01  0.13399904701E+00  0.19616512138E-01 0.  0.
         14    1    1    2    0    0 -0.73826499757E-02 -0.21903663293E-01  0.99317267570E-03  0.23135694896E-01  0.00000000000E+00 0. -1.
     999901    1    3    3    0    0 -0.44140687746E-01 -0.99305161132E-01  0.13996944114E-01  0.88679525810E+00  0.88000000000E+00 0. -1.
        -11    1    4    4    0    0  0.26368823512E-01  0.53073667426E-01 -0.15900372951E-01  0.61361323392E-01  0.51100000000E-03 0. -1.
         11    1    4    4    0    0  0.25154514210E-01  0.68135157000E-01  0.91025616152E-03  0.72637723614E-01  0.51100000000E-03 0.  1.
</event>
<event>
 8    1  0.1054833E+005  0.1043930E+01  0.7957747E-01            NaN
         13   -1    0    0    0    0  0.00000000000E+00  0.00000000000E+00  0.74505805969E-08  0.10566000000E+00  0.10566000000E+00 0. -1.
     999900   -1    0    0    0    0 -0.00000000000E+00 -0.00000000000E+00 -0.74505805969E-08  0.93827000000E+00  0.93827000000E+00 0.  1.
     999902    2    1    2    0    0  0.17188244744E-01 -0.14809127608E-01  0.62500604044E-02  0.10203968474E+01  0.10201254417E+01 0.  0.
     999903    2    3    3    0    0  0.10013150470E+00  0.69760239015E-01 -0.43900785528E-01  0.13104502188E+00  0.18780564661E-01 0.  0.
         14    1    1    2    0    0 -0.17188244744E-01  0.14809127608E-01 -0.62500604044E-02  0.23533152636E-01  0.00000000000E+00 0. -1.
     999901    1    3    3    0    0 -0.82943259955E-01 -0.84569366624E-01  0.50150845933E-01  0.88935182548E+00  0.88000000000E+00 0.  1.
        -11    1    4    4    0    0  0.69479095776E-01  0.51061983697E-01 -0.39582445727E-01  0.94877300023E-01  0.51100000000E-03 0. -1.
         11    1    4    4    0    0  0.30652408924E-01  0.18698255318E-01 -0.43183398009E-02  0.36167721858E-01  0.51100000000E-03 0.  1.
</event>
<event>
 8    1  0.1054833E+005  0.1043930E+01  0.7957747E-01            NaN
         13   -1    0    0    0    0  0.00000000000E+00  0.00000000000E+00  0.74505805969E-08  0.10566000000E+00  0.10566000000E+00 0. -1.
     999900   -1    0    0    0    0 -0.00000000000E+00 -0.00000000000E+00 -0.74505805969E-08  0.93827000000E+00  0.93827000000E+00 0. -1.
     999902    2    1    2    0    0  0.15425315045E-01 -0.36826893131E-02  0.17759480650E-01  0.10201203024E+01  0.10198424044E+01 0.  0.
     999903    2    3    3    0    0  0.28235982676E-01  0.40931522844E-01  0.12147130914E+00  0.13281500859E+00  0.20295006352E-01 0.  0.
         14    1    1    2    0    0 -0.15425315045E-01  0.36826893131E-02 -0.17759480650E-01  0.23809697557E-01  0.00000000000E+00 0.  1.
     999901    1    3    3    0    0 -0.12810667631E-01 -0.44614212157E-01 -0.10371182849E+00  0.88730529385E+00  0.88000000000E+00 0. -1.
        -11    1    4    4    0    0  0.18307926363E-01  0.37124455526E-01  0.80975240695E-01  0.90943147583E-01  0.51100000000E-03 0. -1.
         11    1    4    4    0    0  0.99280563124E-02  0.38070673179E-02  0.40496068444E-01  0.41871861006E-01  0.51100000000E-03 0.  1.
</event>
<event>
 8    1  0.1054833E+005  0.1043930E+01  0.7957747E-01            NaN
         13   -1    0    0    0    0  0.00000000000E+00  0.00000000000E+00  0.74505805969E-08  0.10566000000E+00  0.10566000000E+00 0.  1.
     999900   -1    0    0    0    0 -0.00000000000E+00 -0.00000000000E+00 -0.74505805969E-08  0.93827000000E+00  0.93827000000E+00 0.  1.
     999902    2    1    2    0    0  0.50931332527E-02  0.19899184786E-01 -0.11961415830E-01  0.10201604180E+01  0.10198834666E+01 0.  0.
     999903    2    3    3    0    0  0.67671507170E-01  0.39665934505E-01 -0.10542451734E+00  0.13278105793E+00  0.19069904200E-01 0.  0.
         14    1    1    2    0    0 -0.50931332527E-02 -0.19899184786E-01  0.11961415830E-01  0.23769582036E-01  0.00000000000E+00 0. -1.
     999901    1    3    3    0    0 -0.62578373917E-01 -0.19766749718E-01  0.93463101505E-01  0.88737936004E+00  0.88000000000E+00 0. -1.
        -11    1    4    4    0    0  0.35820207315E-01  0.21573362696E-01 -0.71608929321E-01  0.82925250133E-01  0.51100000000E-03 0. -1.
         11    1    4    4    0    0  0.31851299855E-01  0.18092571809E-01 -0.33815588014E-01  0.49855807794E-01  0.51100000000E-03 0.  1.
</event>
<event>
 8    1  0.1054833E+005  0.1043930E+01  0.7957747E-01            NaN
         13   -1    0    0    0    0  0.00000000000E+00  0.00000000000E+00  0.74505805969E-08  0.10566000000E+00  0.10566000000E+00 0. -1.
     999900   -1    0    0    0    0 -0.00000000000E+00 -0.00000000000E+00 -0.74505805969E-08  0.93827000000E+00  0.93827000000E+00 0.  1.
     999902    2    1    2    0    0 -0.19413621999E-01 -0.67571905579E-02 -0.11549783966E-01  0.10203514960E+01  0.10200790310E+01 0.  0.
     999903    2    3    3    0    0  0.12055607158E+00  0.21163096381E-01 -0.34466628183E-01  0.12855766367E+00  0.18907178174E-01 0.  0.
         14    1    1    2    0    0  0.19413621999E-01  0.67571905579E-02  0.11549783966E-01  0.23578504045E-01  0.00000000000E+00 0. -1.
     999901    1    3    3    0    0 -0.13996969358E+00 -0.27920286939E-01  0.22916844217E-01  0.89179383228E+00  0.88000000000E+00 0.  1.
        -11    1    4    4    0    0  0.62334563205E-01  0.20505587312E-01 -0.18527960315E-01  0.68188146444E-01  0.51100000000E-03 0. -1.
         11    1    4    4    0    0  0.58221508380E-01  0.65750906941E-03 -0.15938667868E-01  0.60369517230E-01  0.51100000000E-03 0.  1.
</event>
<event>
 8    1  0.1054833E+005  0.1043930E+01  0.7957747E-01            NaN
         13   -1    0    0    0    0  0.00000000000E+00  0.00000000000E+00  0.74505805969E-08  0.10566000000E+00  0.10566000000E+00 0. -1.
     999900   -1    0    0    0    0 -0.00000000000E+00 -0.00000000000E+00 -0.74505805969E-08  0.93827000000E+00  0.93827000000E+00 0.  1.
     999902    2    1    2    0    0  0.16461780699E-01  0.92578711495E-02  0.12901474906E-01  0.10210576049E+01  0.10208013941E+01 0.  0.
     999903    2    3    3    0    0 -0.94852296744E-01 -0.49428174541E-02 -0.84724190017E-01  0.12857609035E+00  0.18227259634E-01 0.  0.
         14    1    1    2    0    0 -0.16461780699E-01 -0.92578711495E-02 -0.12901474906E-01  0.22872395082E-01  0.00000000000E+00 0.  1.
     999901    1    3    3    0    0  0.11131407744E+00  0.14200688604E-01  0.97625664923E-01  0.89248151457E+00  0.88000000000E+00 0. -1.
        -11    1    4    4    0    0 -0.33061422522E-01 -0.94911729708E-02 -0.35597721046E-01  0.49503523998E-01  0.51100000000E-03 0. -1.
         11    1    4    4    0    0 -0.61790874222E-01  0.45483555167E-02 -0.49126468970E-01  0.79072566352E-01  0.51100000000E-03 0.  1.
</event>
<event>
 8    1  0.1054833E+005  0.1043930E+01  0.7957747E-01            NaN
         13   -1    0    0    0    0  0.00000000000E+00  0.00000000000E+00  0.74505805969E-08  0.10566000000E+00  0.10566000000E+00 0.  1.
     999900   -1    0    0    0    0 -0.00000000000E+00 -0.00000000000E+00 -0.74505805969E-08  0.93827000000E+00  0.93827000000E+00 0. -1.
     999902    2    1    2    0    0 -0.14021179102E-01 -0.14469842349E-01 -0.12050570637E-01  0.10204526481E+01  0.10201825429E+01 0.  0.
     999903    2    3    3    0    0  0.11398003495E+00 -0.11872864483E-01 -0.57974063543E-01  0.13000331077E+00  0.20185526749E-01 0.  0.
         14    1    1    2    0    0  0.14021179102E-01  0.14469842349E-01  0.12050570637E-01  0.23477351931E-01  0.00000000000E+00 0.  1.
     999901    1    3    3    0    0 -0.12800121405E+00 -0.25969778660E-02  0.45923492906E-01  0.89044933730E+00  0.88000000000E+00 0.  1.
        -11    1    4    4    0    0  0.58809194919E-01  0.35286678167E-02 -0.32813857164E-01  0.67438736988E-01  0.51100000000E-03 0. -1.
         11    1    4    4    0    0  0.55170840029E-01 -0.15401532300E-01 -0.25160206379E-01  0.62564573784E-01  0.51100000000E-03 0.  1.
</event>
<event>
 8    1  0.1054833E+005  0.1043930E+01  0.7957747E-01            NaN
         13   -1    0    0    0    0  0.00000000000E+00  0.00000000000E+00  0.74505805969E-08  0.10566000000E+00  0.10566000000E+00 0. -1.
     999900   -1    0    0    0    0 -0.00000000000E+00 -0.00000000000E+00 -0.74505805969E-08  0.93827000000E+00  0.93827000000E+00 0. -1.
     999902    2    1    2    0    0  0.18467081774E-01 -0.85656118552E-02 -0.12836270456E-01  0.10198639938E+01  0.10195800082E+01 0.  0.
     999903    2    3    3    0    0 -0.10375034068E+00  0.42221164266E-01  0.54774813823E-01  0.12740242392E+00  0.26159844944E-01 0.  0.
         14    1    1    2    0    0 -0.18467081774E-01  0.85656118552E-02  0.12836270456E-01  0.24066006210E-01  0.00000000000E+00 0. -1.
     999901    1    3    3    0    0  0.12221742245E+00 -0.50786776121E-01 -0.67611084279E-01  0.89246156987E+00  0.88000000000E+00 0. -1.
        -11    1    4    4    0    0 -0.10399822465E+00  0.37939835375E-01  0.52916132840E-01  0.12270061155E+00  0.51100000000E-03 0. -1.
         11    1    4    4    0    0  0.24788397220E-03  0.42813288911E-02  0.18586809829E-02  0.47018123669E-02  0.51100000000E-03 0.  1.
</event>
<event>
 8    1  0.1054833E+005  0.1043930E+01  0.7957747E-01            NaN
         13   -1    0    0    0    0  0.00000000000E+00  0.00000000000E+00  0.74505805969E-08  0.10566000000E+00  0.10566000000E+00 0.  1.
     999900   -1    0    0    0    0 -0.00000000000E+00 -0.00000000000E+00 -0.74505805969E-08  0.93827000000E+00  0.93827000000E+00 0.  1.
     999902    2    1    2    0    0 -0.50941003508E-02  0.32922704831E-01  0.15360279681E-01  0.10072449548E+01  0.10065766768E+01 0.  0.
     999903    2    3    3    0    0  0.84793572780E-01 -0.46114387249E-01  0.64384073641E-01  0.11779007222E+00  0.20315153950E-01 0.  0.
         14    1    1    2    0    0  0.50941003508E-02 -0.32922704831E-01 -0.15360279681E-01  0.36685045232E-01  0.00000000000E+00 0. -1.
     999901    1    3    3    0    0 -0.89887673131E-01  0.79037092080E-01 -0.49023793960E-01  0.88945488254E+00  0.88000000000E+00 0.  1.
        -11    1    4    4    0    0  0.79727063524E-02  0.15203878298E-02  0.38280162228E-02  0.89883510689E-02  0.51100000000E-03 0.  1.
         11    1    4    4    0    0  0.76820866428E-01 -0.47634775079E-01  0.60556057418E-01  0.10880172116E+00  0.51100000000E-03 0. -1.
</event>
<event>
 8    1  0.1054833E+005  0.1043930E+01  0.7957747E-01            NaN
         13   -1    0    0    0    0  0.00000000000E+00  0.00000000000E+00  0.74505805969E-08  0.10566000000E+00  0.10566000000E+00 0.  1.
     999900   -1    0    0    0    0 -0.00000000000E+00 -0.00000000000E+00 -0.74505805969E-08  0.93827000000E+00  0.93827000000E+00 0. -1.
     999902    2    1    2    0    0  0.23826756765E-01 -0.27293665977E-02 -0.34093648785E-02  0.10197063019E+01  0.10194185375E+01 0.  0.
     999903    2    3    3    0    0  0.14610221842E-01 -0.63611439047E-01  0.11074659598E+00  0.13019904806E+00  0.20666635791E-01 0.  0.
         14    1    1    2    0    0 -0.23826756765E-01  0.27293665977E-02  0.34093648785E-02  0.24223698084E-01  0.00000000000E+00 0. -1.
     999901    1    3    3    0    0  0.92165349235E-02  0.60882072450E-01 -0.11415596086E+00  0.88950725386E+00  0.88000000000E+00 0. -1.
        -11    1    4    4    0    0  0.14254769749E-01 -0.22101665298E-01  0.34512710740E-01  0.43394359001E-01  0.51100000000E-03 0. -1.
         11    1    4    4    0    0  0.35545209257E-03 -0.41509773750E-01  0.76233885240E-01  0.86804689060E-01  0.51100000000E-03 0.  1.
</event>
<event>
 8    1  0.1054833E+005  0.1043930E+01  0.7957747E-01            NaN
         13   -1    0    0    0    0  0.00000000000E+00  0.00000000000E+00  0.74505805969E-08  0.10566000000E+00  0.10566000000E+00 0.  1.
     999900   -1    0    0    0    0 -0.00000000000E+00 -0.00000000000E+00 -0.74505805969E-08  0.93827000000E+00  0.93827000000E+00 0.  1.
     999902    2    1    2    0    0  0.49892898384E-02  0.92892212201E-02 -0.23028583238E-01  0.10186021835E+01  0.10182872433E+01 0.  0.
     999903    2    3    3    0    0  0.30612122812E-01  0.10017561609E+00 -0.77549995511E-01  0.13187254557E+00  0.20102496122E-01 0.  0.
         14    1    1    2    0    0 -0.49892898384E-02 -0.92892212201E-02  0.23028583238E-01  0.25327816524E-01  0.00000000000E+00 0.  1.
     999901    1    3    3    0    0 -0.25622832973E-01 -0.90886394866E-01  0.54521412274E-01  0.88672963790E+00  0.88000000000E+00 0. -1.
        -11    1    4    4    0    0  0.17708032491E-01  0.64356609417E-01 -0.60745863877E-01  0.90253358328E-01  0.51100000000E-03 0.  1.
         11    1    4    4    0    0  0.12904090321E-01  0.35819006669E-01 -0.16804131634E-01  0.41619187243E-01  0.51100000000E-03 0. -1.
</event>
<event>
 8    1  0.1054833E+005  0.1043930E+01  0.7957747E-01            NaN
         13   -1    0    0    0    0  0.00000000000E+00  0.00000000000E+00  0.74505805969E-08  0.10566000000E+00  0.10566000000E+00 0.  1.
     999900   -1    0    0    0    0 -0.00000000000E+00 -0.00000000000E+00 -0.74505805969E-08  0.93827000000E+00  0.93827000000E+00 0.  1.
     999902    2    1    2    0    0 -0.31263315790E-01  0.21981609376E-03  0.19831826207E-01  0.10069064323E+01  0.10062255308E+01 0.  0.
     999903    2    3    3    0    0 -0.10780582813E-01 -0.93035328453E-01  0.72908038112E-01  0.12015215485E+00  0.18685956966E-01 0.  0.
         14    1    1    2    0    0  0.31263315790E-01 -0.21981609376E-03 -0.19831826207E-01  0.37023567684E-01  0.00000000000E+00 0. -1.
     999901    1    3    3    0    0 -0.20482732978E-01  0.93255144546E-01 -0.53076211905E-01  0.88675427747E+00  0.88000000000E+00 0.  1.
        -11    1    4    4    0    0  0.11932951996E-02 -0.42177679324E-01  0.23802196465E-01  0.48447768413E-01  0.51100000000E-03 0.  1.
         11    1    4    4    0    0 -0.11973878012E-01 -0.50857649128E-01  0.49105841646E-01  0.71704386437E-01  0.51100000000E-03 0. -1.
</event>
<event>
 8    1  0.1054833E+005  0.1043930E+01  0.7957747E-01            NaN
         13   -1    0    0    0    0  0.00000000000E+00  0.00000000000E+00  0.74505805969E-08  0.10566000000E+00  0.10566000000E+00 0. -1.
     999900   -1    0    0    0    0 -0.00000000000E+00 -0.00000000000E+00 -0.74505805969E-08  0.93827000000E+00  0.93827000000E+00 0. -1.
     999902    2    1    2    0    0 -0.10848624630E-02 -0.20607389735E-01 -0.14484628255E-01  0.10187179812E+01  0.10184059501E+01 0.  0.
     999903    2    3    3    0    0  0.67689091522E-01 -0.10920426115E+00  0.15938159803E-01  0.13107795930E+00  0.20494455628E-01 0.  0.
         14    1    1    2    0    0  0.10848624630E-02  0.20607389735E-01  0.14484628255E-01  0.25212018839E-01  0.00000000000E+00 0. -1.
     999901    1    3    3    0    0 -0.68773953985E-01  0.88596871420E-01 -0.30422788058E-01  0.88764002186E+00  0.88000000000E+00 0. -1.
        -11    1    4    4    0    0  0.41436420992E-01 -0.58757933059E-01 -0.41698737542E-03  0.71902063123E-01  0.51100000000E-03 0.  1.
         11    1    4    4    0    0  0.26252670531E-01 -0.50446328096E-01  0.16355147178E-01  0.59175896179E-01  0.51100000000E-03 0. -1.
</event>
<event>
 8    1  0.1054833E+005  0.1043930E+01  0.7957747E-01            NaN
         13   -1    0    0    0    0  0.00000000000E+00  0.00000000000E+00  0.74505805969E-08  0.10566000000E+00  0.10566000000E+00 0.  1.
     999900   -1    0    0    0    0 -0.00000000000E+00 -0.00000000000E+00 -0.74505805969E-08  0.93827000000E+00  0.93827000000E+00 0.  1.
     999902    2    1    2    0    0 -0.15584863302E-01 -0.16479569340E-01  0.27898706318E-01  0.10079744443E+01  0.10073329531E+01 0.  0.
     999903    2    3    3    0    0  0.15396249052E-01 -0.74789403837E-01 -0.88757484107E-01  0.11782359594E+00  0.13191260860E-01 0.  0.
         14    1    1    2    0    0  0.15584863302E-01  0.16479569340E-01 -0.27898706318E-01  0.35955555676E-01  0.00000000000E+00 0.  1.
     999901    1    3    3    0    0 -0.30981112354E-01  0.58309834497E-01  0.11665619043E+00  0.89015084839E+00  0.88000000000E+00 0. -1.
        -11    1    4    4    0    0  0.69322529441E-02 -0.10498753516E-01 -0.16033334435E-01  0.20386487936E-01  0.51100000000E-03 0. -1.
         11    1    4    4    0    0  0.84639961081E-02 -0.64290650320E-01 -0.72724149672E-01  0.97437107999E-01  0.51100000000E-03 0.  1.
</event>
<event>
 8    1  0.1054833E+005  0.1043930E+01  0.7957747E-01            NaN
         13   -1    0    0    0    0  0.00000000000E+00  0.00000000000E+00  0.74505805969E-08  0.10566000000E+00  0.10566000000E+00 0.  1.
     999900   -1    0    0    0    0 -0.00000000000E+00 -0.00000000000E+00 -0.74505805969E-08  0.93827000000E+00  0.93827000000E+00 0. -1.
     999902    2    1    2    0    0  0.50293746063E-02  0.93529568099E-02 -0.21082996764E-01  0.10203235356E+01  0.10200504164E+01 0.  0.
     999903    2    3    3    0    0  0.15283354442E-01  0.49877165125E-02  0.12579561788E+00  0.12808056034E+00  0.17934163451E-01 0.  0.
         14    1    1    2    0    0 -0.50293746063E-02 -0.93529568099E-02  0.21082996764E-01  0.23606464424E-01  0.00000000000E+00 0.  1.
     999901    1    3    3    0    0 -0.10253979836E-01  0.43652402974E-02 -0.14687861465E+00  0.89224297524E+00  0.88000000000E+00 0. -1.
        -11    1    4    4    0    0  0.78491458875E-02  0.28639232533E-02  0.11155303313E+00  0.11186666826E+00  0.51100000000E-03 0. -1.
         11    1    4    4    0    0  0.74342085547E-02  0.21237932592E-02  0.14242584756E-01  0.16213892074E-01  0.51100000000E-03 0.  1.
</event>
<event>
 8    1  0.1054833E+005  0.1043930E+01  0.7957747E-01            NaN
         13   -1    0    0    0    0  0.00000000000E+00  0.00000000000E+00  0.74505805969E-08  0.10566000000E+00  0.10566000000E+00 0. -1.
     999900   -1    0    0    0    0 -0.00000000000E+00 -0.00000000000E+00 -0.74505805969E-08  0.93827000000E+00  0.93827000000E+00 0.  1.
     999902    2    1    2    0    0  0.14459551078E-01  0.46972921635E-02  0.21221611657E-01  0.10178244456E+01  0.10174896078E+01 0.  0.
     999903    2    3    3    0    0 -0.38043307774E-01 -0.92810967052E-01  0.78683188112E-01  0.12902399351E+00  0.19874051891E-01 0.  0.
         14    1    1    2    0    0 -0.14459551078E-01 -0.46972921635E-02 -0.21221611657E-01  0.26105554435E-01  0.00000000000E+00 0.  1.
     999901    1    3    3    0    0  0.52502858852E-01  0.97508259215E-01 -0.57461576456E-01  0.88880045205E+00  0.88000000000E+00 0.  1.
        -11    1    4    4    0    0 -0.26275626695E-01 -0.42213862897E-01  0.45345893556E-01  0.67297325076E-01  0.51100000000E-03 0. -1.
         11    1    4    4    0    0 -0.11767681079E-01 -0.50597104155E-01  0.33337294556E-01  0.61726668435E-01  0.51100000000E-03 0.  1.
</event>
<event>
 8    1  0.1054833E+005  0.1043930E+01  0.7957747E-01            NaN
         13   -1    0    0    0    0  0.00000000000E+00  0.00000000000E+00  0.74505805969E-08  0.10566000000E+00  0.10566000000E+00 0. -1.
     999900   -1    0    0    0    0 -0.00000000000E+00 -0.00000000000E+00 -0.74505805969E-08  0.93827000000E+00  0.93827000000E+00 0. -1.
     999902    2    1    2    0    0 -0.71118298763E-02 -0.20255095149E-01  0.95790817119E-02  0.10204224308E+01  0.10201516218E+01 0.  0.
     999903    2    3    3    0    0  0.10122822656E+00 -0.73409364635E-01  0.36440875254E-01  0.13178048932E+00  0.20051715829E-01 0.  0.
         14    1    1    2    0    0  0.71118298763E-02  0.20255095149E-01 -0.95790817119E-02  0.23507569209E-01  0.00000000000E+00 0.  1.
     999901    1    3    3    0    0 -0.10834005643E+00  0.53154269486E-01 -0.26861793542E-01  0.88864194147E+00  0.88000000000E+00 0. -1.
        -11    1    4    4    0    0  0.46421674212E-01 -0.30737510998E-01  0.62016554498E-02  0.56022210509E-01  0.51100000000E-03 0.  1.
         11    1    4    4    0    0  0.54806552345E-01 -0.42671853637E-01  0.30239219804E-01  0.75758278809E-01  0.51100000000E-03 0. -1.
</event>
<event>
 8    1  0.1054833E+005  0.1043930E+01  0.7957747E-01            NaN
         13   -1    0    0    0    0  0.00000000000E+00  0.00000000000E+00  0.74505805969E-08  0.10566000000E+00  0.10566000000E+00 0. -1.
     999900   -1    0    0    0    0 -0.00000000000E+00 -0.00000000000E+00 -0.74505805969E-08  0.93827000000E+00  0.93827000000E+00 0. -1.
     999902    2    1    2    0    0 -0.17756603409E-01 -0.12753660190E-01  0.49941255025E-02  0.10215046995E+01  0.10212585162E+01 0.  0.
     999903    2    3    3    0    0  0.92934694397E-01 -0.19639299479E-01  0.87761832602E-01  0.13069020210E+00  0.18847550428E-01 0.  0.
         14    1    1    2    0    0  0.17756603409E-01  0.12753660190E-01 -0.49941255025E-02  0.22425300498E-01  0.00000000000E+00 0. -1.
     999901    1    3    3    0    0 -0.11069129781E+00  0.68856392884E-02 -0.82767707100E-01  0.89081449740E+00  0.88000000000E+00 0.  1.
        -11    1    4    4    0    0  0.79207809344E-01 -0.10656549042E-01  0.67487974604E-01  0.10460557794E+00  0.51100000000E-03 0. -1.
         11    1    4    4    0    0  0.13726885054E-01 -0.89827504369E-02  0.20273857999E-01  0.26084624165E-01  0.51100000000E-03 0.  1.
</event>
<event>
 8    1  0.1054833E+005  0.1043930E+01  0.7957747E-01            NaN
         13   -1    0    0    0    0  0.00000000000E+00  0.00000000000E+00  0.74505805969E-08  0.10566000000E+00  0.10566000000E+00 0.  1.
     999900   -1    0    0    0    0 -0.00000000000E+00 -0.00000000000E+00 -0.74505805969E-08  0.93827000000E+00  0.93827000000E+00 0. -1.
     999902    2    1    2    0    0 -0.36355370567E-02 -0.21900753598E-01 -0.86747261655E-02  0.10200949206E+01  0.10198164227E+01 0.  0.
     999903    2    3    3    0    0  0.10434110014E+00 -0.62367750990E-01  0.44420683873E-01  0.13098544776E+00  0.20178920332E-01 0.  0.
         14    1    1    2    0    0  0.36355370567E-02  0.21900753598E-01  0.86747261655E-02  0.23835079440E-01  0.00000000000E+00 0.  1.
     999901    1    3    3    0    0 -0.10797663720E+00  0.40466997392E-01 -0.53095410038E-01  0.88910947280E+00  0.88000000000E+00 0. -1.
        -11    1    4    4    0    0  0.54566766516E-01 -0.35674835901E-01  0.13447794586E-01  0.66568237357E-01  0.51100000000E-03 0. -1.
         11    1    4    4    0    0  0.49774333628E-01 -0.26692915089E-01  0.30972889287E-01  0.64417210401E-01  0.51100000000E-03 0.  1.
</event>
<event>
 8    1  0.1054833E+005  0.1043930E+01  0.7957747E-01            NaN
         13   -1    0    0    0    0  0.00000000000E+00  0.00000000000E+00  0.74505805969E-08  0.10566000000E+00  0.10566000000E+00 0. -1.
     999900   -1    0    0    0    0 -0.00000000000E+00 -0.00000000000E+00 -0.74505805969E-08  0.93827000000E+00  0.93827000000E+00 0. -1.
     999902    2    1    2    0    0 -0.17199963166E-01 -0.11405619651E-01 -0.11465124329E-01  0.10203211888E+01  0.10200480147E+01 0.  0.
     999903    2    3    3    0    0  0.74464453252E-01 -0.22971731255E-02 -0.10571077804E+00  0.13050796550E+00  0.17530791838E-01 0.  0.
         14    1    1    2    0    0  0.17199963166E-01  0.11405619651E-01  0.11465124329E-01  0.23608811245E-01  0.00000000000E+00 0.  1.
     999901    1    3    3    0    0 -0.91664416418E-01 -0.91084465260E-02  0.94245653712E-01  0.88981322325E+00  0.88000000000E+00 0. -1.
        -11    1    4    4    0    0  0.47759360570E-01 -0.33191637940E-02 -0.53104945185E-01  0.71500837019E-01  0.51100000000E-03 0.  1.
         11    1    4    4    0    0  0.26705092682E-01  0.10219906685E-02 -0.52605832856E-01  0.59007128481E-01  0.51100000000E-03 0. -1.
</event>
<event>
 8    1  0.1054833E+005  0.1043930E+01  0.7957747E-01            NaN
         13   -1    0    0    0    0  0.00000000000E+00  0.00000000000E+00  0.74505805969E-08  0.10566000000E+00  0.10566000000E+00 0.  1.
     999900   -1    0    0    0    0 -0.00000000000E+00 -0.00000000000E+00 -0.74505805969E-08  0.93827000000E+00  0.93827000000E+00 0.  1.
     999902    2    1    2    0    0  0.80037573284E-02  0.64550377621E-02  0.20807160850E-01  0.10207208297E+01  0.10204569303E+01 0.  0.
     999903    2    3    3    0    0 -0.10574126533E+00  0.56691846983E-01 -0.44874674391E-01  0.12955542941E+00  0.19382780491E-01 0.  0.
         14    1    1    2    0    0 -0.80037573284E-02 -0.64550377621E-02 -0.20807160850E-01  0.23209170311E-01  0.00000000000E+00 0. -1.
     999901    1    3    3    0    0  0.11374502266E+00 -0.50236809221E-01  0.65681835241E-01  0.89116540028E+00  0.88000000000E+00 0. -1.
        -11    1    4    4    0    0 -0.54519404430E-01  0.18289472409E-01 -0.20547568426E-01  0.61068272856E-01  0.51100000000E-03 0.  1.
         11    1    4    4    0    0 -0.51221860898E-01  0.38402374574E-01 -0.24327105965E-01  0.68487156551E-01  0.51100000000E-03 0. -1.
</event>
<event>
 8    1  0.1054833E+005  0.1043930E+01  0.7957747E-01            NaN
         13   -1    0    0    0    0  0.00000000000E+00  0.00000000000E+00  0.74505805969E-08  0.10566000000E+00  0.10566000000E+00 0. -1.
     999900   -1    0    0    0    0 -0.00000000000E+00 -0.00000000000E+00 -0.74505805969E-08  0.93827000000E+00  0.93827000000E+00 0. -1.
     999902    2    1    2    0    0 -0.45674813790E-02 -0.17002869142E-01 -0.15420311471E-01  0.10205260377E+01  0.10202576381E+01 0.  0.
     999903    2    3    3    0    0 -0.77962597882E-01 -0.22872875934E-01 -0.10352451924E+00  0.13306693919E+00  0.19701499962E-01 0.  0.
         14    1    1    2    0    0  0.45674813790E-02  0.17002869142E-01  0.15420311471E-01  0.23403962294E-01  0.00000000000E+00 0.  1.
     999901    1    3    3    0    0  0.73395116503E-01  0.58700067916E-02  0.88104207767E-01  0.88745909851E+00  0.88000000000E+00 0. -1.
        -11    1    4    4    0    0 -0.11711929816E-01 -0.11173755643E-01 -0.17244456358E-01  0.23657018224E-01  0.51100000000E-03 0.  1.
         11    1    4    4    0    0 -0.66250668066E-01 -0.11699120291E-01 -0.86280062880E-01  0.10940992097E+00  0.51100000000E-03 0. -1.
</event>
<event>
 8    1  0.1054833E+005  0.1043930E+01  0.7957747E-01            NaN
         13   -1    0    0    0    0  0.00000000000E+00  0.00000000000E+00  0.74505805969E-08  0.10566000000E+00  0.10566000000E+00 0.  1.
     999900   -1    0    0    0    0 -0.00000000000E+00 -0.00000000000E+00 -0.74505805969E-08  0.93827000000E+00  0.93827000000E+00 0. -1.
     999902    2    1    2    0    0  0.95082537450E-02  0.23899210624E-01 -0.29602367910E-02  0.10180390332E+01  0.10177097479E+01 0.  0.
     999903    2    3    3    0    0  0.83856842040E-01  0.57550464475E-01  0.79152296084E-01  0.13045659340E+00  0.20243785896E-01 0.  0.
         14    1    1    2    0    0 -0.95082537450E-02 -0.23899210624E-01  0.29602367910E-02  0.25890966757E-01  0.00000000000E+00 0.  1.
     999901    1    3    3    0    0 -0.74348588295E-01 -0.33651253850E-01 -0.82112532875E-01  0.88758243985E+00  0.88000000000E+00 0. -1.
        -11    1    4    4    0    0  0.58494487037E-01  0.28354337421E-01  0.50768813325E-01  0.82482161658E-01  0.51100000000E-03 0. -1.
         11    1    4    4    0    0  0.25362355003E-01  0.29196127054E-01  0.28383482759E-01  0.47974431740E-01  0.51100000000E-03 0.  1.
</event>
<event>
 8    1  0.1054833E+005  0.1043930E+01  0.7957747E-01            NaN
         13   -1    0    0    0    0  0.00000000000E+00  0.00000000000E+00  0.74505805969E-08  0.10566000000E+00  0.10566000000E+00 0. -1.
     999900   -1    0    0    0    0 -0.00000000000E+00 -0.00000000000E+00 -0.74505805969E-08  0.93827000000E+00  0.93827000000E+00 0. -1.
     999902    2    1    2    0    0 -0.17640331205E-01 -0.16327105743E-01  0.28089528707E-02  0.10197298784E+01  0.10194426806E+01 0.  0.
     999903    2    3    3    0    0  0.15765810560E-01  0.65347712328E-01  0.10829148622E+00  0.12904850385E+00  0.20188760954E-01 0.  0.
         14    1    1    2    0    0  0.17640331205E-01  0.16327105743E-01 -0.28089528707E-02  0.24200121553E-01  0.00000000000E+00 0.  1.
     999901    1    3    3    0    0 -0.33406141765E-01 -0.81674818070E-01 -0.10548253335E+00  0.89068137460E+00  0.88000000000E+00 0. -1.
        -11    1    4    4    0    0  0.67834551708E-02  0.57232594527E-01  0.94516028596E-01  0.11070287224E+00  0.51100000000E-03 0.  1.
         11    1    4    4    0    0  0.89823553895E-02  0.81151178004E-02  0.13775457623E-01  0.18345631605E-01  0.51100000000E-03 0. -1.
</event>
<event>
 8    1  0.1054833E+005  0.1043930E+01  0.7957747E-01            NaN
         13   -1    0    0    0    0  0.00000000000E+00  0.00000000000E+00  0.74505805969E-08  0.10566000000E+00  0.10566000000E+00 0.  1.
     999900   -1    0    0    0    0 -0.00000000000E+00 -0.00000000000E+00 -0.74505805969E-08  0.93827000000E+00  0.93827000000E+00 0.  1.
     999902    2    1    2    0    0 -0.21706229070E-01  0.20638750553E-02 -0.10184201465E-01  0.10198647155E+01  0.10195807471E+01 0.  0.
     999903    2    3    3    0    0  0.22046376610E-01  0.42619650310E-01 -0.12018775089E+00  0.13101161044E+00  0.20407579259E-01 0.  0.
         14    1    1    2    0    0  0.21706229070E-01 -0.20638750553E-02  0.10184201465E-01  0.24065284543E-01  0.00000000000E+00 0.  1.
     999901    1    3    3    0    0 -0.43752605680E-01 -0.40555775254E-01  0.11000354943E+00  0.88885310502E+00  0.88000000000E+00 0. -1.
        -11    1    4    4    0    0  0.12390000897E-01  0.21731540776E-01 -0.87677704314E-01  0.91177919155E-01  0.51100000000E-03 0. -1.
         11    1    4    4    0    0  0.96563757128E-02  0.20888109534E-01 -0.32510046580E-01  0.39833691285E-01  0.51100000000E-03 0.  1.
</event>
<event>
 8    1  0.1054833E+005  0.1043930E+01  0.7957747E-01            NaN
         13   -1    0    0    0    0  0.00000000000E+00  0.00000000000E+00  0.74505805969E-08  0.10566000000E+00  0.10566000000E+00 0.  1.
     999900   -1    0    0    0    0 -0.00000000000E+00 -0.00000000000E+00 -0.74505805969E-08  0.93827000000E+00  0.93827000000E+00 0.  1.
     999902    2    1    2    0    0  0.38369914809E-02  0.22955962868E-01  0.39232347766E-03  0.10206522713E+01  0.10203867925E+01 0.  0.
     999903    2    3    3    0    0 -0.93868709935E-02  0.98606014653E-01  0.86696232671E-01  0.13310161608E+00  0.19711518738E-01 0.  0.
         14    1    1    2    0    0 -0.38369914809E-02 -0.22955962868E-01 -0.39232347766E-03  0.23277728680E-01  0.00000000000E+00 0.  1.
     999901    1    3    3    0    0  0.13223862474E-01 -0.75650051786E-01 -0.86303909193E-01  0.88755065524E+00  0.88000000000E+00 0. -1.
        -11    1    4    4    0    0 -0.12252851166E-01  0.46093195208E-01  0.33426513483E-01  0.58243522651E-01  0.51100000000E-03 0.  1.
         11    1    4    4    0    0  0.28659801728E-02  0.52512819445E-01  0.53269719189E-01  0.74858093429E-01  0.51100000000E-03 0. -1.
</event>
<event>
 8    1  0.1054833E+005  0.1043930E+01  0.7957747E-01            NaN
         13   -1    0    0    0    0  0.00000000000E+00  0.00000000000E+00  0.74505805969E-08  0.10566000000E+00  0.10566000000E+00 0. -1.
     999900   -1    0    0    0    0 -0.00000000000E+00 -0.00000000000E+00 -0.74505805969E-08  0.93827000000E+00  0.93827000000E+00 0.  1.
     999902    2    1    2    0    0  0.10507019530E-01 -0.12161799099E-01  0.20028685655E-01  0.10182501428E+01  0.10179262735E+01 0.  0.
     999903    2    3    3    0    0 -0.41359594262E-01  0.10170237248E+00  0.63336812969E-01  0.12834521019E+00  0.20173063637E-01 0.  0.
         14    1    1    2    0    0 -0.10507019530E-01  0.12161799099E-01 -0.20028685655E-01  0.25679857200E-01  0.00000000000E+00 0.  1.
     999901    1    3    3    0    0  0.51866613793E-01 -0.11386417158E+00 -0.43308127314E-01  0.88990493261E+00  0.88000000000E+00 0.  1.
        -11    1    4    4    0    0 -0.17337541078E-01  0.47891696338E-01  0.18110459745E-01  0.54059733462E-01  0.51100000000E-03 0.  1.
         11    1    4    4    0    0 -0.24022053185E-01  0.53810676138E-01  0.45226353224E-01  0.74285476727E-01  0.51100000000E-03 0. -1.
</event>
<event>
 8    1  0.1054833E+005  0.1043930E+01  0.7957747E-01            NaN
         13   -1    0    0    0    0  0.00000000000E+00  0.00000000000E+00  0.74505805969E-08  0.10566000000E+00  0.10566000000E+00 0. -1.
     999900   -1    0    0    0    0 -0.00000000000E+00 -0.00000000000E+00 -0.74505805969E-08  0.93827000000E+00  0.93827000000E+00 0. -1.
     999902    2    1    2    0    0  0.23357119600E-01  0.17239190002E-02  0.75384358034E-03  0.10204972193E+01  0.10202281506E+01 0.  0.
     999903    2    3    3    0    0 -0.98933415896E-02  0.10313347958E-01  0.12806760325E+00  0.13067242479E+00  0.21673214957E-01 0.  0.
         14    1    1    2    0    0 -0.23357119600E-01 -0.17239190002E-02 -0.75384358034E-03  0.23432780732E-01  0.00000000000E+00 0. -1.
     999901    1    3    3    0    0  0.33250461189E-01 -0.85894289579E-02 -0.12731375967E+00  0.88982479447E+00  0.88000000000E+00 0. -1.
        -11    1    4    4    0    0 -0.14111378324E-02 -0.14263535298E-02  0.88664790302E-01  0.88688961854E-01  0.51100000000E-03 0. -1.
         11    1    4    4    0    0 -0.84822037572E-02  0.11739701488E-01  0.39402812944E-01  0.41983462941E-01  0.51100000000E-03 0.  1.
</event>
<event>
 8    1  0.1054833E+005  0.1043930E+01  0.7957747E-01            NaN
         13   -1    0    0    0    0  0.00000000000E+00  0.00000000000E+00  0.74505805969E-08  0.10566000000E+00  0.10566000000E+00 0.  1.
     999900   -1    0    0    0    0 -0.00000000000E+00 -0.00000000000E+00 -0.74505805969E-08  0.93827000000E+00  0.93827000000E+00 0.  1.
     999902    2    1    2    0    0 -0.28324531126E-02 -0.11930906487E-01 -0.20540178693E-01  0.10200078709E+01  0.10197273108E+01 0.  0.
     999903    2    3    3    0    0  0.12167461006E+00 -0.13630875952E-01 -0.42193257757E-01  0.13097820069E+00  0.19608838339E-01 0.  0.
         14    1    1    2    0    0  0.28324531126E-02  0.11930906487E-01  0.20540178693E-01  0.23922129107E-01  0.00000000000E+00 0.  1.
     999901    1    3    3    0    0 -0.12450706318E+00  0.16999694649E-02  0.21653079063E-01  0.88902967021E+00  0.88000000000E+00 0. -1.
        -11    1    4    4    0    0  0.20390317356E-01 -0.19724099658E-02 -0.15191685851E-01  0.25508898113E-01  0.51100000000E-03 0.  1.
         11    1    4    4    0    0  0.10128429271E+00 -0.11658465986E-01 -0.27001571906E-01  0.10546930257E+00  0.51100000000E-03 0. -1.
</event>
<event>
 8    1  0.1054833E+005  0.1043930E+01  0.7957747E-01            NaN
         13   -1    0    0    0    0  0.00000000000E+00  0.00000000000E+00  0.74505805969E-08  0.10566000000E+00  0.10566000000E+00 0. -1.
     999900   -1    0    0    0    0 -0.00000000000E+00 -0.00000000000E+00 -0.74505805969E-08  0.93827000000E+00  0.93827000000E+00 0. -1.
     999902    2    1    2    0    0  0.19114074565E-01 -0.13409375700E-01 -0.28663609074E-02  0.10204060712E+01  0.10201348807E+01 0.  0.
     999903    2    3    3    0    0 -0.38679790639E-01  0.12098194331E+00 -0.55516207294E-02  0.12832515101E+00  0.17428915027E-01 0.  0.
         14    1    1    2    0    0 -0.19114074565E-01  0.13409375700E-01  0.28663609074E-02  0.23523928839E-01  0.00000000000E+00 0.  1.
     999901    1    3    3    0    0  0.57793865205E-01 -0.13439131901E+00  0.26852598220E-02  0.89208092015E+00  0.88000000000E+00 0. -1.
        -11    1    4    4    0    0 -0.36792837911E-02  0.16166452591E-01  0.49780477957E-02  0.17318585377E-01  0.51100000000E-03 0.  1.
         11    1    4    4    0    0 -0.35000506848E-01  0.10481549071E+00 -0.10529668525E-01  0.11100656563E+00  0.51100000000E-03 0. -1.
</event>
<event>
 7    1  0.1054833E+005  0.1043930E+01  0.7957747E-01            NaN
         13   -1    0    0    0    0  0.00000000000E+00  0.00000000000E+00  0.74505805969E-08  0.10566000000E+00  0.10566000000E+00 0.  1.
     999900   -1    0    0    0    0 -0.00000000000E+00 -0.00000000000E+00 -0.74505805969E-08  0.93827000000E+00  0.93827000000E+00 0.  1.
     999903    2    1    2    0    0 -0.13725763661E+00 -0.41060553033E-01 -0.13280990815E-01  0.14526113813E+00  0.19969619670E-01 0.  0.
         14    1    1    2    0    0 -0.30348633127E-02  0.52845521326E-02  0.29685722051E-02  0.67785918528E-02  0.00000000000E+00 0. -1.
     999901    1    1    2    0    0  0.14029249993E+00  0.35776000900E-01  0.10312418610E-01  0.89189027002E+00  0.88000000000E+00 0.  1.
        -11    1    3    3    0    0 -0.11384069727E+00 -0.37695750930E-01 -0.44470001223E-02  0.12000296215E+00  0.51100000000E-03 0. -1.
         11    1    3    3    0    0 -0.23416939340E-01 -0.33648021024E-02 -0.88339906924E-02  0.25258175979E-01  0.51100000000E-03 0.  1.
</event>
<event>
 8    1  0.1054833E+005  0.1043930E+01  0.7957747E-01            NaN
         13   -1    0    0    0    0  0.00000000000E+00  0.00000000000E+00  0.74505805969E-08  0.10566000000E+00  0.10566000000E+00 0. -1.
     999900   -1    0    0    0    0 -0.00000000000E+00 -0.00000000000E+00 -0.74505805969E-08  0.93827000000E+00  0.93827000000E+00 0.  1.
     999902    2    1    2    0    0 -0.51129549188E-02 -0.79121688247E-02 -0.21669520874E-01  0.10203013551E+01  0.10200277165E+01 0.  0.
     999903    2    3    3    0    0  0.95794234235E-01 -0.64800129633E-01 -0.58273700779E-01  0.13195549518E+00  0.25314746528E-01 0.  0.
         14    1    1    2    0    0  0.51129549188E-02  0.79121688247E-02  0.21669520874E-01  0.23628644871E-01  0.00000000000E+00 0. -1.
     999901    1    3    3    0    0 -0.10090718915E+00  0.56887960808E-01  0.36604179905E-01  0.88834585995E+00  0.88000000000E+00 0. -1.
        -11    1    4    4    0    0  0.60676366125E-01 -0.27298248964E-01 -0.38705098458E-01  0.76975071096E-01  0.51100000000E-03 0. -1.
         11    1    4    4    0    0  0.35117868110E-01 -0.37501880669E-01 -0.19568602321E-01  0.54980424081E-01  0.51100000000E-03 0.  1.
</event>
<event>
 8    1  0.1054833E+005  0.1043930E+01  0.7957747E-01            NaN
         13   -1    0    0    0    0  0.00000000000E+00  0.00000000000E+00  0.74505805969E-08  0.10566000000E+00  0.10566000000E+00 0. -1.
     999900   -1    0    0    0    0 -0.00000000000E+00 -0.00000000000E+00 -0.74505805969E-08  0.93827000000E+00  0.93827000000E+00 0. -1.
     999902    2    1    2    0    0  0.14475827746E-01 -0.17479568613E-01 -0.60085561367E-02  0.10204526140E+01  0.10201825080E+01 0.  0.
     999903    2    3    3    0    0 -0.58058655275E-01 -0.10229502863E+00 -0.57547488992E-01  0.13190820029E+00  0.15905328693E-01 0.  0.
         14    1    1    2    0    0 -0.14475827746E-01  0.17479568613E-01  0.60085561367E-02  0.23477386027E-01  0.00000000000E+00 0. -1.
     999901    1    3    3    0    0  0.72534483020E-01  0.84815460013E-01  0.51538932855E-01  0.88854441368E+00  0.88000000000E+00 0. -1.
        -11    1    4    4    0    0 -0.49666964840E-01 -0.77942199921E-01 -0.49901578981E-01  0.10503438785E+00  0.51100000000E-03 0.  1.
         11    1    4    4    0    0 -0.83916904350E-02 -0.24352828706E-01 -0.76459100109E-02  0.26873812443E-01  0.51100000000E-03 0. -1.
</event>
<event>
 8    1  0.1054833E+005  0.1043930E+01  0.7957747E-01            NaN
         13   -1    0    0    0    0  0.00000000000E+00  0.00000000000E+00  0.74505805969E-08  0.10566000000E+00  0.10566000000E+00 0. -1.
     999900   -1    0    0    0    0 -0.00000000000E+00 -0.00000000000E+00 -0.74505805969E-08  0.93827000000E+00  0.93827000000E+00 0.  1.
     999902    2    1    2    0    0  0.53834382522E-02  0.15137533947E-03  0.23021121135E-01  0.10202873195E+01  0.10200133519E+01 0.  0.
     999903    2    3    3    0    0 -0.64418989721E-01  0.22530563903E-01 -0.10634639686E+00  0.12781369989E+00  0.19218564105E-01 0.  0.
         14    1    1    2    0    0 -0.53834382522E-02 -0.15137533947E-03 -0.23021121135E-01  0.23642680479E-01  0.00000000000E+00 0.  1.
     999901    1    3    3    0    0  0.69802427974E-01 -0.22379188564E-01  0.12936751800E+00  0.89247361964E+00  0.88000000000E+00 0. -1.
        -11    1    4    4    0    0 -0.58051009678E-01  0.23373377936E-01 -0.85247200359E-01  0.10575245061E+00  0.51100000000E-03 0.  1.
         11    1    4    4    0    0 -0.63679800437E-02 -0.84281403336E-03 -0.21099196504E-01  0.22061249272E-01  0.51100000000E-03 0. -1.
</event>
<event>
 8    1  0.1054833E+005  0.1043930E+01  0.7957747E-01            NaN
         13   -1    0    0    0    0  0.00000000000E+00  0.00000000000E+00  0.74505805969E-08  0.10566000000E+00  0.10566000000E+00 0.  1.
     999900   -1    0    0    0    0 -0.00000000000E+00 -0.00000000000E+00 -0.74505805969E-08  0.93827000000E+00  0.93827000000E+00 0.  1.
     999902    2    1    2    0    0  0.13068806074E-01 -0.27917821899E-02 -0.19399465489E-01  0.10203731114E+01  0.10201011516E+01 0.  0.
     999903    2    3    3    0    0  0.10648701322E+00 -0.43560257301E-01  0.59124286742E-01  0.13101659701E+00  0.20801139597E-01 0.  0.
         14    1    1    2    0    0 -0.13068806074E-01  0.27917821899E-02  0.19399465489E-01  0.23556888615E-01  0.00000000000E+00 0.  1.
     999901    1    3    3    0    0 -0.93418207151E-01  0.40768475111E-01 -0.78523752231E-01  0.88935651437E+00  0.88000000000E+00 0.  1.
        -11    1    4    4    0    0  0.20766825337E-01 -0.91281495445E-02  0.29035083014E-02  0.22875218690E-01  0.51100000000E-03 0. -1.
         11    1    4    4    0    0  0.85720187888E-01 -0.34432107757E-01  0.56220778441E-01  0.10814137832E+00  0.51100000000E-03 0.  1.
</event>
<event>
 8    1  0.1054833E+005  0.1043930E+01  0.7957747E-01            NaN
         13   -1    0    0    0    0  0.00000000000E+00  0.00000000000E+00  0.74505805969E-08  0.10566000000E+00  0.10566000000E+00 0.  1.
     999900   -1    0    0    0    0 -0.00000000000E+00 -0.00000000000E+00 -0.74505805969E-08  0.93827000000E+00  0.93827000000E+00 0.  1.
     999902    2    1    2    0    0  0.12952243323E-01  0.17578260997E-01  0.70317283806E-02  0.10209909270E+01  0.10207332031E+01 0.  0.
     999903    2    3    3    0    0  0.56114575707E-01 -0.10425839874E+00 -0.48613044589E-01  0.12980996929E+00  0.21650420549E-01 0.  0.
         14    1    1    2    0    0 -0.12952243323E-01 -0.17578260997E-01 -0.70317283806E-02  0.22939073015E-01  0.00000000000E+00 0. -1.
     999901    1    3    3    0    0 -0.43162332385E-01  0.12183665973E+00  0.55644772969E-01  0.89118095769E+00  0.88000000000E+00 0. -1.
        -11    1    4    4    0    0  0.75114471637E-02 -0.34056275625E-01 -0.11731979785E-01  0.36798807299E-01  0.51100000000E-03 0. -1.
         11    1    4    4    0    0  0.48603128544E-01 -0.70202123111E-01 -0.36881064804E-01  0.93011161995E-01  0.51100000000E-03 0.  1.
</event>
<event>
 8    1  0.1054833E+005  0.1043930E+01  0.7957747E-01            NaN
         13   -1    0    0    0    0  0.00000000000E+00  0.00000000000E+00  0.74505805969E-08  0.10566000000E+00  0.10566000000E+00 0. -1.
     999900   -1    0    0    0    0 -0.00000000000E+00 -0.00000000000E+00 -0.74505805969E-08  0.93827000000E+00  0.93827000000E+00 0. -1.
     999902    2    1    2    0    0 -0.16760499635E-01  0.16063937321E-01 -0.72235275734E-02  0.10196165514E+01  0.10193266249E+01 0.  0.
     999903    2    3    3    0    0 -0.43159511950E-01 -0.60686476028E-01  0.10332778457E+00  0.12899366468E+00  0.20424069591E-01 0.  0.
         14    1    1    2    0    0  0.16760499635E-01 -0.16063937321E-01  0.72235275734E-02  0.24313448560E-01  0.00000000000E+00 0.  1.
     999901    1    3    3    0    0  0.26399012315E-01  0.76750413349E-01 -0.11055131215E+00  0.89062288676E+00  0.88000000000E+00 0. -1.
        -11    1    4    4    0    0 -0.60580280396E-02 -0.83932284232E-02  0.29185686683E-01  0.30971138423E-01  0.51100000000E-03 0. -1.
         11    1    4    4    0    0 -0.37101483910E-01 -0.52293247605E-01  0.74142097891E-01  0.98022526259E-01  0.51100000000E-03 0.  1.
</event>
<event>
 8    1  0.1054833E+005  0.1043930E+01  0.7957747E-01            NaN
         13   -1    0    0    0    0  0.00000000000E+00  0.00000000000E+00  0.74505805969E-08  0.10566000000E+00  0.10566000000E+00 0. -1.
     999900   -1    0    0    0    0 -0.00000000000E+00 -0.00000000000E+00 -0.74505805969E-08  0.93827000000E+00  0.93827000000E+00 0. -1.
     999902    2    1    2    0    0 -0.16650632927E-01  0.37238735121E-02 -0.17850784183E-01  0.10192366546E+01  0.10189374842E+01 0.  0.
     999903    2    3    3    0    0  0.66854743231E-01 -0.80047621280E-01 -0.74302275095E-01  0.12953019626E+00  0.19495263402E-01 0.  0.
         14    1    1    2    0    0  0.16650632927E-01 -0.37238735121E-02  0.17850784183E-01  0.24693345394E-01  0.00000000000E+00 0. -1.
     999901    1    3    3    0    0 -0.83505376158E-01  0.83771494792E-01  0.56451490912E-01  0.88970645834E+00  0.88000000000E+00 0.  1.
        -11    1    4    4    0    0  0.14380904115E-01 -0.76846736378E-02 -0.15729191022E-01  0.22661270558E-01  0.51100000000E-03 0. -1.
         11    1    4    4    0    0  0.52473839116E-01 -0.72362947642E-01 -0.58573084073E-01  0.10686892571E+00  0.51100000000E-03 0.  1.
</event>
<event>
 8    1  0.1054833E+005  0.1043930E+01  0.7957747E-01            NaN
         13   -1    0    0    0    0  0.00000000000E+00  0.00000000000E+00  0.74505805969E-08  0.10566000000E+00  0.10566000000E+00 0. -1.
     999900   -1    0    0    0    0 -0.00000000000E+00 -0.00000000000E+00 -0.74505805969E-08  0.93827000000E+00  0.93827000000E+00 0.  1.
     999902    2    1    2    0    0 -0.17667785413E-01  0.62169831017E-02  0.15854377732E-01  0.10193909940E+01  0.10190955970E+01 0.  0.
     999903    2    3    3    0    0  0.16476029671E-01  0.12768833453E+00 -0.30333693359E-02  0.13019032135E+00  0.19093143107E-01 0.  0.
         14    1    1    2    0    0  0.17667785413E-01 -0.62169831017E-02 -0.15854377732E-01  0.24539005961E-01  0.00000000000E+00 0.  1.
     999901    1    3    3    0    0 -0.34143815085E-01 -0.12147135143E+00  0.18887747068E-01  0.88920067269E+00  0.88000000000E+00 0. -1.
        -11    1    4    4    0    0  0.57335859095E-02  0.73645578760E-02  0.53483194270E-04  0.93474435833E-02  0.51100000000E-03 0. -1.
         11    1    4    4    0    0  0.10742443762E-01  0.12032377666E+00 -0.30868525302E-02  0.12084287776E+00  0.51100000000E-03 0.  1.
</event>
<event>
 8    1  0.1054833E+005  0.1043930E+01  0.7957747E-01            NaN
         13   -1    0    0    0    0  0.00000000000E+00  0.00000000000E+00  0.74505805969E-08  0.10566000000E+00  0.10566000000E+00 0. -1.
     999900   -1    0    0    0    0 -0.00000000000E+00 -0.00000000000E+00 -0.74505805969E-08  0.93827000000E+00  0.93827000000E+00 0.  1.
     999902    2    1    2    0    0 -0.11888663842E-02 -0.22577025409E-01 -0.59426680775E-02  0.10205537132E+01  0.10202859554E+01 0.  0.
     999903    2    3    3    0    0  0.12242620637E+00  0.35810793432E-01 -0.14599787529E-01  0.12995572910E+00  0.20118369681E-01 0.  0.
         14    1    1    2    0    0  0.11888663842E-02  0.22577025409E-01  0.59426680775E-02  0.23376286777E-01  0.00000000000E+00 0. -1.
     999901    1    3    3    0    0 -0.12361507275E+00 -0.58387818841E-01  0.86571194515E-02  0.89059798412E+00  0.88000000000E+00 0. -1.
        -11    1    4    4    0    0  0.24436552584E-01  0.32607111326E-02  0.41681406404E-02  0.25008235777E-01  0.51100000000E-03 0.  1.
         11    1    4    4    0    0  0.97989653786E-01  0.32550082299E-01 -0.18767928169E-01  0.10494749333E+00  0.51100000000E-03 0. -1.
</event>
<event>
 8    1  0.1054833E+005  0.1043930E+01  0.7957747E-01            NaN
         13   -1    0    0    0    0  0.00000000000E+00  0.00000000000E+00  0.74505805969E-08  0.10566000000E+00  0.10566000000E+00 0. -1.
     999900   -1    0    0    0    0 -0.00000000000E+00 -0.00000000000E+00 -0.74505805969E-08  0.93827000000E+00  0.93827000000E+00 0.  1.
     999902    2    1    2    0    0 -0.33949561397E-02  0.12194991540E-01  0.21956837340E-01  0.10185854493E+01  0.10182700876E+01 0.  0.
     999903    2    3    3    0    0  0.43800336399E-01  0.10939340808E+00  0.54415096825E-01  0.13138284195E+00  0.20373050757E-01 0.  0.
         14    1    1    2    0    0  0.33949561397E-02 -0.12194991540E-01 -0.21956837340E-01  0.25344550732E-01  0.00000000000E+00 0.  1.
     999901    1    3    3    0    0 -0.47195292538E-01 -0.97198416541E-01 -0.32458259486E-01  0.88720260731E+00  0.88000000000E+00 0. -1.
        -11    1    4    4    0    0  0.72982742416E-02  0.38887576139E-01  0.24485525102E-01  0.46532896379E-01  0.51100000000E-03 0.  1.
         11    1    4    4    0    0  0.36502062157E-01  0.70505831942E-01  0.29929571723E-01  0.84849945575E-01  0.51100000000E-03 0. -1.
</event>
<event>
 8    1  0.1054833E+005  0.1043930E+01  0.7957747E-01            NaN
         13   -1    0    0    0    0  0.00000000000E+00  0.00000000000E+00  0.74505805969E-08  0.10566000000E+00  0.10566000000E+00 0.  1.
     999900   -1    0    0    0    0 -0.00000000000E+00 -0.00000000000E+00 -0.74505805969E-08  0.93827000000E+00  0.93827000000E+00 0. -1.
     999902    2    1    2    0    0  0.33475857977E-02  0.32480723286E-01 -0.12960062947E-01  0.10087992877E+01  0.10081874012E+01 0.  0.
     999903    2    3    3    0    0  0.10197263415E+00  0.63930217252E-01 -0.13778245876E-01  0.12273120890E+00  0.19688036600E-01 0.  0.
         14    1    1    2    0    0 -0.33475857977E-02 -0.32480723286E-01  0.12960062947E-01  0.35130712311E-01  0.00000000000E+00 0.  1.
     999901    1    3    3    0    0 -0.98625048349E-01 -0.31449493965E-01  0.81818292902E-03  0.88606807879E+00  0.88000000000E+00 0.  1.
        -11    1    4    4    0    0  0.33784894334E-01  0.13035752100E-01  0.16563636597E-02  0.36254028460E-01  0.51100000000E-03 0. -1.
         11    1    4    4    0    0  0.68187739812E-01  0.50894465151E-01 -0.15434609536E-01  0.86477180437E-01  0.51100000000E-03 0.  1.
</event>
<event>
 8    1  0.1054833E+005  0.1043930E+01  0.7957747E-01            NaN
         13   -1    0    0    0    0  0.00000000000E+00  0.00000000000E+00  0.74505805969E-08  0.10566000000E+00  0.10566000000E+00 0. -1.
     999900   -1    0    0    0    0 -0.00000000000E+00 -0.00000000000E+00 -0.74505805969E-08  0.93827000000E+00  0.93827000000E+00 0. -1.
     999902    2    1    2    0    0 -0.17452422075E-01  0.16379239480E-01  0.62381196351E-02  0.10191957998E+01  0.10188956265E+01 0.  0.
     999903    2    3    3    0    0  0.94667990080E-01  0.85736613203E-01 -0.84077837488E-02  0.12925426544E+00  0.17977183276E-01 0.  0.
         14    1    1    2    0    0  0.17452422075E-01 -0.16379239480E-01 -0.62381196351E-02  0.24734200185E-01  0.00000000000E+00 0.  1.
     999901    1    3    3    0    0 -0.11212041216E+00 -0.69357373723E-01  0.14645903384E-01  0.88994153437E+00  0.88000000000E+00 0. -1.
        -11    1    4    4    0    0  0.20654040571E-01  0.10466364800E-01 -0.46509923835E-02  0.23622595861E-01  0.51100000000E-03 0. -1.
         11    1    4    4    0    0  0.74013949509E-01  0.75270248404E-01 -0.37567913654E-02  0.10563166958E+00  0.51100000000E-03 0.  1.
</event>
<event>
 8    1  0.1054833E+005  0.1043930E+01  0.7957747E-01            NaN
         13   -1    0    0    0    0  0.00000000000E+00  0.00000000000E+00  0.74505805969E-08  0.10566000000E+00  0.10566000000E+00 0. -1.
     999900   -1    0    0    0    0 -0.00000000000E+00 -0.00000000000E+00 -0.74505805969E-08  0.93827000000E+00  0.93827000000E+00 0. -1.
     999902    2    1    2    0    0 -0.14540612539E-01 -0.21088014164E-02  0.16706564490E-01  0.10216817247E+01  0.10214394553E+01 0.  0.
     999903    2    3    3    0    0 -0.12266518054E-02 -0.59939235877E-01 -0.11372656958E+00  0.13009077412E+00  0.19891209430E-01 0.  0.
         14    1    1    2    0    0  0.14540612539E-01  0.21088014164E-02 -0.16706564490E-01  0.22248275293E-01  0.00000000000E+00 0.  1.
     999901    1    3    3    0    0 -0.13313960734E-01  0.57830434461E-01  0.13043313407E+00  0.89159095058E+00  0.88000000000E+00 0.  1.
        -11    1    4    4    0    0 -0.71264973754E-02 -0.51083958282E-01 -0.84688345522E-01  0.99160146969E-01  0.51100000000E-03 0.  1.
         11    1    4    4    0    0  0.58998455700E-02 -0.88552775948E-02 -0.29038224053E-01  0.30930627155E-01  0.51100000000E-03 0. -1.
</event>
<event>
 8    1  0.1054833E+005  0.1043930E+01  0.7957747E-01            NaN
         13   -1    0    0    0    0  0.00000000000E+00  0.00000000000E+00  0.74505805969E-08  0.10566000000E+00  0.10566000000E+00 0.  1.
     999900   -1    0    0    0    0 -0.00000000000E+00 -0.00000000000E+00 -0.74505805969E-08  0.93827000000E+00  0.93827000000E+00 0. -1.
     999902    2    1    2    0    0 -0.20644887320E-01 -0.11776761899E-01 -0.43661526211E-02  0.10197645953E+01  0.10194782308E+01 0.  0.
     999903    2    3    3    0    0 -0.12701786568E+00 -0.19062307416E-01 -0.28140073474E-01  0.13301012594E+00  0.20072869838E-01 0.  0.
         14    1    1    2    0    0  0.20644887320E-01  0.11776761899E-01  0.43661526211E-02  0.24165404652E-01  0.00000000000E+00 0. -1.
     999901    1    3    3    0    0  0.10637297836E+00  0.72855455169E-02  0.23773920852E-01  0.88675446941E+00  0.88000000000E+00 0.  1.
        -11    1    4    4    0    0 -0.42934159212E-01  0.27383913768E-02 -0.67599615081E-02  0.43552256143E-01  0.51100000000E-03 0. -1.
         11    1    4    4    0    0 -0.84083706463E-01 -0.21800698793E-01 -0.21380111965E-01  0.89457869800E-01  0.51100000000E-03 0.  1.
</event>
<event>
 8    1  0.1054833E+005  0.1043930E+01  0.7957747E-01            NaN
         13   -1    0    0    0    0  0.00000000000E+00  0.00000000000E+00  0.74505805969E-08  0.10566000000E+00  0.10566000000E+00 0.  1.
     999900   -1    0    0    0    0 -0.00000000000E+00 -0.00000000000E+00 -0.74505805969E-08  0.93827000000E+00  0.93827000000E+00 0.  1.
     999902    2    1    2    0    0  0.14429582928E-01 -0.58580921805E-02 -0.17428750095E-01  0.10205571218E+01  0.10202894429E+01 0.  0.
     999903    2    3    3    0    0 -0.40948284888E-01 -0.69020213082E-01  0.98744536773E-01  0.12895609308E+00  0.20943699537E-01 0.  0.
         14    1    1    2    0    0 -0.14429582928E-01  0.58580921805E-02  0.17428750095E-01  0.23372878242E-01  0.00000000000E+00 0.  1.
     999901    1    3    3    0    0  0.55377867816E-01  0.63162120901E-01 -0.11617328687E+00  0.89160102868E+00  0.88000000000E+00 0.  1.
        -11    1    4    4    0    0 -0.24428393451E-01 -0.52053851731E-01  0.81113857161E-01  0.99428712307E-01  0.51100000000E-03 0.  1.
         11    1    4    4    0    0 -0.16519891437E-01 -0.16966361351E-01  0.17630679613E-01  0.29527380771E-01  0.51100000000E-03 0. -1.
</event>
<event>
 8    1  0.1054833E+005  0.1043930E+01  0.7957747E-01            NaN
         13   -1    0    0    0    0  0.00000000000E+00  0.00000000000E+00  0.74505805969E-08  0.10566000000E+00  0.10566000000E+00 0.  1.
     999900   -1    0    0    0    0 -0.00000000000E+00 -0.00000000000E+00 -0.74505805969E-08  0.93827000000E+00  0.93827000000E+00 0. -1.
     999902    2    1    2    0    0  0.84951360431E-02 -0.10492515845E-01 -0.20084193769E-01  0.10197301020E+01  0.10194429095E+01 0.  0.
     999903    2    3    3    0    0 -0.45006248471E-01  0.46810384803E-01 -0.11244269418E+00  0.13143053923E+00  0.20343368476E-01 0.  0.
         14    1    1    2    0    0 -0.84951360431E-02  0.10492515845E-01  0.20084193769E-01  0.24199898027E-01  0.00000000000E+00 0.  1.
     999901    1    3    3    0    0  0.53501384514E-01 -0.57302900648E-01  0.92358500413E-01  0.88829956274E+00  0.88000000000E+00 0.  1.
        -11    1    4    4    0    0 -0.85078832223E-02  0.17437936187E-01 -0.47834341886E-01  0.51622195614E-01  0.51100000000E-03 0. -1.
         11    1    4    4    0    0 -0.36498365248E-01  0.29372448616E-01 -0.64608352297E-01  0.79808343617E-01  0.51100000000E-03 0.  1.
</event>
<event>
 8    1  0.1054833E+005  0.1043930E+01  0.7957747E-01            NaN
         13   -1    0    0    0    0  0.00000000000E+00  0.00000000000E+00  0.74505805969E-08  0.10566000000E+00  0.10566000000E+00 0.  1.
     999900   -1    0    0    0    0 -0.00000000000E+00 -0.00000000000E+00 -0.74505805969E-08  0.93827000000E+00  0.93827000000E+00 0. -1.
     999902    2    1    2    0    0  0.10364019424E-01  0.20188361725E-01 -0.53956533713E-02  0.10206041362E+01  0.10203375456E+01 0.  0.
     999903    2    3    3    0    0  0.10776603939E+00 -0.44179200436E-01 -0.57667339176E-01  0.13135576497E+00  0.19065518261E-01 0.  0.
         14    1    1    2    0    0 -0.10364019424E-01 -0.20188361725E-01  0.53956533713E-02  0.23325863823E-01  0.00000000000E+00 0. -1.
     999901    1    3    3    0    0 -0.97402019968E-01  0.64367562161E-01  0.52271685805E-01  0.88924837120E+00  0.88000000000E+00 0. -1.
        -11    1    4    4    0    0  0.73166824965E-01 -0.21493634831E-01 -0.32272275449E-01  0.82807738149E-01  0.51100000000E-03 0.  1.
         11    1    4    4    0    0  0.34599214427E-01 -0.22685565605E-01 -0.25395063727E-01  0.48548026824E-01  0.51100000000E-03 0. -1.
</event>
<event>
 8    1  0.1054833E+005  0.1043930E+01  0.7957747E-01            NaN
         13   -1    0    0    0    0  0.00000000000E+00  0.00000000000E+00  0.74505805969E-08  0.10566000000E+00  0.10566000000E+00 0. -1.
     999900   -1    0    0    0    0 -0.00000000000E+00 -0.00000000000E+00 -0.74505805969E-08  0.93827000000E+00  0.93827000000E+00 0. -1.
     999902    2    1    2    0    0 -0.19655670529E-01 -0.15152733699E-01  0.66339271388E-02  0.10182403190E+01  0.10179161986E+01 0.  0.
     999903    2    3    3    0    0  0.80923270985E-01 -0.41929461943E-01  0.87255856528E-01  0.12844651580E+00  0.24047190200E-01 0.  0.
         14    1    1    2    0    0  0.19655670529E-01  0.15152733699E-01 -0.66339271388E-02  0.25689681037E-01  0.00000000000E+00 0.  1.
     999901    1    3    3    0    0 -0.10057894151E+00  0.26776728244E-01 -0.80621929390E-01  0.88979380316E+00  0.88000000000E+00 0. -1.
        -11    1    4    4    0    0  0.45700394410E-01 -0.10382041120E-01  0.46453671763E-01  0.65988768501E-01  0.51100000000E-03 0. -1.
         11    1    4    4    0    0  0.35222876575E-01 -0.31547420823E-01  0.40802184766E-01  0.62457747297E-01  0.51100000000E-03 0.  1.
</event>
<event>
 8    1  0.1054833E+005  0.1043930E+01  0.7957747E-01            NaN
         13   -1    0    0    0    0  0.00000000000E+00  0.00000000000E+00  0.74505805969E-08  0.10566000000E+00  0.10566000000E+00 0. -1.
     999900   -1    0    0    0    0 -0.00000000000E+00 -0.00000000000E+00 -0.74505805969E-08  0.93827000000E+00  0.93827000000E+00 0. -1.
     999902    2    1    2    0    0  0.43954402217E-02 -0.29333778210E-02 -0.23497742759E-01  0.10198453884E+01  0.10195609583E+01 0.  0.
     999903    2    3    3    0    0 -0.81861973988E-01 -0.35246230258E-01 -0.95186958775E-01  0.13213833898E+00  0.21361272765E-01 0.  0.
         14    1    1    2    0    0 -0.43954402217E-02  0.29333778210E-02  0.23497742759E-01  0.24084611580E-01  0.00000000000E+00 0. -1.
     999901    1    3    3    0    0  0.86257414209E-01  0.32312852437E-01  0.71689216015E-01  0.88770704944E+00  0.88000000000E+00 0.  1.
        -11    1    4    4    0    0 -0.22550812370E-01 -0.71422236085E-02 -0.39589695367E-01  0.46121097092E-01  0.51100000000E-03 0.  1.
         11    1    4    4    0    0 -0.59311161617E-01 -0.28104006649E-01 -0.55597263407E-01  0.86017241885E-01  0.51100000000E-03 0. -1.
</event>
<event>
 8    1  0.1054833E+005  0.1043930E+01  0.7957747E-01            NaN
         13   -1    0    0    0    0  0.00000000000E+00  0.00000000000E+00  0.74505805969E-08  0.10566000000E+00  0.10566000000E+00 0. -1.
     999900   -1    0    0    0    0 -0.00000000000E+00 -0.00000000000E+00 -0.74505805969E-08  0.93827000000E+00  0.93827000000E+00 0. -1.
     999902    2    1    2    0    0  0.18367324698E-01  0.83400120187E-02  0.11026546322E-01  0.10209408908E+01  0.10206820286E+01 0.  0.
     999903    2    3    3    0    0  0.12763632248E+00 -0.31250576961E-01  0.97504201226E-02  0.13329864469E+00  0.20145188202E-01 0.  0.
         14    1    1    2    0    0 -0.18367324698E-01 -0.83400120187E-02 -0.11026546322E-01  0.22989109179E-01  0.00000000000E+00 0.  1.
     999901    1    3    3    0    0 -0.10926899778E+00  0.39590588980E-01  0.12761261995E-02  0.88764224613E+00  0.88000000000E+00 0. -1.
        -11    1    4    4    0    0  0.11245839227E+00 -0.32259041132E-01  0.13064489458E-01  0.11772203588E+00  0.51100000000E-03 0. -1.
         11    1    4    4    0    0  0.15177930214E-01  0.10084641704E-02 -0.33140693351E-02  0.15576608813E-01  0.51100000000E-03 0.  1.
</event>
<event>
 8    1  0.1054833E+005  0.1043930E+01  0.7957747E-01            NaN
         13   -1    0    0    0    0  0.00000000000E+00  0.00000000000E+00  0.74505805969E-08  0.10566000000E+00  0.10566000000E+00 0. -1.
     999900   -1    0    0    0    0 -0.00000000000E+00 -0.00000000000E+00 -0.74505805969E-08  0.93827000000E+00  0.93827000000E+00 0.  1.
     999902    2    1    2    0    0 -0.90917932931E-02 -0.20379494828E-01  0.84486163282E-02  0.10200686582E+01  0.10197895390E+01 0.  0.
     999903    2    3    3    0    0 -0.43457668021E-01  0.10668933484E+00  0.54564807663E-01  0.12908369541E+00  0.20349425171E-01 0.  0.
         14    1    1    2    0    0  0.90917932931E-02  0.20379494828E-01 -0.84486163282E-02  0.23861341802E-01  0.00000000000E+00 0. -1.
     999901    1    3    3    0    0  0.34365874728E-01 -0.12706882967E+00 -0.46116191335E-01  0.89098496279E+00  0.88000000000E+00 0. -1.
        -11    1    4    4    0    0  0.12345937717E-02  0.11190978969E-01  0.79896783295E-02  0.13815147949E-01  0.51100000000E-03 0.  1.
         11    1    4    4    0    0 -0.44692261792E-01  0.95498355876E-01  0.46575129334E-01  0.11526854746E+00  0.51100000000E-03 0. -1.
</event>
<event>
 8    1  0.1054833E+005  0.1043930E+01  0.7957747E-01            NaN
         13   -1    0    0    0    0  0.00000000000E+00  0.00000000000E+00  0.74505805969E-08  0.10566000000E+00  0.10566000000E+00 0.  1.
     999900   -1    0    0    0    0 -0.00000000000E+00 -0.00000000000E+00 -0.74505805969E-08  0.93827000000E+00  0.93827000000E+00 0.  1.
     999902    2    1    2    0    0 -0.22923423961E-01  0.68985647918E-03  0.23491748646E-02  0.10208761957E+01  0.10206158578E+01 0.  0.
     999903    2    3    3    0    0 -0.48877810108E-01  0.73051704634E-01  0.96988509362E-01  0.13246949222E+00  0.20391261629E-01 0.  0.
         14    1    1    2    0    0  0.22923423961E-01 -0.68985647918E-03 -0.23491748646E-02  0.23053804255E-01  0.00000000000E+00 0. -1.
     999901    1    3    3    0    0  0.25954386147E-01 -0.72361848154E-01 -0.94639334497E-01  0.88840670352E+00  0.88000000000E+00 0.  1.
        -11    1    4    4    0    0 -0.47817520188E-01  0.58852418751E-01  0.78743221489E-01  0.10932007355E+00  0.51100000000E-03 0.  1.
         11    1    4    4    0    0 -0.10602899199E-02  0.14199285882E-01  0.18245287873E-01  0.23149418672E-01  0.51100000000E-03 0. -1.
</event>
<event>
 7    1  0.1054833E+005  0.1043930E+01  0.7957747E-01            NaN
         13   -1    0    0    0    0  0.00000000000E+00  0.00000000000E+00  0.74505805969E-08  0.10566000000E+00  0.10566000000E+00 0.  1.
     999900   -1    0    0    0    0 -0.00000000000E+00 -0.00000000000E+00 -0.74505805969E-08  0.93827000000E+00  0.93827000000E+00 0. -1.
     999903    2    1    2    0    0 -0.12873666046E-01  0.72595694303E-01  0.72745424016E-01  0.10575719923E+00  0.21373403212E-01 0.  0.
         14    1    1    2    0    0  0.29404305602E-01 -0.42224542500E-01  0.13740791651E-01  0.53257248637E-01  0.00000000000E+00 0.  1.
     999901    1    1    2    0    0 -0.16530639556E-01 -0.30371151803E-01 -0.86486215667E-01  0.88491555213E+00  0.88000000000E+00 0. -1.
        -11    1    3    3    0    0 -0.32214335176E-02  0.47140914563E-01  0.33224729165E-01  0.57764930614E-01  0.51100000000E-03 0.  1.
         11    1    3    3    0    0 -0.96522325279E-02  0.25454779740E-01  0.39520694851E-01  0.47992268616E-01  0.51100000000E-03 0. -1.
</event>
<event>
 8    1  0.1054833E+005  0.1043930E+01  0.7957747E-01            NaN
         13   -1    0    0    0    0  0.00000000000E+00  0.00000000000E+00  0.74505805969E-08  0.10566000000E+00  0.10566000000E+00 0.  1.
     999900   -1    0    0    0    0 -0.00000000000E+00 -0.00000000000E+00 -0.74505805969E-08  0.93827000000E+00  0.93827000000E+00 0. -1.
     999902    2    1    2    0    0  0.15861491513E-01 -0.46186520370E-02  0.78115397776E-02  0.10256560017E+01  0.10254931959E+01 0.  0.
     999903    2    3    3    0    0  0.12626976715E+00 -0.13644263680E-02  0.49646027264E-01  0.13776484754E+00  0.23843436005E-01 0.  0.
         14    1    1    2    0    0 -0.15861491513E-01  0.46186520370E-02 -0.78115397776E-02  0.18273998286E-01  0.00000000000E+00 0. -1.
     999901    1    3    3    0    0 -0.11040827563E+00 -0.32542256689E-02 -0.41834487487E-01  0.88789115417E+00  0.88000000000E+00 0. -1.
        -11    1    4    4    0    0  0.80285874216E-01 -0.75651967305E-02  0.41349383228E-01  0.90626080212E-01  0.51100000000E-03 0. -1.
         11    1    4    4    0    0  0.45983892931E-01  0.62007703625E-02  0.82966440365E-02  0.47138767330E-01  0.51100000000E-03 0.  1.
</event>
<event>
 8    1  0.1054833E+005  0.1043930E+01  0.7957747E-01            NaN
         13   -1    0    0    0    0  0.00000000000E+00  0.00000000000E+00  0.74505805969E-08  0.10566000000E+00  0.10566000000E+00 0. -1.
     999900   -1    0    0    0    0 -0.00000000000E+00 -0.00000000000E+00 -0.74505805969E-08  0.93827000000E+00  0.93827000000E+00 0.  1.
     999902    2    1    2    0    0  0.22468479535E-01 -0.17392172572E-02 -0.83555595570E-02  0.10198951747E+01  0.10196119334E+01 0.  0.
     999903    2    3    3    0    0  0.77554752026E-01  0.67475472731E-01 -0.81147972622E-01  0.13246973781E+00  0.19888664932E-01 0.  0.
         14    1    1    2    0    0 -0.22468479535E-01  0.17392172572E-02  0.83555595570E-02  0.24034825250E-01  0.00000000000E+00 0.  1.
     999901    1    3    3    0    0 -0.55086272491E-01 -0.69214689989E-01  0.72792413065E-01  0.88742543694E+00  0.88000000000E+00 0. -1.
        -11    1    4    4    0    0  0.59136006507E-01  0.54570487457E-01 -0.52649565352E-01  0.96162587421E-01  0.51100000000E-03 0.  1.
         11    1    4    4    0    0  0.18418745520E-01  0.12904985275E-01 -0.28498407270E-01  0.36307150389E-01  0.51100000000E-03 0. -1.
</event>
<event>
 8    1  0.1054833E+005  0.1043930E+01  0.7957747E-01            NaN
         13   -1    0    0    0    0  0.00000000000E+00  0.00000000000E+00  0.74505805969E-08  0.10566000000E+00  0.10566000000E+00 0. -1.
     999900   -1    0    0    0    0 -0.00000000000E+00 -0.00000000000E+00 -0.74505805969E-08  0.93827000000E+00  0.93827000000E+00 0. -1.
     999902    2    1    2    0    0  0.19058250954E-01 -0.10661081242E-01 -0.34700710978E-03  0.10220897620E+01  0.10218563918E+01 0.  0.
     999903    2    3    3    0    0 -0.73607381331E-01 -0.51894507121E-01 -0.93514734976E-01  0.13137805760E+00  0.20102286054E-01 0.  0.
         14    1    1    2    0    0 -0.19058250954E-01  0.10661081242E-01  0.34700710978E-03  0.21840238016E-01  0.00000000000E+00 0. -1.
     999901    1    3    3    0    0  0.92665632285E-01  0.41233425879E-01  0.93167727866E-01  0.89071170439E+00  0.88000000000E+00 0.  1.
        -11    1    4    4    0    0 -0.31895892288E-01 -0.20518558360E-01 -0.53628113486E-01  0.65685575731E-01  0.51100000000E-03 0. -1.
         11    1    4    4    0    0 -0.41711489043E-01 -0.31375948761E-01 -0.39886621490E-01  0.65692481866E-01  0.51100000000E-03 0.  1.
</event>
<event>
 8    1  0.1054833E+005  0.1043930E+01  0.7957747E-01            NaN
         13   -1    0    0    0    0  0.00000000000E+00  0.00000000000E+00  0.74505805969E-08  0.10566000000E+00  0.10566000000E+00 0. -1.
     999900   -1    0    0    0    0 -0.00000000000E+00 -0.00000000000E+00 -0.74505805969E-08  0.93827000000E+00  0.93827000000E+00 0.  1.
     999902    2    1    2    0    0 -0.18150928095E-01 -0.13205790045E-02 -0.15706324633E-01  0.10198906832E+01  0.10196073347E+01 0.  0.
     999903    2    3    3    0    0  0.10008574280E+00 -0.74530500634E-01  0.14910101878E-01  0.12844412363E+00  0.26526030970E-01 0.  0.
         14    1    1    2    0    0  0.18150928095E-01  0.13205790045E-02  0.15706324633E-01  0.24039316819E-01  0.00000000000E+00 0. -1.
     999901    1    3    3    0    0 -0.11823667090E+00  0.73209921630E-01 -0.30616426511E-01  0.89144655955E+00  0.88000000000E+00 0.  1.
        -11    1    4    4    0    0  0.63384171785E-01 -0.42999063406E-01 -0.34918336885E-02  0.76674159338E-01  0.51100000000E-03 0.  1.
         11    1    4    4    0    0  0.36701571017E-01 -0.31531437228E-01  0.18401935566E-01  0.51769964288E-01  0.51100000000E-03 0. -1.
</event>
<event>
 8    1  0.1054833E+005  0.1043930E+01  0.7957747E-01            NaN
         13   -1    0    0    0    0  0.00000000000E+00  0.00000000000E+00  0.74505805969E-08  0.10566000000E+00  0.10566000000E+00 0.  1.
     999900   -1    0    0    0    0 -0.00000000000E+00 -0.00000000000E+00 -0.74505805969E-08  0.93827000000E+00  0.93827000000E+00 0.  1.
     999902    2    1    2    0    0 -0.44468285247E-02  0.21400026092E-01  0.96640439785E-02  0.10200316916E+01  0.10197516966E+01 0.  0.
     999903    2    3    3    0    0  0.17121144392E-01  0.12009739777E+00  0.51217357295E-01  0.13327748295E+00  0.20570640115E-01 0.  0.
         14    1    1    2    0    0  0.44468285247E-02 -0.21400026092E-01 -0.96640439785E-02  0.23898308448E-01  0.00000000000E+00 0. -1.
     999901    1    3    3    0    0 -0.21567972917E-01 -0.98697371683E-01 -0.41553313316E-01  0.88675420861E+00  0.88000000000E+00 0.  1.
        -11    1    4    4    0    0  0.63129111790E-02  0.92946613960E-01  0.32983071999E-01  0.98828488068E-01  0.51100000000E-03 0.  1.
         11    1    4    4    0    0  0.10808233213E-01  0.27150783814E-01  0.18234285295E-01  0.34448994878E-01  0.51100000000E-03 0. -1.
</event>
<event>
 8    1  0.1054833E+005  0.1043930E+01  0.7957747E-01            NaN
         13   -1    0    0    0    0  0.00000000000E+00  0.00000000000E+00  0.74505805969E-08  0.10566000000E+00  0.10566000000E+00 0.  1.
     999900   -1    0    0    0    0 -0.00000000000E+00 -0.00000000000E+00 -0.74505805969E-08  0.93827000000E+00  0.93827000000E+00 0.  1.
     999902    2    1    2    0    0  0.17398063715E-01 -0.16313865569E-01  0.19403024452E-02  0.10200009464E+01  0.10197202220E+01 0.  0.
     999903    2    3    3    0    0  0.12195951943E+00 -0.10850981785E-01 -0.46430843219E-01  0.13247477282E+00  0.20046796395E-01 0.  0.
         14    1    1    2    0    0 -0.17398063715E-01  0.16313865569E-01 -0.19403024452E-02  0.23929053563E-01  0.00000000000E+00 0.  1.
     999901    1    3    3    0    0 -0.10456145572E+00 -0.54628837840E-02  0.48371145664E-01  0.88752617362E+00  0.88000000000E+00 0.  1.
        -11    1    4    4    0    0  0.82001776072E-01 -0.81950518262E-02 -0.21040681584E-01  0.85055402862E-01  0.51100000000E-03 0. -1.
         11    1    4    4    0    0  0.39957743361E-01 -0.26559299591E-02 -0.25390161634E-01  0.47419369959E-01  0.51100000000E-03 0.  1.
</event>
<event>
 8    1  0.1054833E+005  0.1043930E+01  0.7957747E-01            NaN
         13   -1    0    0    0    0  0.00000000000E+00  0.00000000000E+00  0.74505805969E-08  0.10566000000E+00  0.10566000000E+00 0. -1.
     999900   -1    0    0    0    0 -0.00000000000E+00 -0.00000000000E+00 -0.74505805969E-08  0.93827000000E+00  0.93827000000E+00 0.  1.
     999902    2    1    2    0    0 -0.12887255673E-01  0.12346973624E-01  0.17144635525E-01  0.10191819164E+01  0.10188814018E+01 0.  0.
     999903    2    3    3    0    0  0.90655114425E-03 -0.75235258252E-01  0.10438687706E+00  0.13043441276E+00  0.21338931820E-01 0.  0.
         14    1    1    2    0    0  0.12887255673E-01 -0.12346973624E-01 -0.17144635525E-01  0.24748083638E-01  0.00000000000E+00 0.  1.
     999901    1    3    3    0    0 -0.13793806818E-01  0.87582231876E-01 -0.87242241534E-01  0.88874750360E+00  0.88000000000E+00 0.  1.
        -11    1    4    4    0    0 -0.83195929620E-02 -0.14136254367E-01  0.21391238348E-01  0.26960999863E-01  0.51100000000E-03 0.  1.
         11    1    4    4    0    0  0.92261441063E-02 -0.61099003885E-01  0.82995638712E-01  0.10347341290E+00  0.51100000000E-03 0. -1.
</event>
<event>
 8    1  0.1054833E+005  0.1043930E+01  0.7957747E-01            NaN
         13   -1    0    0    0    0  0.00000000000E+00  0.00000000000E+00  0.74505805969E-08  0.10566000000E+00  0.10566000000E+00 0.  1.
     999900   -1    0    0    0    0 -0.00000000000E+00 -0.00000000000E+00 -0.74505805969E-08  0.93827000000E+00  0.93827000000E+00 0. -1.
     999902    2    1    2    0    0 -0.21894084206E-01  0.16682288869E-01 -0.75287058491E-02  0.10153935129E+01  0.10149924408E+01 0.  0.
     999903    2    3    3    0    0 -0.11866614382E+00 -0.30812552928E-01  0.31110829539E-01  0.12797387978E+00  0.19451557387E-01 0.  0.
         14    1    1    2    0    0  0.21894084206E-01 -0.16682288869E-01  0.75287058491E-02  0.28536487116E-01  0.00000000000E+00 0.  1.
     999901    1    3    3    0    0  0.96772059615E-01  0.47494841798E-01 -0.38639535388E-01  0.88741963310E+00  0.88000000000E+00 0. -1.
        -11    1    4    4    0    0 -0.84593648410E-01 -0.28759590082E-01  0.28278946904E-01  0.93718511149E-01  0.51100000000E-03 0.  1.
         11    1    4    4    0    0 -0.34072495411E-01 -0.20529628464E-02  0.28318826344E-02  0.34255368633E-01  0.51100000000E-03 0. -1.
</event>
<event>
 8    1  0.1054833E+005  0.1043930E+01  0.7957747E-01            NaN
         13   -1    0    0    0    0  0.00000000000E+00  0.00000000000E+00  0.74505805969E-08  0.10566000000E+00  0.10566000000E+00 0. -1.
     999900   -1    0    0    0    0 -0.00000000000E+00 -0.00000000000E+00 -0.74505805969E-08  0.93827000000E+00  0.93827000000E+00 0. -1.
     999902    2    1    2    0    0  0.21281681104E-01 -0.89112581381E-02  0.61497877340E-02  0.10200523879E+01  0.10197728834E+01 0.  0.
     999903    2    3    3    0    0  0.28763747820E-01 -0.11910677613E+00 -0.43544960181E-01  0.13175705326E+00  0.21212737133E-01 0.  0.
         14    1    1    2    0    0 -0.21281681104E-01  0.89112581381E-02 -0.61497877340E-02  0.23877612137E-01  0.00000000000E+00 0. -1.
     999901    1    3    3    0    0 -0.74820667165E-02  0.11019551800E+00  0.49694747915E-01  0.88829533460E+00  0.88000000000E+00 0.  1.
        -11    1    4    4    0    0  0.13736349546E-01 -0.51001111924E-01 -0.78283113480E-02  0.53397980260E-01  0.51100000000E-03 0.  1.
         11    1    4    4    0    0  0.15027398274E-01 -0.68105664210E-01 -0.35716648833E-01  0.78359072999E-01  0.51100000000E-03 0. -1.
</event>
<event>
 8    1  0.1054833E+005  0.1043930E+01  0.7957747E-01            NaN
         13   -1    0    0    0    0  0.00000000000E+00  0.00000000000E+00  0.74505805969E-08  0.10566000000E+00  0.10566000000E+00 0. -1.
     999900   -1    0    0    0    0 -0.00000000000E+00 -0.00000000000E+00 -0.74505805969E-08  0.93827000000E+00  0.93827000000E+00 0.  1.
     999902    2    1    2    0    0 -0.34761948298E-02  0.22061700667E-01  0.71488627709E-02  0.10204798655E+01  0.10202103936E+01 0.  0.
     999903    2    3    3    0    0  0.11096715630E+00  0.44280760496E-01  0.51583177208E-01  0.13167990181E+00  0.20106636795E-01 0.  0.
         14    1    1    2    0    0  0.34761948298E-02 -0.22061700667E-01 -0.71488627709E-02  0.23450134450E-01  0.00000000000E+00 0.  1.
     999901    1    3    3    0    0 -0.11444335113E+00 -0.22219059829E-01 -0.44434314437E-01  0.88879996374E+00  0.88000000000E+00 0.  1.
        -11    1    4    4    0    0  0.61195635739E-01  0.20237516967E-01  0.37751368408E-01  0.74698660391E-01  0.51100000000E-03 0. -1.
         11    1    4    4    0    0  0.49771520562E-01  0.24043243529E-01  0.13831808800E-01  0.56981241423E-01  0.51100000000E-03 0.  1.
</event>
<event>
 8    1  0.1054833E+005  0.1043930E+01  0.7957747E-01            NaN
         13   -1    0    0    0    0  0.00000000000E+00  0.00000000000E+00  0.74505805969E-08  0.10566000000E+00  0.10566000000E+00 0. -1.
     999900   -1    0    0    0    0 -0.00000000000E+00 -0.00000000000E+00 -0.74505805969E-08  0.93827000000E+00  0.93827000000E+00 0.  1.
     999902    2    1    2    0    0  0.20368636664E-01 -0.14381865823E-01  0.36284801599E-02  0.10187330698E+01  0.10184214168E+01 0.  0.
     999903    2    3    3    0    0 -0.69218506914E-02 -0.12852011312E+00  0.44693986939E-02  0.13094198099E+00  0.23674783339E-01 0.  0.
         14    1    1    2    0    0 -0.20368636664E-01  0.14381865823E-01 -0.36284801599E-02  0.25196930218E-01  0.00000000000E+00 0.  1.
     999901    1    3    3    0    0  0.27290487356E-01  0.11413824730E+00 -0.84091853400E-03  0.88779108879E+00  0.88000000000E+00 0. -1.
        -11    1    4    4    0    0  0.73505132234E-02 -0.21122740945E-01 -0.16093796555E-02  0.22428808563E-01  0.51100000000E-03 0.  1.
         11    1    4    4    0    0 -0.14272363915E-01 -0.10739737218E+00  0.60787783493E-02  0.10851317243E+00  0.51100000000E-03 0. -1.
</event>
<event>
 8    1  0.1054833E+005  0.1043930E+01  0.7957747E-01            NaN
         13   -1    0    0    0    0  0.00000000000E+00  0.00000000000E+00  0.74505805969E-08  0.10566000000E+00  0.10566000000E+00 0.  1.
     999900   -1    0    0    0    0 -0.00000000000E+00 -0.00000000000E+00 -0.74505805969E-08  0.93827000000E+00  0.93827000000E+00 0.  1.
     999902    2    1    2    0    0  0.19915045064E-02  0.16595693759E-01 -0.16419322093E-01  0.10204997358E+01  0.10202307256E+01 0.  0.
     999903    2    3    3    0    0 -0.91830441786E-02 -0.20915359061E-01 -0.12909547762E+00  0.13245251543E+00  0.18874478958E-01 0.  0.
         14    1    1    2    0    0 -0.19915045064E-02 -0.16595693759E-01  0.16419322093E-01  0.23430264180E-01  0.00000000000E+00 0.  1.
     999901    1    3    3    0    0  0.11174548685E-01  0.37511052820E-01  0.11267615553E+00  0.88804722039E+00  0.88000000000E+00 0. -1.
        -11    1    4    4    0    0 -0.13149966336E-01 -0.69110877791E-02 -0.57458037317E-01  0.59349573901E-01  0.51100000000E-03 0.  1.
         11    1    4    4    0    0  0.39669221575E-02 -0.14004271282E-01 -0.71637440304E-01  0.73102941527E-01  0.51100000000E-03 0. -1.
</event>
<event>
 8    1  0.1095396E+005  0.1043930E+01  0.7957747E-01            NaN
         13   -1    0    0    0    0  0.00000000000E+00  0.00000000000E+00  0.74505805969E-08  0.10566000000E+00  0.10566000000E+00 0.  1.
     999900   -1    0    0    0    0 -0.00000000000E+00 -0.00000000000E+00 -0.74505805969E-08  0.93827000000E+00  0.93827000000E+00 0. -1.
     999902    2    1    2    0    0  0.69130906757E-02  0.22351879155E-01 -0.13407509145E-03  0.10205330921E+01  0.10202648562E+01 0.  0.
     999903    2    3    3    0    0  0.10093254281E+00  0.84043628963E-01 -0.85514443431E-02  0.13333729549E+00  0.21330668053E-01 0.  0.
         14    1    1    2    0    0 -0.69130906757E-02 -0.22351879155E-01  0.13407509145E-03  0.23396907928E-01  0.00000000000E+00 0.  1.
     999901    1    3    3    0    0 -0.94019452135E-01 -0.61691749807E-01  0.84173692516E-02  0.88719579659E+00  0.88000000000E+00 0.  1.
        -11    1    4    4    0    0  0.28580127220E-01  0.23105735249E-01  0.71552032155E-02  0.37445383258E-01  0.51100000000E-03 0. -1.
         11    1    4    4    0    0  0.72352415591E-01  0.60937893714E-01 -0.15706647559E-01  0.95891912228E-01  0.51100000000E-03 0.  1.
</event>
<event>
 8    1  0.1054833E+005  0.1043930E+01  0.7957747E-01            NaN
         13   -1    0    0    0    0  0.00000000000E+00  0.00000000000E+00  0.74505805969E-08  0.10566000000E+00  0.10566000000E+00 0. -1.
     999900   -1    0    0    0    0 -0.00000000000E+00 -0.00000000000E+00 -0.74505805969E-08  0.93827000000E+00  0.93827000000E+00 0.  1.
     999902    2    1    2    0    0 -0.17412334911E-01 -0.16120022422E-01  0.71206125427E-03  0.10201907590E+01  0.10199145225E+01 0.  0.
     999903    2    3    3    0    0 -0.46917971575E-01 -0.20078118608E-01 -0.11985585463E+00  0.13147096549E+00  0.17741532475E-01 0.  0.
         14    1    1    2    0    0  0.17412334911E-01  0.16120022422E-01 -0.71206125427E-03  0.23739240956E-01  0.00000000000E+00 0. -1.
     999901    1    3    3    0    0  0.29505636665E-01  0.39580961853E-02  0.12056791588E+00  0.88871979356E+00  0.88000000000E+00 0. -1.
        -11    1    4    4    0    0 -0.12268035482E-01 -0.13435967970E-01 -0.32346376764E-01  0.37115753268E-01  0.51100000000E-03 0. -1.
         11    1    4    4    0    0 -0.34649936094E-01 -0.66421506375E-02 -0.87509477861E-01  0.94355212219E-01  0.51100000000E-03 0.  1.
</event>
<event>
 8    1  0.1054833E+005  0.1043930E+01  0.7957747E-01            NaN
         13   -1    0    0    0    0  0.00000000000E+00  0.00000000000E+00  0.74505805969E-08  0.10566000000E+00  0.10566000000E+00 0.  1.
     999900   -1    0    0    0    0 -0.00000000000E+00 -0.00000000000E+00 -0.74505805969E-08  0.93827000000E+00  0.93827000000E+00 0. -1.
     999902    2    1    2    0    0  0.88238220389E-02 -0.43937576683E-02 -0.20543085787E-01  0.10211444055E+01  0.10208901575E+01 0.  0.
     999903    2    3    3    0    0 -0.58794172345E-01 -0.12867459594E-01 -0.11706526902E+00  0.13324771748E+00  0.20696637028E-01 0.  0.
         14    1    1    2    0    0 -0.88238220389E-02  0.43937576683E-02  0.20543085787E-01  0.22785594472E-01  0.00000000000E+00 0.  1.
     999901    1    3    3    0    0  0.67617994384E-01  0.84737019257E-02  0.96522183235E-01  0.88789668805E+00  0.88000000000E+00 0.  1.
        -11    1    4    4    0    0 -0.53180713741E-01 -0.92883438713E-02 -0.86530279773E-01  0.10199123533E+00  0.51100000000E-03 0. -1.
         11    1    4    4    0    0 -0.56134586044E-02 -0.35791157228E-02 -0.30534989249E-01  0.31256482149E-01  0.51100000000E-03 0.  1.
</event>
<event>
 8    1  0.1054833E+005  0.1043930E+01  0.7957747E-01            NaN
         13   -1    0    0    0    0  0.00000000000E+00  0.00000000000E+00  0.74505805969E-08  0.10566000000E+00  0.10566000000E+00 0. -1.
     999900   -1    0    0    0    0 -0.00000000000E+00 -0.00000000000E+00 -0.74505805969E-08  0.93827000000E+00  0.93827000000E+00 0.  1.
     999902    2    1    2    0    0 -0.92819467781E-02  0.14647907513E-01 -0.15773765971E-01  0.10204879987E+01  0.10202187158E+01 0.  0.
     999903    2    3    3    0    0  0.61721023219E-02 -0.12698850147E+00  0.64742936303E-02  0.12875111145E+00  0.19255073882E-01 0.  0.
         14    1    1    2    0    0  0.92819467781E-02 -0.14647907513E-01  0.15773765971E-01  0.23442001267E-01  0.00000000000E+00 0. -1.
     999901    1    3    3    0    0 -0.15454049100E-01  0.14163640898E+00 -0.22248059601E-01  0.89173688728E+00  0.88000000000E+00 0.  1.
        -11    1    4    4    0    0  0.15082942925E-02 -0.78195588261E-01 -0.51247098688E-02  0.78379517397E-01  0.51100000000E-03 0.  1.
         11    1    4    4    0    0  0.46638080294E-02 -0.48792913205E-01  0.11599003499E-01  0.50371594054E-01  0.51100000000E-03 0. -1.
</event>
<event>
 8    1  0.1054833E+005  0.1043930E+01  0.7957747E-01            NaN
         13   -1    0    0    0    0  0.00000000000E+00  0.00000000000E+00  0.74505805969E-08  0.10566000000E+00  0.10566000000E+00 0.  1.
     999900   -1    0    0    0    0 -0.00000000000E+00 -0.00000000000E+00 -0.74505805969E-08  0.93827000000E+00  0.93827000000E+00 0. -1.
     999902    2    1    2    0    0  0.22249579305E-01 -0.70943390747E-03 -0.10982431764E-01  0.10191074118E+01  0.10188050628E+01 0.  0.
     999903    2    3    3    0    0  0.12548893418E+00 -0.32678279814E-01 -0.18197886444E-01  0.13246631517E+00  0.20020464845E-01 0.  0.
         14    1    1    2    0    0 -0.22249579305E-01  0.70943390747E-03  0.10982431764E-01  0.24822588164E-01  0.00000000000E+00 0. -1.
     999901    1    3    3    0    0 -0.10323935487E+00  0.31968845907E-01  0.72154546803E-02  0.88664109666E+00  0.88000000000E+00 0.  1.
        -11    1    4    4    0    0  0.61300173913E-01 -0.10648179380E-01 -0.67112284066E-04  0.62220259328E-01  0.51100000000E-03 0. -1.
         11    1    4    4    0    0  0.64188760263E-01 -0.22030100434E-01 -0.18130774160E-01  0.70246055846E-01  0.51100000000E-03 0.  1.
</event>
<event>
 8    1  0.1054833E+005  0.1043930E+01  0.7957747E-01            NaN
         13   -1    0    0    0    0  0.00000000000E+00  0.00000000000E+00  0.74505805969E-08  0.10566000000E+00  0.10566000000E+00 0.  1.
     999900   -1    0    0    0    0 -0.00000000000E+00 -0.00000000000E+00 -0.74505805969E-08  0.93827000000E+00  0.93827000000E+00 0.  1.
     999902    2    1    2    0    0 -0.15543870600E-01  0.10525123561E-01 -0.14519265238E-01  0.10201981816E+01  0.10199221199E+01 0.  0.
     999903    2    3    3    0    0 -0.11209198655E+00 -0.58942631329E-01  0.27554706424E-01  0.13120013511E+00  0.20380538962E-01 0.  0.
         14    1    1    2    0    0  0.15543870600E-01 -0.10525123561E-01  0.14519265238E-01  0.23731818351E-01  0.00000000000E+00 0.  1.
     999901    1    3    3    0    0  0.96548115954E-01  0.69467754890E-01 -0.42073971662E-01  0.88899804654E+00  0.88000000000E+00 0.  1.
        -11    1    4    4    0    0 -0.33676523511E-01 -0.16716843130E-01 -0.11708235466E-02  0.37619051408E-01  0.51100000000E-03 0. -1.
         11    1    4    4    0    0 -0.78415463042E-01 -0.42225788200E-01  0.28725529971E-01  0.93581083699E-01  0.51100000000E-03 0.  1.
</event>
<event>
 8    1  0.1054833E+005  0.1043930E+01  0.7957747E-01            NaN
         13   -1    0    0    0    0  0.00000000000E+00  0.00000000000E+00  0.74505805969E-08  0.10566000000E+00  0.10566000000E+00 0.  1.
     999900   -1    0    0    0    0 -0.00000000000E+00 -0.00000000000E+00 -0.74505805969E-08  0.93827000000E+00  0.93827000000E+00 0. -1.
     999902    2    1    2    0    0 -0.51281720145E-02  0.22962874416E-01 -0.15366913817E-02  0.10203513408E+01  0.10200788722E+01 0.  0.
     999903    2    3    3    0    0 -0.12002938288E+00  0.52271135405E-01  0.71498820159E-02  0.13235544048E+00  0.18097443475E-01 0.  0.
         14    1    1    2    0    0  0.51281720145E-02 -0.22962874416E-01  0.15366913817E-02  0.23578659208E-01  0.00000000000E+00 0.  1.
     999901    1    3    3    0    0  0.11490121086E+00 -0.29308260989E-01 -0.86865733976E-02  0.88799590032E+00  0.88000000000E+00 0.  1.
        -11    1    4    4    0    0 -0.55552067923E-01  0.23175965601E-01 -0.56777987337E-02  0.60462022390E-01  0.51100000000E-03 0. -1.
         11    1    4    4    0    0 -0.64477314955E-01  0.29095169804E-01  0.12827680750E-01  0.71893418086E-01  0.51100000000E-03 0.  1.
</event>
<event>
 8    1  0.1054833E+005  0.1043930E+01  0.7957747E-01            NaN
         13   -1    0    0    0    0  0.00000000000E+00  0.00000000000E+00  0.74505805969E-08  0.10566000000E+00  0.10566000000E+00 0. -1.
     999900   -1    0    0    0    0 -0.00000000000E+00 -0.00000000000E+00 -0.74505805969E-08  0.93827000000E+00  0.93827000000E+00 0. -1.
     999902    2    1    2    0    0  0.77320545206E-02  0.22274715415E-01 -0.69608554719E-02  0.10193454292E+01  0.10190489207E+01 0.  0.
     999903    2    3    3    0    0 -0.61281860679E-01  0.89984194272E-02 -0.11274483754E+00  0.13022820890E+00  0.20286695125E-01 0.  0.
         14    1    1    2    0    0 -0.77320545206E-02 -0.22274715415E-01  0.69608554719E-02  0.24584570829E-01  0.00000000000E+00 0. -1.
     999901    1    3    3    0    0  0.69013915200E-01  0.13276295988E-01  0.10578398207E+00  0.88911722027E+00  0.88000000000E+00 0.  1.
        -11    1    4    4    0    0 -0.23309259963E-01 -0.62240152972E-02 -0.45887755256E-01  0.51845994733E-01  0.51100000000E-03 0. -1.
         11    1    4    4    0    0 -0.37972600716E-01  0.15222434724E-01 -0.66857082287E-01  0.78382214163E-01  0.51100000000E-03 0.  1.
</event>
<event>
 8    1  0.1054833E+005  0.1043930E+01  0.7957747E-01            NaN
         13   -1    0    0    0    0  0.00000000000E+00  0.00000000000E+00  0.74505805969E-08  0.10566000000E+00  0.10566000000E+00 0. -1.
     999900   -1    0    0    0    0 -0.00000000000E+00 -0.00000000000E+00 -0.74505805969E-08  0.93827000000E+00  0.93827000000E+00 0. -1.
     999902    2    1    2    0    0 -0.18497036695E-01 -0.13310889720E-01 -0.79932244357E-02  0.10197802218E+01  0.10194942319E+01 0.  0.
     999903    2    3    3    0    0  0.10043919997E+00 -0.77027885670E-01  0.15998059598E-01  0.12917297631E+00  0.20208706914E-01 0.  0.
         14    1    1    2    0    0  0.18497036695E-01  0.13310889720E-01  0.79932244357E-02  0.24149778229E-01  0.00000000000E+00 0.  1.
     999901    1    3    3    0    0 -0.11893623667E+00  0.63716995950E-01 -0.23991284034E-01  0.89060724547E+00  0.88000000000E+00 0.  1.
        -11    1    4    4    0    0  0.75651174259E-01 -0.54808344037E-01  0.20309031035E-01  0.95602157954E-01  0.51100000000E-03 0. -1.
         11    1    4    4    0    0  0.24788025712E-01 -0.22219541633E-01 -0.43109714370E-02  0.33570818352E-01  0.51100000000E-03 0.  1.
</event>
<event>
 8    1  0.1054833E+005  0.1043930E+01  0.7957747E-01            NaN
         13   -1    0    0    0    0  0.00000000000E+00  0.00000000000E+00  0.74505805969E-08  0.10566000000E+00  0.10566000000E+00 0.  1.
     999900   -1    0    0    0    0 -0.00000000000E+00 -0.00000000000E+00 -0.74505805969E-08  0.93827000000E+00  0.93827000000E+00 0.  1.
     999902    2    1    2    0    0 -0.58956596846E-02 -0.20039829979E-01  0.11815162528E-01  0.10199310072E+01  0.10196486198E+01 0.  0.
     999903    2    3    3    0    0 -0.39457246123E-01  0.11833119206E+00 -0.21276768694E-01  0.12787271555E+00  0.18427837918E-01 0.  0.
         14    1    1    2    0    0  0.58956596846E-02  0.20039829979E-01 -0.11815162528E-01  0.23998992776E-01  0.00000000000E+00 0. -1.
     999901    1    3    3    0    0  0.33561586438E-01 -0.13837102204E+00  0.33091931222E-01  0.89205829167E+00  0.88000000000E+00 0.  1.
        -11    1    4    4    0    0 -0.11002336370E-01  0.13514920704E-01 -0.17771201975E-02  0.17524946917E-01  0.51100000000E-03 0.  1.
         11    1    4    4    0    0 -0.28454909752E-01  0.10481627136E+00 -0.19499648497E-01  0.11034776864E+00  0.51100000000E-03 0. -1.
</event>
<event>
 8    1  0.1054833E+005  0.1043930E+01  0.7957747E-01            NaN
         13   -1    0    0    0    0  0.00000000000E+00  0.00000000000E+00  0.74505805969E-08  0.10566000000E+00  0.10566000000E+00 0.  1.
     999900   -1    0    0    0    0 -0.00000000000E+00 -0.00000000000E+00 -0.74505805969E-08  0.93827000000E+00  0.93827000000E+00 0.  1.
     999902    2    1    2    0    0 -0.55152373902E-02 -0.13000250965E-01  0.18653507404E-01  0.10205338955E+01  0.10202656782E+01 0.  0.
     999903    2    3    3    0    0 -0.60478646425E-01  0.80095002842E-01 -0.78044431897E-01  0.12866047728E+00  0.19741046319E-01 0.  0.
         14    1    1    2    0    0  0.55152373902E-02  0.13000250965E-01 -0.18653507404E-01  0.23396104528E-01  0.00000000000E+00 0. -1.
     999901    1    3    3    0    0  0.54963409035E-01 -0.93095253807E-01  0.96697939301E-01  0.89187341819E+00  0.88000000000E+00 0. -1.
        -11    1    4    4    0    0 -0.54883071879E-01  0.76511389673E-01 -0.66314403522E-01  0.11516946455E+00  0.51100000000E-03 0. -1.
         11    1    4    4    0    0 -0.55955745463E-02  0.35836131692E-02 -0.11730028375E-01  0.13491012732E-01  0.51100000000E-03 0.  1.
</event>
<event>
 8    1  0.1054833E+005  0.1043930E+01  0.7957747E-01            NaN
         13   -1    0    0    0    0  0.00000000000E+00  0.00000000000E+00  0.74505805969E-08  0.10566000000E+00  0.10566000000E+00 0.  1.
     999900   -1    0    0    0    0 -0.00000000000E+00 -0.00000000000E+00 -0.74505805969E-08  0.93827000000E+00  0.93827000000E+00 0. -1.
     999902    2    1    2    0    0  0.11664576239E-01  0.18860311919E-01  0.85781474560E-02  0.10201527353E+01  0.10198756027E+01 0.  0.
     999903    2    3    3    0    0  0.75370488816E-01  0.42224701460E-01  0.10022796239E+00  0.13279484435E+00  0.11188844519E-01 0.  0.
         14    1    1    2    0    0 -0.11664576239E-01 -0.18860311919E-01 -0.85781474560E-02  0.23777264735E-01  0.00000000000E+00 0. -1.
     999901    1    3    3    0    0 -0.63705912578E-01 -0.23364389541E-01 -0.91649814938E-01  0.88735789092E+00  0.88000000000E+00 0. -1.
        -11    1    4    4    0    0  0.21103523938E-01  0.97649187916E-02  0.20259837256E-01  0.30845331709E-01  0.51100000000E-03 0. -1.
         11    1    4    4    0    0  0.54266964879E-01  0.32459782669E-01  0.79968125138E-01  0.10194951264E+00  0.51100000000E-03 0.  1.
</event>
<event>
 8    1  0.1054833E+005  0.1043930E+01  0.7957747E-01            NaN
         13   -1    0    0    0    0  0.00000000000E+00  0.00000000000E+00  0.74505805969E-08  0.10566000000E+00  0.10566000000E+00 0.  1.
     999900   -1    0    0    0    0 -0.00000000000E+00 -0.00000000000E+00 -0.74505805969E-08  0.93827000000E+00  0.93827000000E+00 0. -1.
     999902    2    1    2    0    0 -0.21130156495E-01 -0.11003570142E-01  0.19043870456E-02  0.10200304444E+01  0.10197504198E+01 0.  0.
     999903    2    3    3    0    0  0.20836301686E-02  0.10611305123E+00  0.70986113511E-01  0.12928498812E+00  0.20279513937E-01 0.  0.
         14    1    1    2    0    0  0.21130156495E-01  0.11003570142E-01 -0.19043870456E-02  0.23899555632E-01  0.00000000000E+00 0. -1.
     999901    1    3    3    0    0 -0.23213786664E-01 -0.11711662137E+00 -0.69081726466E-01  0.89074545625E+00  0.88000000000E+00 0.  1.
        -11    1    4    4    0    0 -0.84880075637E-02  0.63384028665E-01  0.39569779045E-01  0.75203789112E-01  0.51100000000E-03 0.  1.
         11    1    4    4    0    0  0.10571637732E-01  0.42729022567E-01  0.31416334467E-01  0.54081199009E-01  0.51100000000E-03 0. -1.
</event>
<event>
 8    1  0.1054833E+005  0.1043930E+01  0.7957747E-01            NaN
         13   -1    0    0    0    0  0.00000000000E+00  0.00000000000E+00  0.74505805969E-08  0.10566000000E+00  0.10566000000E+00 0.  1.
     999900   -1    0    0    0    0 -0.00000000000E+00 -0.00000000000E+00 -0.74505805969E-08  0.93827000000E+00  0.93827000000E+00 0.  1.
     999902    2    1    2    0    0 -0.11185843869E-01  0.13119936242E-01 -0.18058636014E-01  0.10189626180E+01  0.10186566874E+01 0.  0.
     999903    2    3    3    0    0 -0.90792834635E-01  0.89766808931E-01 -0.27134548769E-01  0.13200467746E+00  0.19685840766E-01 0.  0.
         14    1    1    2    0    0  0.11185843869E-01 -0.13119936242E-01  0.18058636014E-01  0.24967382016E-01  0.00000000000E+00 0.  1.
     999901    1    3    3    0    0  0.79606990766E-01 -0.76646872689E-01  0.90759127555E-02  0.88695794053E+00  0.88000000000E+00 0.  1.
        -11    1    4    4    0    0 -0.17286836313E-01  0.14658546922E-01 -0.12524708260E-01  0.25900524040E-01  0.51100000000E-03 0. -1.
         11    1    4    4    0    0 -0.73505998322E-01  0.75108262009E-01 -0.14609840510E-01  0.10610415342E+00  0.51100000000E-03 0.  1.
</event>
<event>
 8    1  0.1054833E+005  0.1043930E+01  0.7957747E-01            NaN
         13   -1    0    0    0    0  0.00000000000E+00  0.00000000000E+00  0.74505805969E-08  0.10566000000E+00  0.10566000000E+00 0.  1.
     999900   -1    0    0    0    0 -0.00000000000E+00 -0.00000000000E+00 -0.74505805969E-08  0.93827000000E+00  0.93827000000E+00 0. -1.
     999902    2    1    2    0    0 -0.78458798728E-02  0.17972859591E-01  0.13599662733E-01  0.10200651233E+01  0.10197859204E+01 0.  0.
     999903    2    3    3    0    0  0.12379676859E+00 -0.28233955226E-01  0.16240848761E-01  0.12907026783E+00  0.16509776773E-01 0.  0.
         14    1    1    2    0    0  0.78458798728E-02 -0.17972859591E-01 -0.13599662733E-01  0.23864876687E-01  0.00000000000E+00 0. -1.
     999901    1    3    3    0    0 -0.13164264846E+00  0.46206814818E-01 -0.26411860281E-02  0.89099485548E+00  0.88000000000E+00 0.  1.
        -11    1    4    4    0    0  0.33677985148E-01 -0.60230978530E-02 -0.27641388742E-02  0.34327627010E-01  0.51100000000E-03 0. -1.
         11    1    4    4    0    0  0.90118783440E-01 -0.22210857373E-01  0.19004987635E-01  0.94742640822E-01  0.51100000000E-03 0.  1.
</event>
<event>
 8    1  0.1054833E+005  0.1043930E+01  0.7957747E-01            NaN
         13   -1    0    0    0    0  0.00000000000E+00  0.00000000000E+00  0.74505805969E-08  0.10566000000E+00  0.10566000000E+00 0. -1.
     999900   -1    0    0    0    0 -0.00000000000E+00 -0.00000000000E+00 -0.74505805969E-08  0.93827000000E+00  0.93827000000E+00 0. -1.
     999902    2    1    2    0    0 -0.10339548008E-01 -0.53299642023E-02 -0.29802180152E-01  0.10119380524E+01  0.10114322207E+01 0.  0.
     999903    2    3    3    0    0 -0.64618305502E-01  0.95482226872E-01  0.34969088536E-01  0.12216021570E+00  0.20196536633E-01 0.  0.
         14    1    1    2    0    0  0.10339548008E-01  0.53299642023E-02  0.29802180152E-01  0.31991947631E-01  0.00000000000E+00 0. -1.
     999901    1    3    3    0    0  0.54278757494E-01 -0.10081219107E+00 -0.64771268688E-01  0.88977783667E+00  0.88000000000E+00 0. -1.
        -11    1    4    4    0    0 -0.53583077402E-01  0.65407122990E-01  0.30100296616E-01  0.89752587144E-01  0.51100000000E-03 0. -1.
         11    1    4    4    0    0 -0.11035228100E-01  0.30075103882E-01  0.48687919201E-02  0.32407628554E-01  0.51100000000E-03 0.  1.
</event>
<event>
 7    1  0.1054833E+005  0.1043930E+01  0.7957747E-01            NaN
         13   -1    0    0    0    0  0.00000000000E+00  0.00000000000E+00  0.74505805969E-08  0.10566000000E+00  0.10566000000E+00 0. -1.
     999900   -1    0    0    0    0 -0.00000000000E+00 -0.00000000000E+00 -0.74505805969E-08  0.93827000000E+00  0.93827000000E+00 0.  1.
     999903    2    1    2    0    0  0.34833598862E-01  0.74903815809E-01 -0.43458844400E-01  0.95517110431E-01  0.20270323038E-01 0.  0.
         14    1    1    2    0    0 -0.16911458053E-01  0.37882227216E-01 -0.39348523992E-01  0.57178377843E-01  0.00000000000E+00 0.  1.
     999901    1    1    2    0    0 -0.17922140809E-01 -0.11278604303E+00  0.82807368392E-01  0.89123451173E+00  0.88000000000E+00 0. -1.
        -11    1    3    3    0    0  0.50352332968E-02  0.82954802736E-03 -0.36775140344E-02  0.63108600647E-02  0.51100000000E-03 0. -1.
         11    1    3    3    0    0  0.29798365565E-01  0.74074267781E-01 -0.39781330365E-01  0.89206250366E-01  0.51100000000E-03 0.  1.
</event>
<event>
 8    1  0.1054833E+005  0.1043930E+01  0.7957747E-01            NaN
         13   -1    0    0    0    0  0.00000000000E+00  0.00000000000E+00  0.74505805969E-08  0.10566000000E+00  0.10566000000E+00 0. -1.
     999900   -1    0    0    0    0 -0.00000000000E+00 -0.00000000000E+00 -0.74505805969E-08  0.93827000000E+00  0.93827000000E+00 0. -1.
     999902    2    1    2    0    0 -0.64812514379E-02 -0.11098163611E-01  0.18362570292E-01  0.10215166146E+01  0.10212706958E+01 0.  0.
     999903    2    3    3    0    0 -0.12661574022E+00 -0.33440052960E-01 -0.66774065386E-02  0.13272054362E+00  0.20502978484E-01 0.  0.
         14    1    1    2    0    0  0.64812514379E-02  0.11098163611E-01 -0.18362570292E-01  0.22413385364E-01  0.00000000000E+00 0.  1.
     999901    1    3    3    0    0  0.12013448878E+00  0.22341889349E-01  0.25039976831E-01  0.88879607102E+00  0.88000000000E+00 0.  1.
        -11    1    4    4    0    0 -0.41426313049E-01 -0.41193477816E-02 -0.89986099914E-02  0.42595123451E-01  0.51100000000E-03 0.  1.
         11    1    4    4    0    0 -0.85189427172E-01 -0.29320705179E-01  0.23212034528E-02  0.90125420169E-01  0.51100000000E-03 0. -1.
</event>
<event>
 8    1  0.1054833E+005  0.1043930E+01  0.7957747E-01            NaN
         13   -1    0    0    0    0  0.00000000000E+00  0.00000000000E+00  0.74505805969E-08  0.10566000000E+00  0.10566000000E+00 0.  1.
     999900   -1    0    0    0    0 -0.00000000000E+00 -0.00000000000E+00 -0.74505805969E-08  0.93827000000E+00  0.93827000000E+00 0.  1.
     999902    2    1    2    0    0  0.66322503326E-03  0.28935555498E-02 -0.21433160541E-01  0.10222922344E+01  0.10220632170E+01 0.  0.
     999903    2    3    3    0    0 -0.93521847202E-01  0.63501470068E-01  0.63607591952E-01  0.13112666236E+00  0.19222466605E-01 0.  0.
         14    1    1    2    0    0 -0.66322503326E-03 -0.28935555498E-02  0.21433160541E-01  0.21637765641E-01  0.00000000000E+00 0.  1.
     999901    1    3    3    0    0  0.94185072236E-01 -0.60607914519E-01 -0.85040752493E-01  0.89116557200E+00  0.88000000000E+00 0.  1.
        -11    1    4    4    0    0 -0.44911153093E-01  0.27634204800E-01  0.40313287251E-01  0.66378333793E-01  0.51100000000E-03 0.  1.
         11    1    4    4    0    0 -0.48610694109E-01  0.35867265268E-01  0.23294304701E-01  0.64748328566E-01  0.51100000000E-03 0. -1.
</event>
<event>
 8    1  0.1054833E+005  0.1043930E+01  0.7957747E-01            NaN
         13   -1    0    0    0    0  0.00000000000E+00  0.00000000000E+00  0.74505805969E-08  0.10566000000E+00  0.10566000000E+00 0.  1.
     999900   -1    0    0    0    0 -0.00000000000E+00 -0.00000000000E+00 -0.74505805969E-08  0.93827000000E+00  0.93827000000E+00 0. -1.
     999902    2    1    2    0    0 -0.17908964527E-01 -0.10692037886E-02  0.14967844954E-01  0.10205652704E+01  0.10202977803E+01 0.  0.
     999903    2    3    3    0    0  0.59387165065E-01 -0.10482419064E+00  0.46227456222E-01  0.13055574671E+00  0.19821174847E-01 0.  0.
         14    1    1    2    0    0  0.17908964527E-01  0.10692037886E-02 -0.14967844954E-01  0.23364729610E-01  0.00000000000E+00 0. -1.
     999901    1    3    3    0    0 -0.77296129591E-01  0.10375498685E+00 -0.31259611268E-01  0.89000952368E+00  0.88000000000E+00 0. -1.
        -11    1    4    4    0    0  0.39544445955E-01 -0.83443831588E-01  0.29564163544E-01  0.96958429870E-01  0.51100000000E-03 0. -1.
         11    1    4    4    0    0  0.19842719110E-01 -0.21380359052E-01  0.16663292679E-01  0.33597316839E-01  0.51100000000E-03 0.  1.
</event>
<event>
 8    1  0.1054833E+005  0.1043930E+01  0.7957747E-01            NaN
         13   -1    0    0    0    0  0.00000000000E+00  0.00000000000E+00  0.74505805969E-08  0.10566000000E+00  0.10566000000E+00 0. -1.
     999900   -1    0    0    0    0 -0.00000000000E+00 -0.00000000000E+00 -0.74505805969E-08  0.93827000000E+00  0.93827000000E+00 0.  1.
     999902    2    1    2    0    0 -0.54573021228E-02 -0.21146390347E-01  0.95120939256E-02  0.10201091708E+01  0.10198310098E+01 0.  0.
     999903    2    3    3    0    0  0.12304690183E+00  0.16135497385E-01  0.31613811600E-01  0.12972062896E+00  0.20666740596E-01 0.  0.
         14    1    1    2    0    0  0.54573021228E-02  0.21146390347E-01 -0.95120939256E-02  0.23820829163E-01  0.00000000000E+00 0.  1.
     999901    1    3    3    0    0 -0.12850420395E+00 -0.37281887732E-01 -0.22101717675E-01  0.89038854188E+00  0.88000000000E+00 0.  1.
        -11    1    4    4    0    0  0.85683375314E-01  0.20187438920E-01  0.25420641140E-01  0.91627744774E-01  0.51100000000E-03 0.  1.
         11    1    4    4    0    0  0.37363526518E-01 -0.40519415351E-02  0.61931704599E-02  0.38092884183E-01  0.51100000000E-03 0. -1.
</event>
<event>
 8    1  0.1054833E+005  0.1043930E+01  0.7957747E-01            NaN
         13   -1    0    0    0    0  0.00000000000E+00  0.00000000000E+00  0.74505805969E-08  0.10566000000E+00  0.10566000000E+00 0.  1.
     999900   -1    0    0    0    0 -0.00000000000E+00 -0.00000000000E+00 -0.74505805969E-08  0.93827000000E+00  0.93827000000E+00 0. -1.
     999902    2    1    2    0    0  0.12757655836E-01 -0.19405789893E-01  0.32476757889E-02  0.10204802695E+01  0.10202108069E+01 0.  0.
     999903    2    3    3    0    0 -0.12086014867E+00  0.35871833164E-01  0.11072758156E-01  0.12864476603E+00  0.23084754749E-01 0.  0.
         14    1    1    2    0    0 -0.12757655836E-01  0.19405789893E-01 -0.32476757889E-02  0.23449730528E-01  0.00000000000E+00 0. -1.
     999901    1    3    3    0    0  0.13361780451E+00 -0.55277623057E-01 -0.78250823674E-02  0.89183550345E+00  0.88000000000E+00 0.  1.
        -11    1    4    4    0    0 -0.20604069214E-01  0.13120392880E-01 -0.39401798669E-02  0.24747899222E-01  0.51100000000E-03 0.  1.
         11    1    4    4    0    0 -0.10025607946E+00  0.22751440284E-01  0.15012938023E-01  0.10389686680E+00  0.51100000000E-03 0. -1.
</event>
<event>
 8    1  0.1054833E+005  0.1043930E+01  0.7957747E-01            NaN
         13   -1    0    0    0    0  0.00000000000E+00  0.00000000000E+00  0.74505805969E-08  0.10566000000E+00  0.10566000000E+00 0. -1.
     999900   -1    0    0    0    0 -0.00000000000E+00 -0.00000000000E+00 -0.74505805969E-08  0.93827000000E+00  0.93827000000E+00 0. -1.
     999902    2    1    2    0    0  0.20984200176E-01  0.13837060216E-01  0.25949229142E-01  0.10078029549E+01  0.10071552177E+01 0.  0.
     999903    2    3    3    0    0 -0.32238614553E-01 -0.40356199306E-02 -0.10929472657E+00  0.11570260841E+00  0.19650492087E-01 0.  0.
         14    1    1    2    0    0 -0.20984200176E-01 -0.13837060216E-01 -0.25949229142E-01  0.36127045070E-01  0.00000000000E+00 0. -1.
     999901    1    3    3    0    0  0.53222814728E-01  0.17872680147E-01  0.13524395572E+00  0.89210034652E+00  0.88000000000E+00 0.  1.
        -11    1    4    4    0    0 -0.26609466163E-01  0.48030963735E-02 -0.86053008527E-01  0.90202632011E-01  0.51100000000E-03 0.  1.
         11    1    4    4    0    0 -0.56291483898E-02 -0.88387163041E-02 -0.23241718048E-01  0.25499976398E-01  0.51100000000E-03 0. -1.
</event>
<event>
 8    1  0.1054833E+005  0.1043930E+01  0.7957747E-01            NaN
         13   -1    0    0    0    0  0.00000000000E+00  0.00000000000E+00  0.74505805969E-08  0.10566000000E+00  0.10566000000E+00 0.  1.
     999900   -1    0    0    0    0 -0.00000000000E+00 -0.00000000000E+00 -0.74505805969E-08  0.93827000000E+00  0.93827000000E+00 0. -1.
     999902    2    1    2    0    0 -0.53980220592E-02  0.13290469869E-02  0.22068188877E-01  0.10211723646E+01  0.10209187472E+01 0.  0.
     999903    2    3    3    0    0 -0.15392387559E-01 -0.20386515586E-01 -0.12456815003E+00  0.12871862974E+00  0.19968125320E-01 0.  0.
         14    1    1    2    0    0  0.53980220592E-02 -0.13290469869E-02 -0.22068188877E-01  0.22757635386E-01  0.00000000000E+00 0. -1.
     999901    1    3    3    0    0  0.99943654995E-02  0.21715562573E-01  0.14663633891E+00  0.89245373487E+00  0.88000000000E+00 0.  1.
        -11    1    4    4    0    0  0.41817545407E-02 -0.84734992196E-02 -0.33553186516E-01  0.34862081212E-01  0.51100000000E-03 0. -1.
         11    1    4    4    0    0 -0.19574142099E-01 -0.11913016366E-01 -0.91014963512E-01  0.93856548530E-01  0.51100000000E-03 0.  1.
</event>
<event>
 8    1  0.1054833E+005  0.1043930E+01  0.7957747E-01            NaN
         13   -1    0    0    0    0  0.00000000000E+00  0.00000000000E+00  0.74505805969E-08  0.10566000000E+00  0.10566000000E+00 0.  1.
     999900   -1    0    0    0    0 -0.00000000000E+00 -0.00000000000E+00 -0.74505805969E-08  0.93827000000E+00  0.93827000000E+00 0.  1.
     999902    2    1    2    0    0  0.41740536859E-02  0.20771458442E-01  0.95544363817E-02  0.10206885830E+01  0.10204239413E+01 0.  0.
     999903    2    3    3    0    0  0.26137414188E-01  0.12933155584E+00  0.75798950973E-02  0.13374349858E+00  0.20495190781E-01 0.  0.
         14    1    1    2    0    0 -0.41740536859E-02 -0.20771458442E-01 -0.95544363817E-02  0.23241417008E-01  0.00000000000E+00 0. -1.
     999901    1    3    3    0    0 -0.21963360502E-01 -0.10856009740E+00  0.19745412844E-02  0.88694508441E+00  0.88000000000E+00 0. -1.
        -11    1    4    4    0    0  0.13523089015E-01  0.40789329158E-01  0.10567764122E-01  0.44255870449E-01  0.51100000000E-03 0.  1.
         11    1    4    4    0    0  0.12614325173E-01  0.88542226684E-01 -0.29878690252E-02  0.89487628129E-01  0.51100000000E-03 0. -1.
</event>
<event>
 8    1  0.1054833E+005  0.1043930E+01  0.7957747E-01            NaN
         13   -1    0    0    0    0  0.00000000000E+00  0.00000000000E+00  0.74505805969E-08  0.10566000000E+00  0.10566000000E+00 0. -1.
     999900   -1    0    0    0    0 -0.00000000000E+00 -0.00000000000E+00 -0.74505805969E-08  0.93827000000E+00  0.93827000000E+00 0.  1.
     999902    2    1    2    0    0 -0.32953611862E-02 -0.12754911998E-01  0.18796380847E-01  0.10209767624E+01  0.10207187165E+01 0.  0.
     999903    2    3    3    0    0 -0.45462011138E-02  0.12377803729E+00  0.35572994036E-01  0.13028923825E+00  0.19187945192E-01 0.  0.
         14    1    1    2    0    0  0.32953611862E-02  0.12754911998E-01 -0.18796380847E-01  0.22953237645E-01  0.00000000000E+00 0.  1.
     999901    1    3    3    0    0  0.12508399276E-02 -0.13653294929E+00 -0.16776613188E-01  0.89068752410E+00  0.88000000000E+00 0. -1.
        -11    1    4    4    0    0  0.62965196202E-02  0.73843728771E-01  0.23907989230E-01  0.77874228781E-01  0.51100000000E-03 0.  1.
         11    1    4    4    0    0 -0.10842720734E-01  0.49934308516E-01  0.11665004806E-01  0.52415009472E-01  0.51100000000E-03 0. -1.
</event>
<event>
 8    1  0.1054833E+005  0.1043930E+01  0.7957747E-01            NaN
         13   -1    0    0    0    0  0.00000000000E+00  0.00000000000E+00  0.74505805969E-08  0.10566000000E+00  0.10566000000E+00 0. -1.
     999900   -1    0    0    0    0 -0.00000000000E+00 -0.00000000000E+00 -0.74505805969E-08  0.93827000000E+00  0.93827000000E+00 0.  1.
     999902    2    1    2    0    0 -0.12140794492E-01 -0.18462371989E-01 -0.97054167261E-02  0.10197959331E+01  0.10195103197E+01 0.  0.
     999903    2    3    3    0    0 -0.12033340151E+00 -0.46929243959E-01 -0.22781414349E-01  0.13261670392E+00  0.19639650214E-01 0.  0.
         14    1    1    2    0    0  0.12140794492E-01  0.18462371989E-01  0.97054167261E-02  0.24134066881E-01  0.00000000000E+00 0. -1.
     999901    1    3    3    0    0  0.10819260702E+00  0.28466871969E-01  0.13075997623E-01  0.88717922920E+00  0.88000000000E+00 0.  1.
        -11    1    4    4    0    0 -0.26721759043E-01 -0.10013640545E-01  0.31112799129E-02  0.28710043313E-01  0.51100000000E-03 0. -1.
         11    1    4    4    0    0 -0.93611642467E-01 -0.36915603414E-01 -0.25892694262E-01  0.10390666060E+00  0.51100000000E-03 0.  1.
</event>
<event>
 8    1  0.1054833E+005  0.1043930E+01  0.7957747E-01            NaN
         13   -1    0    0    0    0  0.00000000000E+00  0.00000000000E+00  0.74505805969E-08  0.10566000000E+00  0.10566000000E+00 0. -1.
     999900   -1    0    0    0    0 -0.00000000000E+00 -0.00000000000E+00 -0.74505805969E-08  0.93827000000E+00  0.93827000000E+00 0. -1.
     999902    2    1    2    0    0 -0.12567062150E-02 -0.23043216990E-01  0.68215075924E-03  0.10208424603E+01  0.10205813511E+01 0.  0.
     999903    2    3    3    0    0 -0.73488317363E-01  0.78982538872E-01  0.68637988919E-01  0.12941402433E+00  0.19950988344E-01 0.  0.
         14    1    1    2    0    0  0.12567062150E-02  0.23043216990E-01 -0.68215075924E-03  0.23087539700E-01  0.00000000000E+00 0. -1.
     999901    1    3    3    0    0  0.72231611148E-01 -0.10202575586E+00 -0.67955838160E-01  0.89142843597E+00  0.88000000000E+00 0. -1.
        -11    1    4    4    0    0 -0.29691010512E-01  0.27020110046E-01  0.15082640088E-01  0.42888105637E-01  0.51100000000E-03 0. -1.
         11    1    4    4    0    0 -0.43797306851E-01  0.51962428826E-01  0.53555348831E-01  0.86525918697E-01  0.51100000000E-03 0.  1.
</event>
<event>
 8    1  0.1054833E+005  0.1043930E+01  0.7957747E-01            NaN
         13   -1    0    0    0    0  0.00000000000E+00  0.00000000000E+00  0.74505805969E-08  0.10566000000E+00  0.10566000000E+00 0. -1.
     999900   -1    0    0    0    0 -0.00000000000E+00 -0.00000000000E+00 -0.74505805969E-08  0.93827000000E+00  0.93827000000E+00 0. -1.
     999902    2    1    2    0    0 -0.18119603407E-02  0.11428450445E-01  0.20482781598E-01  0.10204047578E+01  0.10201335367E+01 0.  0.
     999903    2    3    3    0    0  0.11661435626E-01 -0.17191907581E-02  0.13120510448E+00  0.13326676081E+00  0.20157018552E-01 0.  0.
         14    1    1    2    0    0  0.18119603407E-02 -0.11428450445E-01 -0.20482781598E-01  0.23525242228E-01  0.00000000000E+00 0.  1.
     999901    1    3    3    0    0 -0.13473395967E-01  0.13147641204E-01 -0.11072232288E+00  0.88713799696E+00  0.88000000000E+00 0. -1.
        -11    1    4    4    0    0  0.11340273439E-01 -0.91161044252E-02  0.10589074022E+00  0.10688692692E+00  0.51100000000E-03 0.  1.
         11    1    4    4    0    0  0.32116218741E-03  0.73969136671E-02  0.25314364262E-01  0.26379833887E-01  0.51100000000E-03 0. -1.
</event>
<event>
 8    1  0.1338677E+005  0.1043930E+01  0.7957747E-01            NaN
         13   -1    0    0    0    0  0.00000000000E+00  0.00000000000E+00  0.74505805969E-08  0.10566000000E+00  0.10566000000E+00 0.  1.
     999900   -1    0    0    0    0 -0.00000000000E+00 -0.00000000000E+00 -0.74505805969E-08  0.93827000000E+00  0.93827000000E+00 0. -1.
     999902    2    1    2    0    0 -0.37257325426E-02 -0.31348997392E-02  0.23804398218E-01  0.10196327151E+01  0.10193431785E+01 0.  0.
     999903    2    3    3    0    0  0.74772950612E-02  0.67789485144E-02 -0.12499441830E+00  0.12701584319E+00  0.20188009533E-01 0.  0.
         14    1    1    2    0    0  0.37257325426E-02  0.31348997392E-02 -0.23804398218E-01  0.24297284908E-01  0.00000000000E+00 0.  1.
     999901    1    3    3    0    0 -0.11203027604E-01 -0.99138482537E-02  0.14879881652E+00  0.89261687191E+00  0.88000000000E+00 0.  1.
        -11    1    4    4    0    0  0.13956525942E-01  0.49455159084E-02 -0.66356860595E-01  0.67990711226E-01  0.51100000000E-03 0. -1.
         11    1    4    4    0    0 -0.64792308809E-02  0.18334326061E-02 -0.58637557707E-01  0.59025131959E-01  0.51100000000E-03 0.  1.
</event>
<event>
 8    1  0.1054833E+005  0.1043930E+01  0.7957747E-01            NaN
         13   -1    0    0    0    0  0.00000000000E+00  0.00000000000E+00  0.74505805969E-08  0.10566000000E+00  0.10566000000E+00 0. -1.
     999900   -1    0    0    0    0 -0.00000000000E+00 -0.00000000000E+00 -0.74505805969E-08  0.93827000000E+00  0.93827000000E+00 0.  1.
     999902    2    1    2    0    0 -0.61754626349E-02  0.46814323477E-02 -0.22427162605E-01  0.10202017516E+01  0.10199257739E+01 0.  0.
     999903    2    3    3    0    0 -0.83808623600E-01 -0.34403299979E-01 -0.95296990691E-01  0.13292246313E+00  0.19477996055E-01 0.  0.
         14    1    1    2    0    0  0.61754626349E-02 -0.46814323477E-02  0.22427162605E-01  0.23728248357E-01  0.00000000000E+00 0. -1.
     999901    1    3    3    0    0  0.77633160965E-01  0.39084732327E-01  0.72869828086E-01  0.88727928852E+00  0.88000000000E+00 0.  1.
        -11    1    4    4    0    0 -0.46787342529E-01 -0.16342055508E-01 -0.65225485624E-01  0.81919126552E-01  0.51100000000E-03 0. -1.
         11    1    4    4    0    0 -0.37021281071E-01 -0.18061244471E-01 -0.30071505066E-01  0.51003336576E-01  0.51100000000E-03 0.  1.
</event>
<event>
 8    1  0.1054833E+005  0.1043930E+01  0.7957747E-01            NaN
         13   -1    0    0    0    0  0.00000000000E+00  0.00000000000E+00  0.74505805969E-08  0.10566000000E+00  0.10566000000E+00 0. -1.
     999900   -1    0    0    0    0 -0.00000000000E+00 -0.00000000000E+00 -0.74505805969E-08  0.93827000000E+00  0.93827000000E+00 0. -1.
     999902    2    1    2    0    0  0.51381992949E-02 -0.15017019995E-01  0.16964835415E-01  0.10206981765E+01  0.10204337558E+01 0.  0.
     999903    2    3    3    0    0 -0.12330054049E+00 -0.28524489129E-01  0.29448520344E-01  0.13118437450E+00  0.18040371314E-01 0.  0.
         14    1    1    2    0    0 -0.51381992949E-02  0.15017019995E-01 -0.16964835415E-01  0.23231823479E-01  0.00000000000E+00 0.  1.
     999901    1    3    3    0    0  0.12843873978E+00  0.13507469134E-01 -0.12483684929E-01  0.88951380202E+00  0.88000000000E+00 0. -1.
        -11    1    4    4    0    0 -0.43785319173E-01 -0.18777845995E-01  0.13225299217E-01  0.49446246932E-01  0.51100000000E-03 0.  1.
         11    1    4    4    0    0 -0.79515221316E-01 -0.97466431338E-02  0.16223221127E-01  0.81738127566E-01  0.51100000000E-03 0. -1.
</event>
<event>
 8    1  0.1054833E+005  0.1043930E+01  0.7957747E-01            NaN
         13   -1    0    0    0    0  0.00000000000E+00  0.00000000000E+00  0.74505805969E-08  0.10566000000E+00  0.10566000000E+00 0.  1.
     999900   -1    0    0    0    0 -0.00000000000E+00 -0.00000000000E+00 -0.74505805969E-08  0.93827000000E+00  0.93827000000E+00 0. -1.
     999902    2    1    2    0    0  0.85927522388E-02 -0.11008334809E-01 -0.19389333890E-01  0.10200351241E+01  0.10197552105E+01 0.  0.
     999903    2    3    3    0    0 -0.28647505294E-01 -0.22737589072E-01 -0.12649532616E+00  0.13268169632E+00  0.16299922784E-01 0.  0.
         14    1    1    2    0    0 -0.85927522388E-02  0.11008334809E-01  0.19389333890E-01  0.23894875915E-01  0.00000000000E+00 0.  1.
     999901    1    3    3    0    0  0.37240257533E-01  0.11729254263E-01  0.10710599227E+00  0.88735342776E+00  0.88000000000E+00 0.  1.
        -11    1    4    4    0    0 -0.17381560455E-01 -0.22523898878E-01 -0.82760709033E-01  0.87515945662E-01  0.51100000000E-03 0.  1.
         11    1    4    4    0    0 -0.11265944839E-01 -0.21369019413E-03 -0.43734617123E-01  0.45165750658E-01  0.51100000000E-03 0. -1.
</event>
<event>
 8    1  0.1054833E+005  0.1043930E+01  0.7957747E-01            NaN
         13   -1    0    0    0    0  0.00000000000E+00  0.00000000000E+00  0.74505805969E-08  0.10566000000E+00  0.10566000000E+00 0. -1.
     999900   -1    0    0    0    0 -0.00000000000E+00 -0.00000000000E+00 -0.74505805969E-08  0.93827000000E+00  0.93827000000E+00 0.  1.
     999902    2    1    2    0    0 -0.14759605212E-01  0.72730335318E-02  0.16772093493E-01  0.10204343391E+01  0.10201638076E+01 0.  0.
     999903    2    3    3    0    0 -0.66153174602E-01 -0.81760940750E-01 -0.73189291248E-01  0.12989439145E+00  0.21325727047E-01 0.  0.
         14    1    1    2    0    0  0.14759605212E-01 -0.72730335318E-02 -0.16772093493E-01  0.23495660938E-01  0.00000000000E+00 0.  1.
     999901    1    3    3    0    0  0.51393569390E-01  0.89033974282E-01  0.89961384741E-01  0.89053994761E+00  0.88000000000E+00 0. -1.
        -11    1    4    4    0    0 -0.43956774845E-01 -0.40522070204E-01 -0.33687403479E-01  0.68624620236E-01  0.51100000000E-03 0. -1.
         11    1    4    4    0    0 -0.22196399757E-01 -0.41238870546E-01 -0.39501887769E-01  0.61269771212E-01  0.51100000000E-03 0.  1.
</event>
<event>
 8    1  0.1054833E+005  0.1043930E+01  0.7957747E-01            NaN
         13   -1    0    0    0    0  0.00000000000E+00  0.00000000000E+00  0.74505805969E-08  0.10566000000E+00  0.10566000000E+00 0.  1.
     999900   -1    0    0    0    0 -0.00000000000E+00 -0.00000000000E+00 -0.74505805969E-08  0.93827000000E+00  0.93827000000E+00 0.  1.
     999902    2    1    2    0    0  0.94045451238E-02 -0.21460175066E-01 -0.18411267225E-02  0.10204273548E+01  0.10201566606E+01 0.  0.
     999903    2    3    3    0    0 -0.65941181857E-01 -0.11308451038E+00  0.25859473414E-02  0.13245686185E+00  0.20044629589E-01 0.  0.
         14    1    1    2    0    0 -0.94045451238E-02  0.21460175066E-01  0.18411267225E-02  0.23502645180E-01  0.00000000000E+00 0. -1.
     999901    1    3    3    0    0  0.75345726981E-01  0.91624335316E-01 -0.44270740639E-02  0.88797049297E+00  0.88000000000E+00 0. -1.
        -11    1    4    4    0    0 -0.48954665447E-01 -0.74072148538E-01  0.96846576417E-02  0.89315710671E-01  0.51100000000E-03 0.  1.
         11    1    4    4    0    0 -0.16986516410E-01 -0.39012361844E-01 -0.70987103004E-02  0.43141151182E-01  0.51100000000E-03 0. -1.
</event>
<event>
 8    1  0.1054833E+005  0.1043930E+01  0.7957747E-01            NaN
         13   -1    0    0    0    0  0.00000000000E+00  0.00000000000E+00  0.74505805969E-08  0.10566000000E+00  0.10566000000E+00 0.  1.
     999900   -1    0    0    0    0 -0.00000000000E+00 -0.00000000000E+00 -0.74505805969E-08  0.93827000000E+00  0.93827000000E+00 0. -1.
     999902    2    1    2    0    0  0.17791282785E-01  0.65397274938E-02  0.13946208157E-01  0.10203971612E+01  0.10201257629E+01 0.  0.
     999903    2    3    3    0    0  0.11178573640E+00  0.69056516954E-01 -0.66222234553E-02  0.13294780117E+00  0.19141854575E-01 0.  0.
         14    1    1    2    0    0 -0.17791282785E-01 -0.65397274938E-02 -0.13946208157E-01  0.23532838774E-01  0.00000000000E+00 0. -1.
     999901    1    3    3    0    0 -0.93994453619E-01 -0.62516789460E-01  0.20568431612E-01  0.88744936005E+00  0.88000000000E+00 0.  1.
        -11    1    4    4    0    0  0.80250892438E-01  0.54234877160E-01  0.26178241365E-02  0.96895519824E-01  0.51100000000E-03 0. -1.
         11    1    4    4    0    0  0.31534843966E-01  0.14821639793E-01 -0.92400475918E-02  0.36052281351E-01  0.51100000000E-03 0.  1.
</event>
<event>
 8    1  0.1054833E+005  0.1043930E+01  0.7957747E-01            NaN
         13   -1    0    0    0    0  0.00000000000E+00  0.00000000000E+00  0.74505805969E-08  0.10566000000E+00  0.10566000000E+00 0. -1.
     999900   -1    0    0    0    0 -0.00000000000E+00 -0.00000000000E+00 -0.74505805969E-08  0.93827000000E+00  0.93827000000E+00 0. -1.
     999902    2    1    2    0    0  0.23356270078E-02 -0.25762940360E-01  0.20130049203E-02  0.10179831998E+01  0.10176524744E+01 0.  0.
     999903    2    3    3    0    0  0.27961827378E-01 -0.10542511563E+00  0.70101818885E-01  0.13139487886E+00  0.21307988751E-01 0.  0.
         14    1    1    2    0    0 -0.23356270078E-02  0.25762940360E-01 -0.20130049203E-02  0.25946800156E-01  0.00000000000E+00 0. -1.
     999901    1    3    3    0    0 -0.25626200370E-01  0.79662175269E-01 -0.68088813965E-01  0.88658832098E+00  0.88000000000E+00 0.  1.
        -11    1    4    4    0    0  0.79895023341E-02 -0.55471081650E-01  0.45711135765E-01  0.72323178172E-01  0.51100000000E-03 0.  1.
         11    1    4    4    0    0  0.19972325044E-01 -0.49954033979E-01  0.24390683121E-01  0.59071700691E-01  0.51100000000E-03 0. -1.
</event>
<event>
 8    1  0.1054833E+005  0.1043930E+01  0.7957747E-01            NaN
         13   -1    0    0    0    0  0.00000000000E+00  0.00000000000E+00  0.74505805969E-08  0.10566000000E+00  0.10566000000E+00 0.  1.
     999900   -1    0    0    0    0 -0.00000000000E+00 -0.00000000000E+00 -0.74505805969E-08  0.93827000000E+00  0.93827000000E+00 0. -1.
     999902    2    1    2    0    0  0.20181436359E-01 -0.10798489969E-01 -0.61855170685E-02  0.10202201206E+01  0.10199445750E+01 0.  0.
     999903    2    3    3    0    0 -0.78677535117E-01 -0.16289377568E-01 -0.99882827699E-01  0.12972451023E+00  0.19909066582E-01 0.  0.
         14    1    1    2    0    0 -0.20181436359E-01  0.10798489969E-01  0.61855170685E-02  0.23709879387E-01  0.00000000000E+00 0.  1.
     999901    1    3    3    0    0  0.98858971476E-01  0.54908875985E-02  0.93697310631E-01  0.89049561038E+00  0.88000000000E+00 0. -1.
        -11    1    4    4    0    0 -0.57512475581E-01 -0.12935023588E-01 -0.85714137424E-01  0.10402967922E+00  0.51100000000E-03 0.  1.
         11    1    4    4    0    0 -0.21165059536E-01 -0.33543539795E-02 -0.14168690275E-01  0.25694831015E-01  0.51100000000E-03 0. -1.
</event>
<event>
 8    1  0.1054833E+005  0.1043930E+01  0.7957747E-01            NaN
         13   -1    0    0    0    0  0.00000000000E+00  0.00000000000E+00  0.74505805969E-08  0.10566000000E+00  0.10566000000E+00 0. -1.
     999900   -1    0    0    0    0 -0.00000000000E+00 -0.00000000000E+00 -0.74505805969E-08  0.93827000000E+00  0.93827000000E+00 0. -1.
     999902    2    1    2    0    0 -0.12110100757E-01 -0.66109143414E-02  0.14669257595E-01  0.10237918311E+01  0.10235937512E+01 0.  0.
     999903    2    3    3    0    0  0.53096029357E-01 -0.47058833273E-01  0.11284868996E+00  0.13501341411E+00  0.21449313306E-01 0.  0.
         14    1    1    2    0    0  0.12110100757E-01  0.66109143414E-02 -0.14669257595E-01  0.20138168913E-01  0.00000000000E+00 0.  1.
     999901    1    3    3    0    0 -0.65206130114E-01  0.40447918931E-01 -0.98179432363E-01  0.88877841698E+00  0.88000000000E+00 0. -1.
        -11    1    4    4    0    0  0.29613249827E-01 -0.14490488480E-01  0.40068584144E-01  0.51890956611E-01  0.51100000000E-03 0.  1.
         11    1    4    4    0    0  0.23482779530E-01 -0.32568344793E-01  0.72780105813E-01  0.83122457496E-01  0.51100000000E-03 0. -1.
</event>
<event>
 8    1  0.1054833E+005  0.1043930E+01  0.7957747E-01            NaN
         13   -1    0    0    0    0  0.00000000000E+00  0.00000000000E+00  0.74505805969E-08  0.10566000000E+00  0.10566000000E+00 0. -1.
     999900   -1    0    0    0    0 -0.00000000000E+00 -0.00000000000E+00 -0.74505805969E-08  0.93827000000E+00  0.93827000000E+00 0. -1.
     999902    2    1    2    0    0 -0.53563362126E-02 -0.15280799160E-02 -0.22304806629E-01  0.10209402248E+01  0.10206813473E+01 0.  0.
     999903    2    3    3    0    0 -0.82973276359E-01 -0.80739905284E-01 -0.62445996687E-01  0.13307186865E+00  0.20127663288E-01 0.  0.
         14    1    1    2    0    0  0.53563362126E-02  0.15280799160E-02  0.22304806629E-01  0.22989775219E-01  0.00000000000E+00 0. -1.
     999901    1    3    3    0    0  0.77616940146E-01  0.79211825367E-01  0.40141190058E-01  0.88786835613E+00  0.88000000000E+00 0.  1.
        -11    1    4    4    0    0 -0.16106161648E-01 -0.26856320707E-01 -0.12467487127E-01  0.33710083969E-01  0.51100000000E-03 0.  1.
         11    1    4    4    0    0 -0.66867114711E-01 -0.53883584577E-01 -0.49978509560E-01  0.99361784684E-01  0.51100000000E-03 0. -1.
</event>
<event>
 8    1  0.1054833E+005  0.1043930E+01  0.7957747E-01            NaN
         13   -1    0    0    0    0  0.00000000000E+00  0.00000000000E+00  0.74505805969E-08  0.10566000000E+00  0.10566000000E+00 0.  1.
     999900   -1    0    0    0    0 -0.00000000000E+00 -0.00000000000E+00 -0.74505805969E-08  0.93827000000E+00  0.93827000000E+00 0. -1.
     999902    2    1    2    0    0  0.19072339416E-01  0.12894294904E-01  0.41105922555E-02  0.10205438088E+01  0.10202758214E+01 0.  0.
     999903    2    3    3    0    0  0.58625947623E-01  0.50804782145E-01  0.10582948175E+00  0.13299188045E+00  0.21652561865E-01 0.  0.
         14    1    1    2    0    0 -0.19072339416E-01 -0.12894294904E-01 -0.41105922555E-02  0.23386191236E-01  0.00000000000E+00 0. -1.
     999901    1    3    3    0    0 -0.39553608207E-01 -0.37910487241E-01 -0.10171888950E+00  0.88755192831E+00  0.88000000000E+00 0. -1.
        -11    1    4    4    0    0  0.17912683571E-01  0.65568707544E-02  0.36741619068E-01  0.41401261811E-01  0.51100000000E-03 0. -1.
         11    1    4    4    0    0  0.40713264052E-01  0.44247911390E-01  0.69087862685E-01  0.91590618644E-01  0.51100000000E-03 0.  1.
</event>
<event>
 8    1  0.1054833E+005  0.1043930E+01  0.7957747E-01            NaN
         13   -1    0    0    0    0  0.00000000000E+00  0.00000000000E+00  0.74505805969E-08  0.10566000000E+00  0.10566000000E+00 0.  1.
     999900   -1    0    0    0    0 -0.00000000000E+00 -0.00000000000E+00 -0.74505805969E-08  0.93827000000E+00  0.93827000000E+00 0.  1.
     999902    2    1    2    0    0 -0.20036442986E-01  0.78174186783E-03  0.11159370591E-01  0.10209821958E+01  0.10207242734E+01 0.  0.
     999903    2    3    3    0    0 -0.91678560366E-01  0.87361864513E-01  0.38060835600E-01  0.13342802871E+00  0.17814540002E-01 0.  0.
         14    1    1    2    0    0  0.20036442986E-01 -0.78174186783E-03 -0.11159370591E-01  0.22947804249E-01  0.00000000000E+00 0. -1.
     999901    1    3    3    0    0  0.71642117380E-01 -0.86580122646E-01 -0.26901465009E-01  0.88755416705E+00  0.88000000000E+00 0.  1.
        -11    1    4    4    0    0 -0.64718238351E-01  0.50024147067E-01  0.23000583877E-01  0.84971487245E-01  0.51100000000E-03 0. -1.
         11    1    4    4    0    0 -0.26960322016E-01  0.37337717446E-01  0.15060251724E-01  0.48456541460E-01  0.51100000000E-03 0.  1.
</event>
<event>
 8    1  0.1054833E+005  0.1043930E+01  0.7957747E-01            NaN
         13   -1    0    0    0    0  0.00000000000E+00  0.00000000000E+00  0.74505805969E-08  0.10566000000E+00  0.10566000000E+00 0.  1.
     999900   -1    0    0    0    0 -0.00000000000E+00 -0.00000000000E+00 -0.74505805969E-08  0.93827000000E+00  0.93827000000E+00 0. -1.
     999902    2    1    2    0    0  0.15911434608E-01  0.40264485739E-02  0.16702393544E-01  0.10205129979E+01  0.10202442956E+01 0.  0.
     999903    2    3    3    0    0 -0.84009740476E-01 -0.27634345026E-01  0.94216529229E-01  0.13090910380E+00  0.20955800114E-01 0.  0.
         14    1    1    2    0    0 -0.15911434608E-01 -0.40264485739E-02 -0.16702393544E-01  0.23417002146E-01  0.00000000000E+00 0. -1.
     999901    1    3    3    0    0  0.99921175084E-01  0.31660793600E-01 -0.77514135685E-01  0.88960389405E+00  0.88000000000E+00 0. -1.
        -11    1    4    4    0    0 -0.27330525112E-01  0.76611820122E-03  0.31812217538E-01  0.41950242499E-01  0.51100000000E-03 0.  1.
         11    1    4    4    0    0 -0.56679215364E-01 -0.28400463227E-01  0.62404311691E-01  0.88958861303E-01  0.51100000000E-03 0. -1.
</event>
<event>
 8    1  0.1054833E+005  0.1043930E+01  0.7957747E-01            NaN
         13   -1    0    0    0    0  0.00000000000E+00  0.00000000000E+00  0.74505805969E-08  0.10566000000E+00  0.10566000000E+00 0. -1.
     999900   -1    0    0    0    0 -0.00000000000E+00 -0.00000000000E+00 -0.74505805969E-08  0.93827000000E+00  0.93827000000E+00 0. -1.
     999902    2    1    2    0    0 -0.17632373449E-01 -0.28672965155E-02  0.15361645960E-01  0.10203693941E+01  0.10200973475E+01 0.  0.
     999903    2    3    3    0    0 -0.10781193251E+00 -0.58333706825E-01 -0.44758503666E-01  0.13198698326E+00  0.19773870517E-01 0.  0.
         14    1    1    2    0    0  0.17632373449E-01  0.28672965155E-02 -0.15361645960E-01  0.23560605878E-01  0.00000000000E+00 0. -1.
     999901    1    3    3    0    0  0.90179559060E-01  0.55466410310E-01  0.60120149626E-01  0.88838241087E+00  0.88000000000E+00 0. -1.
        -11    1    4    4    0    0 -0.17947548154E-01 -0.24809814609E-02 -0.94630839761E-02  0.20447025043E-01  0.51100000000E-03 0. -1.
         11    1    4    4    0    0 -0.89864384355E-01 -0.55852725364E-01 -0.35295419690E-01  0.11153995821E+00  0.51100000000E-03 0.  1.
</event>
<event>
 8    1  0.1054833E+005  0.1043930E+01  0.7957747E-01            NaN
         13   -1    0    0    0    0  0.00000000000E+00  0.00000000000E+00  0.74505805969E-08  0.10566000000E+00  0.10566000000E+00 0.  1.
     999900   -1    0    0    0    0 -0.00000000000E+00 -0.00000000000E+00 -0.74505805969E-08  0.93827000000E+00  0.93827000000E+00 0.  1.
     999902    2    1    2    0    0  0.18741888377E-01 -0.22892031864E-02 -0.13703369625E-01  0.10206001657E+01  0.10203334832E+01 0.  0.
     999903    2    3    3    0    0 -0.99623696354E-01  0.41356346497E-01 -0.69554318438E-01  0.12985066432E+00  0.19701866418E-01 0.  0.
         14    1    1    2    0    0 -0.18741888377E-01  0.22892031864E-02  0.13703369625E-01  0.23329834338E-01  0.00000000000E+00 0.  1.
     999901    1    3    3    0    0  0.11836558473E+00 -0.43645549684E-01  0.55850948813E-01  0.89074950134E+00  0.88000000000E+00 0. -1.
        -11    1    4    4    0    0 -0.54260479417E-01  0.18139288560E-01 -0.26137909607E-01  0.62902184824E-01  0.51100000000E-03 0.  1.
         11    1    4    4    0    0 -0.45363216937E-01  0.23217057938E-01 -0.43416408831E-01  0.66948479496E-01  0.51100000000E-03 0. -1.
</event>
<event>
 8    1  0.1054833E+005  0.1043930E+01  0.7957747E-01            NaN
         13   -1    0    0    0    0  0.00000000000E+00  0.00000000000E+00  0.74505805969E-08  0.10566000000E+00  0.10566000000E+00 0.  1.
     999900   -1    0    0    0    0 -0.00000000000E+00 -0.00000000000E+00 -0.74505805969E-08  0.93827000000E+00  0.93827000000E+00 0. -1.
     999902    2    1    2    0    0  0.18975142593E-01  0.82644431148E-02 -0.10533933986E-01  0.10207067181E+01  0.10204424940E+01 0.  0.
     999903    2    3    3    0    0 -0.45224712472E-01 -0.83378174131E-01 -0.88561215384E-01  0.13019661299E+00  0.10529701967E-01 0.  0.
         14    1    1    2    0    0 -0.18975142593E-01 -0.82644431148E-02  0.10533933986E-01  0.23223281888E-01  0.00000000000E+00 0. -1.
     999901    1    3    3    0    0  0.64199855065E-01  0.91642617246E-01  0.78027281398E-01  0.89051010512E+00  0.88000000000E+00 0.  1.
        -11    1    4    4    0    0 -0.81555856447E-02 -0.11906057261E-01 -0.18486953210E-01  0.23458395868E-01  0.51100000000E-03 0.  1.
         11    1    4    4    0    0 -0.37069126827E-01 -0.71472116870E-01 -0.70074262175E-01  0.10673821712E+00  0.51100000000E-03 0. -1.
</event>
<event>
 8    1  0.1054833E+005  0.1043930E+01  0.7957747E-01            NaN
         13   -1    0    0    0    0  0.00000000000E+00  0.00000000000E+00  0.74505805969E-08  0.10566000000E+00  0.10566000000E+00 0. -1.
     999900   -1    0    0    0    0 -0.00000000000E+00 -0.00000000000E+00 -0.74505805969E-08  0.93827000000E+00  0.93827000000E+00 0. -1.
     999902    2    1    2    0    0 -0.13901015301E-01 -0.12456755575E-01 -0.12343043800E-01  0.10215523389E+01  0.10213072121E+01 0.  0.
     999903    2    3    3    0    0  0.12640950060E+00 -0.14633713453E-01  0.17143513635E-01  0.12994635132E+00  0.19966140093E-01 0.  0.
         14    1    1    2    0    0  0.13901015301E-01  0.12456755575E-01  0.12343043800E-01  0.22377661096E-01  0.00000000000E+00 0.  1.
     999901    1    3    3    0    0 -0.14031051591E+00  0.21769578782E-02 -0.29486557435E-01  0.89160598758E+00  0.88000000000E+00 0. -1.
        -11    1    4    4    0    0  0.97697069191E-01 -0.27657925411E-02  0.12889224834E-01  0.98583772370E-01  0.51100000000E-03 0.  1.
         11    1    4    4    0    0  0.28712431413E-01 -0.11867920912E-01  0.42542888010E-02  0.31362578954E-01  0.51100000000E-03 0. -1.
</event>
<event>
 8    1  0.1054833E+005  0.1043930E+01  0.7957747E-01            NaN
         13   -1    0    0    0    0  0.00000000000E+00  0.00000000000E+00  0.74505805969E-08  0.10566000000E+00  0.10566000000E+00 0.  1.
     999900   -1    0    0    0    0 -0.00000000000E+00 -0.00000000000E+00 -0.74505805969E-08  0.93827000000E+00  0.93827000000E+00 0. -1.
     999902    2    1    2    0    0 -0.90949931216E-02 -0.14271537280E-01  0.15943191455E-01  0.10206796015E+01  0.10204147529E+01 0.  0.
     999903    2    3    3    0    0 -0.30966219544E-01  0.37427573728E-01 -0.11761856612E+00  0.12883326289E+00  0.20103544497E-01 0.  0.
         14    1    1    2    0    0  0.90949931216E-02  0.14271537280E-01 -0.15943191455E-01  0.23250398491E-01  0.00000000000E+00 0. -1.
     999901    1    3    3    0    0  0.21871226423E-01 -0.51699111008E-01  0.13356175758E+00  0.89184633862E+00  0.88000000000E+00 0.  1.
        -11    1    4    4    0    0 -0.26093323972E-01  0.31073163953E-01 -0.11175754186E+00  0.11889664569E+00  0.51100000000E-03 0. -1.
         11    1    4    4    0    0 -0.48728955717E-02  0.63544097757E-02 -0.58610242681E-02  0.99366171972E-02  0.51100000000E-03 0.  1.
</event>
<event>
 8    1  0.1054833E+005  0.1043930E+01  0.7957747E-01            NaN
         13   -1    0    0    0    0  0.00000000000E+00  0.00000000000E+00  0.74505805969E-08  0.10566000000E+00  0.10566000000E+00 0.  1.
     999900   -1    0    0    0    0 -0.00000000000E+00 -0.00000000000E+00 -0.74505805969E-08  0.93827000000E+00  0.93827000000E+00 0.  1.
     999902    2    1    2    0    0  0.80812780634E-02 -0.53263414403E-03 -0.17150141831E-01  0.10249637637E+01  0.10247882702E+01 0.  0.
     999903    2    3    3    0    0 -0.69938393056E-01  0.80566194375E-01  0.76695602546E-01  0.13284767664E+00  0.19595898530E-01 0.  0.
         14    1    1    2    0    0 -0.80812780634E-02  0.53263414403E-03  0.17150141831E-01  0.18966236293E-01  0.00000000000E+00 0.  1.
     999901    1    3    3    0    0  0.78019671119E-01 -0.81098828519E-01 -0.93845744378E-01  0.89211608707E+00  0.88000000000E+00 0.  1.
        -11    1    4    4    0    0 -0.18251365435E-01  0.12315763188E-01  0.22698150545E-01  0.31626848125E-01  0.51100000000E-03 0. -1.
         11    1    4    4    0    0 -0.51687027621E-01  0.68250431187E-01  0.53997452001E-01  0.10122082851E+00  0.51100000000E-03 0.  1.
</event>
<event>
 8    1  0.1054833E+005  0.1043930E+01  0.7957747E-01            NaN
         13   -1    0    0    0    0  0.00000000000E+00  0.00000000000E+00  0.74505805969E-08  0.10566000000E+00  0.10566000000E+00 0. -1.
     999900   -1    0    0    0    0 -0.00000000000E+00 -0.00000000000E+00 -0.74505805969E-08  0.93827000000E+00  0.93827000000E+00 0. -1.
     999902    2    1    2    0    0 -0.88586314274E-02 -0.71564885226E-02  0.20920307312E-01  0.10201108914E+01  0.10198327710E+01 0.  0.
     999903    2    3    3    0    0 -0.75549996246E-02 -0.14135016051E-01  0.13073983312E+00  0.13325649093E+00  0.20186919308E-01 0.  0.
         14    1    1    2    0    0  0.88586314274E-02  0.71564885226E-02 -0.20920307312E-01  0.23819108648E-01  0.00000000000E+00 0.  1.
     999901    1    3    3    0    0 -0.13036318028E-02  0.69785275284E-02 -0.10981952581E+00  0.88685440042E+00  0.88000000000E+00 0. -1.
        -11    1    4    4    0    0 -0.28202097188E-02 -0.89778501546E-03  0.91872824395E-01  0.91921904811E-01  0.51100000000E-03 0.  1.
         11    1    4    4    0    0 -0.47347899058E-02 -0.13237231036E-01  0.38867008728E-01  0.41334586117E-01  0.51100000000E-03 0. -1.
</event>
<event>
 7    1  0.1054833E+005  0.1043930E+01  0.7957747E-01            NaN
         13   -1    0    0    0    0  0.00000000000E+00  0.00000000000E+00  0.74505805969E-08  0.10566000000E+00  0.10566000000E+00 0.  1.
     999900   -1    0    0    0    0 -0.00000000000E+00 -0.00000000000E+00 -0.74505805969E-08  0.93827000000E+00  0.93827000000E+00 0.  1.
     999903    2    1    2    0    0 -0.65929453659E-01 -0.36369913566E-01 -0.43544377244E-01  0.89290349127E-01  0.20178954015E-01 0.  0.
         14    1    1    2    0    0 -0.63480024486E-01  0.18197223673E-02  0.36559235301E-02  0.63611246451E-01  0.00000000000E+00 0.  1.
     999901    1    1    2    0    0  0.12940947814E+00  0.34550191199E-01  0.39888453714E-01  0.89102840442E+00  0.88000000000E+00 0.  1.
        -11    1    3    3    0    0 -0.47650566838E-01 -0.25392012657E-01 -0.41026126024E-01  0.67813973223E-01  0.51100000000E-03 0. -1.
         11    1    3    3    0    0 -0.18278886821E-01 -0.10977900909E-01 -0.25182512206E-02  0.21476375905E-01  0.51100000000E-03 0.  1.
</event>
<event>
 7    1  0.1054833E+005  0.1043930E+01  0.7957747E-01            NaN
         13   -1    0    0    0    0  0.00000000000E+00  0.00000000000E+00  0.74505805969E-08  0.10566000000E+00  0.10566000000E+00 0.  1.
     999900   -1    0    0    0    0 -0.00000000000E+00 -0.00000000000E+00 -0.74505805969E-08  0.93827000000E+00  0.93827000000E+00 0. -1.
     999903    2    1    2    0    0  0.47611800843E-01 -0.57269778159E-01 -0.47793925882E-01  0.90518160259E-01  0.19041189976E-01 0.  0.
         14    1    1    2    0    0  0.50057283788E-01 -0.10745731112E-01  0.40646920500E-01  0.65371052795E-01  0.00000000000E+00 0.  1.
     999901    1    1    2    0    0 -0.97669084631E-01  0.68015509270E-01  0.71470053816E-02  0.88804078695E+00  0.88000000000E+00 0. -1.
        -11    1    3    3    0    0  0.34910087487E-01 -0.27308219407E-01 -0.27549229690E-01  0.52188832455E-01  0.51100000000E-03 0.  1.
         11    1    3    3    0    0  0.12701713356E-01 -0.29961558752E-01 -0.20244696192E-01  0.38329327804E-01  0.51100000000E-03 0. -1.
</event>
<event>
 8    1  0.1054833E+005  0.1043930E+01  0.7957747E-01            NaN
         13   -1    0    0    0    0  0.00000000000E+00  0.00000000000E+00  0.74505805969E-08  0.10566000000E+00  0.10566000000E+00 0.  1.
     999900   -1    0    0    0    0 -0.00000000000E+00 -0.00000000000E+00 -0.74505805969E-08  0.93827000000E+00  0.93827000000E+00 0.  1.
     999902    2    1    2    0    0  0.14447136448E-01  0.13898380647E-01  0.17726437667E-01  0.10171697435E+01  0.10168176708E+01 0.  0.
     999903    2    3    3    0    0 -0.67100648428E-02  0.11760861254E+00  0.51830066657E-01  0.13017115450E+00  0.19528516024E-01 0.  0.
         14    1    1    2    0    0 -0.14447136448E-01 -0.13898380647E-01 -0.17726437667E-01  0.26760256511E-01  0.00000000000E+00 0. -1.
     999901    1    3    3    0    0  0.21157201291E-01 -0.10371023190E+00 -0.34103628990E-01  0.88699858899E+00  0.88000000000E+00 0. -1.
        -11    1    4    4    0    0 -0.41636435329E-02  0.34659346101E-01  0.61819228154E-02  0.35455373222E-01  0.51100000000E-03 0.  1.
         11    1    4    4    0    0 -0.25464213099E-02  0.82949266444E-01  0.45648143842E-01  0.94715781274E-01  0.51100000000E-03 0. -1.
</event>
<event>
 8    1  0.1054833E+005  0.1043930E+01  0.7957747E-01            NaN
         13   -1    0    0    0    0  0.00000000000E+00  0.00000000000E+00  0.74505805969E-08  0.10566000000E+00  0.10566000000E+00 0.  1.
     999900   -1    0    0    0    0 -0.00000000000E+00 -0.00000000000E+00 -0.74505805969E-08  0.93827000000E+00  0.93827000000E+00 0. -1.
     999902    2    1    2    0    0 -0.32164005742E-02  0.23178940487E-01 -0.22119976060E-02  0.10204246506E+01  0.10201538934E+01 0.  0.
     999903    2    3    3    0    0  0.11457065218E+00 -0.27286065585E-02 -0.58884879810E-01  0.13039273753E+00  0.20023918107E-01 0.  0.
         14    1    1    2    0    0  0.32164005742E-02 -0.23178940487E-01  0.22119976060E-02  0.23505349352E-01  0.00000000000E+00 0. -1.
     999901    1    3    3    0    0 -0.11778705275E+00  0.25907547045E-01  0.56672882204E-01  0.89003191312E+00  0.88000000000E+00 0.  1.
        -11    1    4    4    0    0  0.77934587614E-01 -0.57971296328E-02 -0.49278285180E-01  0.92390568619E-01  0.51100000000E-03 0. -1.
         11    1    4    4    0    0  0.36636064565E-01  0.30685230743E-02 -0.96065946297E-02  0.38002168912E-01  0.51100000000E-03 0.  1.
</event>
<event>
 8    1  0.1054833E+005  0.1043930E+01  0.7957747E-01            NaN
         13   -1    0    0    0    0  0.00000000000E+00  0.00000000000E+00  0.74505805969E-08  0.10566000000E+00  0.10566000000E+00 0. -1.
     999900   -1    0    0    0    0 -0.00000000000E+00 -0.00000000000E+00 -0.74505805969E-08  0.93827000000E+00  0.93827000000E+00 0. -1.
     999902    2    1    2    0    0 -0.73995334840E-02  0.63564885952E-02  0.22323089250E-01  0.10195685888E+01  0.10192775034E+01 0.  0.
     999903    2    3    3    0    0  0.68457571923E-01  0.70910484438E-01  0.84709691058E-01  0.13175464042E+00  0.21652195167E-01 0.  0.
         14    1    1    2    0    0  0.73995334840E-02 -0.63564885952E-02 -0.22323089250E-01  0.24361411222E-01  0.00000000000E+00 0.  1.
     999901    1    3    3    0    0 -0.75857105407E-01 -0.64553995843E-01 -0.62386601808E-01  0.88781394836E+00  0.88000000000E+00 0.  1.
        -11    1    4    4    0    0  0.36558251188E-01  0.22594741707E-01  0.34380440757E-01  0.55039112550E-01  0.51100000000E-03 0. -1.
         11    1    4    4    0    0  0.31899320735E-01  0.48315742731E-01  0.50329250301E-01  0.76715527867E-01  0.51100000000E-03 0.  1.
</event>
<event>
 8    1  0.1054833E+005  0.1043930E+01  0.7957747E-01            NaN
         13   -1    0    0    0    0  0.00000000000E+00  0.00000000000E+00  0.74505805969E-08  0.10566000000E+00  0.10566000000E+00 0. -1.
     999900   -1    0    0    0    0 -0.00000000000E+00 -0.00000000000E+00 -0.74505805969E-08  0.93827000000E+00  0.93827000000E+00 0. -1.
     999902    2    1    2    0    0 -0.21514752683E-01  0.38994794969E-02 -0.62185084836E-02  0.10211976360E+01  0.10209445879E+01 0.  0.
     999903    2    3    3    0    0 -0.59908379692E-01 -0.62514847509E-01 -0.99233253017E-01  0.13297656214E+00  0.18395854350E-01 0.  0.
         14    1    1    2    0    0  0.21514752683E-01 -0.38994794969E-02  0.62185084836E-02  0.22732363958E-01  0.00000000000E+00 0. -1.
     999901    1    3    3    0    0  0.38393627009E-01  0.66414327006E-01  0.93014744534E-01  0.88822107390E+00  0.88000000000E+00 0.  1.
        -11    1    4    4    0    0 -0.39421091181E-01 -0.49792886444E-01 -0.63068718317E-01  0.89505744628E-01  0.51100000000E-03 0. -1.
         11    1    4    4    0    0 -0.20487288511E-01 -0.12721961065E-01 -0.36164534701E-01  0.43470817510E-01  0.51100000000E-03 0.  1.
</event>
<event>
 8    1  0.1054833E+005  0.1043930E+01  0.7957747E-01            NaN
         13   -1    0    0    0    0  0.00000000000E+00  0.00000000000E+00  0.74505805969E-08  0.10566000000E+00  0.10566000000E+00 0. -1.
     999900   -1    0    0    0    0 -0.00000000000E+00 -0.00000000000E+00 -0.74505805969E-08  0.93827000000E+00  0.93827000000E+00 0.  1.
     999902    2    1    2    0    0 -0.55555532589E-02 -0.22503925366E-02  0.23170927369E-01  0.10199963351E+01  0.10197155012E+01 0.  0.
     999903    2    3    3    0    0 -0.10273988372E+00 -0.78166401665E-01 -0.86123923018E-02  0.13082918891E+00  0.19407042834E-01 0.  0.
         14    1    1    2    0    0  0.55555532589E-02  0.22503925366E-02 -0.23170927369E-01  0.23933664862E-01  0.00000000000E+00 0.  1.
     999901    1    3    3    0    0  0.97184330465E-01  0.75916009129E-01  0.31783319671E-01  0.88916714623E+00  0.88000000000E+00 0. -1.
        -11    1    4    4    0    0 -0.76789533724E-01 -0.59572722278E-01 -0.14791371837E-01  0.98308634061E-01  0.51100000000E-03 0.  1.
         11    1    4    4    0    0 -0.25950349999E-01 -0.18593679388E-01  0.61789795350E-02  0.32520554844E-01  0.51100000000E-03 0. -1.
</event>
<event>
 8    1  0.1054833E+005  0.1043930E+01  0.7957747E-01            NaN
         13   -1    0    0    0    0  0.00000000000E+00  0.00000000000E+00  0.74505805969E-08  0.10566000000E+00  0.10566000000E+00 0.  1.
     999900   -1    0    0    0    0 -0.00000000000E+00 -0.00000000000E+00 -0.74505805969E-08  0.93827000000E+00  0.93827000000E+00 0. -1.
     999902    2    1    2    0    0  0.88388367119E-02 -0.84889099119E-02  0.20098988045E-01  0.10203894829E+01  0.10201179054E+01 0.  0.
     999903    2    3    3    0    0 -0.12668796490E+00  0.14445459905E-01 -0.91743053102E-02  0.12923830324E+00  0.18969960036E-01 0.  0.
         14    1    1    2    0    0 -0.88388367119E-02  0.84889099119E-02 -0.20098988045E-01  0.23540517122E-01  0.00000000000E+00 0. -1.
     999901    1    3    3    0    0  0.13552680161E+00 -0.22934369817E-01  0.29273293355E-01  0.89115117964E+00  0.88000000000E+00 0. -1.
        -11    1    4    4    0    0 -0.67916093605E-01 -0.98804725113E-03 -0.10702712572E-02  0.67933633861E-01  0.51100000000E-03 0. -1.
         11    1    4    4    0    0 -0.58771871292E-01  0.15433507156E-01 -0.81040340529E-02  0.61304669375E-01  0.51100000000E-03 0.  1.
</event>
<event>
 8    1  0.1054833E+005  0.1043930E+01  0.7957747E-01            NaN
         13   -1    0    0    0    0  0.00000000000E+00  0.00000000000E+00  0.74505805969E-08  0.10566000000E+00  0.10566000000E+00 0. -1.
     999900   -1    0    0    0    0 -0.00000000000E+00 -0.00000000000E+00 -0.74505805969E-08  0.93827000000E+00  0.93827000000E+00 0. -1.
     999902    2    1    2    0    0 -0.49150500297E-02  0.11129809011E-01  0.20275814921E-01  0.10202838790E+01  0.10200098307E+01 0.  0.
     999903    2    3    3    0    0 -0.90990666732E-01 -0.55534465331E-01  0.75718382540E-01  0.13184310130E+00  0.16910104474E-01 0.  0.
         14    1    1    2    0    0  0.49150500297E-02 -0.11129809011E-01 -0.20275814921E-01  0.23646120953E-01  0.00000000000E+00 0.  1.
     999901    1    3    3    0    0  0.86075616702E-01  0.66664274342E-01 -0.55442567619E-01  0.88844077775E+00  0.88000000000E+00 0. -1.
        -11    1    4    4    0    0 -0.50094500958E-01 -0.34965931720E-01  0.34058766864E-01  0.69945236640E-01  0.51100000000E-03 0. -1.
         11    1    4    4    0    0 -0.40896165774E-01 -0.20568533611E-01  0.41659615676E-01  0.61897864658E-01  0.51100000000E-03 0.  1.
</event>
<event>
 8    1  0.1054833E+005  0.1043930E+01  0.7957747E-01            NaN
         13   -1    0    0    0    0  0.00000000000E+00  0.00000000000E+00  0.74505805969E-08  0.10566000000E+00  0.10566000000E+00 0.  1.
     999900   -1    0    0    0    0 -0.00000000000E+00 -0.00000000000E+00 -0.74505805969E-08  0.93827000000E+00  0.93827000000E+00 0.  1.
     999902    2    1    2    0    0 -0.83862763872E-02  0.13837704483E-01  0.17930209694E-01  0.10197783103E+01  0.10194922746E+01 0.  0.
     999903    2    3    3    0    0 -0.10502526577E+00 -0.72686150593E-01 -0.12531759571E-01  0.12974830890E+00  0.19078672045E-01 0.  0.
         14    1    1    2    0    0  0.83862763872E-02 -0.13837704483E-01 -0.17930209694E-01  0.24151689727E-01  0.00000000000E+00 0. -1.
     999901    1    3    3    0    0  0.96638989385E-01  0.86523855076E-01  0.30461969264E-01  0.89003000137E+00  0.88000000000E+00 0.  1.
        -11    1    4    4    0    0 -0.78707406814E-01 -0.63371295427E-01 -0.70692168648E-02  0.10129665305E+00  0.51100000000E-03 0. -1.
         11    1    4    4    0    0 -0.26317858957E-01 -0.93148551656E-02 -0.54625427058E-02  0.28451655851E-01  0.51100000000E-03 0.  1.
</event>
<event>
 8    1  0.1054833E+005  0.1043930E+01  0.7957747E-01            NaN
         13   -1    0    0    0    0  0.00000000000E+00  0.00000000000E+00  0.74505805969E-08  0.10566000000E+00  0.10566000000E+00 0.  1.
     999900   -1    0    0    0    0 -0.00000000000E+00 -0.00000000000E+00 -0.74505805969E-08  0.93827000000E+00  0.93827000000E+00 0. -1.
     999902    2    1    2    0    0 -0.22086531931E-02  0.13103672070E-01  0.19580989783E-01  0.10202656908E+01  0.10199912158E+01 0.  0.
     999903    2    3    3    0    0 -0.17384151051E-01 -0.56199829886E-01  0.11671406985E+00  0.13208321719E+00  0.19057087267E-01 0.  0.
         14    1    1    2    0    0  0.22086531931E-02 -0.13103672070E-01 -0.19580989783E-01  0.23664309234E-01  0.00000000000E+00 0. -1.
     999901    1    3    3    0    0  0.15175497858E-01  0.69303501955E-01 -0.97133080071E-01  0.88818247357E+00  0.88000000000E+00 0. -1.
        -11    1    4    4    0    0  0.12550089741E-02 -0.26387171743E-01  0.56030554712E-01  0.61947897966E-01  0.51100000000E-03 0.  1.
         11    1    4    4    0    0 -0.18639160025E-01 -0.29812658143E-01  0.60683515143E-01  0.70135319227E-01  0.51100000000E-03 0. -1.
</event>
<event>
 8    1  0.1054833E+005  0.1043930E+01  0.7957747E-01            NaN
         13   -1    0    0    0    0  0.00000000000E+00  0.00000000000E+00  0.74505805969E-08  0.10566000000E+00  0.10566000000E+00 0.  1.
     999900   -1    0    0    0    0 -0.00000000000E+00 -0.00000000000E+00 -0.74505805969E-08  0.93827000000E+00  0.93827000000E+00 0.  1.
     999902    2    1    2    0    0  0.13540147305E-01  0.11601205212E-01  0.14688420888E-01  0.10208286308E+01  0.10205672051E+01 0.  0.
     999903    2    3    3    0    0  0.42390990034E-01  0.10604110914E+00  0.66963837466E-01  0.13376381593E+00  0.19154374404E-01 0.  0.
         14    1    1    2    0    0 -0.13540147305E-01 -0.11601205212E-01 -0.14688420888E-01  0.23101369215E-01  0.00000000000E+00 0.  1.
     999901    1    3    3    0    0 -0.28850842729E-01 -0.94439903931E-01 -0.52275416578E-01  0.88706481486E+00  0.88000000000E+00 0.  1.
        -11    1    4    4    0    0  0.23562327106E-01  0.63712042029E-01  0.28986673332E-01  0.73857267145E-01  0.51100000000E-03 0. -1.
         11    1    4    4    0    0  0.18828662928E-01  0.42329067114E-01  0.37977164134E-01  0.59906548783E-01  0.51100000000E-03 0.  1.
</event>
<event>
 8    1  0.1054833E+005  0.1043930E+01  0.7957747E-01            NaN
         13   -1    0    0    0    0  0.00000000000E+00  0.00000000000E+00  0.74505805969E-08  0.10566000000E+00  0.10566000000E+00 0. -1.
     999900   -1    0    0    0    0 -0.00000000000E+00 -0.00000000000E+00 -0.74505805969E-08  0.93827000000E+00  0.93827000000E+00 0.  1.
     999902    2    1    2    0    0 -0.20489585981E-01  0.66984627553E-03  0.78123958714E-02  0.10219913274E+01  0.10217558259E+01 0.  0.
     999903    2    3    3    0    0  0.66501192034E-01 -0.25624106998E-01  0.10887571671E+00  0.13155740940E+00  0.19350113120E-01 0.  0.
         14    1    1    2    0    0  0.20489585981E-01 -0.66984627553E-03 -0.78123958714E-02  0.21938672634E-01  0.00000000000E+00 0.  1.
     999901    1    3    3    0    0 -0.86990778015E-01  0.26293953273E-01 -0.10106332084E+00  0.89043391796E+00  0.88000000000E+00 0.  1.
        -11    1    4    4    0    0  0.40658388111E-01 -0.19114646536E-01  0.83150756292E-01  0.94513404493E-01  0.51100000000E-03 0.  1.
         11    1    4    4    0    0  0.25842803923E-01 -0.65094604614E-02  0.25724960421E-01  0.37044004910E-01  0.51100000000E-03 0. -1.
</event>
<event>
 8    1  0.1054833E+005  0.1043930E+01  0.7957747E-01            NaN
         13   -1    0    0    0    0  0.00000000000E+00  0.00000000000E+00  0.74505805969E-08  0.10566000000E+00  0.10566000000E+00 0. -1.
     999900   -1    0    0    0    0 -0.00000000000E+00 -0.00000000000E+00 -0.74505805969E-08  0.93827000000E+00  0.93827000000E+00 0. -1.
     999902    2    1    2    0    0 -0.10134051989E-01  0.18972434471E-01 -0.97387302023E-02  0.10203186649E+01  0.10200454317E+01 0.  0.
     999903    2    3    3    0    0 -0.46768369715E-01 -0.10835277450E+00  0.46671829910E-01  0.12861471550E+00  0.20877767801E-01 0.  0.
         14    1    1    2    0    0  0.10134051989E-01 -0.18972434471E-01  0.97387302023E-02  0.23611335104E-01  0.00000000000E+00 0.  1.
     999901    1    3    3    0    0  0.36634317726E-01  0.12732520897E+00 -0.56410560112E-01  0.89170394940E+00  0.88000000000E+00 0. -1.
        -11    1    4    4    0    0 -0.36973897037E-01 -0.64398573111E-01  0.23016421600E-01  0.77744852338E-01  0.51100000000E-03 0. -1.
         11    1    4    4    0    0 -0.97944726785E-02 -0.43954201389E-01  0.23655408310E-01  0.50869863162E-01  0.51100000000E-03 0.  1.
</event>
<event>
 8    1  0.1054833E+005  0.1043930E+01  0.7957747E-01            NaN
         13   -1    0    0    0    0  0.00000000000E+00  0.00000000000E+00  0.74505805969E-08  0.10566000000E+00  0.10566000000E+00 0.  1.
     999900   -1    0    0    0    0 -0.00000000000E+00 -0.00000000000E+00 -0.74505805969E-08  0.93827000000E+00  0.93827000000E+00 0. -1.
     999902    2    1    2    0    0  0.26539738220E-02 -0.10469395557E-01 -0.20764779800E-01  0.10205242763E+01  0.10202558359E+01 0.  0.
     999903    2    3    3    0    0  0.11090897752E+00 -0.28649061438E-01 -0.63975358567E-01  0.13265221336E+00  0.19549761926E-01 0.  0.
         14    1    1    2    0    0 -0.26539738220E-02  0.10469395557E-01  0.20764779800E-01  0.23405723670E-01  0.00000000000E+00 0.  1.
     999901    1    3    3    0    0 -0.10825500370E+00  0.18179665881E-01  0.43210578767E-01  0.88787206297E+00  0.88000000000E+00 0. -1.
        -11    1    4    4    0    0  0.22035279420E-01 -0.10116546853E-01 -0.61699183386E-02  0.25024529419E-01  0.51100000000E-03 0.  1.
         11    1    4    4    0    0  0.88873698098E-01 -0.18532514585E-01 -0.57805440229E-01  0.10762768395E+00  0.51100000000E-03 0. -1.
</event>
<event>
 8    1  0.1054833E+005  0.1043930E+01  0.7957747E-01            NaN
         13   -1    0    0    0    0  0.00000000000E+00  0.00000000000E+00  0.74505805969E-08  0.10566000000E+00  0.10566000000E+00 0. -1.
     999900   -1    0    0    0    0 -0.00000000000E+00 -0.00000000000E+00 -0.74505805969E-08  0.93827000000E+00  0.93827000000E+00 0.  1.
     999902    2    1    2    0    0 -0.13208760370E-01  0.17156821998E-01 -0.10436674966E-01  0.10198935261E+01  0.10196102454E+01 0.  0.
     999903    2    3    3    0    0  0.12208919950E+00 -0.82309731007E-02  0.34408626884E-01  0.12806328490E+00  0.15579787577E-01 0.  0.
         14    1    1    2    0    0  0.13208760370E-01 -0.17156821998E-01  0.10436674966E-01  0.24036473866E-01  0.00000000000E+00 0. -1.
     999901    1    3    3    0    0 -0.13529795987E+00  0.25387795098E-01 -0.44845301850E-01  0.89183024124E+00  0.88000000000E+00 0.  1.
        -11    1    4    4    0    0  0.31027197795E-01 -0.31002129251E-03  0.20617064242E-02  0.31101364449E-01  0.51100000000E-03 0. -1.
         11    1    4    4    0    0  0.91062001710E-01 -0.79209518082E-02  0.32346920460E-01  0.96961920449E-01  0.51100000000E-03 0.  1.
</event>
<event>
 8    1  0.1054833E+005  0.1043930E+01  0.7957747E-01            NaN
         13   -1    0    0    0    0  0.00000000000E+00  0.00000000000E+00  0.74505805969E-08  0.10566000000E+00  0.10566000000E+00 0.  1.
     999900   -1    0    0    0    0 -0.00000000000E+00 -0.00000000000E+00 -0.74505805969E-08  0.93827000000E+00  0.93827000000E+00 0. -1.
     999902    2    1    2    0    0 -0.91708301787E-02 -0.17438613123E-01  0.15900658133E-01  0.10186112267E+01  0.10182965142E+01 0.  0.
     999903    2    3    3    0    0 -0.56284292317E-01 -0.28460095928E-01 -0.10973575887E+00  0.12837212358E+00  0.21437507208E-01 0.  0.
         14    1    1    2    0    0  0.91708301787E-02  0.17438613123E-01 -0.15900658133E-01  0.25318773329E-01  0.00000000000E+00 0. -1.
     999901    1    3    3    0    0  0.47113462138E-01  0.11021482806E-01  0.12563641700E+00  0.89023910309E+00  0.88000000000E+00 0.  1.
        -11    1    4    4    0    0 -0.36169597220E-01 -0.26624663159E-01 -0.62209647472E-01  0.76729484626E-01  0.51100000000E-03 0. -1.
         11    1    4    4    0    0 -0.20114695097E-01 -0.18354327692E-02 -0.47526111399E-01  0.51642638953E-01  0.51100000000E-03 0.  1.
</event>
<event>
 8    1  0.1054833E+005  0.1043930E+01  0.7957747E-01            NaN
         13   -1    0    0    0    0  0.00000000000E+00  0.00000000000E+00  0.74505805969E-08  0.10566000000E+00  0.10566000000E+00 0. -1.
     999900   -1    0    0    0    0 -0.00000000000E+00 -0.00000000000E+00 -0.74505805969E-08  0.93827000000E+00  0.93827000000E+00 0. -1.
     999902    2    1    2    0    0  0.83598184210E-02  0.20989379356E-01  0.48520534810E-02  0.10208219271E+01  0.10205603480E+01 0.  0.
     999903    2    3    3    0    0 -0.90782006392E-01  0.64195260203E-01 -0.66532112889E-01  0.13133243938E+00  0.21430899926E-01 0.  0.
         14    1    1    2    0    0 -0.83598184210E-02 -0.20989379356E-01 -0.48520534810E-02  0.23108072891E-01  0.00000000000E+00 0.  1.
     999901    1    3    3    0    0  0.99141824813E-01 -0.43205880847E-01  0.71384166370E-01  0.88948948773E+00  0.88000000000E+00 0.  1.
        -11    1    4    4    0    0 -0.28212146358E-01  0.30217453960E-01 -0.31515894232E-01  0.51985886895E-01  0.51100000000E-03 0. -1.
         11    1    4    4    0    0 -0.62569860034E-01  0.33977806242E-01 -0.35016218657E-01  0.79346552488E-01  0.51100000000E-03 0.  1.
</event>
<event>
 8    1  0.1054833E+005  0.1043930E+01  0.7957747E-01            NaN
         13   -1    0    0    0    0  0.00000000000E+00  0.00000000000E+00  0.74505805969E-08  0.10566000000E+00  0.10566000000E+00 0. -1.
     999900   -1    0    0    0    0 -0.00000000000E+00 -0.00000000000E+00 -0.74505805969E-08  0.93827000000E+00  0.93827000000E+00 0.  1.
     999902    2    1    2    0    0  0.16916087974E-01  0.16462096704E-01  0.43069520638E-02  0.10199361571E+01  0.10196538923E+01 0.  0.
     999903    2    3    3    0    0 -0.29375433442E-01  0.12438803000E+00  0.25461236277E-01  0.13188299667E+00  0.20237395140E-01 0.  0.
         14    1    1    2    0    0 -0.16916087974E-01 -0.16462096704E-01 -0.43069520638E-02  0.23993842883E-01  0.00000000000E+00 0.  1.
     999901    1    3    3    0    0  0.46291521416E-01 -0.10792593329E+00 -0.21154284213E-01  0.88805316044E+00  0.88000000000E+00 0.  1.
        -11    1    4    4    0    0 -0.92161240424E-03  0.27929640604E-01  0.12001949788E-01  0.30417463955E-01  0.51100000000E-03 0.  1.
         11    1    4    4    0    0 -0.28453821038E-01  0.96458389394E-01  0.13459286489E-01  0.10146553272E+00  0.51100000000E-03 0. -1.
</event>
<event>
 8    1  0.1054833E+005  0.1043930E+01  0.7957747E-01            NaN
         13   -1    0    0    0    0  0.00000000000E+00  0.00000000000E+00  0.74505805969E-08  0.10566000000E+00  0.10566000000E+00 0.  1.
     999900   -1    0    0    0    0 -0.00000000000E+00 -0.00000000000E+00 -0.74505805969E-08  0.93827000000E+00  0.93827000000E+00 0.  1.
     999902    2    1    2    0    0  0.65966622079E-02 -0.88874758046E-02 -0.20037825471E-01  0.10210385687E+01  0.10207819263E+01 0.  0.
     999903    2    3    3    0    0  0.29513176196E-01 -0.37148927599E-01  0.11830916924E+00  0.12948724249E+00  0.22777533926E-01 0.  0.
         14    1    1    2    0    0 -0.65966622079E-02  0.88874758046E-02  0.20037825471E-01  0.22891431324E-01  0.00000000000E+00 0.  1.
     999901    1    3    3    0    0 -0.22916513988E-01  0.28261451795E-01 -0.13834699471E+00  0.89155132618E+00  0.88000000000E+00 0.  1.
        -11    1    4    4    0    0  0.30884058430E-01 -0.25401677331E-01  0.80815837974E-01  0.90169457494E-01  0.51100000000E-03 0. -1.
         11    1    4    4    0    0 -0.13708822341E-02 -0.11747250268E-01  0.37493331265E-01  0.39317785001E-01  0.51100000000E-03 0.  1.
</event>
<event>
 8    1  0.1054833E+005  0.1043930E+01  0.7957747E-01            NaN
         13   -1    0    0    0    0  0.00000000000E+00  0.00000000000E+00  0.74505805969E-08  0.10566000000E+00  0.10566000000E+00 0.  1.
     999900   -1    0    0    0    0 -0.00000000000E+00 -0.00000000000E+00 -0.74505805969E-08  0.93827000000E+00  0.93827000000E+00 0. -1.
     999902    2    1    2    0    0  0.10753471255E-01 -0.18287269933E-01 -0.11742832982E-03  0.10227150247E+01  0.10224949617E+01 0.  0.
     999903    2    3    3    0    0 -0.72076298893E-01  0.50974196344E-01  0.94804541557E-01  0.13104911091E+00  0.19814308332E-01 0.  0.
         14    1    1    2    0    0 -0.10753471255E-01  0.18287269933E-01  0.11742832982E-03  0.21214975254E-01  0.00000000000E+00 0.  1.
     999901    1    3    3    0    0  0.82829770149E-01 -0.69261466276E-01 -0.94921969887E-01  0.89166591384E+00  0.88000000000E+00 0. -1.
        -11    1    4    4    0    0 -0.53649535222E-01  0.34553678195E-01  0.79727693263E-01  0.10212245346E+00  0.51100000000E-03 0.  1.
         11    1    4    4    0    0 -0.18426763671E-01  0.16420518149E-01  0.15076848294E-01  0.28926657448E-01  0.51100000000E-03 0. -1.
</event>
<event>
 8    1  0.1054833E+005  0.1043930E+01  0.7957747E-01            NaN
         13   -1    0    0    0    0  0.00000000000E+00  0.00000000000E+00  0.74505805969E-08  0.10566000000E+00  0.10566000000E+00 0.  1.
     999900   -1    0    0    0    0 -0.00000000000E+00 -0.00000000000E+00 -0.74505805969E-08  0.93827000000E+00  0.93827000000E+00 0. -1.
     999902    2    1    2    0    0  0.20156338262E-01  0.44012785085E-02  0.10850863284E-01  0.10206192630E+01  0.10203530220E+01 0.  0.
     999903    2    3    3    0    0 -0.34312821607E-01 -0.13905808791E-01 -0.12168331460E+00  0.12884162979E+00  0.20557122108E-01 0.  0.
         14    1    1    2    0    0 -0.20156338262E-01 -0.44012785085E-02 -0.10850863284E-01  0.23310736982E-01  0.00000000000E+00 0.  1.
     999901    1    3    3    0    0  0.54469159869E-01  0.18307087300E-01  0.13253417788E+00  0.89177763323E+00  0.88000000000E+00 0.  1.
        -11    1    4    4    0    0 -0.30389310306E-01 -0.60155328976E-02 -0.72046669281E-01  0.78426274248E-01  0.51100000000E-03 0.  1.
         11    1    4    4    0    0 -0.39235113003E-02 -0.78902758935E-02 -0.49636645319E-01  0.50415355539E-01  0.51100000000E-03 0. -1.
</event>
<event>
 8    1  0.1054833E+005  0.1043930E+01  0.7957747E-01            NaN
         13   -1    0    0    0    0  0.00000000000E+00  0.00000000000E+00  0.74505805969E-08  0.10566000000E+00  0.10566000000E+00 0. -1.
     999900   -1    0    0    0    0 -0.00000000000E+00 -0.00000000000E+00 -0.74505805969E-08  0.93827000000E+00  0.93827000000E+00 0. -1.
     999902    2    1    2    0    0 -0.24545659375E-02 -0.38849443575E-02  0.20970483062E-01  0.10224619110E+01  0.10222365091E+01 0.  0.
     999903    2    3    3    0    0  0.76302841412E-01  0.55102063474E-01 -0.87873408768E-01  0.13031327476E+00  0.20036282195E-01 0.  0.
         14    1    1    2    0    0  0.24545659375E-02  0.38849443575E-02 -0.20970483062E-01  0.21468089026E-01  0.00000000000E+00 0.  1.
     999901    1    3    3    0    0 -0.78757407350E-01 -0.58987007831E-01  0.10884389183E+00  0.89214863621E+00  0.88000000000E+00 0.  1.
        -11    1    4    4    0    0  0.54303013017E-01  0.49173095596E-01 -0.70302828610E-01  0.10153600044E+00  0.51100000000E-03 0.  1.
         11    1    4    4    0    0  0.21999828395E-01  0.59289678783E-02 -0.17570580157E-01  0.28777274325E-01  0.51100000000E-03 0. -1.
</event>
<event>
 8    1  0.1054833E+005  0.1043930E+01  0.7957747E-01            NaN
         13   -1    0    0    0    0  0.00000000000E+00  0.00000000000E+00  0.74505805969E-08  0.10566000000E+00  0.10566000000E+00 0. -1.
     999900   -1    0    0    0    0 -0.00000000000E+00 -0.00000000000E+00 -0.74505805969E-08  0.93827000000E+00  0.93827000000E+00 0. -1.
     999902    2    1    2    0    0  0.55131286812E-02 -0.16164405390E-01 -0.15641615542E-01  0.10207709256E+01  0.10205081773E+01 0.  0.
     999903    2    3    3    0    0 -0.45018213306E-01  0.11815984720E+00 -0.17226683409E-01  0.12914379851E+00  0.19823547898E-01 0.  0.
         14    1    1    2    0    0 -0.55131286812E-02  0.16164405390E-01  0.15641615542E-01  0.23159074382E-01  0.00000000000E+00 0. -1.
     999901    1    3    3    0    0  0.50531341987E-01 -0.13432425259E+00  0.15850678664E-02  0.89162712711E+00  0.88000000000E+00 0. -1.
        -11    1    4    4    0    0 -0.31399576522E-01  0.67381261777E-01 -0.18391773936E-02  0.74362702606E-01  0.51100000000E-03 0. -1.
         11    1    4    4    0    0 -0.13618636784E-01  0.50778585427E-01 -0.15387506015E-01  0.54781095902E-01  0.51100000000E-03 0.  1.
</event>
<event>
 8    1  0.1054833E+005  0.1043930E+01  0.7957747E-01            NaN
         13   -1    0    0    0    0  0.00000000000E+00  0.00000000000E+00  0.74505805969E-08  0.10566000000E+00  0.10566000000E+00 0. -1.
     999900   -1    0    0    0    0 -0.00000000000E+00 -0.00000000000E+00 -0.74505805969E-08  0.93827000000E+00  0.93827000000E+00 0.  1.
     999902    2    1    2    0    0  0.12440471434E-01  0.15257446031E-02  0.20673290537E-01  0.10197540167E+01  0.10194673984E+01 0.  0.
     999903    2    3    3    0    0 -0.55767073468E-01  0.90684721084E-01  0.74296827634E-01  0.13100372783E+00  0.17557704497E-01 0.  0.
         14    1    1    2    0    0 -0.12440471434E-01 -0.15257446031E-02 -0.20673290537E-01  0.24175983283E-01  0.00000000000E+00 0.  1.
     999901    1    3    3    0    0  0.68207544901E-01 -0.89158976481E-01 -0.53623537097E-01  0.88875028889E+00  0.88000000000E+00 0.  1.
        -11    1    4    4    0    0 -0.12932700047E-01  0.14848097335E-01  0.21469895386E-01  0.29136544988E-01  0.51100000000E-03 0.  1.
         11    1    4    4    0    0 -0.42834373421E-01  0.75836623750E-01  0.52826932248E-01  0.10186718284E+00  0.51100000000E-03 0. -1.
</event>
<event>
 8    1  0.1054833E+005  0.1043930E+01  0.7957747E-01            NaN
         13   -1    0    0    0    0  0.00000000000E+00  0.00000000000E+00  0.74505805969E-08  0.10566000000E+00  0.10566000000E+00 0. -1.
     999900   -1    0    0    0    0 -0.00000000000E+00 -0.00000000000E+00 -0.74505805969E-08  0.93827000000E+00  0.93827000000E+00 0. -1.
     999902    2    1    2    0    0  0.20796184565E-01  0.10849849369E-01 -0.10316787426E-03  0.10204734195E+01  0.10202037977E+01 0.  0.
     999903    2    3    3    0    0 -0.84996374132E-01  0.37885055559E-01 -0.87669500125E-01  0.12941178844E+00  0.20045166134E-01 0.  0.
         14    1    1    2    0    0 -0.20796184565E-01 -0.10849849369E-01  0.10316787426E-03  0.23456580472E-01  0.00000000000E+00 0. -1.
     999901    1    3    3    0    0  0.10579255870E+00 -0.27035206190E-01  0.87566332251E-01  0.89106163109E+00  0.88000000000E+00 0.  1.
        -11    1    4    4    0    0 -0.74063606193E-01  0.24747827778E-01 -0.72263642249E-01  0.10639627744E+00  0.51100000000E-03 0.  1.
         11    1    4    4    0    0 -0.10932767939E-01  0.13137227781E-01 -0.15405857876E-01  0.23015510998E-01  0.51100000000E-03 0. -1.
</event>
<event>
 8    1  0.1054833E+005  0.1043930E+01  0.7957747E-01            NaN
         13   -1    0    0    0    0  0.00000000000E+00  0.00000000000E+00  0.74505805969E-08  0.10566000000E+00  0.10566000000E+00 0. -1.
     999900   -1    0    0    0    0 -0.00000000000E+00 -0.00000000000E+00 -0.74505805969E-08  0.93827000000E+00  0.93827000000E+00 0.  1.
     999902    2    1    2    0    0  0.18563079027E-01 -0.13261584133E-02  0.14648650306E-01  0.10202460486E+01  0.10199711124E+01 0.  0.
     999903    2    3    3    0    0 -0.54832848668E-01  0.68066228042E-02  0.11755220727E+00  0.13117785864E+00  0.18334059957E-01 0.  0.
         14    1    1    2    0    0 -0.18563079027E-01  0.13261584133E-02 -0.14648650306E-01  0.23683951420E-01  0.00000000000E+00 0.  1.
     999901    1    3    3    0    0  0.73395927695E-01 -0.81327812174E-02 -0.10290355697E+00  0.88906818994E+00  0.88000000000E+00 0.  1.
        -11    1    4    4    0    0 -0.24267678782E-01  0.81836779442E-02  0.36934049452E-01  0.44947502134E-01  0.51100000000E-03 0. -1.
         11    1    4    4    0    0 -0.30565169886E-01 -0.13770551401E-02  0.80618157821E-01  0.86230356502E-01  0.51100000000E-03 0.  1.
</event>
<event>
 8    1  0.1054833E+005  0.1043930E+01  0.7957747E-01            NaN
         13   -1    0    0    0    0  0.00000000000E+00  0.00000000000E+00  0.74505805969E-08  0.10566000000E+00  0.10566000000E+00 0. -1.
     999900   -1    0    0    0    0 -0.00000000000E+00 -0.00000000000E+00 -0.74505805969E-08  0.93827000000E+00  0.93827000000E+00 0. -1.
     999902    2    1    2    0    0 -0.23262738481E-01  0.18789374916E-02 -0.11870382486E-01  0.10177461999E+01  0.10174093257E+01 0.  0.
     999903    2    3    3    0    0  0.79402227771E-01 -0.77680200403E-01  0.55785278948E-01  0.12564360476E+00  0.18313676861E-01 0.  0.
         14    1    1    2    0    0  0.23262738481E-01 -0.18789374916E-02  0.11870382486E-01  0.26183800108E-01  0.00000000000E+00 0. -1.
     999901    1    3    3    0    0 -0.10266496625E+00  0.79559137895E-01 -0.67655661434E-01  0.89210259513E+00  0.88000000000E+00 0. -1.
        -11    1    4    4    0    0  0.55889307687E-02 -0.14032118340E-01  0.73252050009E-02  0.16794530108E-01  0.51100000000E-03 0. -1.
         11    1    4    4    0    0  0.73813297002E-01 -0.63648082063E-01  0.48460073947E-01  0.10884907465E+00  0.51100000000E-03 0.  1.
</event>
<event>
 8    1  0.1054833E+005  0.1043930E+01  0.7957747E-01            NaN
         13   -1    0    0    0    0  0.00000000000E+00  0.00000000000E+00  0.74505805969E-08  0.10566000000E+00  0.10566000000E+00 0.  1.
     999900   -1    0    0    0    0 -0.00000000000E+00 -0.00000000000E+00 -0.74505805969E-08  0.93827000000E+00  0.93827000000E+00 0.  1.
     999902    2    1    2    0    0  0.15675378774E-01 -0.16585370353E-01 -0.24837561927E-02  0.10209743677E+01  0.10207162674E+01 0.  0.
     999903    2    3    3    0    0 -0.49490976713E-01  0.87011744679E-01 -0.79778041529E-01  0.12914847512E+00  0.17157861971E-01 0.  0.
         14    1    1    2    0    0 -0.15675378774E-01  0.16585370353E-01  0.24837561927E-02  0.22955632300E-01  0.00000000000E+00 0. -1.
     999901    1    3    3    0    0  0.65166355487E-01 -0.10359711503E+00  0.77294285336E-01  0.89182589258E+00  0.88000000000E+00 0. -1.
        -11    1    4    4    0    0 -0.51380472896E-02  0.15395796048E-01 -0.64781215609E-02  0.17483055964E-01  0.51100000000E-03 0.  1.
         11    1    4    4    0    0 -0.44352929423E-01  0.71615948632E-01 -0.73299919968E-01  0.11166541916E+00  0.51100000000E-03 0. -1.
</event>
<event>
 8    1  0.1054833E+005  0.1043930E+01  0.7957747E-01            NaN
         13   -1    0    0    0    0  0.00000000000E+00  0.00000000000E+00  0.74505805969E-08  0.10566000000E+00  0.10566000000E+00 0.  1.
     999900   -1    0    0    0    0 -0.00000000000E+00 -0.00000000000E+00 -0.74505805969E-08  0.93827000000E+00  0.93827000000E+00 0. -1.
     999902    2    1    2    0    0  0.17402197575E-01  0.15456618286E-01 -0.44504314287E-02  0.10202329565E+01  0.10199577127E+01 0.  0.
     999903    2    3    3    0    0 -0.77034514496E-01 -0.47467619593E-01  0.88442805248E-01  0.12809680901E+00  0.19979272861E-01 0.  0.
         14    1    1    2    0    0 -0.17402197575E-01 -0.15456618286E-01  0.44504314287E-02  0.23697043469E-01  0.00000000000E+00 0. -1.
     999901    1    3    3    0    0  0.94436712071E-01  0.62924237880E-01 -0.92893236676E-01  0.89213614752E+00  0.88000000000E+00 0. -1.
        -11    1    4    4    0    0 -0.38213047582E-01 -0.16576636658E-01  0.29458612495E-01  0.51020514105E-01  0.51100000000E-03 0.  1.
         11    1    4    4    0    0 -0.38821466914E-01 -0.30890982935E-01  0.58984192752E-01  0.77076294901E-01  0.51100000000E-03 0. -1.
</event>
<event>
 8    1  0.1054833E+005  0.1043930E+01  0.7957747E-01            NaN
         13   -1    0    0    0    0  0.00000000000E+00  0.00000000000E+00  0.74505805969E-08  0.10566000000E+00  0.10566000000E+00 0. -1.
     999900   -1    0    0    0    0 -0.00000000000E+00 -0.00000000000E+00 -0.74505805969E-08  0.93827000000E+00  0.93827000000E+00 0. -1.
     999902    2    1    2    0    0 -0.13073026754E-01 -0.19177791665E-01 -0.36974703364E-02  0.10204275957E+01  0.10201569071E+01 0.  0.
     999903    2    3    3    0    0  0.11279396790E+00 -0.62104833826E-01 -0.70109112711E-02  0.13042972480E+00  0.19577299455E-01 0.  0.
         14    1    1    2    0    0  0.13073026754E-01  0.19177791665E-01  0.36974703364E-02  0.23502404314E-01  0.00000000000E+00 0. -1.
     999901    1    3    3    0    0 -0.12586699466E+00  0.42927042161E-01  0.33134409347E-02  0.88999787089E+00  0.88000000000E+00 0.  1.
        -11    1    4    4    0    0  0.98411327442E-01 -0.60772186457E-01 -0.44419031778E-02  0.11574990125E+00  0.51100000000E-03 0. -1.
         11    1    4    4    0    0  0.14382640463E-01 -0.13326473689E-02 -0.25690080933E-02  0.14679823544E-01  0.51100000000E-03 0.  1.
</event>
<event>
 8    1  0.1054833E+005  0.1043930E+01  0.7957747E-01            NaN
         13   -1    0    0    0    0  0.00000000000E+00  0.00000000000E+00  0.74505805969E-08  0.10566000000E+00  0.10566000000E+00 0.  1.
     999900   -1    0    0    0    0 -0.00000000000E+00 -0.00000000000E+00 -0.74505805969E-08  0.93827000000E+00  0.93827000000E+00 0.  1.
     999902    2    1    2    0    0 -0.21733109204E-01  0.16992590214E-02 -0.96984553564E-02  0.10200705039E+01  0.10197914284E+01 0.  0.
     999903    2    3    3    0    0  0.50597936481E-01 -0.20807192048E-01  0.11409240640E+00  0.12818346064E+00  0.20514189392E-01 0.  0.
         14    1    1    2    0    0  0.21733109204E-01 -0.16992590214E-02  0.96984553564E-02  0.23859496080E-01  0.00000000000E+00 0. -1.
     999901    1    3    3    0    0 -0.72331045685E-01  0.22506451070E-01 -0.12379086176E+00  0.89188704328E+00  0.88000000000E+00 0.  1.
        -11    1    4    4    0    0  0.99936318866E-02 -0.10968737823E-01  0.45562841625E-01  0.47920971878E-01  0.51100000000E-03 0. -1.
         11    1    4    4    0    0  0.40604304594E-01 -0.98384542249E-02  0.68529564779E-01  0.80262488766E-01  0.51100000000E-03 0.  1.
</event>
<event>
 8    1  0.1054833E+005  0.1043930E+01  0.7957747E-01            NaN
         13   -1    0    0    0    0  0.00000000000E+00  0.00000000000E+00  0.74505805969E-08  0.10566000000E+00  0.10566000000E+00 0.  1.
     999900   -1    0    0    0    0 -0.00000000000E+00 -0.00000000000E+00 -0.74505805969E-08  0.93827000000E+00  0.93827000000E+00 0. -1.
     999902    2    1    2    0    0 -0.14184939467E-01 -0.14640272857E-01  0.12358984347E-01  0.10200910698E+01  0.10198124809E+01 0.  0.
     999903    2    3    3    0    0 -0.31130971752E-01 -0.11084450548E+00  0.65557818640E-01  0.13308907528E+00  0.12618739090E-01 0.  0.
         14    1    1    2    0    0  0.14184939467E-01  0.14640272857E-01 -0.12358984347E-01  0.23838930158E-01  0.00000000000E+00 0. -1.
     999901    1    3    3    0    0  0.16946032285E-01  0.96204232626E-01 -0.53198834292E-01  0.88700199456E+00  0.88000000000E+00 0. -1.
        -11    1    4    4    0    0 -0.14882373491E-01 -0.69429653560E-01  0.45095328999E-01  0.84117843843E-01  0.51100000000E-03 0. -1.
         11    1    4    4    0    0 -0.16248598261E-01 -0.41414851923E-01  0.20462489640E-01  0.48971231438E-01  0.51100000000E-03 0.  1.
</event>
<event>
 8    1  0.1054833E+005  0.1043930E+01  0.7957747E-01            NaN
         13   -1    0    0    0    0  0.00000000000E+00  0.00000000000E+00  0.74505805969E-08  0.10566000000E+00  0.10566000000E+00 0. -1.
     999900   -1    0    0    0    0 -0.00000000000E+00 -0.00000000000E+00 -0.74505805969E-08  0.93827000000E+00  0.93827000000E+00 0. -1.
     999902    2    1    2    0    0 -0.16402721213E-02  0.55207394246E-02  0.23439892751E-01  0.10197929408E+01  0.10195072557E+01 0.  0.
     999903    2    3    3    0    0  0.21153935241E-01 -0.18174626266E-01 -0.12247410322E+00  0.12717211395E+00  0.19875477140E-01 0.  0.
         14    1    1    2    0    0  0.16402721213E-02 -0.55207394246E-02 -0.23439892751E-01  0.24137059237E-01  0.00000000000E+00 0.  1.
     999901    1    3    3    0    0 -0.22794207362E-01  0.23695365691E-01  0.14591399597E+00  0.89262082681E+00  0.88000000000E+00 0.  1.
        -11    1    4    4    0    0  0.68794092269E-02 -0.18608022212E-01 -0.66091519472E-01  0.69006773792E-01  0.51100000000E-03 0. -1.
         11    1    4    4    0    0  0.14274526014E-01  0.43339594647E-03 -0.56382583744E-01  0.58165340157E-01  0.51100000000E-03 0.  1.
</event>
<event>
 8    1  0.1054833E+005  0.1043930E+01  0.7957747E-01            NaN
         13   -1    0    0    0    0  0.00000000000E+00  0.00000000000E+00  0.74505805969E-08  0.10566000000E+00  0.10566000000E+00 0. -1.
     999900   -1    0    0    0    0 -0.00000000000E+00 -0.00000000000E+00 -0.74505805969E-08  0.93827000000E+00  0.93827000000E+00 0. -1.
     999902    2    1    2    0    0  0.15061361323E-01  0.10981252694E-01 -0.14059436515E-01  0.10205826175E+01  0.10203155291E+01 0.  0.
     999903    2    3    3    0    0  0.98269929041E-01  0.70732896529E-01  0.49590710997E-01  0.13235670817E+00  0.19973431731E-01 0.  0.
         14    1    1    2    0    0 -0.15061361323E-01 -0.10981252694E-01  0.14059436515E-01  0.23347382525E-01  0.00000000000E+00 0. -1.
     999901    1    3    3    0    0 -0.83208567718E-01 -0.59751643834E-01 -0.63650147513E-01  0.88822590931E+00  0.88000000000E+00 0. -1.
        -11    1    4    4    0    0  0.12933257876E-01  0.19663261340E-02  0.61536067530E-02  0.14465946039E-01  0.51100000000E-03 0. -1.
         11    1    4    4    0    0  0.85336671166E-01  0.68766570395E-01  0.43437104244E-01  0.11789076213E+00  0.51100000000E-03 0.  1.
</event>
<event>
 8    1  0.1054833E+005  0.1043930E+01  0.7957747E-01            NaN
         13   -1    0    0    0    0  0.00000000000E+00  0.00000000000E+00  0.74505805969E-08  0.10566000000E+00  0.10566000000E+00 0. -1.
     999900   -1    0    0    0    0 -0.00000000000E+00 -0.00000000000E+00 -0.74505805969E-08  0.93827000000E+00  0.93827000000E+00 0. -1.
     999902    2    1    2    0    0  0.53412095315E-02 -0.10610000039E-03  0.22893372750E-01  0.10204215698E+01  0.10201507407E+01 0.  0.
     999903    2    3    3    0    0  0.70408595527E-01 -0.34062829182E-02 -0.10584176226E+00  0.12867194632E+00  0.19621876661E-01 0.  0.
         14    1    1    2    0    0 -0.53412095315E-02  0.10610000039E-03 -0.22893372750E-01  0.23508430240E-01  0.00000000000E+00 0.  1.
     999901    1    3    3    0    0 -0.65067385995E-01  0.33001829178E-02  0.12873513501E+00  0.89174962344E+00  0.88000000000E+00 0.  1.
        -11    1    4    4    0    0  0.22431438734E-01 -0.98560939559E-02 -0.30640074856E-01  0.39235026952E-01  0.51100000000E-03 0.  1.
         11    1    4    4    0    0  0.47977156792E-01  0.64498110377E-02 -0.75201687401E-01  0.89436919364E-01  0.51100000000E-03 0. -1.
</event>
<event>
 7    1  0.1054833E+005  0.1043930E+01  0.7957747E-01            NaN
         13   -1    0    0    0    0  0.00000000000E+00  0.00000000000E+00  0.74505805969E-08  0.10566000000E+00  0.10566000000E+00 0. -1.
     999900   -1    0    0    0    0 -0.00000000000E+00 -0.00000000000E+00 -0.74505805969E-08  0.93827000000E+00  0.93827000000E+00 0. -1.
     999902    2    1    2    0    0  0.91776981582E-02 -0.19215099361E-01  0.78291807451E-02  0.10212419799E+01  0.10209899290E+01 0.  0.
         14    1    1    2    0    0 -0.91776981582E-02  0.19215099361E-01 -0.78291807451E-02  0.22688020144E-01  0.00000000000E+00 0. -1.
     999901    1    3    3    0    0 -0.13787826560E-02 -0.13865576603E+00  0.76319620383E-02  0.89089032397E+00  0.88000000000E+00 0.  1.
        -11    1    3    3    0    0  0.13462164516E-01  0.63432762302E-01 -0.24164606785E-01  0.69203573237E-01  0.51100000000E-03 0.  1.
         11    1    3    3    0    0 -0.29056837021E-02  0.56007904369E-01  0.24361825492E-01  0.61148082651E-01  0.51100000000E-03 0. -1.
</event>
<event>
 8    1  0.1054833E+005  0.1043930E+01  0.7957747E-01            NaN
         13   -1    0    0    0    0  0.00000000000E+00  0.00000000000E+00  0.74505805969E-08  0.10566000000E+00  0.10566000000E+00 0.  1.
     999900   -1    0    0    0    0 -0.00000000000E+00 -0.00000000000E+00 -0.74505805969E-08  0.93827000000E+00  0.93827000000E+00 0.  1.
     999902    2    1    2    0    0  0.16207930462E-01  0.15162800580E-01 -0.81972033234E-02  0.10202698716E+01  0.10199954948E+01 0.  0.
     999903    2    3    3    0    0  0.83692008257E-02  0.11222011664E+00 -0.68220250600E-01  0.13286673074E+00  0.18334869677E-01 0.  0.
         14    1    1    2    0    0 -0.16207930462E-01 -0.15162800580E-01  0.81972033234E-02  0.23660128352E-01  0.00000000000E+00 0.  1.
     999901    1    3    3    0    0  0.78387296365E-02 -0.97057316058E-01  0.60023047277E-01  0.88740314090E+00  0.88000000000E+00 0. -1.
        -11    1    4    4    0    0  0.11030782188E-01  0.48687913121E-01 -0.36217093680E-01  0.61677629942E-01  0.51100000000E-03 0.  1.
         11    1    4    4    0    0 -0.26615813620E-02  0.63532203517E-01 -0.32003156921E-01  0.71189100802E-01  0.51100000000E-03 0. -1.
</event>
<event>
 8    1  0.1054833E+005  0.1043930E+01  0.7957747E-01            NaN
         13   -1    0    0    0    0  0.00000000000E+00  0.00000000000E+00  0.74505805969E-08  0.10566000000E+00  0.10566000000E+00 0. -1.
     999900   -1    0    0    0    0 -0.00000000000E+00 -0.00000000000E+00 -0.74505805969E-08  0.93827000000E+00  0.93827000000E+00 0. -1.
     999902    2    1    2    0    0  0.87968419953E-02 -0.72874060854E-02 -0.20933409683E-01  0.10200826027E+01  0.10198038135E+01 0.  0.
     999903    2    3    3    0    0  0.77472199160E-01  0.94610696423E-01  0.37804197803E-01  0.12960540788E+00  0.20378391996E-01 0.  0.
         14    1    1    2    0    0 -0.87968419953E-02  0.72874060854E-02  0.20933409683E-01  0.23847397290E-01  0.00000000000E+00 0. -1.
     999901    1    3    3    0    0 -0.68675357165E-01 -0.10189810251E+00 -0.58737607486E-01  0.89047719483E+00  0.88000000000E+00 0. -1.
        -11    1    4    4    0    0  0.34869663041E-02  0.49564151330E-02  0.71574788393E-02  0.93923165040E-02  0.51100000000E-03 0. -1.
         11    1    4    4    0    0  0.73985232856E-01  0.89654281290E-01  0.30646718964E-01  0.12021309138E+00  0.51100000000E-03 0.  1.
</event>
<event>
 8    1  0.1054833E+005  0.1043930E+01  0.7957747E-01            NaN
         13   -1    0    0    0    0  0.00000000000E+00  0.00000000000E+00  0.74505805969E-08  0.10566000000E+00  0.10566000000E+00 0. -1.
     999900   -1    0    0    0    0 -0.00000000000E+00 -0.00000000000E+00 -0.74505805969E-08  0.93827000000E+00  0.93827000000E+00 0.  1.
     999902    2    1    2    0    0  0.15557634846E-01  0.10116963220E-01 -0.15669784095E-01  0.10196414208E+01  0.10193520942E+01 0.  0.
     999903    2    3    3    0    0 -0.11128946107E+00 -0.28824816375E-01 -0.54439700924E-01  0.12884977601E+00  0.20551631484E-01 0.  0.
         14    1    1    2    0    0 -0.15557634846E-01 -0.10116963220E-01  0.15669784095E-01  0.24288579217E-01  0.00000000000E+00 0.  1.
     999901    1    3    3    0    0  0.12684709592E+00  0.38941779596E-01  0.38769916829E-01  0.89079164477E+00  0.88000000000E+00 0. -1.
        -11    1    4    4    0    0 -0.13902449355E-01 -0.45052123042E-02  0.74038265725E-04  0.14623325157E-01  0.51100000000E-03 0. -1.
         11    1    4    4    0    0 -0.97387011719E-01 -0.24319604071E-01 -0.54513739189E-01  0.11422645086E+00  0.51100000000E-03 0.  1.
</event>
<event>
 8    1  0.1054833E+005  0.1043930E+01  0.7957747E-01            NaN
         13   -1    0    0    0    0  0.00000000000E+00  0.00000000000E+00  0.74505805969E-08  0.10566000000E+00  0.10566000000E+00 0. -1.
     999900   -1    0    0    0    0 -0.00000000000E+00 -0.00000000000E+00 -0.74505805969E-08  0.93827000000E+00  0.93827000000E+00 0.  1.
     999902    2    1    2    0    0  0.11143387264E-01  0.89329778464E-02 -0.19422871356E-01  0.10198214724E+01  0.10195364704E+01 0.  0.
     999903    2    3    3    0    0  0.11625899009E-01 -0.89861054020E-01  0.87564742404E-01  0.12785351159E+00  0.21650998986E-01 0.  0.
         14    1    1    2    0    0 -0.11143387264E-01 -0.89329778464E-02  0.19422871356E-01  0.24108527633E-01  0.00000000000E+00 0. -1.
     999901    1    3    3    0    0 -0.48251174568E-03  0.98794031866E-01 -0.10698761376E+00  0.89196796077E+00  0.88000000000E+00 0.  1.
        -11    1    4    4    0    0  0.13886805283E-01 -0.67772276308E-01  0.54732943443E-01  0.88214970475E-01  0.51100000000E-03 0.  1.
         11    1    4    4    0    0 -0.22609062735E-02 -0.22088777712E-01  0.32831798961E-01  0.39638541118E-01  0.51100000000E-03 0. -1.
</event>
<event>
 8    1  0.1054833E+005  0.1043930E+01  0.7957747E-01            NaN
         13   -1    0    0    0    0  0.00000000000E+00  0.00000000000E+00  0.74505805969E-08  0.10566000000E+00  0.10566000000E+00 0.  1.
     999900   -1    0    0    0    0 -0.00000000000E+00 -0.00000000000E+00 -0.74505805969E-08  0.93827000000E+00  0.93827000000E+00 0. -1.
     999902    2    1    2    0    0 -0.10195732381E-01  0.18714775613E-01  0.94491260773E-02  0.10206173046E+01  0.10203510183E+01 0.  0.
     999903    2    3    3    0    0  0.34761231745E-01  0.12211118006E+00 -0.31042172058E-01  0.13250048212E+00  0.21754948616E-01 0.  0.
         14    1    1    2    0    0  0.10195732381E-01 -0.18714775613E-01 -0.94491260773E-02  0.23312695440E-01  0.00000000000E+00 0. -1.
     999901    1    3    3    0    0 -0.44956964126E-01 -0.10339640444E+00  0.40491298135E-01  0.88811682244E+00  0.88000000000E+00 0. -1.
        -11    1    4    4    0    0  0.18251394857E-01  0.51973550881E-01 -0.29651679442E-02  0.55167170920E-01  0.51100000000E-03 0. -1.
         11    1    4    4    0    0  0.16509836888E-01  0.70137629175E-01 -0.28077004114E-01  0.77333311201E-01  0.51100000000E-03 0.  1.
</event>
<event>
 8    1  0.1054833E+005  0.1043930E+01  0.7957747E-01            NaN
         13   -1    0    0    0    0  0.00000000000E+00  0.00000000000E+00  0.74505805969E-08  0.10566000000E+00  0.10566000000E+00 0. -1.
     999900   -1    0    0    0    0 -0.00000000000E+00 -0.00000000000E+00 -0.74505805969E-08  0.93827000000E+00  0.93827000000E+00 0.  1.
     999902    2    1    2    0    0 -0.10390908061E-01  0.19161003577E-01  0.97251603859E-02  0.10200617413E+01  0.10197824583E+01 0.  0.
     999903    2    3    3    0    0 -0.68777468309E-01  0.31937172740E-01  0.10713902013E+00  0.13267136442E+00  0.19302801714E-01 0.  0.
         14    1    1    2    0    0  0.10390908061E-01 -0.19161003577E-01 -0.97251603859E-02  0.23868258691E-01  0.00000000000E+00 0.  1.
     999901    1    3    3    0    0  0.58386560248E-01 -0.12776169162E-01 -0.97413859745E-01  0.88739037688E+00  0.88000000000E+00 0.  1.
        -11    1    4    4    0    0 -0.58042203677E-01  0.18559546616E-01  0.80085558999E-01  0.10063454705E+00  0.51100000000E-03 0.  1.
         11    1    4    4    0    0 -0.10735264632E-01  0.13377626123E-01  0.27053461132E-01  0.32036817377E-01  0.51100000000E-03 0. -1.
</event>
<event>
 8    1  0.1054833E+005  0.1043930E+01  0.7957747E-01            NaN
         13   -1    0    0    0    0  0.00000000000E+00  0.00000000000E+00  0.74505805969E-08  0.10566000000E+00  0.10566000000E+00 0.  1.
     999900   -1    0    0    0    0 -0.00000000000E+00 -0.00000000000E+00 -0.74505805969E-08  0.93827000000E+00  0.93827000000E+00 0.  1.
     999902    2    1    2    0    0  0.71593531511E-02 -0.10930777727E-01 -0.19072994398E-01  0.10208103686E+01  0.10205485247E+01 0.  0.
     999903    2    3    3    0    0  0.51488565693E-01 -0.90191219419E-01  0.77156785382E-01  0.13091853969E+00  0.20024136604E-01 0.  0.
         14    1    1    2    0    0 -0.71593531511E-02  0.10930777727E-01  0.19072994398E-01  0.23119631368E-01  0.00000000000E+00 0.  1.
     999901    1    3    3    0    0 -0.44329212542E-01  0.79260441692E-01 -0.96229779780E-01  0.88989182894E+00  0.88000000000E+00 0.  1.
        -11    1    4    4    0    0  0.74949574441E-02 -0.16604928119E-01  0.23643939251E-01  0.29852889462E-01  0.51100000000E-03 0.  1.
         11    1    4    4    0    0  0.43993608249E-01 -0.73586291299E-01  0.53512846131E-01  0.10106565023E+00  0.51100000000E-03 0. -1.
</event>
<event>
 8    1  0.1054833E+005  0.1043930E+01  0.7957747E-01            NaN
         13   -1    0    0    0    0  0.00000000000E+00  0.00000000000E+00  0.74505805969E-08  0.10566000000E+00  0.10566000000E+00 0. -1.
     999900   -1    0    0    0    0 -0.00000000000E+00 -0.00000000000E+00 -0.74505805969E-08  0.93827000000E+00  0.93827000000E+00 0. -1.
     999902    2    1    2    0    0 -0.93323876537E-03  0.14005416652E-01 -0.18524031199E-01  0.10206886067E+01  0.10204239656E+01 0.  0.
     999903    2    3    3    0    0 -0.62653471416E-01 -0.10719726303E+00  0.28631520772E-01  0.12899184056E+00  0.20060415456E-01 0.  0.
         14    1    1    2    0    0  0.93323876537E-03 -0.14005416652E-01  0.18524031199E-01  0.23241393290E-01  0.00000000000E+00 0. -1.
     999901    1    3    3    0    0  0.61720232650E-01  0.12120267968E+00 -0.47155551972E-01  0.89169676615E+00  0.88000000000E+00 0. -1.
        -11    1    4    4    0    0 -0.19745529302E-01 -0.31157073881E-01  0.17958517262E-01  0.41029485050E-01  0.51100000000E-03 0.  1.
         11    1    4    4    0    0 -0.42907942113E-01 -0.76040189148E-01  0.10673003511E-01  0.87962355510E-01  0.51100000000E-03 0. -1.
</event>
<event>
 8    1  0.1054833E+005  0.1043930E+01  0.7957747E-01            NaN
         13   -1    0    0    0    0  0.00000000000E+00  0.00000000000E+00  0.74505805969E-08  0.10566000000E+00  0.10566000000E+00 0. -1.
     999900   -1    0    0    0    0 -0.00000000000E+00 -0.00000000000E+00 -0.74505805969E-08  0.93827000000E+00  0.93827000000E+00 0. -1.
     999902    2    1    2    0    0 -0.16932317898E-01 -0.14588156697E-01 -0.14173442712E-02  0.10215352111E+01  0.10212897047E+01 0.  0.
     999903    2    3    3    0    0  0.98665684086E-01 -0.65890974861E-01 -0.49289321886E-01  0.13120571959E+00  0.26626411999E-01 0.  0.
         14    1    1    2    0    0  0.16932317898E-01  0.14588156697E-01  0.14173442712E-02  0.22394788902E-01  0.00000000000E+00 0. -1.
     999901    1    3    3    0    0 -0.11559800198E+00  0.51302818164E-01  0.47871977615E-01  0.89032949151E+00  0.88000000000E+00 0. -1.
        -11    1    4    4    0    0  0.60481601886E-01 -0.48776332882E-01 -0.20333613068E-01  0.80317319162E-01  0.51100000000E-03 0. -1.
         11    1    4    4    0    0  0.38184082200E-01 -0.17114641980E-01 -0.28955708818E-01  0.50888400424E-01  0.51100000000E-03 0.  1.
</event>
<event>
 8    1  0.1161823E+005  0.1043930E+01  0.7957747E-01            NaN
         13   -1    0    0    0    0  0.00000000000E+00  0.00000000000E+00  0.74505805969E-08  0.10566000000E+00  0.10566000000E+00 0.  1.
     999900   -1    0    0    0    0 -0.00000000000E+00 -0.00000000000E+00 -0.74505805969E-08  0.93827000000E+00  0.93827000000E+00 0.  1.
     999902    2    1    2    0    0  0.19771822865E-01 -0.14757084838E-01 -0.39573534704E-02  0.10189428597E+01  0.10186364387E+01 0.  0.
     999903    2    3    3    0    0  0.41336729792E-01  0.33980187401E-01  0.11617564923E+00  0.12918317012E+00  0.18114403199E-01 0.  0.
         14    1    1    2    0    0 -0.19771822865E-01  0.14757084838E-01  0.39573534704E-02  0.24987140268E-01  0.00000000000E+00 0.  1.
     999901    1    3    3    0    0 -0.21564906927E-01 -0.48737272239E-01 -0.12013300270E+00  0.88975968961E+00  0.88000000000E+00 0.  1.
        -11    1    4    4    0    0  0.15874496571E-01  0.70230767261E-02  0.54675079750E-01  0.57366791044E-01  0.51100000000E-03 0. -1.
         11    1    4    4    0    0  0.25462233220E-01  0.26957110675E-01  0.61500569480E-01  0.71816379078E-01  0.51100000000E-03 0.  1.
</event>
<event>
 8    1  0.1054833E+005  0.1043930E+01  0.7957747E-01            NaN
         13   -1    0    0    0    0  0.00000000000E+00  0.00000000000E+00  0.74505805969E-08  0.10566000000E+00  0.10566000000E+00 0.  1.
     999900   -1    0    0    0    0 -0.00000000000E+00 -0.00000000000E+00 -0.74505805969E-08  0.93827000000E+00  0.93827000000E+00 0.  1.
     999902    2    1    2    0    0  0.43603016898E-02  0.19129981695E-01 -0.12400304776E-01  0.10207193130E+01  0.10204553788E+01 0.  0.
     999903    2    3    3    0    0  0.94077393072E-01 -0.74761883730E-01 -0.46952073873E-01  0.13051783943E+00  0.19761427629E-01 0.  0.
         14    1    1    2    0    0 -0.43603016898E-02 -0.19129981695E-01  0.12400304776E-01  0.23210686957E-01  0.00000000000E+00 0.  1.
     999901    1    3    3    0    0 -0.89717091382E-01  0.93891865425E-01  0.34551769097E-01  0.89020147362E+00  0.88000000000E+00 0. -1.
        -11    1    4    4    0    0  0.56957242075E-01 -0.37085608197E-01 -0.18421593466E-01  0.70420778091E-01  0.51100000000E-03 0. -1.
         11    1    4    4    0    0  0.37120150997E-01 -0.37676275533E-01 -0.28530480407E-01  0.60097061337E-01  0.51100000000E-03 0.  1.
</event>
<event>
 8    1  0.1054833E+005  0.1043930E+01  0.7957747E-01            NaN
         13   -1    0    0    0    0  0.00000000000E+00  0.00000000000E+00  0.74505805969E-08  0.10566000000E+00  0.10566000000E+00 0.  1.
     999900   -1    0    0    0    0 -0.00000000000E+00 -0.00000000000E+00 -0.74505805969E-08  0.93827000000E+00  0.93827000000E+00 0.  1.
     999902    2    1    2    0    0  0.11321904127E-01 -0.96788823824E-03  0.20731906513E-01  0.10202882093E+01  0.10200142625E+01 0.  0.
     999903    2    3    3    0    0 -0.14028569575E-02 -0.54878400709E-01  0.11953825805E+00  0.13302784276E+00  0.19834438234E-01 0.  0.
         14    1    1    2    0    0 -0.11321904127E-01  0.96788823824E-03 -0.20731906513E-01  0.23641790719E-01  0.00000000000E+00 0. -1.
     999901    1    3    3    0    0  0.12724761085E-01  0.53910512471E-01 -0.98806351533E-01  0.88726036652E+00  0.88000000000E+00 0. -1.
        -11    1    4    4    0    0 -0.10131788171E-01 -0.32698135040E-01  0.63816383495E-01  0.72419700980E-01  0.51100000000E-03 0.  1.
         11    1    4    4    0    0  0.87289312132E-02 -0.22180265669E-01  0.55721874552E-01  0.60608141778E-01  0.51100000000E-03 0. -1.
</event>
<event>
 8    1  0.1054833E+005  0.1043930E+01  0.7957747E-01            NaN
         13   -1    0    0    0    0  0.00000000000E+00  0.00000000000E+00  0.74505805969E-08  0.10566000000E+00  0.10566000000E+00 0.  1.
     999900   -1    0    0    0    0 -0.00000000000E+00 -0.00000000000E+00 -0.74505805969E-08  0.93827000000E+00  0.93827000000E+00 0.  1.
     999902    2    1    2    0    0  0.18240829625E-01 -0.79049601036E-02  0.13161940990E-01  0.10200877486E+01  0.10198090811E+01 0.  0.
     999903    2    3    3    0    0  0.12179813302E+00 -0.27591191179E-01 -0.38608352231E-01  0.13228606693E+00  0.20320915415E-01 0.  0.
         14    1    1    2    0    0 -0.18240829625E-01  0.79049601036E-02 -0.13161940990E-01  0.23842251367E-01  0.00000000000E+00 0. -1.
     999901    1    3    3    0    0 -0.10355730339E+00  0.19686231075E-01  0.51770293221E-01  0.88780168171E+00  0.88000000000E+00 0. -1.
        -11    1    4    4    0    0  0.11290617844E+00 -0.30713325787E-01 -0.34479578918E-01  0.12198449080E+00  0.51100000000E-03 0. -1.
         11    1    4    4    0    0  0.88919545767E-02  0.31221346083E-02 -0.41287733127E-02  0.10301576131E-01  0.51100000000E-03 0.  1.
</event>
<event>
 8    1  0.1054833E+005  0.1043930E+01  0.7957747E-01            NaN
         13   -1    0    0    0    0  0.00000000000E+00  0.00000000000E+00  0.74505805969E-08  0.10566000000E+00  0.10566000000E+00 0.  1.
     999900   -1    0    0    0    0 -0.00000000000E+00 -0.00000000000E+00 -0.74505805969E-08  0.93827000000E+00  0.93827000000E+00 0. -1.
     999902    2    1    2    0    0  0.23210837173E-01  0.34698505897E-02  0.38025174144E-02  0.10201551821E+01  0.10198781073E+01 0.  0.
     999903    2    3    3    0    0  0.77315422184E-01  0.49631293228E-01  0.93726331376E-01  0.13271815496E+00  0.19711511539E-01 0.  0.
         14    1    1    2    0    0 -0.23210837173E-01 -0.34698505897E-02 -0.38025174144E-02  0.23774817856E-01  0.00000000000E+00 0. -1.
     999901    1    3    3    0    0 -0.54104585011E-01 -0.46161442638E-01 -0.89923813961E-01  0.88743702719E+00  0.88000000000E+00 0. -1.
        -11    1    4    4    0    0  0.48726587197E-01  0.23956875923E-01  0.65251707611E-01  0.84889685304E-01  0.51100000000E-03 0. -1.
         11    1    4    4    0    0  0.28588834987E-01  0.25674417304E-01  0.28474623765E-01  0.47828469654E-01  0.51100000000E-03 0.  1.
</event>
<event>
 8    1  0.1054833E+005  0.1043930E+01  0.7957747E-01            NaN
         13   -1    0    0    0    0  0.00000000000E+00  0.00000000000E+00  0.74505805969E-08  0.10566000000E+00  0.10566000000E+00 0.  1.
     999900   -1    0    0    0    0 -0.00000000000E+00 -0.00000000000E+00 -0.74505805969E-08  0.93827000000E+00  0.93827000000E+00 0. -1.
     999902    2    1    2    0    0  0.91839738745E-02 -0.28226049906E-01 -0.86900456713E-02  0.10130014992E+01  0.10125292416E+01 0.  0.
     999903    2    3    3    0    0 -0.99781354728E-01 -0.30193776271E-02 -0.70444409801E-01  0.12377575694E+00  0.19813827035E-01 0.  0.
         14    1    1    2    0    0 -0.91839738745E-02  0.28226049906E-01  0.86900456713E-02  0.30928500823E-01  0.00000000000E+00 0. -1.
     999901    1    3    3    0    0  0.10896532860E+00 -0.25206672278E-01  0.61754364130E-01  0.88922574224E+00  0.88000000000E+00 0. -1.
        -11    1    4    4    0    0 -0.38914468649E-01  0.67842406461E-02 -0.34240222573E-01  0.52278253167E-01  0.51100000000E-03 0.  1.
         11    1    4    4    0    0 -0.60866886078E-01 -0.98036182732E-02 -0.36204187228E-01  0.71497503774E-01  0.51100000000E-03 0. -1.
</event>
<event>
 8    1  0.1054833E+005  0.1043930E+01  0.7957747E-01            NaN
         13   -1    0    0    0    0  0.00000000000E+00  0.00000000000E+00  0.74505805969E-08  0.10566000000E+00  0.10566000000E+00 0.  1.
     999900   -1    0    0    0    0 -0.00000000000E+00 -0.00000000000E+00 -0.74505805969E-08  0.93827000000E+00  0.93827000000E+00 0. -1.
     999902    2    1    2    0    0  0.31545365050E-03  0.22396817808E-01 -0.52525249324E-02  0.10209233493E+01  0.10206640873E+01 0.  0.
     999903    2    3    3    0    0 -0.22114196638E-01  0.42733179951E-01 -0.12213003555E+00  0.13267957119E+00  0.19312189574E-01 0.  0.
         14    1    1    2    0    0 -0.31545365050E-03 -0.22396817808E-01  0.52525249324E-02  0.23006650714E-01  0.00000000000E+00 0.  1.
     999901    1    3    3    0    0  0.22429650288E-01 -0.20336362143E-01  0.11687751062E+00  0.88824377810E+00  0.88000000000E+00 0.  1.
        -11    1    4    4    0    0 -0.82741133761E-02  0.16153389140E-01 -0.24123820928E-01  0.30192926159E-01  0.51100000000E-03 0.  1.
         11    1    4    4    0    0 -0.13840083262E-01  0.26579790810E-01 -0.98006214622E-01  0.10248664503E+00  0.51100000000E-03 0. -1.
</event>
<event>
 8    1  0.1054833E+005  0.1043930E+01  0.7957747E-01            NaN
         13   -1    0    0    0    0  0.00000000000E+00  0.00000000000E+00  0.74505805969E-08  0.10566000000E+00  0.10566000000E+00 0. -1.
     999900   -1    0    0    0    0 -0.00000000000E+00 -0.00000000000E+00 -0.74505805969E-08  0.93827000000E+00  0.93827000000E+00 0. -1.
     999902    2    1    2    0    0 -0.11306380839E-01 -0.16709646170E-01 -0.11802949881E-01  0.10205557375E+01  0.10202880266E+01 0.  0.
     999903    2    3    3    0    0 -0.91478520513E-01 -0.76603347485E-01 -0.57813592088E-01  0.13368945294E+00  0.17148347949E-01 0.  0.
         14    1    1    2    0    0  0.11306380839E-01  0.16709646170E-01  0.11802949881E-01  0.23374262527E-01  0.00000000000E+00 0.  1.
     999901    1    3    3    0    0  0.80172139674E-01  0.59893701316E-01  0.46010642207E-01  0.88686628453E+00  0.88000000000E+00 0.  1.
        -11    1    4    4    0    0 -0.67884426762E-02 -0.41572423011E-02 -0.89774729832E-02  0.12009236432E-01  0.51100000000E-03 0.  1.
         11    1    4    4    0    0 -0.84690077837E-01 -0.72446105184E-01 -0.48836119105E-01  0.12168021651E+00  0.51100000000E-03 0. -1.
</event>
<event>
 8    1  0.1054833E+005  0.1043930E+01  0.7957747E-01            NaN
         13   -1    0    0    0    0  0.00000000000E+00  0.00000000000E+00  0.74505805969E-08  0.10566000000E+00  0.10566000000E+00 0. -1.
     999900   -1    0    0    0    0 -0.00000000000E+00 -0.00000000000E+00 -0.74505805969E-08  0.93827000000E+00  0.93827000000E+00 0.  1.
     999902    2    1    2    0    0 -0.22764150955E-01 -0.40739102897E-02  0.51621752279E-03  0.10207984243E+01  0.10205363067E+01 0.  0.
     999903    2    3    3    0    0 -0.11009240126E+00  0.16847157960E-01 -0.70705381593E-01  0.13336593077E+00  0.19571840899E-01 0.  0.
         14    1    1    2    0    0  0.22764150955E-01  0.40739102897E-02 -0.51621752279E-03  0.23131575698E-01  0.00000000000E+00 0. -1.
     999901    1    3    3    0    0  0.87328250309E-01 -0.20921068250E-01  0.71221599116E-01  0.88743249353E+00  0.88000000000E+00 0.  1.
        -11    1    4    4    0    0 -0.68536952672E-01  0.19860146081E-01 -0.46631015896E-01  0.85243486839E-01  0.51100000000E-03 0. -1.
         11    1    4    4    0    0 -0.41555448591E-01 -0.30129881206E-02 -0.24074365697E-01  0.48122443930E-01  0.51100000000E-03 0.  1.
</event>
<event>
 8    1  0.1054833E+005  0.1043930E+01  0.7957747E-01            NaN
         13   -1    0    0    0    0  0.00000000000E+00  0.00000000000E+00  0.74505805969E-08  0.10566000000E+00  0.10566000000E+00 0.  1.
     999900   -1    0    0    0    0 -0.00000000000E+00 -0.00000000000E+00 -0.74505805969E-08  0.93827000000E+00  0.93827000000E+00 0.  1.
     999902    2    1    2    0    0 -0.13213719342E-01 -0.11876411697E-01  0.16668565805E-01  0.10195682960E+01  0.10192772036E+01 0.  0.
     999903    2    3    3    0    0 -0.97736467973E-01 -0.77901673631E-01 -0.35068033974E-01  0.13154796632E+00  0.21307569297E-01 0.  0.
         14    1    1    2    0    0  0.13213719342E-01  0.11876411697E-01 -0.16668565805E-01  0.24361703956E-01  0.00000000000E+00 0. -1.
     999901    1    3    3    0    0  0.84522748631E-01  0.66025261934E-01  0.51736599779E-01  0.88802032973E+00  0.88000000000E+00 0. -1.
        -11    1    4    4    0    0 -0.51271887416E-01 -0.52489312825E-01 -0.14893560738E-01  0.74873317494E-01  0.51100000000E-03 0. -1.
         11    1    4    4    0    0 -0.46464580557E-01 -0.25412360806E-01 -0.20174473236E-01  0.56674648824E-01  0.51100000000E-03 0.  1.
</event>
<event>
 8    1  0.1054833E+005  0.1043930E+01  0.7957747E-01            NaN
         13   -1    0    0    0    0  0.00000000000E+00  0.00000000000E+00  0.74505805969E-08  0.10566000000E+00  0.10566000000E+00 0. -1.
     999900   -1    0    0    0    0 -0.00000000000E+00 -0.00000000000E+00 -0.74505805969E-08  0.93827000000E+00  0.93827000000E+00 0.  1.
     999902    2    1    2    0    0  0.23096903425E-01 -0.33455962050E-02  0.44184030301E-02  0.10201774791E+01  0.10199009298E+01 0.  0.
     999903    2    3    3    0    0  0.77807279962E-01 -0.68878052598E-01 -0.79264897526E-01  0.13209492502E+00  0.19182968796E-01 0.  0.
         14    1    1    2    0    0 -0.23096903425E-01  0.33455962050E-02 -0.44184030301E-02  0.23752520858E-01  0.00000000000E+00 0. -1.
     999901    1    3    3    0    0 -0.54710376537E-01  0.65532456393E-01  0.83683300556E-01  0.88808255412E+00  0.88000000000E+00 0. -1.
        -11    1    4    4    0    0  0.45569016763E-01 -0.39480381754E-01 -0.33983499203E-01  0.69212536229E-01  0.51100000000E-03 0. -1.
         11    1    4    4    0    0  0.32238263199E-01 -0.29397670844E-01 -0.45281398323E-01  0.62882388792E-01  0.51100000000E-03 0.  1.
</event>
<event>
 8    1  0.1054833E+005  0.1043930E+01  0.7957747E-01            NaN
         13   -1    0    0    0    0  0.00000000000E+00  0.00000000000E+00  0.74505805969E-08  0.10566000000E+00  0.10566000000E+00 0.  1.
     999900   -1    0    0    0    0 -0.00000000000E+00 -0.00000000000E+00 -0.74505805969E-08  0.93827000000E+00  0.93827000000E+00 0. -1.
     999902    2    1    2    0    0  0.45326286302E-02  0.21653701830E-01 -0.66789094316E-02  0.10208207950E+01  0.10205591899E+01 0.  0.
     999903    2    3    3    0    0 -0.38420145373E-01  0.37032363142E-01 -0.11962943624E+00  0.13242940290E+00  0.19463844663E-01 0.  0.
         14    1    1    2    0    0 -0.45326286302E-02 -0.21653701830E-01  0.66789094316E-02  0.23109205015E-01  0.00000000000E+00 0.  1.
     999901    1    3    3    0    0  0.42952774003E-01 -0.15378661312E-01  0.11295052680E+00  0.88839139208E+00  0.88000000000E+00 0.  1.
        -11    1    4    4    0    0 -0.33725148098E-01  0.27842428623E-01 -0.76888319189E-01  0.88457115002E-01  0.51100000000E-03 0.  1.
         11    1    4    4    0    0 -0.46949972746E-02  0.91899345189E-02 -0.42741117047E-01  0.43972287902E-01  0.51100000000E-03 0. -1.
</event>
<event>
 8    1  0.1054833E+005  0.1043930E+01  0.7957747E-01            NaN
         13   -1    0    0    0    0  0.00000000000E+00  0.00000000000E+00  0.74505805969E-08  0.10566000000E+00  0.10566000000E+00 0. -1.
     999900   -1    0    0    0    0 -0.00000000000E+00 -0.00000000000E+00 -0.74505805969E-08  0.93827000000E+00  0.93827000000E+00 0. -1.
     999902    2    1    2    0    0  0.13535230252E-02 -0.22297276678E-01  0.67911123120E-02  0.10205821997E+01  0.10203151016E+01 0.  0.
     999903    2    3    3    0    0  0.28081650805E-02  0.46339154285E-01  0.12045678740E+00  0.13061986268E+00  0.19912505734E-01 0.  0.
         14    1    1    2    0    0 -0.13535230252E-02  0.22297276678E-01 -0.67911123120E-02  0.23347800287E-01  0.00000000000E+00 0.  1.
     999901    1    3    3    0    0 -0.14546420554E-02 -0.68636430963E-01 -0.11366567509E+00  0.88996233703E+00  0.88000000000E+00 0. -1.
        -11    1    4    4    0    0 -0.36950655369E-02  0.56075877816E-02  0.36034712716E-01  0.36658698717E-01  0.51100000000E-03 0. -1.
         11    1    4    4    0    0  0.65032306175E-02  0.40731566503E-01  0.84422074687E-01  0.93961163966E-01  0.51100000000E-03 0.  1.
</event>
<event>
 8    1  0.1054833E+005  0.1043930E+01  0.7957747E-01            NaN
         13   -1    0    0    0    0  0.00000000000E+00  0.00000000000E+00  0.74505805969E-08  0.10566000000E+00  0.10566000000E+00 0. -1.
     999900   -1    0    0    0    0 -0.00000000000E+00 -0.00000000000E+00 -0.74505805969E-08  0.93827000000E+00  0.93827000000E+00 0.  1.
     999902    2    1    2    0    0 -0.11130982028E-01 -0.19038009431E-01 -0.61943233202E-02  0.10210233589E+01  0.10207663715E+01 0.  0.
     999903    2    3    3    0    0  0.78403668310E-01 -0.75648235756E-01 -0.72318717435E-01  0.13220751364E+00  0.19468923782E-01 0.  0.
         14    1    1    2    0    0  0.11130982028E-01  0.19038009431E-01  0.61943233202E-02  0.22906641076E-01  0.00000000000E+00 0. -1.
     999901    1    3    3    0    0 -0.89534650338E-01  0.56610226325E-01  0.66124394115E-01  0.88881584529E+00  0.88000000000E+00 0. -1.
        -11    1    4    4    0    0  0.70765224967E-01 -0.65290360968E-01 -0.70189594674E-01  0.11915279527E+00  0.51100000000E-03 0. -1.
         11    1    4    4    0    0  0.76384433433E-02 -0.10357874788E-01 -0.21291227613E-02  0.13054718364E-01  0.51100000000E-03 0.  1.
</event>
<event>
 8    1  0.1054833E+005  0.1043930E+01  0.7957747E-01            NaN
         13   -1    0    0    0    0  0.00000000000E+00  0.00000000000E+00  0.74505805969E-08  0.10566000000E+00  0.10566000000E+00 0.  1.
     999900   -1    0    0    0    0 -0.00000000000E+00 -0.00000000000E+00 -0.74505805969E-08  0.93827000000E+00  0.93827000000E+00 0. -1.
     999902    2    1    2    0    0 -0.14146715873E-02 -0.21780177983E-01 -0.13083766004E-01  0.10184827530E+01  0.10181647979E+01 0.  0.
     999903    2    3    3    0    0  0.82947798283E-01  0.52709961273E-01 -0.80861745993E-01  0.12873016840E+00  0.19343139216E-01 0.  0.
         14    1    1    2    0    0  0.14146715873E-02  0.21780177983E-01  0.13083766004E-01  0.25447247032E-01  0.00000000000E+00 0.  1.
     999901    1    3    3    0    0 -0.84362469870E-01 -0.74490139255E-01  0.67777979989E-01  0.88975258457E+00  0.88000000000E+00 0.  1.
        -11    1    4    4    0    0  0.19718543064E-01  0.17744735211E-01 -0.31691878549E-01  0.41331983442E-01  0.51100000000E-03 0. -1.
         11    1    4    4    0    0  0.63229255219E-01  0.34965226062E-01 -0.49169867444E-01  0.87398184961E-01  0.51100000000E-03 0.  1.
</event>
<event>
 8    1  0.1054833E+005  0.1043930E+01  0.7957747E-01            NaN
         13   -1    0    0    0    0  0.00000000000E+00  0.00000000000E+00  0.74505805969E-08  0.10566000000E+00  0.10566000000E+00 0.  1.
     999900   -1    0    0    0    0 -0.00000000000E+00 -0.00000000000E+00 -0.74505805969E-08  0.93827000000E+00  0.93827000000E+00 0. -1.
     999902    2    1    2    0    0  0.37152058639E-02  0.15060471411E-01  0.17085121740E-01  0.10208535631E+01  0.10205927079E+01 0.  0.
     999903    2    3    3    0    0 -0.52815922194E-01  0.64145499644E-01 -0.98082649394E-01  0.13019721866E+00  0.20662595991E-01 0.  0.
         14    1    1    2    0    0 -0.37152058639E-02 -0.15060471411E-01 -0.17085121740E-01  0.23076436870E-01  0.00000000000E+00 0. -1.
     999901    1    3    3    0    0  0.56531128058E-01 -0.49085028233E-01  0.11516777113E+00  0.89065634447E+00  0.88000000000E+00 0.  1.
        -11    1    4    4    0    0 -0.54032863689E-02  0.22684046353E-02 -0.15758455913E-01  0.16820559353E-01  0.51100000000E-03 0. -1.
         11    1    4    4    0    0 -0.47412635825E-01  0.61877095008E-01 -0.82324193481E-01  0.11337665931E+00  0.51100000000E-03 0.  1.
</event>
<event>
 8    1  0.1054833E+005  0.1043930E+01  0.7957747E-01            NaN
         13   -1    0    0    0    0  0.00000000000E+00  0.00000000000E+00  0.74505805969E-08  0.10566000000E+00  0.10566000000E+00 0. -1.
     999900   -1    0    0    0    0 -0.00000000000E+00 -0.00000000000E+00 -0.74505805969E-08  0.93827000000E+00  0.93827000000E+00 0. -1.
     999902    2    1    2    0    0 -0.15527723564E-01 -0.15039768008E-01  0.92456620474E-02  0.10204185754E+01  0.10201476765E+01 0.  0.
     999903    2    3    3    0    0 -0.12174328015E+00 -0.42985437105E-01  0.27089774209E-01  0.13341174496E+00  0.19891298664E-01 0.  0.
         14    1    1    2    0    0  0.15527723564E-01  0.15039768008E-01 -0.92456620474E-02  0.23511424617E-01  0.00000000000E+00 0.  1.
     999901    1    3    3    0    0  0.10621555658E+00  0.27945669098E-01 -0.17844112162E-01  0.88700683042E+00  0.88000000000E+00 0.  1.
        -11    1    4    4    0    0 -0.68238032810E-01 -0.34434588669E-01  0.16666476075E-01  0.78231723516E-01  0.51100000000E-03 0.  1.
         11    1    4    4    0    0 -0.53505247335E-01 -0.85508484364E-02  0.10423298135E-01  0.55180021442E-01  0.51100000000E-03 0. -1.
</event>
<event>
 8    1  0.1054833E+005  0.1043930E+01  0.7957747E-01            NaN
         13   -1    0    0    0    0  0.00000000000E+00  0.00000000000E+00  0.74505805969E-08  0.10566000000E+00  0.10566000000E+00 0. -1.
     999900   -1    0    0    0    0 -0.00000000000E+00 -0.00000000000E+00 -0.74505805969E-08  0.93827000000E+00  0.93827000000E+00 0.  1.
     999902    2    1    2    0    0  0.12574092388E-01 -0.16764532957E-01 -0.11460835473E-01  0.10200446883E+01  0.10197650014E+01 0.  0.
     999903    2    3    3    0    0  0.46489440832E-02 -0.36346447817E-02  0.12723438158E+00  0.12904998284E+00  0.20748178022E-01 0.  0.
         14    1    1    2    0    0 -0.12574092388E-01  0.16764532957E-01  0.11460835473E-01  0.23885311687E-01  0.00000000000E+00 0. -1.
     999901    1    3    3    0    0  0.79251483050E-02 -0.13129888175E-01 -0.13869521706E+00  0.89099470547E+00  0.88000000000E+00 0.  1.
        -11    1    4    4    0    0 -0.17794815905E-03 -0.10769216651E-01  0.97330545143E-01  0.97926012028E-01  0.51100000000E-03 0.  1.
         11    1    4    4    0    0  0.48268922423E-02  0.71345718697E-02  0.29903836441E-01  0.31123970816E-01  0.51100000000E-03 0. -1.
</event>
<event>
 8    1  0.1054833E+005  0.1043930E+01  0.7957747E-01            NaN
         13   -1    0    0    0    0  0.00000000000E+00  0.00000000000E+00  0.74505805969E-08  0.10566000000E+00  0.10566000000E+00 0.  1.
     999900   -1    0    0    0    0 -0.00000000000E+00 -0.00000000000E+00 -0.74505805969E-08  0.93827000000E+00  0.93827000000E+00 0.  1.
     999902    2    1    2    0    0 -0.23961115756E-02 -0.23194316877E-01  0.62027878671E-02  0.10198013394E+01  0.10195158555E+01 0.  0.
     999903    2    3    3    0    0 -0.87351728219E-01  0.90265718415E-01 -0.14251738210E-01  0.12822463261E+00  0.21452739294E-01 0.  0.
         14    1    1    2    0    0  0.23961115756E-02  0.23194316877E-01 -0.62027878671E-02  0.24128660622E-01  0.00000000000E+00 0.  1.
     999901    1    3    3    0    0  0.84955616643E-01 -0.11346003529E+00  0.20454526077E-01  0.89157670676E+00  0.88000000000E+00 0. -1.
        -11    1    4    4    0    0 -0.28539885702E-01  0.19158995168E-01 -0.10192525896E-01  0.35857229074E-01  0.51100000000E-03 0.  1.
         11    1    4    4    0    0 -0.58811842517E-01  0.71106723246E-01 -0.40592123140E-02  0.92367403539E-01  0.51100000000E-03 0. -1.
</event>
<event>
 8    1  0.1054833E+005  0.1043930E+01  0.7957747E-01            NaN
         13   -1    0    0    0    0  0.00000000000E+00  0.00000000000E+00  0.74505805969E-08  0.10566000000E+00  0.10566000000E+00 0.  1.
     999900   -1    0    0    0    0 -0.00000000000E+00 -0.00000000000E+00 -0.74505805969E-08  0.93827000000E+00  0.93827000000E+00 0. -1.
     999902    2    1    2    0    0 -0.31051405356E-01 -0.53707786335E-02 -0.14913383231E-01  0.10090667810E+01  0.10084643397E+01 0.  0.
     999903    2    3    3    0    0 -0.83189017636E-01 -0.57301660059E-01  0.66092844485E-01  0.12228769017E+00  0.19547945507E-01 0.  0.
         14    1    1    2    0    0  0.31051405356E-01  0.53707786335E-02  0.14913383231E-01  0.34863218972E-01  0.00000000000E+00 0. -1.
     999901    1    3    3    0    0  0.52137612280E-01  0.51930881425E-01 -0.81006227716E-01  0.88677909086E+00  0.88000000000E+00 0. -1.
        -11    1    4    4    0    0 -0.35499207420E-01 -0.34021810998E-01  0.24972247187E-01  0.55150263840E-01  0.51100000000E-03 0. -1.
         11    1    4    4    0    0 -0.47689810216E-01 -0.23279849061E-01  0.41120597298E-01  0.67137426327E-01  0.51100000000E-03 0.  1.
</event>
<event>
 8    1  0.1054833E+005  0.1043930E+01  0.7957747E-01            NaN
         13   -1    0    0    0    0  0.00000000000E+00  0.00000000000E+00  0.74505805969E-08  0.10566000000E+00  0.10566000000E+00 0.  1.
     999900   -1    0    0    0    0 -0.00000000000E+00 -0.00000000000E+00 -0.74505805969E-08  0.93827000000E+00  0.93827000000E+00 0. -1.
     999902    2    1    2    0    0  0.16668767418E-01 -0.15020389529E-01 -0.22698703704E-02  0.10213775673E+01  0.10211285535E+01 0.  0.
     999903    2    3    3    0    0  0.99920848532E-01 -0.15007182241E-01  0.84017662037E-01  0.13324669439E+00  0.22052721846E-01 0.  0.
         14    1    1    2    0    0 -0.16668767418E-01  0.15020389529E-01  0.22698703704E-02  0.22552432693E-01  0.00000000000E+00 0.  1.
     999901    1    3    3    0    0 -0.83252081114E-01 -0.13207287846E-04 -0.86287532408E-01  0.88813087292E+00  0.88000000000E+00 0. -1.
        -11    1    4    4    0    0  0.30089636255E-01 -0.61166830630E-02  0.13307011462E-01  0.33468458236E-01  0.51100000000E-03 0. -1.
         11    1    4    4    0    0  0.69831212277E-01 -0.88904991783E-02  0.70710650576E-01  0.99778236152E-01  0.51100000000E-03 0.  1.
</event>
<event>
 8    1  0.1054833E+005  0.1043930E+01  0.7957747E-01            NaN
         13   -1    0    0    0    0  0.00000000000E+00  0.00000000000E+00  0.74505805969E-08  0.10566000000E+00  0.10566000000E+00 0. -1.
     999900   -1    0    0    0    0 -0.00000000000E+00 -0.00000000000E+00 -0.74505805969E-08  0.93827000000E+00  0.93827000000E+00 0.  1.
     999902    2    1    2    0    0 -0.25739690850E-02  0.12447786191E-01 -0.24332521788E-01  0.10164774170E+01  0.10161066356E+01 0.  0.
     999903    2    3    3    0    0 -0.15266590164E-02  0.86843989995E-02 -0.12835256342E+00  0.13034230933E+00  0.20904248211E-01 0.  0.
         14    1    1    2    0    0  0.25739690850E-02 -0.12447786191E-01  0.24332521788E-01  0.27452583020E-01  0.00000000000E+00 0. -1.
     999901    1    3    3    0    0 -0.10473100686E-02  0.37633871912E-02  0.10402004163E+00  0.88613510765E+00  0.88000000000E+00 0. -1.
        -11    1    4    4    0    0  0.22526162075E-02  0.13200758528E-01 -0.49927269080E-01  0.51694560877E-01  0.51100000000E-03 0. -1.
         11    1    4    4    0    0 -0.37792752239E-02 -0.45163595284E-02 -0.78425294337E-01  0.78647748458E-01  0.51100000000E-03 0.  1.
</event>
<event>
 8    1  0.1100680E+005  0.1043930E+01  0.7957747E-01            NaN
         13   -1    0    0    0    0  0.00000000000E+00  0.00000000000E+00  0.74505805969E-08  0.10566000000E+00  0.10566000000E+00 0. -1.
     999900   -1    0    0    0    0 -0.00000000000E+00 -0.00000000000E+00 -0.74505805969E-08  0.93827000000E+00  0.93827000000E+00 0.  1.
     999902    2    1    2    0    0  0.14138957908E-01 -0.16446148860E-01  0.43780153456E-02  0.10218041563E+01  0.10215645749E+01 0.  0.
     999903    2    3    3    0    0  0.19194218415E-01  0.10767768466E+00 -0.64466339183E-01  0.13041657116E+00  0.29827359121E-01 0.  0.
         14    1    1    2    0    0 -0.14138957908E-01  0.16446148860E-01 -0.43780153456E-02  0.22125843744E-01  0.00000000000E+00 0.  1.
     999901    1    3    3    0    0 -0.50552605070E-02 -0.12412383352E+00  0.68844354529E-01  0.89138758509E+00  0.88000000000E+00 0. -1.
        -11    1    4    4    0    0  0.17655463000E-01  0.29258191944E-01 -0.26657583502E-01  0.43343339150E-01  0.51100000000E-03 0. -1.
         11    1    4    4    0    0  0.15387554149E-02  0.78419492716E-01 -0.37808755682E-01  0.87073232013E-01  0.51100000000E-03 0.  1.
</event>
<event>
 8    1  0.1054833E+005  0.1043930E+01  0.7957747E-01            NaN
         13   -1    0    0    0    0  0.00000000000E+00  0.00000000000E+00  0.74505805969E-08  0.10566000000E+00  0.10566000000E+00 0. -1.
     999900   -1    0    0    0    0 -0.00000000000E+00 -0.00000000000E+00 -0.74505805969E-08  0.93827000000E+00  0.93827000000E+00 0.  1.
     999902    2    1    2    0    0  0.30739185257E-03 -0.14467141890E-01  0.18965267204E-01  0.10200747271E+01  0.10197957515E+01 0.  0.
     999903    2    3    3    0    0  0.96386456471E-01  0.71721777582E-01  0.46170800121E-01  0.13024336247E+00  0.19930587342E-01 0.  0.
         14    1    1    2    0    0 -0.30739185257E-03  0.14467141890E-01 -0.18965267204E-01  0.23855272883E-01  0.00000000000E+00 0.  1.
     999901    1    3    3    0    0 -0.96079064619E-01 -0.86188919472E-01 -0.27205532917E-01  0.88983136465E+00  0.88000000000E+00 0.  1.
        -11    1    4    4    0    0  0.57002695153E-01  0.54231891387E-01  0.29092541126E-01  0.83887081057E-01  0.51100000000E-03 0.  1.
         11    1    4    4    0    0  0.39383761318E-01  0.17489886195E-01  0.17078258995E-01  0.46356281408E-01  0.51100000000E-03 0. -1.
</event>
<event>
 8    1  0.1054833E+005  0.1043930E+01  0.7957747E-01            NaN
         13   -1    0    0    0    0  0.00000000000E+00  0.00000000000E+00  0.74505805969E-08  0.10566000000E+00  0.10566000000E+00 0.  1.
     999900   -1    0    0    0    0 -0.00000000000E+00 -0.00000000000E+00 -0.74505805969E-08  0.93827000000E+00  0.93827000000E+00 0.  1.
     999902    2    1    2    0    0  0.14372898244E-03  0.23425564121E-01 -0.51249494444E-02  0.10199499496E+01  0.10196680130E+01 0.  0.
     999903    2    3    3    0    0  0.27941060154E-01  0.80273638000E-01 -0.99792248170E-01  0.13261332089E+00  0.20080843679E-01 0.  0.
         14    1    1    2    0    0 -0.14372898244E-03 -0.23425564121E-01  0.51249494444E-02  0.23980050443E-01  0.00000000000E+00 0. -1.
     999901    1    3    3    0    0 -0.27797331171E-01 -0.56848073879E-01  0.94667298725E-01  0.88733662867E+00  0.88000000000E+00 0. -1.
        -11    1    4    4    0    0  0.11145344756E-01  0.31577644620E-01 -0.54769976552E-01  0.64197957927E-01  0.51100000000E-03 0. -1.
         11    1    4    4    0    0  0.16795715398E-01  0.48695993380E-01 -0.45022271617E-01  0.68415362964E-01  0.51100000000E-03 0.  1.
</event>
<event>
 8    1  0.1054833E+005  0.1043930E+01  0.7957747E-01            NaN
         13   -1    0    0    0    0  0.00000000000E+00  0.00000000000E+00  0.74505805969E-08  0.10566000000E+00  0.10566000000E+00 0. -1.
     999900   -1    0    0    0    0 -0.00000000000E+00 -0.00000000000E+00 -0.74505805969E-08  0.93827000000E+00  0.93827000000E+00 0.  1.
     999902    2    1    2    0    0  0.10322445240E-01  0.55709592788E-02 -0.20648893259E-01  0.10201820473E+01  0.10199056057E+01 0.  0.
     999903    2    3    3    0    0 -0.24001988698E-01  0.12240734054E+00  0.31653541137E-01  0.13025820149E+00  0.20139511201E-01 0.  0.
         14    1    1    2    0    0 -0.10322445240E-01 -0.55709592788E-02  0.20648893259E-01  0.23747952667E-01  0.00000000000E+00 0. -1.
     999901    1    3    3    0    0  0.34324433939E-01 -0.11683638126E+00 -0.52302434397E-01  0.88992384584E+00  0.88000000000E+00 0.  1.
        -11    1    4    4    0    0 -0.11829187522E-01  0.10015796402E+00  0.22890041293E-01  0.10342031979E+00  0.51100000000E-03 0. -1.
         11    1    4    4    0    0 -0.12172801176E-01  0.22249376512E-01  0.87634998439E-02  0.26837881700E-01  0.51100000000E-03 0.  1.
</event>
<event>
 8    1  0.1054833E+005  0.1043930E+01  0.7957747E-01            NaN
         13   -1    0    0    0    0  0.00000000000E+00  0.00000000000E+00  0.74505805969E-08  0.10566000000E+00  0.10566000000E+00 0. -1.
     999900   -1    0    0    0    0 -0.00000000000E+00 -0.00000000000E+00 -0.74505805969E-08  0.93827000000E+00  0.93827000000E+00 0. -1.
     999902    2    1    2    0    0 -0.15124551865E-01 -0.12106076436E-01  0.12394872403E-01  0.10209312605E+01  0.10206721789E+01 0.  0.
     999903    2    3    3    0    0 -0.51306668669E-01  0.10201124999E+00  0.55955538887E-01  0.13175780082E+00  0.34502556006E-01 0.  0.
         14    1    1    2    0    0  0.15124551865E-01  0.12106076436E-01 -0.12394872403E-01  0.22998739481E-01  0.00000000000E+00 0. -1.
     999901    1    3    3    0    0  0.36182116803E-01 -0.11411732643E+00 -0.43560666484E-01  0.88917345970E+00  0.88000000000E+00 0. -1.
        -11    1    4    4    0    0  0.43612650084E-02  0.16219638304E-01  0.10700451818E-01  0.19921297380E-01  0.51100000000E-03 0. -1.
         11    1    4    4    0    0 -0.55667933677E-01  0.85791611685E-01  0.45255087069E-01  0.11183650344E+00  0.51100000000E-03 0.  1.
</event>
<event>
 8    1  0.1054833E+005  0.1043930E+01  0.7957747E-01            NaN
         13   -1    0    0    0    0  0.00000000000E+00  0.00000000000E+00  0.74505805969E-08  0.10566000000E+00  0.10566000000E+00 0. -1.
     999900   -1    0    0    0    0 -0.00000000000E+00 -0.00000000000E+00 -0.74505805969E-08  0.93827000000E+00  0.93827000000E+00 0.  1.
     999902    2    1    2    0    0  0.21639162410E-02  0.15124039607E-01 -0.18828697022E-01  0.10196825478E+01  0.10193942119E+01 0.  0.
     999903    2    3    3    0    0 -0.36366126122E-01  0.11672302553E+00  0.40814307810E-01  0.13099576036E+00  0.23394907415E-01 0.  0.
         14    1    1    2    0    0 -0.21639162410E-02 -0.15124039607E-01  0.18828697022E-01  0.24247452218E-01  0.00000000000E+00 0. -1.
     999901    1    3    3    0    0  0.38530042363E-01 -0.10159898592E+00 -0.59643004832E-01  0.88868678742E+00  0.88000000000E+00 0.  1.
        -11    1    4    4    0    0 -0.32209965110E-01  0.85634119222E-01  0.20934445502E-01  0.93857319144E-01  0.51100000000E-03 0. -1.
         11    1    4    4    0    0 -0.41561610113E-02  0.31088906309E-01  0.19879862308E-01  0.37138441220E-01  0.51100000000E-03 0.  1.
</event>
<event>
 8    1  0.1054833E+005  0.1043930E+01  0.7957747E-01            NaN
         13   -1    0    0    0    0  0.00000000000E+00  0.00000000000E+00  0.74505805969E-08  0.10566000000E+00  0.10566000000E+00 0.  1.
     999900   -1    0    0    0    0 -0.00000000000E+00 -0.00000000000E+00 -0.74505805969E-08  0.93827000000E+00  0.93827000000E+00 0.  1.
     999902    2    1    2    0    0 -0.45119417572E-02 -0.20279648473E-01  0.10174507156E-01  0.10207968559E+01  0.10205347023E+01 0.  0.
     999903    2    3    3    0    0 -0.42194645326E-01 -0.11800438055E+00 -0.40488125217E-01  0.13313880702E+00  0.19525156251E-01 0.  0.
         14    1    1    2    0    0  0.45119417572E-02  0.20279648473E-01 -0.10174507156E-01  0.23133144111E-01  0.00000000000E+00 0. -1.
     999901    1    3    3    0    0  0.37682703569E-01  0.97724732080E-01  0.50662632372E-01  0.88765804887E+00  0.88000000000E+00 0. -1.
        -11    1    4    4    0    0 -0.23846861360E-01 -0.78090119941E-01 -0.17307132305E-01  0.83465786876E-01  0.51100000000E-03 0. -1.
         11    1    4    4    0    0 -0.18347783966E-01 -0.39914260611E-01 -0.23180992911E-01  0.49673020141E-01  0.51100000000E-03 0.  1.
</event>
<event>
 8    1  0.1054833E+005  0.1043930E+01  0.7957747E-01            NaN
         13   -1    0    0    0    0  0.00000000000E+00  0.00000000000E+00  0.74505805969E-08  0.10566000000E+00  0.10566000000E+00 0. -1.
     999900   -1    0    0    0    0 -0.00000000000E+00 -0.00000000000E+00 -0.74505805969E-08  0.93827000000E+00  0.93827000000E+00 0.  1.
     999902    2    1    2    0    0 -0.15753167402E-01 -0.16423634304E-01 -0.58237140488E-02  0.10204392850E+01  0.10201688687E+01 0.  0.
     999903    2    3    3    0    0 -0.50316012157E-01  0.11596610119E+00 -0.21708435564E-01  0.12972386652E+00  0.19421319841E-01 0.  0.
         14    1    1    2    0    0  0.15753167402E-01  0.16423634304E-01  0.58237140488E-02  0.23490715023E-01  0.00000000000E+00 0.  1.
     999901    1    3    3    0    0  0.34562844755E-01 -0.13238973550E+00  0.15884721515E-01  0.89071541846E+00  0.88000000000E+00 0.  1.
        -11    1    4    4    0    0 -0.85092937973E-03  0.16132455402E-01 -0.58227088633E-02  0.17179792130E-01  0.51100000000E-03 0.  1.
         11    1    4    4    0    0 -0.49465082777E-01  0.99833645792E-01 -0.15885726701E-01  0.11254407439E+00  0.51100000000E-03 0. -1.
</event>
<event>
 8    1  0.1054833E+005  0.1043930E+01  0.7957747E-01            NaN
         13   -1    0    0    0    0  0.00000000000E+00  0.00000000000E+00  0.74505805969E-08  0.10566000000E+00  0.10566000000E+00 0. -1.
     999900   -1    0    0    0    0 -0.00000000000E+00 -0.00000000000E+00 -0.74505805969E-08  0.93827000000E+00  0.93827000000E+00 0.  1.
     999902    2    1    2    0    0 -0.15264204534E-02  0.15485390136E-01 -0.17606256281E-01  0.10204330315E+01  0.10201624696E+01 0.  0.
     999903    2    3    3    0    0  0.55823268659E-01  0.79281225978E-01  0.84854124746E-01  0.13034481950E+00  0.19692622166E-01 0.  0.
         14    1    1    2    0    0  0.15264204534E-02 -0.15485390136E-01  0.17606256281E-01  0.23496968471E-01  0.00000000000E+00 0. -1.
     999901    1    3    3    0    0 -0.57349689113E-01 -0.63795835842E-01 -0.10246038103E+00  0.89008821203E+00  0.88000000000E+00 0.  1.
        -11    1    4    4    0    0  0.38945223691E-02  0.90609639138E-02  0.22436002324E-02  0.10127350815E-01  0.51100000000E-03 0.  1.
         11    1    4    4    0    0  0.51928746290E-01  0.70220262064E-01  0.82610524514E-01  0.12021746869E+00  0.51100000000E-03 0. -1.
</event>
<event>
 8    1  0.1054833E+005  0.1043930E+01  0.7957747E-01            NaN
         13   -1    0    0    0    0  0.00000000000E+00  0.00000000000E+00  0.74505805969E-08  0.10566000000E+00  0.10566000000E+00 0.  1.
     999900   -1    0    0    0    0 -0.00000000000E+00 -0.00000000000E+00 -0.74505805969E-08  0.93827000000E+00  0.93827000000E+00 0. -1.
     999902    2    1    2    0    0 -0.12763024292E-01 -0.18607921352E-01 -0.56717654917E-02  0.10206637487E+01  0.10203985346E+01 0.  0.
     999903    2    3    3    0    0  0.43992495413E-01  0.98595602952E-01  0.66374673946E-01  0.12816806548E+00  0.19105577512E-01 0.  0.
         14    1    1    2    0    0  0.12763024292E-01  0.18607921352E-01  0.56717654917E-02  0.23266251307E-01  0.00000000000E+00 0.  1.
     999901    1    3    3    0    0 -0.56755519704E-01 -0.11720352430E+00 -0.72046439438E-01  0.89249568322E+00  0.88000000000E+00 0. -1.
        -11    1    4    4    0    0  0.19611828608E-01  0.64582731813E-01  0.45489225580E-01  0.81394617971E-01  0.51100000000E-03 0. -1.
         11    1    4    4    0    0  0.24380666805E-01  0.34012871139E-01  0.20885448366E-01  0.46773447504E-01  0.51100000000E-03 0.  1.
</event>
<event>
 8    1  0.1054833E+005  0.1043930E+01  0.7957747E-01            NaN
         13   -1    0    0    0    0  0.00000000000E+00  0.00000000000E+00  0.74505805969E-08  0.10566000000E+00  0.10566000000E+00 0.  1.
     999900   -1    0    0    0    0 -0.00000000000E+00 -0.00000000000E+00 -0.74505805969E-08  0.93827000000E+00  0.93827000000E+00 0.  1.
     999902    2    1    2    0    0 -0.11803705793E-01 -0.15653667624E-02  0.22203936882E-01  0.10187349081E+01  0.10184233011E+01 0.  0.
     999903    2    3    3    0    0 -0.52734729744E-01 -0.69864330941E-01  0.96621999025E-01  0.13201164505E+00  0.20719248898E-01 0.  0.
         14    1    1    2    0    0  0.11803705793E-01  0.15653667624E-02 -0.22203936882E-01  0.25195091915E-01  0.00000000000E+00 0. -1.
     999901    1    3    3    0    0  0.40931023951E-01  0.68298964178E-01 -0.74418062143E-01  0.88672326303E+00  0.88000000000E+00 0.  1.
        -11    1    4    4    0    0 -0.41594208529E-02 -0.15548669394E-01  0.25684757482E-01  0.30315504113E-01  0.51100000000E-03 0.  1.
         11    1    4    4    0    0 -0.48575308891E-01 -0.54315661546E-01  0.70937241543E-01  0.10169614094E+00  0.51100000000E-03 0. -1.
</event>
<event>
 7    1  0.1054833E+005  0.1043930E+01  0.7957747E-01            NaN
         13   -1    0    0    0    0  0.00000000000E+00  0.00000000000E+00  0.74505805969E-08  0.10566000000E+00  0.10566000000E+00 0. -1.
     999900   -1    0    0    0    0 -0.00000000000E+00 -0.00000000000E+00 -0.74505805969E-08  0.93827000000E+00  0.93827000000E+00 0. -1.
     999903    2    1    2    0    0 -0.93585887829E-01 -0.58907364932E-01 -0.12063389495E-01  0.11226081074E+00  0.15118472771E-01 0.  0.
         14    1    1    2    0    0  0.49531883870E-03 -0.63966002621E-02 -0.42209679729E-01  0.42694483233E-01  0.00000000000E+00 0.  1.
     999901    1    1    2    0    0  0.93090568991E-01  0.65303965194E-01  0.54273069224E-01  0.88897470602E+00  0.88000000000E+00 0.  1.
        -11    1    3    3    0    0 -0.77372504835E-01 -0.54062314087E-01 -0.13123600558E-01  0.95298102402E-01  0.51100000000E-03 0. -1.
         11    1    3    3    0    0 -0.16213382994E-01 -0.48450508450E-02  0.10602110631E-02  0.16962708342E-01  0.51100000000E-03 0.  1.
</event>
<event>
 8    1  0.1054833E+005  0.1043930E+01  0.7957747E-01            NaN
         13   -1    0    0    0    0  0.00000000000E+00  0.00000000000E+00  0.74505805969E-08  0.10566000000E+00  0.10566000000E+00 0.  1.
     999900   -1    0    0    0    0 -0.00000000000E+00 -0.00000000000E+00 -0.74505805969E-08  0.93827000000E+00  0.93827000000E+00 0. -1.
     999902    2    1    2    0    0  0.28619647004E-02 -0.80060373124E-03 -0.23846748913E-01  0.10198987861E+01  0.10196156308E+01 0.  0.
     999903    2    3    3    0    0  0.76537494732E-01 -0.10118485685E+00 -0.26660579637E-01  0.13112828723E+00  0.19684457068E-01 0.  0.
         14    1    1    2    0    0 -0.28619647004E-02  0.80060373124E-03  0.23846748913E-01  0.24031213910E-01  0.00000000000E+00 0.  1.
     999901    1    3    3    0    0 -0.73675530031E-01  0.10038425312E+00  0.28138307238E-02  0.88877049886E+00  0.88000000000E+00 0. -1.
        -11    1    4    4    0    0  0.57897885800E-02 -0.11657888032E-01  0.27008911790E-02  0.13303531085E-01  0.51100000000E-03 0.  1.
         11    1    4    4    0    0  0.70747706152E-01 -0.89526968817E-01 -0.29361470816E-01  0.11782475615E+00  0.51100000000E-03 0. -1.
</event>
<event>
 8    1  0.1054833E+005  0.1043930E+01  0.7957747E-01            NaN
         13   -1    0    0    0    0  0.00000000000E+00  0.00000000000E+00  0.74505805969E-08  0.10566000000E+00  0.10566000000E+00 0.  1.
     999900   -1    0    0    0    0 -0.00000000000E+00 -0.00000000000E+00 -0.74505805969E-08  0.93827000000E+00  0.93827000000E+00 0.  1.
     999902    2    1    2    0    0  0.91968043244E-02  0.21302685600E-01  0.24604355439E-02  0.10205967755E+01  0.10203300146E+01 0.  0.
     999903    2    3    3    0    0  0.83675400616E-01 -0.35032025104E-01  0.92328051142E-01  0.13110430824E+00  0.20857975952E-01 0.  0.
         14    1    1    2    0    0 -0.91968043244E-02 -0.21302685600E-01 -0.24604355439E-02  0.23333224522E-01  0.00000000000E+00 0. -1.
     999901    1    3    3    0    0 -0.74478596292E-01  0.56334710704E-01 -0.89867615598E-01  0.88949246724E+00  0.88000000000E+00 0.  1.
        -11    1    4    4    0    0  0.44014795589E-01 -0.29570484979E-01  0.53718916225E-01  0.75483103368E-01  0.51100000000E-03 0. -1.
         11    1    4    4    0    0  0.39660605027E-01 -0.54615401255E-02  0.38609134917E-01  0.55621204875E-01  0.51100000000E-03 0.  1.
</event>
<event>
 8    1  0.1054833E+005  0.1043930E+01  0.7957747E-01            NaN
         13   -1    0    0    0    0  0.00000000000E+00  0.00000000000E+00  0.74505805969E-08  0.10566000000E+00  0.10566000000E+00 0.  1.
     999900   -1    0    0    0    0 -0.00000000000E+00 -0.00000000000E+00 -0.74505805969E-08  0.93827000000E+00  0.93827000000E+00 0. -1.
     999902    2    1    2    0    0 -0.29988859509E-02 -0.19883524542E-01  0.14965108547E-01  0.10188640402E+01  0.10185556588E+01 0.  0.
     999903    2    3    3    0    0 -0.79339699350E-01 -0.52532265924E-01 -0.85275536427E-01  0.12928995843E+00  0.19737005425E-01 0.  0.
         14    1    1    2    0    0  0.29988859509E-02  0.19883524542E-01 -0.14965108547E-01  0.25065959766E-01  0.00000000000E+00 0. -1.
     999901    1    3    3    0    0  0.76340813399E-01  0.32648741382E-01  0.10024064497E+00  0.88957408180E+00  0.88000000000E+00 0.  1.
        -11    1    4    4    0    0 -0.42609658905E-01 -0.35773432972E-01 -0.59114699900E-01  0.81179618156E-01  0.51100000000E-03 0. -1.
         11    1    4    4    0    0 -0.36730040445E-01 -0.16758832952E-01 -0.26160836527E-01  0.48110340279E-01  0.51100000000E-03 0.  1.
</event>
<event>
 8    1  0.1054833E+005  0.1043930E+01  0.7957747E-01            NaN
         13   -1    0    0    0    0  0.00000000000E+00  0.00000000000E+00  0.74505805969E-08  0.10566000000E+00  0.10566000000E+00 0. -1.
     999900   -1    0    0    0    0 -0.00000000000E+00 -0.00000000000E+00 -0.74505805969E-08  0.93827000000E+00  0.93827000000E+00 0.  1.
     999902    2    1    2    0    0 -0.22851931203E-01  0.22170022395E-02 -0.70169811902E-02  0.10199224203E+01  0.10196398283E+01 0.  0.
     999903    2    3    3    0    0 -0.58369468107E-01  0.11793312760E-01 -0.11663313991E+00  0.13235895585E+00  0.19223080809E-01 0.  0.
         14    1    1    2    0    0  0.22851931203E-01 -0.22170022395E-02  0.70169811902E-02  0.24007579713E-01  0.00000000000E+00 0.  1.
     999901    1    3    3    0    0  0.35517536904E-01 -0.95763105202E-02  0.10961615872E+00  0.88756346444E+00  0.88000000000E+00 0. -1.
        -11    1    4    4    0    0 -0.42384717976E-01  0.96048775036E-02 -0.64442913628E-01  0.77729455341E-01  0.51100000000E-03 0. -1.
         11    1    4    4    0    0 -0.15984750131E-01  0.21884352562E-02 -0.52190226281E-01  0.54629500510E-01  0.51100000000E-03 0.  1.
</event>
<event>
 8    1  0.1054833E+005  0.1043930E+01  0.7957747E-01            NaN
         13   -1    0    0    0    0  0.00000000000E+00  0.00000000000E+00  0.74505805969E-08  0.10566000000E+00  0.10566000000E+00 0.  1.
     999900   -1    0    0    0    0 -0.00000000000E+00 -0.00000000000E+00 -0.74505805969E-08  0.93827000000E+00  0.93827000000E+00 0. -1.
     999902    2    1    2    0    0 -0.99447824420E-02 -0.83813777241E-02  0.13343312751E-01  0.10252969598E+01  0.10251276338E+01 0.  0.
     999903    2    3    3    0    0 -0.57345544121E-01 -0.10603254599E+00  0.62401550871E-01  0.13727145706E+00  0.20447179052E-01 0.  0.
         14    1    1    2    0    0  0.99447824420E-02  0.83813777241E-02 -0.13343312751E-01  0.18633040159E-01  0.00000000000E+00 0. -1.
     999901    1    3    3    0    0  0.47400761679E-01  0.97651168266E-01 -0.49058238120E-01  0.88802550279E+00  0.88000000000E+00 0. -1.
        -11    1    4    4    0    0 -0.32179810972E-01 -0.68417811603E-01  0.48885666499E-01  0.90036696346E-01  0.51100000000E-03 0.  1.
         11    1    4    4    0    0 -0.25165733149E-01 -0.37614734387E-01  0.13515884372E-01  0.47234760709E-01  0.51100000000E-03 0. -1.
</event>
<event>
 8    1  0.1054833E+005  0.1043930E+01  0.7957747E-01            NaN
         13   -1    0    0    0    0  0.00000000000E+00  0.00000000000E+00  0.74505805969E-08  0.10566000000E+00  0.10566000000E+00 0.  1.
     999900   -1    0    0    0    0 -0.00000000000E+00 -0.00000000000E+00 -0.74505805969E-08  0.93827000000E+00  0.93827000000E+00 0. -1.
     999902    2    1    2    0    0 -0.14362593252E-01 -0.26567951211E-02  0.19021888299E-01  0.10199471962E+01  0.10196651941E+01 0.  0.
     999903    2    3    3    0    0 -0.11891230930E+00 -0.19506777305E-01  0.52485886618E-01  0.13296669795E+00  0.20117723706E-01 0.  0.
         14    1    1    2    0    0  0.14362593252E-01  0.26567951211E-02 -0.19021888299E-01  0.23982803833E-01  0.00000000000E+00 0. -1.
     999901    1    3    3    0    0  0.10454971605E+00  0.16849982184E-01 -0.33463998320E-01  0.88698049821E+00  0.88000000000E+00 0. -1.
        -11    1    4    4    0    0 -0.63097554505E-01 -0.24415543735E-02  0.20393798766E-01  0.66358350803E-01  0.51100000000E-03 0. -1.
         11    1    4    4    0    0 -0.55814754795E-01 -0.17065222932E-01  0.32092087853E-01  0.66608347152E-01  0.51100000000E-03 0.  1.
</event>
<event>
 8    1  0.1054833E+005  0.1043930E+01  0.7957747E-01            NaN
         13   -1    0    0    0    0  0.00000000000E+00  0.00000000000E+00  0.74505805969E-08  0.10566000000E+00  0.10566000000E+00 0.  1.
     999900   -1    0    0    0    0 -0.00000000000E+00 -0.00000000000E+00 -0.74505805969E-08  0.93827000000E+00  0.93827000000E+00 0.  1.
     999902    2    1    2    0    0 -0.18865906431E-02 -0.94515466270E-02  0.21700191281E-01  0.10201857531E+01  0.10199093987E+01 0.  0.
     999903    2    3    3    0    0  0.90218228710E-01 -0.18410480474E-01 -0.87559592904E-01  0.12861340010E+00  0.19911047005E-01 0.  0.
         14    1    1    2    0    0  0.18865906431E-02  0.94515466270E-02 -0.21700191281E-01  0.23744246872E-01  0.00000000000E+00 0. -1.
     999901    1    3    3    0    0 -0.92104819353E-01  0.89589338475E-02  0.10925978419E+00  0.89157235303E+00  0.88000000000E+00 0. -1.
        -11    1    4    4    0    0  0.20895390080E-01 -0.18310773074E-02 -0.31877633993E-01  0.38163003560E-01  0.51100000000E-03 0.  1.
         11    1    4    4    0    0  0.69322838630E-01 -0.16579403167E-01 -0.55681958911E-01  0.90450396540E-01  0.51100000000E-03 0. -1.
</event>
<event>
 8    1  0.1054833E+005  0.1043930E+01  0.7957747E-01            NaN
         13   -1    0    0    0    0  0.00000000000E+00  0.00000000000E+00  0.74505805969E-08  0.10566000000E+00  0.10566000000E+00 0. -1.
     999900   -1    0    0    0    0 -0.00000000000E+00 -0.00000000000E+00 -0.74505805969E-08  0.93827000000E+00  0.93827000000E+00 0.  1.
     999902    2    1    2    0    0  0.39695026496E-02  0.23520524026E-01  0.42272436512E-02  0.10197051865E+01  0.10194173952E+01 0.  0.
     999903    2    3    3    0    0 -0.68432849833E-01  0.73703180748E-01 -0.80006157988E-01  0.13130456421E+00  0.26920057154E-01 0.  0.
         14    1    1    2    0    0 -0.39695026496E-02 -0.23520524026E-01 -0.42272436512E-02  0.24224813532E-01  0.00000000000E+00 0.  1.
     999901    1    3    3    0    0  0.72402352482E-01 -0.50182656722E-01  0.84233401639E-01  0.88840062226E+00  0.88000000000E+00 0. -1.
        -11    1    4    4    0    0 -0.52571436975E-01  0.51233213743E-01 -0.42606423965E-01  0.84877362472E-01  0.51100000000E-03 0.  1.
         11    1    4    4    0    0 -0.15861412858E-01  0.22469967005E-01 -0.37399734023E-01  0.46427201736E-01  0.51100000000E-03 0. -1.
</event>
<event>
 8    1  0.1054833E+005  0.1043930E+01  0.7957747E-01            NaN
         13   -1    0    0    0    0  0.00000000000E+00  0.00000000000E+00  0.74505805969E-08  0.10566000000E+00  0.10566000000E+00 0. -1.
     999900   -1    0    0    0    0 -0.00000000000E+00 -0.00000000000E+00 -0.74505805969E-08  0.93827000000E+00  0.93827000000E+00 0.  1.
     999902    2    1    2    0    0 -0.20317454309E-01 -0.82848214694E-02 -0.87084535398E-02  0.10203233404E+01  0.10200502167E+01 0.  0.
     999903    2    3    3    0    0 -0.10843464425E+00 -0.64022162484E-01  0.37836396773E-01  0.13294646809E+00  0.19653526238E-01 0.  0.
         14    1    1    2    0    0  0.20317454309E-01  0.82848214694E-02  0.87084535398E-02  0.23606659641E-01  0.00000000000E+00 0. -1.
     999901    1    3    3    0    0  0.88117189943E-01  0.55737341015E-01 -0.46544850313E-01  0.88737687227E+00  0.88000000000E+00 0.  1.
        -11    1    4    4    0    0 -0.77840501536E-01 -0.37073375313E-01  0.30884251029E-01  0.91584261307E-01  0.51100000000E-03 0. -1.
         11    1    4    4    0    0 -0.30594142716E-01 -0.26948787171E-01  0.69521457436E-02  0.41362206783E-01  0.51100000000E-03 0.  1.
</event>
<event>
 8    1  0.1054833E+005  0.1043930E+01  0.7957747E-01            NaN
         13   -1    0    0    0    0  0.00000000000E+00  0.00000000000E+00  0.74505805969E-08  0.10566000000E+00  0.10566000000E+00 0. -1.
     999900   -1    0    0    0    0 -0.00000000000E+00 -0.00000000000E+00 -0.74505805969E-08  0.93827000000E+00  0.93827000000E+00 0. -1.
     999902    2    1    2    0    0 -0.23980050679E-01  0.59717170923E-02 -0.15283366066E-02  0.10191703544E+01  0.10188695556E+01 0.  0.
     999903    2    3    3    0    0 -0.17210471898E-01  0.37910471869E-01 -0.12192086147E+00  0.13037326213E+00  0.19977156829E-01 0.  0.
         14    1    1    2    0    0  0.23980050679E-01 -0.59717170923E-02  0.15283366066E-02  0.24759645562E-01  0.00000000000E+00 0.  1.
     999901    1    3    3    0    0 -0.67695787805E-02 -0.31938754777E-01  0.12039252487E+00  0.88879709231E+00  0.88000000000E+00 0.  1.
        -11    1    4    4    0    0 -0.10437753392E-01  0.28530726838E-01 -0.58670244754E-01  0.66071232850E-01  0.51100000000E-03 0. -1.
         11    1    4    4    0    0 -0.67727185062E-02  0.93797450309E-02 -0.63250616721E-01  0.64302029279E-01  0.51100000000E-03 0.  1.
</event>
<event>
 8    1  0.1054833E+005  0.1043930E+01  0.7957747E-01            NaN
         13   -1    0    0    0    0  0.00000000000E+00  0.00000000000E+00  0.74505805969E-08  0.10566000000E+00  0.10566000000E+00 0.  1.
     999900   -1    0    0    0    0 -0.00000000000E+00 -0.00000000000E+00 -0.74505805969E-08  0.93827000000E+00  0.93827000000E+00 0. -1.
     999902    2    1    2    0    0  0.80293864610E-02  0.10880597886E-01  0.18283027837E-01  0.10211895610E+01  0.10209363310E+01 0.  0.
     999903    2    3    3    0    0 -0.11348133305E-01  0.12429751544E-01  0.13127958610E+00  0.13375161373E+00  0.19284335477E-01 0.  0.
         14    1    1    2    0    0 -0.80293864610E-02 -0.10880597886E-01 -0.18283027837E-01  0.22740438962E-01  0.00000000000E+00 0. -1.
     999901    1    3    3    0    0  0.19377519766E-01 -0.15491536579E-02 -0.11299655826E+00  0.88743794731E+00  0.88000000000E+00 0. -1.
        -11    1    4    4    0    0 -0.13953079823E-01  0.57485946889E-02  0.52033117333E-01  0.54179712050E-01  0.51100000000E-03 0.  1.
         11    1    4    4    0    0  0.26049465179E-02  0.66811568554E-02  0.79246468767E-01  0.79571901676E-01  0.51100000000E-03 0. -1.
</event>
<event>
 8    1  0.1054833E+005  0.1043930E+01  0.7957747E-01            NaN
         13   -1    0    0    0    0  0.00000000000E+00  0.00000000000E+00  0.74505805969E-08  0.10566000000E+00  0.10566000000E+00 0.  1.
     999900   -1    0    0    0    0 -0.00000000000E+00 -0.00000000000E+00 -0.74505805969E-08  0.93827000000E+00  0.93827000000E+00 0. -1.
     999902    2    1    2    0    0  0.14734681941E-01 -0.15092939984E-01  0.76098625025E-02  0.10215064031E+01  0.10212602577E+01 0.  0.
     999903    2    3    3    0    0  0.91897803313E-01  0.70955545169E-01  0.56944678824E-01  0.13257872711E+00  0.29232290214E-01 0.  0.
         14    1    1    2    0    0 -0.14734681941E-01  0.15092939984E-01 -0.76098625025E-02  0.22423596869E-01  0.00000000000E+00 0. -1.
     999901    1    3    3    0    0 -0.77163121372E-01 -0.86048485153E-01 -0.49334816322E-01  0.88892767602E+00  0.88000000000E+00 0. -1.
        -11    1    4    4    0    0  0.73325316902E-01  0.50044976712E-01  0.29917700561E-01  0.93682611624E-01  0.51100000000E-03 0. -1.
         11    1    4    4    0    0  0.18572486411E-01  0.20910568458E-01  0.27026978263E-01  0.38896115484E-01  0.51100000000E-03 0.  1.
</event>
<event>
 8    1  0.1054833E+005  0.1043930E+01  0.7957747E-01            NaN
         13   -1    0    0    0    0  0.00000000000E+00  0.00000000000E+00  0.74505805969E-08  0.10566000000E+00  0.10566000000E+00 0.  1.
     999900   -1    0    0    0    0 -0.00000000000E+00 -0.00000000000E+00 -0.74505805969E-08  0.93827000000E+00  0.93827000000E+00 0.  1.
     999902    2    1    2    0    0  0.13341565468E-01 -0.12783003061E-01  0.54694118668E-02  0.10246604125E+01  0.10244792062E+01 0.  0.
     999903    2    3    3    0    0  0.76135447175E-01  0.10242117201E+00  0.36560849226E-01  0.13438980700E+00  0.20909847819E-01 0.  0.
         14    1    1    2    0    0 -0.13341565468E-01  0.12783003061E-01 -0.54694118668E-02  0.19269587504E-01  0.00000000000E+00 0.  1.
     999901    1    3    3    0    0 -0.62793881707E-01 -0.11520417508E+00 -0.31091437359E-01  0.89027060550E+00  0.88000000000E+00 0.  1.
        -11    1    4    4    0    0  0.54484778069E-01  0.61702235076E-01  0.15829932739E-01  0.83824845638E-01  0.51100000000E-03 0.  1.
         11    1    4    4    0    0  0.21650669106E-01  0.40718936938E-01  0.20730916487E-01  0.50564961361E-01  0.51100000000E-03 0. -1.
</event>
<event>
 8    1  0.1054833E+005  0.1043930E+01  0.7957747E-01            NaN
         13   -1    0    0    0    0  0.00000000000E+00  0.00000000000E+00  0.74505805969E-08  0.10566000000E+00  0.10566000000E+00 0. -1.
     999900   -1    0    0    0    0 -0.00000000000E+00 -0.00000000000E+00 -0.74505805969E-08  0.93827000000E+00  0.93827000000E+00 0. -1.
     999902    2    1    2    0    0  0.19529343784E-01 -0.12066456620E-02 -0.12246566650E-01  0.10208468967E+01  0.10205858890E+01 0.  0.
     999903    2    3    3    0    0 -0.11932320294E+00  0.23922739009E-01 -0.38996060254E-01  0.12920400233E+00  0.19043563251E-01 0.  0.
         14    1    1    2    0    0 -0.19529343784E-01  0.12066456620E-02  0.12246566650E-01  0.23083103281E-01  0.00000000000E+00 0. -1.
     999901    1    3    3    0    0  0.13885254672E+00 -0.25129384671E-01  0.26749493604E-01  0.89164289439E+00  0.88000000000E+00 0.  1.
        -11    1    4    4    0    0 -0.84739523557E-01  0.24568707624E-01 -0.23555567211E-01  0.91321049680E-01  0.51100000000E-03 0.  1.
         11    1    4    4    0    0 -0.34583679382E-01 -0.64596861476E-03 -0.15440493043E-01  0.37882952650E-01  0.51100000000E-03 0. -1.
</event>
<event>
 8    1  0.1054833E+005  0.1043930E+01  0.7957747E-01            NaN
         13   -1    0    0    0    0  0.00000000000E+00  0.00000000000E+00  0.74505805969E-08  0.10566000000E+00  0.10566000000E+00 0. -1.
     999900   -1    0    0    0    0 -0.00000000000E+00 -0.00000000000E+00 -0.74505805969E-08  0.93827000000E+00  0.93827000000E+00 0. -1.
     999902    2    1    2    0    0 -0.15395766801E-01  0.39007839254E-02  0.17055735643E-01  0.10206245528E+01  0.10203584340E+01 0.  0.
     999903    2    3    3    0    0 -0.52601054933E-01  0.11810715300E+00  0.20160200328E-01  0.13245960985E+00  0.20565602212E-01 0.  0.
         14    1    1    2    0    0  0.15395766801E-01 -0.39007839254E-02 -0.17055735643E-01  0.23305447195E-01  0.00000000000E+00 0.  1.
     999901    1    3    3    0    0  0.37205288132E-01 -0.11420636907E+00 -0.31044646844E-02  0.88816494296E+00  0.88000000000E+00 0. -1.
        -11    1    4    4    0    0 -0.36111091421E-01  0.73071995590E-01  0.31489617801E-02  0.81570243008E-01  0.51100000000E-03 0. -1.
         11    1    4    4    0    0 -0.16489963512E-01  0.45035157406E-01  0.17011238547E-01  0.50889366838E-01  0.51100000000E-03 0.  1.
</event>
<event>
 8    1  0.1054833E+005  0.1043930E+01  0.7957747E-01            NaN
         13   -1    0    0    0    0  0.00000000000E+00  0.00000000000E+00  0.74505805969E-08  0.10566000000E+00  0.10566000000E+00 0.  1.
     999900   -1    0    0    0    0 -0.00000000000E+00 -0.00000000000E+00 -0.74505805969E-08  0.93827000000E+00  0.93827000000E+00 0.  1.
     999902    2    1    2    0    0 -0.14916037564E-02  0.21244078725E-01  0.95236598609E-02  0.10206011368E+01  0.10203344768E+01 0.  0.
     999903    2    3    3    0    0  0.83155339241E-01 -0.91210274424E-01  0.32506526894E-01  0.12911961779E+00  0.19521188556E-01 0.  0.
         14    1    1    2    0    0  0.14916037564E-02 -0.21244078725E-01 -0.95236598609E-02  0.23328863233E-01  0.00000000000E+00 0. -1.
     999901    1    3    3    0    0 -0.84646942997E-01  0.11245435315E+00 -0.22982867033E-01  0.89148151898E+00  0.88000000000E+00 0.  1.
        -11    1    4    4    0    0  0.34351930283E-01 -0.39453290098E-01  0.39549321483E-02  0.52464462477E-01  0.51100000000E-03 0.  1.
         11    1    4    4    0    0  0.48803408958E-01 -0.51756984326E-01  0.28551594746E-01  0.76655155312E-01  0.51100000000E-03 0. -1.
</event>
<event>
 8    1  0.1054833E+005  0.1043930E+01  0.7957747E-01            NaN
         13   -1    0    0    0    0  0.00000000000E+00  0.00000000000E+00  0.74505805969E-08  0.10566000000E+00  0.10566000000E+00 0.  1.
     999900   -1    0    0    0    0 -0.00000000000E+00 -0.00000000000E+00 -0.74505805969E-08  0.93827000000E+00  0.93827000000E+00 0.  1.
     999902    2    1    2    0    0  0.16980160964E-01 -0.12792629432E-01 -0.12602621567E-01  0.10192155649E+01  0.10189158770E+01 0.  0.
     999903    2    3    3    0    0 -0.11710329653E+00 -0.43576913229E-01 -0.22086830925E-01  0.12847654812E+00  0.20156038608E-01 0.  0.
         14    1    1    2    0    0 -0.16980160964E-01  0.12792629432E-01  0.12602621567E-01  0.24714435145E-01  0.00000000000E+00 0.  1.
     999901    1    3    3    0    0  0.13408345749E+00  0.30784283797E-01  0.94842093577E-02  0.89073901673E+00  0.88000000000E+00 0. -1.
        -11    1    4    4    0    0 -0.59818335709E-01 -0.32921169607E-01 -0.12832956481E-01  0.69476489465E-01  0.51100000000E-03 0. -1.
         11    1    4    4    0    0 -0.57284960821E-01 -0.10655743622E-01 -0.92538744435E-02  0.59000058658E-01  0.51100000000E-03 0.  1.
</event>
<event>
 8    1  0.1054833E+005  0.1043930E+01  0.7957747E-01            NaN
         13   -1    0    0    0    0  0.00000000000E+00  0.00000000000E+00  0.74505805969E-08  0.10566000000E+00  0.10566000000E+00 0.  1.
     999900   -1    0    0    0    0 -0.00000000000E+00 -0.00000000000E+00 -0.74505805969E-08  0.93827000000E+00  0.93827000000E+00 0.  1.
     999902    2    1    2    0    0 -0.22914034871E-02  0.33500837527E-02  0.23209066709E-01  0.10203687104E+01  0.10200966478E+01 0.  0.
     999903    2    3    3    0    0  0.87857296530E-01 -0.64865564269E-01 -0.65174407741E-01  0.12874558298E+00  0.20031867909E-01 0.  0.
         14    1    1    2    0    0  0.22914034871E-02 -0.33500837527E-02 -0.23209066709E-01  0.23561289621E-01  0.00000000000E+00 0. -1.
     999901    1    3    3    0    0 -0.90148700017E-01  0.68215648021E-01  0.88383474450E-01  0.89162312740E+00  0.88000000000E+00 0. -1.
        -11    1    4    4    0    0  0.67062471278E-01 -0.50203111987E-01 -0.59269789125E-01  0.10262015655E+00  0.51100000000E-03 0. -1.
         11    1    4    4    0    0  0.20794825253E-01 -0.14662452282E-01 -0.59046186166E-02  0.26125426431E-01  0.51100000000E-03 0.  1.
</event>
<event>
 8    1  0.1054833E+005  0.1043930E+01  0.7957747E-01            NaN
         13   -1    0    0    0    0  0.00000000000E+00  0.00000000000E+00  0.74505805969E-08  0.10566000000E+00  0.10566000000E+00 0.  1.
     999900   -1    0    0    0    0 -0.00000000000E+00 -0.00000000000E+00 -0.74505805969E-08  0.93827000000E+00  0.93827000000E+00 0. -1.
     999902    2    1    2    0    0 -0.54591231547E-02  0.12875676044E-02 -0.23235396774E-01  0.10200272069E+01  0.10197471055E+01 0.  0.
     999903    2    3    3    0    0  0.16374554700E-01 -0.10224109772E+00  0.73182901882E-01  0.12846039370E+00  0.20614740275E-01 0.  0.
         14    1    1    2    0    0  0.54591231547E-02 -0.12875676044E-02  0.23235396774E-01  0.23902793126E-01  0.00000000000E+00 0.  1.
     999901    1    3    3    0    0 -0.21833677855E-01  0.10352866533E+00 -0.96418298657E-01  0.89156681317E+00  0.88000000000E+00 0. -1.
        -11    1    4    4    0    0  0.96372774647E-02 -0.89619616047E-01  0.69090547115E-01  0.11357075997E+00  0.51100000000E-03 0. -1.
         11    1    4    4    0    0  0.67372772354E-02 -0.12621481678E-01  0.40923547671E-02  0.14889633737E-01  0.51100000000E-03 0.  1.
</event>
<event>
 8    1  0.1054833E+005  0.1043930E+01  0.7957747E-01            NaN
         13   -1    0    0    0    0  0.00000000000E+00  0.00000000000E+00  0.74505805969E-08  0.10566000000E+00  0.10566000000E+00 0.  1.
     999900   -1    0    0    0    0 -0.00000000000E+00 -0.00000000000E+00 -0.74505805969E-08  0.93827000000E+00  0.93827000000E+00 0.  1.
     999902    2    1    2    0    0 -0.31048464337E-02  0.23320198770E-01  0.92616272130E-03  0.10203857965E+01  0.10201141329E+01 0.  0.
     999903    2    3    3    0    0 -0.19929315972E-01 -0.12336007092E+00  0.18317489642E-01  0.12791696086E+00  0.20306002007E-01 0.  0.
         14    1    1    2    0    0  0.31048464337E-02 -0.23320198770E-01 -0.92616272130E-03  0.23544203521E-01  0.00000000000E+00 0. -1.
     999901    1    3    3    0    0  0.16824469538E-01  0.14668026969E+00 -0.17391326921E-01  0.89246883561E+00  0.88000000000E+00 0. -1.
        -11    1    4    4    0    0 -0.61538785106E-02 -0.48432830875E-01 -0.26587431841E-02  0.48897232678E-01  0.51100000000E-03 0. -1.
         11    1    4    4    0    0 -0.13775437461E-01 -0.74927240045E-01  0.20976232826E-01  0.79019728186E-01  0.51100000000E-03 0.  1.
</event>
<event>
 8    1  0.1054833E+005  0.1043930E+01  0.7957747E-01            NaN
         13   -1    0    0    0    0  0.00000000000E+00  0.00000000000E+00  0.74505805969E-08  0.10566000000E+00  0.10566000000E+00 0. -1.
     999900   -1    0    0    0    0 -0.00000000000E+00 -0.00000000000E+00 -0.74505805969E-08  0.93827000000E+00  0.93827000000E+00 0. -1.
     999902    2    1    2    0    0  0.94841538179E-02 -0.22244459283E-02  0.21371980134E-01  0.10204425806E+01  0.10201722411E+01 0.  0.
     999903    2    3    3    0    0  0.12574846569E-01 -0.23101696551E-03 -0.12609446425E+00  0.12816466521E+00  0.19188208890E-01 0.  0.
         14    1    1    2    0    0 -0.94841538179E-02  0.22244459283E-02 -0.21371980134E-01  0.23487419360E-01  0.00000000000E+00 0.  1.
     999901    1    3    3    0    0 -0.30906927515E-02 -0.19934289628E-02  0.14746644438E+00  0.89227791543E+00  0.88000000000E+00 0.  1.
        -11    1    4    4    0    0  0.11097402269E-02 -0.81463226304E-02 -0.32010911255E-01  0.33053799421E-01  0.51100000000E-03 0.  1.
         11    1    4    4    0    0  0.11465106342E-01  0.79153056649E-02 -0.94083552991E-01  0.95110865792E-01  0.51100000000E-03 0. -1.
</event>
<event>
 8    1  0.1054833E+005  0.1043930E+01  0.7957747E-01            NaN
         13   -1    0    0    0    0  0.00000000000E+00  0.00000000000E+00  0.74505805969E-08  0.10566000000E+00  0.10566000000E+00 0.  1.
     999900   -1    0    0    0    0 -0.00000000000E+00 -0.00000000000E+00 -0.74505805969E-08  0.93827000000E+00  0.93827000000E+00 0. -1.
     999902    2    1    2    0    0  0.14858542080E-01  0.18065928914E-01  0.17136252951E-02  0.10204759903E+01  0.10202064282E+01 0.  0.
     999903    2    3    3    0    0 -0.14781860089E-01 -0.28690921328E-01  0.12460341593E+00  0.13021386196E+00  0.19696858396E-01 0.  0.
         14    1    1    2    0    0 -0.14858542080E-01 -0.18065928914E-01 -0.17136252951E-02  0.23454009719E-01  0.00000000000E+00 0. -1.
     999901    1    3    3    0    0  0.29640402169E-01  0.46756850242E-01 -0.12288979063E+00  0.89026212832E+00  0.88000000000E+00 0.  1.
        -11    1    4    4    0    0 -0.17885321460E-01 -0.15410878199E-01  0.67825546118E-01  0.71818839574E-01  0.51100000000E-03 0. -1.
         11    1    4    4    0    0  0.31034613708E-02 -0.13280043129E-01  0.56777869810E-01  0.58395022383E-01  0.51100000000E-03 0.  1.
</event>
<event>
 8    1  0.1054833E+005  0.1043930E+01  0.7957747E-01            NaN
         13   -1    0    0    0    0  0.00000000000E+00  0.00000000000E+00  0.74505805969E-08  0.10566000000E+00  0.10566000000E+00 0.  1.
     999900   -1    0    0    0    0 -0.00000000000E+00 -0.00000000000E+00 -0.74505805969E-08  0.93827000000E+00  0.93827000000E+00 0.  1.
     999902    2    1    2    0    0  0.17106145847E-01  0.86813536077E-02  0.14281650420E-01  0.10200144890E+01  0.10197340860E+01 0.  0.
     999903    2    3    3    0    0  0.74237477626E-01  0.84322773482E-02 -0.10471282959E+00  0.13016970628E+00  0.19926599469E-01 0.  0.
         14    1    1    2    0    0 -0.17106145847E-01 -0.86813536077E-02 -0.14281650420E-01  0.23915510970E-01  0.00000000000E+00 0. -1.
     999901    1    3    3    0    0 -0.57131331778E-01  0.24907625955E-03  0.11899448001E+00  0.88984478275E+00  0.88000000000E+00 0. -1.
        -11    1    4    4    0    0  0.17887803481E-01 -0.42084119139E-02 -0.35903783793E-01  0.40336423439E-01  0.51100000000E-03 0.  1.
         11    1    4    4    0    0  0.56349674145E-01  0.12640689262E-01 -0.68809045802E-01  0.89833282843E-01  0.51100000000E-03 0. -1.
</event>
<event>
 8    1  0.1054833E+005  0.1043930E+01  0.7957747E-01            NaN
         13   -1    0    0    0    0  0.00000000000E+00  0.00000000000E+00  0.74505805969E-08  0.10566000000E+00  0.10566000000E+00 0.  1.
     999900   -1    0    0    0    0 -0.00000000000E+00 -0.00000000000E+00 -0.74505805969E-08  0.93827000000E+00  0.93827000000E+00 0. -1.
     999902    2    1    2    0    0  0.17635781053E-01 -0.11131377718E-01  0.97296042473E-02  0.10209171005E+01  0.10206576961E+01 0.  0.
     999903    2    3    3    0    0 -0.16839646246E-01  0.12657446234E+00 -0.79154590674E-02  0.12936631581E+00  0.19191690197E-01 0.  0.
         14    1    1    2    0    0 -0.17635781053E-01  0.11131377718E-01 -0.97296042473E-02  0.23012899471E-01  0.00000000000E+00 0. -1.
     999901    1    3    3    0    0  0.34475427298E-01 -0.13770584005E+00  0.17645063315E-01  0.89155078472E+00  0.88000000000E+00 0.  1.
        -11    1    4    4    0    0  0.31753780259E-02  0.20656587464E-01  0.25750032742E-02  0.21063461115E-01  0.51100000000E-03 0.  1.
         11    1    4    4    0    0 -0.20015024271E-01  0.10591787487E+00 -0.10490462342E-01  0.10830285470E+00  0.51100000000E-03 0. -1.
</event>
<event>
 7    1  0.1054833E+005  0.1043930E+01  0.7957747E-01            NaN
         13   -1    0    0    0    0  0.00000000000E+00  0.00000000000E+00  0.74505805969E-08  0.10566000000E+00  0.10566000000E+00 0.  1.
     999900   -1    0    0    0    0 -0.00000000000E+00 -0.00000000000E+00 -0.74505805969E-08  0.93827000000E+00  0.93827000000E+00 0.  1.
     999903    2    1    2    0    0 -0.43023269108E-01  0.68867237644E-01  0.76151112796E-01  0.11290253218E+00  0.18822637625E-01 0.  0.
         14    1    1    2    0    0  0.13301662546E-01 -0.37160091452E-01  0.20839031018E-01  0.44632631974E-01  0.00000000000E+00 0. -1.
     999901    1    1    2    0    0  0.29721606563E-01 -0.31707146192E-01 -0.96990143814E-01  0.88639483585E+00  0.88000000000E+00 0.  1.
        -11    1    3    3    0    0 -0.21005736149E-01  0.27192840518E-01  0.20672260690E-01  0.40103553579E-01  0.51100000000E-03 0.  1.
         11    1    3    3    0    0 -0.22017532959E-01  0.41674397126E-01  0.55478852106E-01  0.72798978601E-01  0.51100000000E-03 0. -1.
</event>
<event>
 8    1  0.1054833E+005  0.1043930E+01  0.7957747E-01            NaN
         13   -1    0    0    0    0  0.00000000000E+00  0.00000000000E+00  0.74505805969E-08  0.10566000000E+00  0.10566000000E+00 0. -1.
     999900   -1    0    0    0    0 -0.00000000000E+00 -0.00000000000E+00 -0.74505805969E-08  0.93827000000E+00  0.93827000000E+00 0.  1.
     999902    2    1    2    0    0 -0.44260384492E-02 -0.25600122073E-02  0.25122906075E-01  0.10182920615E+01  0.10179692622E+01 0.  0.
     999903    2    3    3    0    0  0.84376339704E-01 -0.63194996489E-01  0.73730884176E-01  0.13041526872E+00  0.21422529077E-01 0.  0.
         14    1    1    2    0    0  0.44260384492E-02  0.25600122073E-02 -0.25122906075E-01  0.25637938461E-01  0.00000000000E+00 0.  1.
     999901    1    3    3    0    0 -0.88802378153E-01  0.60634984282E-01 -0.48607978101E-01  0.88787679282E+00  0.88000000000E+00 0.  1.
        -11    1    4    4    0    0  0.34444014669E-01 -0.14593433983E-01  0.31719483398E-01  0.49048396610E-01  0.51100000000E-03 0. -1.
         11    1    4    4    0    0  0.49932325034E-01 -0.48601562506E-01  0.42011400777E-01  0.81366872114E-01  0.51100000000E-03 0.  1.
</event>
<event>
 8    1  0.1054833E+005  0.1043930E+01  0.7957747E-01            NaN
         13   -1    0    0    0    0  0.00000000000E+00  0.00000000000E+00  0.74505805969E-08  0.10566000000E+00  0.10566000000E+00 0. -1.
     999900   -1    0    0    0    0 -0.00000000000E+00 -0.00000000000E+00 -0.74505805969E-08  0.93827000000E+00  0.93827000000E+00 0.  1.
     999902    2    1    2    0    0  0.38258909252E-02  0.16106278409E-01  0.18304446345E-01  0.10192500000E+01  0.10189511568E+01 0.  0.
     999903    2    3    3    0    0 -0.34720793221E-01  0.33880394381E-01  0.12142188788E+00  0.13221281202E+00  0.19584131335E-01 0.  0.
         14    1    1    2    0    0 -0.38258909252E-02 -0.16106278409E-01 -0.18304446345E-01  0.24680000032E-01  0.00000000000E+00 0.  1.
     999901    1    3    3    0    0  0.38546684146E-01 -0.17774115972E-01 -0.10311744154E+00  0.88703718795E+00  0.88000000000E+00 0.  1.
        -11    1    4    4    0    0 -0.20065600423E-01  0.23653931996E-01  0.52228368420E-01  0.60747019746E-01  0.51100000000E-03 0. -1.
         11    1    4    4    0    0 -0.14655192798E-01  0.10226462386E-01  0.69193519460E-01  0.71465792273E-01  0.51100000000E-03 0.  1.
</event>
<event>
 8    1  0.1054833E+005  0.1043930E+01  0.7957747E-01            NaN
         13   -1    0    0    0    0  0.00000000000E+00  0.00000000000E+00  0.74505805969E-08  0.10566000000E+00  0.10566000000E+00 0. -1.
     999900   -1    0    0    0    0 -0.00000000000E+00 -0.00000000000E+00 -0.74505805969E-08  0.93827000000E+00  0.93827000000E+00 0. -1.
     999902    2    1    2    0    0 -0.10829230669E-01  0.18673618979E-01  0.88698216292E-02  0.10205922619E+01  0.10203253967E+01 0.  0.
     999903    2    3    3    0    0  0.77581888727E-02  0.11454289664E-01  0.12973044422E+00  0.13210765262E+00  0.20761827419E-01 0.  0.
         14    1    1    2    0    0  0.10829230669E-01 -0.18673618979E-01 -0.88698216292E-02  0.23337738074E-01  0.00000000000E+00 0.  1.
     999901    1    3    3    0    0 -0.18587419542E-01  0.72193293150E-02 -0.12086062259E+00  0.88848460931E+00  0.88000000000E+00 0. -1.
        -11    1    4    4    0    0  0.35463895365E-02  0.74160932994E-02  0.12261595570E+00  0.12289226595E+00  0.51100000000E-03 0.  1.
         11    1    4    4    0    0  0.42117993361E-02  0.40381963644E-02  0.71144885202E-02  0.92153866674E-02  0.51100000000E-03 0. -1.
</event>
<event>
 8    1  0.1054833E+005  0.1043930E+01  0.7957747E-01            NaN
         13   -1    0    0    0    0  0.00000000000E+00  0.00000000000E+00  0.74505805969E-08  0.10566000000E+00  0.10566000000E+00 0. -1.
     999900   -1    0    0    0    0 -0.00000000000E+00 -0.00000000000E+00 -0.74505805969E-08  0.93827000000E+00  0.93827000000E+00 0. -1.
     999902    2    1    2    0    0  0.33000053428E-02 -0.24955345554E-01  0.17930998339E-01  0.10130240134E+01  0.10125524538E+01 0.  0.
     999903    2    3    3    0    0  0.10751843595E+00 -0.30535347276E-01  0.54915302518E-01  0.12608520126E+00  0.19727291368E-01 0.  0.
         14    1    1    2    0    0 -0.33000053428E-02  0.24955345554E-01 -0.17930998339E-01  0.30905986611E-01  0.00000000000E+00 0.  1.
     999901    1    3    3    0    0 -0.10421843061E+00  0.55800017221E-02 -0.36984304179E-01  0.88693881212E+00  0.88000000000E+00 0.  1.
        -11    1    4    4    0    0  0.96648724186E-01 -0.30173636129E-01  0.54943285002E-01  0.11519743874E+00  0.51100000000E-03 0. -1.
         11    1    4    4    0    0  0.10869711765E-01 -0.36171114635E-03 -0.27982484620E-04  0.10887762526E-01  0.51100000000E-03 0.  1.
</event>
<event>
 8    1  0.1054833E+005  0.1043930E+01  0.7957747E-01            NaN
         13   -1    0    0    0    0  0.00000000000E+00  0.00000000000E+00  0.74505805969E-08  0.10566000000E+00  0.10566000000E+00 0.  1.
     999900   -1    0    0    0    0 -0.00000000000E+00 -0.00000000000E+00 -0.74505805969E-08  0.93827000000E+00  0.93827000000E+00 0. -1.
     999902    2    1    2    0    0  0.18570475678E-01 -0.27775708459E-02  0.12146032781E-01  0.10215670042E+01  0.10213222021E+01 0.  0.
     999903    2    3    3    0    0  0.54939674609E-01 -0.81036958332E-01 -0.86108687108E-01  0.13190344967E+00  0.19961402205E-01 0.  0.
         14    1    1    2    0    0 -0.18570475678E-01  0.27775708459E-02 -0.12146032781E-01  0.22362995752E-01  0.00000000000E+00 0. -1.
     999901    1    3    3    0    0 -0.36369198931E-01  0.78259387486E-01  0.98254719889E-01  0.88966355458E+00  0.88000000000E+00 0.  1.
        -11    1    4    4    0    0  0.29840901686E-01 -0.50240614687E-01 -0.63046095992E-01  0.85963190485E-01  0.51100000000E-03 0. -1.
         11    1    4    4    0    0  0.25098772923E-01 -0.30796343645E-01 -0.23062591116E-01  0.45940259187E-01  0.51100000000E-03 0.  1.
</event>
<event>
 8    1  0.1054833E+005  0.1043930E+01  0.7957747E-01            NaN
         13   -1    0    0    0    0  0.00000000000E+00  0.00000000000E+00  0.74505805969E-08  0.10566000000E+00  0.10566000000E+00 0. -1.
     999900   -1    0    0    0    0 -0.00000000000E+00 -0.00000000000E+00 -0.74505805969E-08  0.93827000000E+00  0.93827000000E+00 0.  1.
     999902    2    1    2    0    0 -0.21134445299E-01 -0.76293698950E-03  0.69642148444E-02  0.10216646202E+01  0.10214219740E+01 0.  0.
     999903    2    3    3    0    0 -0.10375539537E+00 -0.29643146973E-01  0.77861440456E-01  0.13448554888E+00  0.19495145991E-01 0.  0.
         14    1    1    2    0    0  0.21134445299E-01  0.76293698950E-03 -0.69642148444E-02  0.22265379838E-01  0.00000000000E+00 0.  1.
     999901    1    3    3    0    0  0.82620950071E-01  0.28880209984E-01 -0.70897225612E-01  0.88717907128E+00  0.88000000000E+00 0.  1.
        -11    1    4    4    0    0 -0.66539400519E-01 -0.18057435129E-01  0.37975167834E-01  0.78714276201E-01  0.51100000000E-03 0.  1.
         11    1    4    4    0    0 -0.37215994851E-01 -0.11585711844E-01  0.39886272622E-01  0.55771272680E-01  0.51100000000E-03 0. -1.
</event>
<event>
 8    1  0.1054833E+005  0.1043930E+01  0.7957747E-01            NaN
         13   -1    0    0    0    0  0.00000000000E+00  0.00000000000E+00  0.74505805969E-08  0.10566000000E+00  0.10566000000E+00 0. -1.
     999900   -1    0    0    0    0 -0.00000000000E+00 -0.00000000000E+00 -0.74505805969E-08  0.93827000000E+00  0.93827000000E+00 0. -1.
     999902    2    1    2    0    0  0.45319861309E-02  0.18821919721E-01  0.14523105555E-01  0.10197282613E+01  0.10194410247E+01 0.  0.
     999903    2    3    3    0    0 -0.30137706790E-01  0.12560280690E+00 -0.17497702437E-01  0.13201801714E+00  0.20934201404E-01 0.  0.
         14    1    1    2    0    0 -0.45319861309E-02 -0.18821919721E-01 -0.14523105555E-01  0.24201738682E-01  0.00000000000E+00 0.  1.
     999901    1    3    3    0    0  0.34669692921E-01 -0.10678088718E+00  0.32020807992E-01  0.88771024418E+00  0.88000000000E+00 0.  1.
        -11    1    4    4    0    0  0.13256850306E-02  0.64163995126E-02  0.26981442778E-02  0.71041345039E-02  0.51100000000E-03 0. -1.
         11    1    4    4    0    0 -0.31463391821E-01  0.11918640738E+00 -0.20195846715E-01  0.12491388264E+00  0.51100000000E-03 0.  1.
</event>
<event>
 8    1  0.1054833E+005  0.1043930E+01  0.7957747E-01            NaN
         13   -1    0    0    0    0  0.00000000000E+00  0.00000000000E+00  0.74505805969E-08  0.10566000000E+00  0.10566000000E+00 0.  1.
     999900   -1    0    0    0    0 -0.00000000000E+00 -0.00000000000E+00 -0.74505805969E-08  0.93827000000E+00  0.93827000000E+00 0.  1.
     999902    2    1    2    0    0 -0.19765164729E-01  0.12808039374E-01 -0.17401621555E-02  0.10203135698E+01  0.10200402174E+01 0.  0.
     999903    2    3    3    0    0  0.73334940107E-01 -0.28924780892E-01 -0.10008726791E+00  0.12897670253E+00  0.20071676733E-01 0.  0.
         14    1    1    2    0    0  0.19765164729E-01 -0.12808039374E-01  0.17401621555E-02  0.23616430164E-01  0.00000000000E+00 0. -1.
     999901    1    3    3    0    0 -0.93100104836E-01  0.41732820266E-01  0.98347105758E-01  0.89133686731E+00  0.88000000000E+00 0. -1.
        -11    1    4    4    0    0  0.56758732338E-01 -0.28646054723E-01 -0.87473130434E-01  0.10813861390E+00  0.51100000000E-03 0.  1.
         11    1    4    4    0    0  0.16576207769E-01 -0.27872616864E-03 -0.12614137479E-01  0.20838088627E-01  0.51100000000E-03 0. -1.
</event>
<event>
 8    1  0.1054833E+005  0.1043930E+01  0.7957747E-01            NaN
         13   -1    0    0    0    0  0.00000000000E+00  0.00000000000E+00  0.74505805969E-08  0.10566000000E+00  0.10566000000E+00 0.  1.
     999900   -1    0    0    0    0 -0.00000000000E+00 -0.00000000000E+00 -0.74505805969E-08  0.93827000000E+00  0.93827000000E+00 0.  1.
     999902    2    1    2    0    0  0.19287726599E-02  0.18749042722E-01 -0.98536679276E-02  0.10226616776E+01  0.10224404947E+01 0.  0.
     999903    2    3    3    0    0 -0.12410167373E+00 -0.19220158621E-01 -0.35627086598E-01  0.13249899426E+00  0.22716827657E-01 0.  0.
         14    1    1    2    0    0 -0.19287726599E-02 -0.18749042722E-01  0.98536679276E-02  0.21268322421E-01  0.00000000000E+00 0. -1.
     999901    1    3    3    0    0  0.12603044639E+00  0.37969201343E-01  0.25773418671E-01  0.89016268332E+00  0.88000000000E+00 0.  1.
        -11    1    4    4    0    0 -0.55144135447E-01 -0.21150057565E-02 -0.59717688309E-02  0.55509207052E-01  0.51100000000E-03 0. -1.
         11    1    4    4    0    0 -0.68957538286E-01 -0.17105152865E-01 -0.29655317767E-01  0.76989787205E-01  0.51100000000E-03 0.  1.
</event>
<event>
 8    1  0.1054833E+005  0.1043930E+01  0.7957747E-01            NaN
         13   -1    0    0    0    0  0.00000000000E+00  0.00000000000E+00  0.74505805969E-08  0.10566000000E+00  0.10566000000E+00 0.  1.
     999900   -1    0    0    0    0 -0.00000000000E+00 -0.00000000000E+00 -0.74505805969E-08  0.93827000000E+00  0.93827000000E+00 0.  1.
     999902    2    1    2    0    0  0.60139521106E-02  0.17775159103E-02  0.23253701748E-01  0.10198455272E+01  0.10195611005E+01 0.  0.
     999903    2    3    3    0    0  0.10682167825E+00 -0.70946508677E-01 -0.11496304172E-01  0.13043080716E+00  0.20874683451E-01 0.  0.
         14    1    1    2    0    0 -0.60139521106E-02 -0.17775159103E-02 -0.23253701748E-01  0.24084472753E-01  0.00000000000E+00 0. -1.
     999901    1    3    3    0    0 -0.10080772614E+00  0.72724024587E-01  0.34750005920E-01  0.88941472009E+00  0.88000000000E+00 0. -1.
        -11    1    4    4    0    0  0.58491041968E-01 -0.28485543610E-01  0.88314872459E-04  0.65060718608E-01  0.51100000000E-03 0. -1.
         11    1    4    4    0    0  0.48330636278E-01 -0.42460965068E-01 -0.11584619045E-01  0.65370088549E-01  0.51100000000E-03 0.  1.
</event>
<event>
 8    1  0.1054833E+005  0.1043930E+01  0.7957747E-01            NaN
         13   -1    0    0    0    0  0.00000000000E+00  0.00000000000E+00  0.74505805969E-08  0.10566000000E+00  0.10566000000E+00 0.  1.
     999900   -1    0    0    0    0 -0.00000000000E+00 -0.00000000000E+00 -0.74505805969E-08  0.93827000000E+00  0.93827000000E+00 0. -1.
     999902    2    1    2    0    0 -0.13646526177E-01  0.55220322357E-02 -0.17511010956E-01  0.10210530242E+01  0.10207967095E+01 0.  0.
     999903    2    3    3    0    0  0.48238156404E-01  0.51245281119E-01  0.10610780528E+00  0.12908781123E+00  0.21255542756E-01 0.  0.
         14    1    1    2    0    0  0.13646526177E-01 -0.55220322357E-02  0.17511010956E-01  0.22876975793E-01  0.00000000000E+00 0.  1.
     999901    1    3    3    0    0 -0.61884682581E-01 -0.45723248883E-01 -0.12361881624E+00  0.89196521297E+00  0.88000000000E+00 0. -1.
        -11    1    4    4    0    0  0.27567973138E-01  0.42608874908E-01  0.79275715237E-01  0.94129748280E-01  0.51100000000E-03 0. -1.
         11    1    4    4    0    0  0.20670183266E-01  0.86364062112E-02  0.26832090042E-01  0.34958062954E-01  0.51100000000E-03 0.  1.
</event>
<event>
 8    1  0.1054833E+005  0.1043930E+01  0.7957747E-01            NaN
         13   -1    0    0    0    0  0.00000000000E+00  0.00000000000E+00  0.74505805969E-08  0.10566000000E+00  0.10566000000E+00 0.  1.
     999900   -1    0    0    0    0 -0.00000000000E+00 -0.00000000000E+00 -0.74505805969E-08  0.93827000000E+00  0.93827000000E+00 0. -1.
     999902    2    1    2    0    0  0.22803891324E-02 -0.18461657969E-01  0.15705472702E-01  0.10195846747E+01  0.10192939782E+01 0.  0.
     999903    2    3    3    0    0 -0.23738843921E-02 -0.59416437135E-01 -0.11294828518E+00  0.12927532085E+00  0.20465706112E-01 0.  0.
         14    1    1    2    0    0 -0.22803891324E-02  0.18461657969E-01 -0.15705472702E-01  0.24345325267E-01  0.00000000000E+00 0.  1.
     999901    1    3    3    0    0  0.46542735246E-02  0.40954779165E-01  0.12865375788E+00  0.89030935389E+00  0.88000000000E+00 0.  1.
        -11    1    4    4    0    0  0.66667599697E-02 -0.73398782926E-02 -0.20652647127E-01  0.22915332338E-01  0.51100000000E-03 0.  1.
         11    1    4    4    0    0 -0.90406443618E-02 -0.52076558842E-01 -0.92295638052E-01  0.10635998851E+00  0.51100000000E-03 0. -1.
</event>
<event>
 8    1  0.1054833E+005  0.1043930E+01  0.7957747E-01            NaN
         13   -1    0    0    0    0  0.00000000000E+00  0.00000000000E+00  0.74505805969E-08  0.10566000000E+00  0.10566000000E+00 0.  1.
     999900   -1    0    0    0    0 -0.00000000000E+00 -0.00000000000E+00 -0.74505805969E-08  0.93827000000E+00  0.93827000000E+00 0.  1.
     999902    2    1    2    0    0  0.15196308939E-01 -0.84062198815E-02  0.16388717706E-01  0.10200515075E+01  0.10197719821E+01 0.  0.
     999903    2    3    3    0    0  0.70496332226E-01  0.10094490449E+00 -0.37160903331E-01  0.12994852303E+00  0.18603206719E-01 0.  0.
         14    1    1    2    0    0 -0.15196308939E-01  0.84062198815E-02 -0.16388717706E-01  0.23878492542E-01  0.00000000000E+00 0. -1.
     999901    1    3    3    0    0 -0.55300023287E-01 -0.10935112437E+00  0.53549621037E-01  0.89010298443E+00  0.88000000000E+00 0.  1.
        -11    1    4    4    0    0  0.41511981260E-01  0.73324286027E-01 -0.21558562162E-01  0.86975446150E-01  0.51100000000E-03 0.  1.
         11    1    4    4    0    0  0.28984350966E-01  0.27620618467E-01 -0.15602341169E-01  0.42973076878E-01  0.51100000000E-03 0. -1.
</event>
<event>
 7    1  0.1054833E+005  0.1043930E+01  0.7957747E-01            NaN
         13   -1    0    0    0    0  0.00000000000E+00  0.00000000000E+00  0.74505805969E-08  0.10566000000E+00  0.10566000000E+00 0.  1.
     999900   -1    0    0    0    0 -0.00000000000E+00 -0.00000000000E+00 -0.74505805969E-08  0.93827000000E+00  0.93827000000E+00 0. -1.
     999903    2    1    2    0    0 -0.34936090794E-01  0.84712868239E-02  0.72580393258E-01  0.83485255341E-01  0.20238113390E-01 0.  0.
         14    1    1    2    0    0 -0.29656559272E-01  0.37655647993E-01 -0.59984394919E-01  0.76782725710E-01  0.00000000000E+00 0. -1.
     999901    1    1    2    0    0  0.64592650066E-01 -0.46126934817E-01 -0.12595998338E-01  0.88366201895E+00  0.88000000000E+00 0. -1.
        -11    1    3    3    0    0 -0.15790217369E-01  0.14057532662E-01  0.33715967110E-01  0.39799155120E-01  0.51100000000E-03 0. -1.
         11    1    3    3    0    0 -0.19145873425E-01 -0.55862458383E-02  0.38864426148E-01  0.43686100222E-01  0.51100000000E-03 0.  1.
</event>
<event>
 8    1  0.1054833E+005  0.1043930E+01  0.7957747E-01            NaN
         13   -1    0    0    0    0  0.00000000000E+00  0.00000000000E+00  0.74505805969E-08  0.10566000000E+00  0.10566000000E+00 0.  1.
     999900   -1    0    0    0    0 -0.00000000000E+00 -0.00000000000E+00 -0.74505805969E-08  0.93827000000E+00  0.93827000000E+00 0.  1.
     999902    2    1    2    0    0  0.19172781258E-01  0.12233675175E-01 -0.21701495177E-02  0.10210833832E+01  0.10208277561E+01 0.  0.
     999903    2    3    3    0    0  0.92027622275E-01 -0.51893441121E-01  0.76521584942E-01  0.13225690748E+00  0.21778983462E-01 0.  0.
         14    1    1    2    0    0 -0.19172781258E-01 -0.12233675175E-01  0.21701495177E-02  0.22846616782E-01  0.00000000000E+00 0.  1.
     999901    1    3    3    0    0 -0.72854841017E-01  0.64127116296E-01 -0.78691734459E-01  0.88882647574E+00  0.88000000000E+00 0. -1.
        -11    1    4    4    0    0  0.38521663975E-01 -0.26845963704E-01  0.46101949045E-01  0.65804826490E-01  0.51100000000E-03 0. -1.
         11    1    4    4    0    0  0.53505958300E-01 -0.25047477416E-01  0.30419635896E-01  0.66452080987E-01  0.51100000000E-03 0.  1.
</event>
<event>
 7    1  0.1054833E+005  0.1043930E+01  0.7957747E-01            NaN
         13   -1    0    0    0    0  0.00000000000E+00  0.00000000000E+00  0.74505805969E-08  0.10566000000E+00  0.10566000000E+00 0.  1.
     999900   -1    0    0    0    0 -0.00000000000E+00 -0.00000000000E+00 -0.74505805969E-08  0.93827000000E+00  0.93827000000E+00 0. -1.
     999903    2    1    2    0    0  0.87404774937E-01 -0.65628380403E-01  0.24579832650E-01  0.11381846900E+00  0.20094693743E-01 0.  0.
         14    1    1    2    0    0  0.41931308008E-02 -0.36885887978E-01 -0.13090648134E-01  0.39363893944E-01  0.00000000000E+00 0.  1.
     999901    1    1    2    0    0 -0.91597905738E-01  0.10251426838E+00 -0.11489184515E-01  0.89074763705E+00  0.88000000000E+00 0. -1.
        -11    1    3    3    0    0  0.51740461470E-01 -0.38891170715E-01  0.24587841463E-01  0.69241761831E-01  0.51100000000E-03 0.  1.
         11    1    3    3    0    0  0.35664313467E-01 -0.26737209688E-01 -0.80088131662E-05  0.44576707170E-01  0.51100000000E-03 0. -1.
</event>
<event>
 8    1  0.1054833E+005  0.1043930E+01  0.7957747E-01            NaN
         13   -1    0    0    0    0  0.00000000000E+00  0.00000000000E+00  0.74505805969E-08  0.10566000000E+00  0.10566000000E+00 0.  1.
     999900   -1    0    0    0    0 -0.00000000000E+00 -0.00000000000E+00 -0.74505805969E-08  0.93827000000E+00  0.93827000000E+00 0.  1.
     999902    2    1    2    0    0 -0.15400679028E-01  0.10914205214E-01  0.13669245503E-01  0.10206244414E+01  0.10203583200E+01 0.  0.
     999903    2    3    3    0    0 -0.85468208698E-01  0.98097526842E-01 -0.18941565648E-01  0.13294552686E+00  0.19692402893E-01 0.  0.
         14    1    1    2    0    0  0.15400679028E-01 -0.10914205214E-01 -0.13669245503E-01  0.23305558620E-01  0.00000000000E+00 0. -1.
     999901    1    3    3    0    0  0.70067529670E-01 -0.87183321628E-01  0.32610811151E-01  0.88767891452E+00  0.88000000000E+00 0. -1.
        -11    1    4    4    0    0 -0.59281635905E-01  0.67274355285E-01 -0.37766669722E-02  0.89747844369E-01  0.51100000000E-03 0.  1.
         11    1    4    4    0    0 -0.26186572793E-01  0.30823171557E-01 -0.15164898676E-01  0.43197682488E-01  0.51100000000E-03 0. -1.
</event>
<event>
 8    1  0.1054833E+005  0.1043930E+01  0.7957747E-01            NaN
         13   -1    0    0    0    0  0.00000000000E+00  0.00000000000E+00  0.74505805969E-08  0.10566000000E+00  0.10566000000E+00 0. -1.
     999900   -1    0    0    0    0 -0.00000000000E+00 -0.00000000000E+00 -0.74505805969E-08  0.93827000000E+00  0.93827000000E+00 0.  1.
     999902    2    1    2    0    0  0.86992761258E-03  0.92244568549E-02  0.21155778918E-01  0.10208342350E+01  0.10205729376E+01 0.  0.
     999903    2    3    3    0    0 -0.37544317224E-01 -0.67214572333E-01  0.10603120179E+00  0.13262118806E+00  0.20454566208E-01 0.  0.
         14    1    1    2    0    0 -0.86992761258E-03 -0.92244568549E-02 -0.21155778918E-01  0.23095764978E-01  0.00000000000E+00 0.  1.
     999901    1    3    3    0    0  0.38414244837E-01  0.76439029187E-01 -0.84875422874E-01  0.88821304696E+00  0.88000000000E+00 0.  1.
        -11    1    4    4    0    0 -0.12301346333E-01 -0.71987045847E-02  0.14962114880E-01  0.20670521812E-01  0.51100000000E-03 0.  1.
         11    1    4    4    0    0 -0.25242970891E-01 -0.60015867748E-01  0.91069086912E-01  0.11195066625E+00  0.51100000000E-03 0. -1.
</event>
<event>
 8    1  0.1054833E+005  0.1043930E+01  0.7957747E-01            NaN
         13   -1    0    0    0    0  0.00000000000E+00  0.00000000000E+00  0.74505805969E-08  0.10566000000E+00  0.10566000000E+00 0. -1.
     999900   -1    0    0    0    0 -0.00000000000E+00 -0.00000000000E+00 -0.74505805969E-08  0.93827000000E+00  0.93827000000E+00 0. -1.
     999902    2    1    2    0    0  0.20771195383E-01  0.12724639877E-01 -0.56054751976E-03  0.10195645895E+01  0.10192734073E+01 0.  0.
     999903    2    3    3    0    0 -0.12494720767E+00 -0.12056031613E-02  0.14523334325E-01  0.12734520603E+00  0.19814542038E-01 0.  0.
         14    1    1    2    0    0 -0.20771195383E-01 -0.12724639877E-01  0.56054751976E-03  0.24365410548E-01  0.00000000000E+00 0.  1.
     999901    1    3    3    0    0  0.14571840305E+00  0.13930243038E-01 -0.15083881845E-01  0.89221938342E+00  0.88000000000E+00 0. -1.
        -11    1    4    4    0    0 -0.62381659535E-01  0.11170891018E-02 -0.25582381725E-02  0.62446177129E-01  0.51100000000E-03 0. -1.
         11    1    4    4    0    0 -0.62565548134E-01 -0.23226922631E-02  0.17081572497E-01  0.64899028903E-01  0.51100000000E-03 0.  1.
</event>
<event>
 8    1  0.1054833E+005  0.1043930E+01  0.7957747E-01            NaN
         13   -1    0    0    0    0  0.00000000000E+00  0.00000000000E+00  0.74505805969E-08  0.10566000000E+00  0.10566000000E+00 0.  1.
     999900   -1    0    0    0    0 -0.00000000000E+00 -0.00000000000E+00 -0.74505805969E-08  0.93827000000E+00  0.93827000000E+00 0. -1.
     999902    2    1    2    0    0 -0.65390544356E-02  0.16613359209E-01 -0.48546599162E-02  0.10254278201E+01  0.10252608856E+01 0.  0.
     999903    2    3    3    0    0 -0.37434363640E-01 -0.12146273177E+00  0.35005163126E-01  0.13323482950E+00  0.19277747703E-01 0.  0.
         14    1    1    2    0    0  0.65390544356E-02 -0.16613359209E-01  0.48546599162E-02  0.18502179872E-01  0.00000000000E+00 0.  1.
     999901    1    3    3    0    0  0.30895309205E-01  0.13807609098E+00 -0.39859823042E-01  0.89219299063E+00  0.88000000000E+00 0. -1.
        -11    1    4    4    0    0 -0.58455722997E-02 -0.50629432295E-01  0.15201652009E-01  0.53187042358E-01  0.51100000000E-03 0.  1.
         11    1    4    4    0    0 -0.31588791341E-01 -0.70833299475E-01  0.19803511116E-01  0.80047787143E-01  0.51100000000E-03 0. -1.
</event>
<event>
 7    1  0.1054833E+005  0.1043930E+01  0.7957747E-01            NaN
         13   -1    0    0    0    0  0.00000000000E+00  0.00000000000E+00  0.74505805969E-08  0.10566000000E+00  0.10566000000E+00 0. -1.
     999900   -1    0    0    0    0 -0.00000000000E+00 -0.00000000000E+00 -0.74505805969E-08  0.93827000000E+00  0.93827000000E+00 0.  1.
     999902    2    1    2    0    0 -0.92169406064E-02 -0.18372330011E-01 -0.98613933995E-02  0.10211321583E+01  0.10208776338E+01 0.  0.
         14    1    1    2    0    0  0.92169406064E-02  0.18372330011E-01  0.98613933995E-02  0.22797841652E-01  0.00000000000E+00 0. -1.
     999901    1    3    3    0    0  0.10198676379E+00 -0.57377389730E-02  0.52215713716E-01  0.88744616873E+00  0.88000000000E+00 0.  1.
        -11    1    3    3    0    0 -0.69174732126E-01  0.10900536968E-01 -0.32976169359E-01  0.77405775867E-01  0.51100000000E-03 0.  1.
         11    1    3    3    0    0 -0.42028972272E-01 -0.23535128006E-01 -0.29100937756E-01  0.56280213751E-01  0.51100000000E-03 0. -1.
</event>
<event>
 8    1  0.1054833E+005  0.1043930E+01  0.7957747E-01            NaN
         13   -1    0    0    0    0  0.00000000000E+00  0.00000000000E+00  0.74505805969E-08  0.10566000000E+00  0.10566000000E+00 0.  1.
     999900   -1    0    0    0    0 -0.00000000000E+00 -0.00000000000E+00 -0.74505805969E-08  0.93827000000E+00  0.93827000000E+00 0.  1.
     999902    2    1    2    0    0  0.10902673366E-01  0.11181707404E-01  0.18286401945E-01  0.10198823106E+01  0.10195987624E+01 0.  0.
     999903    2    3    3    0    0 -0.11228928224E+00 -0.13036736429E-01  0.59747418502E-01  0.13000489952E+00  0.23509157312E-01 0.  0.
         14    1    1    2    0    0 -0.10902673366E-01 -0.11181707404E-01 -0.18286401945E-01  0.24047689350E-01  0.00000000000E+00 0. -1.
     999901    1    3    3    0    0  0.12319195561E+00  0.24218443833E-01 -0.41461016557E-01  0.88987741113E+00  0.88000000000E+00 0.  1.
        -11    1    4    4    0    0 -0.93769855629E-01 -0.19249140433E-01  0.46712426763E-01  0.10651585407E+00  0.51100000000E-03 0. -1.
         11    1    4    4    0    0 -0.18519426614E-01  0.62124040045E-02  0.13034991739E-01  0.23489045453E-01  0.51100000000E-03 0.  1.
</event>
<event>
 8    1  0.1054833E+005  0.1043930E+01  0.7957747E-01            NaN
         13   -1    0    0    0    0  0.00000000000E+00  0.00000000000E+00  0.74505805969E-08  0.10566000000E+00  0.10566000000E+00 0. -1.
     999900   -1    0    0    0    0 -0.00000000000E+00 -0.00000000000E+00 -0.74505805969E-08  0.93827000000E+00  0.93827000000E+00 0.  1.
     999902    2    1    2    0    0  0.12145359988E-01 -0.18911450396E-01  0.62010895116E-02  0.10206146352E+01  0.10203482873E+01 0.  0.
     999903    2    3    3    0    0  0.84333034462E-01  0.99244586221E-02 -0.98634158051E-01  0.13098943369E+00  0.14797939881E-01 0.  0.
         14    1    1    2    0    0 -0.12145359988E-01  0.18911450396E-01 -0.62010895116E-02  0.23315364815E-01  0.00000000000E+00 0. -1.
     999901    1    3    3    0    0 -0.72187674473E-01 -0.28835909019E-01  0.10483524756E+00  0.88962520149E+00  0.88000000000E+00 0. -1.
        -11    1    4    4    0    0  0.63607832429E-01  0.13806872879E-01 -0.73557099398E-01  0.98221657886E-01  0.51100000000E-03 0.  1.
         11    1    4    4    0    0  0.20725202033E-01 -0.38824142570E-02 -0.25077058653E-01  0.32767775809E-01  0.51100000000E-03 0. -1.
</event>
<event>
 8    1  0.1054833E+005  0.1043930E+01  0.7957747E-01            NaN
         13   -1    0    0    0    0  0.00000000000E+00  0.00000000000E+00  0.74505805969E-08  0.10566000000E+00  0.10566000000E+00 0. -1.
     999900   -1    0    0    0    0 -0.00000000000E+00 -0.00000000000E+00 -0.74505805969E-08  0.93827000000E+00  0.93827000000E+00 0. -1.
     999902    2    1    2    0    0 -0.26259768848E-02  0.20845041884E-01 -0.11503837886E-01  0.10199769248E+01  0.10196956297E+01 0.  0.
     999903    2    3    3    0    0 -0.10771434470E+00 -0.56595028104E-01 -0.40771292146E-01  0.12986619383E+00  0.19938725553E-01 0.  0.
         14    1    1    2    0    0  0.26259768848E-02 -0.20845041884E-01  0.11503837886E-01  0.23953075207E-01  0.00000000000E+00 0.  1.
     999901    1    3    3    0    0  0.10508836782E+00  0.77440069988E-01  0.29267454260E-01  0.89011073096E+00  0.88000000000E+00 0.  1.
        -11    1    4    4    0    0 -0.75237904860E-01 -0.32872986043E-01 -0.34909037069E-01  0.89220387408E-01  0.51100000000E-03 0. -1.
         11    1    4    4    0    0 -0.32476439843E-01 -0.23722042061E-01 -0.58622550766E-02  0.40645806426E-01  0.51100000000E-03 0.  1.
</event>
<event>
 8    1  0.1054833E+005  0.1043930E+01  0.7957747E-01            NaN
         13   -1    0    0    0    0  0.00000000000E+00  0.00000000000E+00  0.74505805969E-08  0.10566000000E+00  0.10566000000E+00 0.  1.
     999900   -1    0    0    0    0 -0.00000000000E+00 -0.00000000000E+00 -0.74505805969E-08  0.93827000000E+00  0.93827000000E+00 0.  1.
     999902    2    1    2    0    0 -0.67523055396E-02  0.15704261119E-01 -0.52242577773E-02  0.10260551485E+01  0.10258994383E+01 0.  0.
     999903    2    3    3    0    0 -0.63424376168E-01 -0.49112416360E-01 -0.10820155076E+00  0.13587693703E+00  0.17896521930E-01 0.  0.
         14    1    1    2    0    0  0.67523055396E-02 -0.15704261119E-01  0.52242577773E-02  0.17874851516E-01  0.00000000000E+00 0.  1.
     999901    1    3    3    0    0  0.56672070629E-01  0.64816677478E-01  0.10297729299E+00  0.89017821145E+00  0.88000000000E+00 0. -1.
        -11    1    4    4    0    0 -0.47093316747E-01 -0.28920306449E-01 -0.82768641816E-01  0.99524237231E-01  0.51100000000E-03 0.  1.
         11    1    4    4    0    0 -0.16331059421E-01 -0.20192109911E-01 -0.25432908948E-01  0.36352699804E-01  0.51100000000E-03 0. -1.
</event>
<event>
 8    1  0.1054833E+005  0.1043930E+01  0.7957747E-01            NaN
         13   -1    0    0    0    0  0.00000000000E+00  0.00000000000E+00  0.74505805969E-08  0.10566000000E+00  0.10566000000E+00 0. -1.
     999900   -1    0    0    0    0 -0.00000000000E+00 -0.00000000000E+00 -0.74505805969E-08  0.93827000000E+00  0.93827000000E+00 0.  1.
     999902    2    1    2    0    0  0.13175640058E-01  0.93187761967E-02  0.14861879107E-01  0.10219911639E+01  0.10217556589E+01 0.  0.
     999903    2    3    3    0    0  0.60773885444E-01 -0.80291568546E-01  0.85043702289E-01  0.13338489832E+00  0.20467014163E-01 0.  0.
         14    1    1    2    0    0 -0.13175640058E-01 -0.93187761967E-02 -0.14861879107E-01  0.21938836143E-01  0.00000000000E+00 0.  1.
     999901    1    3    3    0    0 -0.47598245386E-01  0.89610344743E-01 -0.70181823182E-01  0.88860626554E+00  0.88000000000E+00 0.  1.
        -11    1    4    4    0    0  0.37114818552E-01 -0.34455575478E-01  0.35385529107E-01  0.61782628860E-01  0.51100000000E-03 0.  1.
         11    1    4    4    0    0  0.23659066891E-01 -0.45835993068E-01  0.49658173183E-01  0.71602269458E-01  0.51100000000E-03 0. -1.
</event>
<event>
 8    1  0.1054833E+005  0.1043930E+01  0.7957747E-01            NaN
         13   -1    0    0    0    0  0.00000000000E+00  0.00000000000E+00  0.74505805969E-08  0.10566000000E+00  0.10566000000E+00 0.  1.
     999900   -1    0    0    0    0 -0.00000000000E+00 -0.00000000000E+00 -0.74505805969E-08  0.93827000000E+00  0.93827000000E+00 0. -1.
     999902    2    1    2    0    0  0.15919730830E-01  0.33675657930E-02  0.17537345477E-01  0.10200064381E+01  0.10197258440E+01 0.  0.
     999903    2    3    3    0    0 -0.62420912321E-02 -0.42127410502E-01 -0.11914170430E+00  0.12801871289E+00  0.19502890205E-01 0.  0.
         14    1    1    2    0    0 -0.15919730830E-01 -0.33675657930E-02 -0.17537345477E-01  0.23923561930E-01  0.00000000000E+00 0. -1.
     999901    1    3    3    0    0  0.22161822062E-01  0.45494976295E-01  0.13667904978E+00  0.89198772518E+00  0.88000000000E+00 0.  1.
        -11    1    4    4    0    0 -0.51241073280E-02 -0.16115598180E-01 -0.23906300751E-01  0.29287221057E-01  0.51100000000E-03 0.  1.
         11    1    4    4    0    0 -0.11179839041E-02 -0.26011812322E-01 -0.95235403554E-01  0.98731491832E-01  0.51100000000E-03 0. -1.
</event>
<event>
 8    1  0.1054833E+005  0.1043930E+01  0.7957747E-01            NaN
         13   -1    0    0    0    0  0.00000000000E+00  0.00000000000E+00  0.74505805969E-08  0.10566000000E+00  0.10566000000E+00 0. -1.
     999900   -1    0    0    0    0 -0.00000000000E+00 -0.00000000000E+00 -0.74505805969E-08  0.93827000000E+00  0.93827000000E+00 0. -1.
     999902    2    1    2    0    0 -0.14009315397E-01 -0.15714662087E-01 -0.66737735571E-02  0.10218449196E+01  0.10216062299E+01 0.  0.
     999903    2    3    3    0    0  0.54462666021E-01 -0.45494129285E-01  0.10847718305E+00  0.13120752329E+00  0.20303131197E-01 0.  0.
         14    1    1    2    0    0  0.14009315397E-01  0.15714662087E-01  0.66737735571E-02  0.22085080392E-01  0.00000000000E+00 0. -1.
     999901    1    3    3    0    0 -0.68471981419E-01  0.29779467198E-01 -0.11515095661E+00  0.89063739631E+00  0.88000000000E+00 0. -1.
        -11    1    4    4    0    0  0.21707240788E-01 -0.68168629739E-02  0.39864450662E-01  0.45903262096E-01  0.51100000000E-03 0. -1.
         11    1    4    4    0    0  0.32755425233E-01 -0.38677266311E-01  0.68612732390E-01  0.85304261198E-01  0.51100000000E-03 0.  1.
</event>
<event>
 8    1  0.1054833E+005  0.1043930E+01  0.7957747E-01            NaN
         13   -1    0    0    0    0  0.00000000000E+00  0.00000000000E+00  0.74505805969E-08  0.10566000000E+00  0.10566000000E+00 0. -1.
     999900   -1    0    0    0    0 -0.00000000000E+00 -0.00000000000E+00 -0.74505805969E-08  0.93827000000E+00  0.93827000000E+00 0. -1.
     999902    2    1    2    0    0  0.18568616238E-01  0.96158670224E-02 -0.12519536950E-01  0.10195579420E+01  0.10192665990E+01 0.  0.
     999903    2    3    3    0    0  0.24169241963E-01  0.12490452580E+00  0.24577400414E-01  0.13124548307E+00  0.20881460519E-01 0.  0.
         14    1    1    2    0    0 -0.18568616238E-01 -0.96158670224E-02  0.12519536950E-01  0.24372058039E-01  0.00000000000E+00 0. -1.
     999901    1    3    3    0    0 -0.56006257250E-02 -0.11528865878E+00 -0.37096937364E-01  0.88831245889E+00  0.88000000000E+00 0. -1.
        -11    1    4    4    0    0  0.20711169632E-01  0.64305991621E-01  0.62993525105E-02  0.67853931860E-01  0.51100000000E-03 0.  1.
         11    1    4    4    0    0  0.34580723317E-02  0.60598534182E-01  0.18278047903E-01  0.63391551214E-01  0.51100000000E-03 0. -1.
</event>
<event>
 8    1  0.1054833E+005  0.1043930E+01  0.7957747E-01            NaN
         13   -1    0    0    0    0  0.00000000000E+00  0.00000000000E+00  0.74505805969E-08  0.10566000000E+00  0.10566000000E+00 0. -1.
     999900   -1    0    0    0    0 -0.00000000000E+00 -0.00000000000E+00 -0.74505805969E-08  0.93827000000E+00  0.93827000000E+00 0.  1.
     999902    2    1    2    0    0  0.11809868247E-02 -0.22285726073E-01 -0.88309768375E-02  0.10199292819E+01  0.10196468534E+01 0.  0.
     999903    2    3    3    0    0  0.71689657358E-01 -0.74860561867E-01  0.78021979647E-01  0.13129042275E+00  0.20155274797E-01 0.  0.
         14    1    1    2    0    0 -0.11809868247E-02  0.22285726073E-01  0.88309768375E-02  0.24000718080E-01  0.00000000000E+00 0. -1.
     999901    1    3    3    0    0 -0.70508670533E-01  0.52574835795E-01 -0.86852956485E-01  0.88863885917E+00  0.88000000000E+00 0.  1.
        -11    1    4    4    0    0  0.23493783621E-01 -0.31222477135E-01  0.18888254673E-01  0.43403090130E-01  0.51100000000E-03 0.  1.
         11    1    4    4    0    0  0.48195873737E-01 -0.43638084733E-01  0.59133724974E-01  0.87887332618E-01  0.51100000000E-03 0. -1.
</event>
<event>
 8    1  0.1054833E+005  0.1043930E+01  0.7957747E-01            NaN
         13   -1    0    0    0    0  0.00000000000E+00  0.00000000000E+00  0.74505805969E-08  0.10566000000E+00  0.10566000000E+00 0. -1.
     999900   -1    0    0    0    0 -0.00000000000E+00 -0.00000000000E+00 -0.74505805969E-08  0.93827000000E+00  0.93827000000E+00 0.  1.
     999902    2    1    2    0    0 -0.11998247739E-01  0.12718534648E-01  0.12253442112E-01  0.10225789833E+01  0.10223560589E+01 0.  0.
     999903    2    3    3    0    0  0.32310658099E-01 -0.10804882474E+00 -0.61826507664E-01  0.13014642379E+00  0.19926048819E-01 0.  0.
         14    1    1    2    0    0  0.11998247739E-01 -0.12718534648E-01 -0.12253442112E-01  0.21351016744E-01  0.00000000000E+00 0. -1.
     999901    1    3    3    0    0 -0.44308905838E-01  0.12076735939E+00  0.74079949776E-01  0.89243255946E+00  0.88000000000E+00 0. -1.
        -11    1    4    4    0    0  0.99667836360E-02 -0.24128916167E-01 -0.56490121090E-02  0.26715423078E-01  0.51100000000E-03 0.  1.
         11    1    4    4    0    0  0.22343874463E-01 -0.83919908574E-01 -0.56177495555E-01  0.10343100072E+00  0.51100000000E-03 0. -1.
</event>
<event>
 8    1  0.1054833E+005  0.1043930E+01  0.7957747E-01            NaN
         13   -1    0    0    0    0  0.00000000000E+00  0.00000000000E+00  0.74505805969E-08  0.10566000000E+00  0.10566000000E+00 0.  1.
     999900   -1    0    0    0    0 -0.00000000000E+00 -0.00000000000E+00 -0.74505805969E-08  0.93827000000E+00  0.93827000000E+00 0. -1.
     999902    2    1    2    0    0  0.15506214225E-01 -0.16393314865E-01 -0.74220166713E-03  0.10213527035E+01  0.10211031342E+01 0.  0.
     999903    2    3    3    0    0  0.78348095085E-02 -0.12107290261E+00 -0.52595848786E-01  0.13359965947E+00  0.19039792940E-01 0.  0.
         14    1    1    2    0    0 -0.15506214225E-01  0.16393314865E-01  0.74220166713E-03  0.22577296454E-01  0.00000000000E+00 0. -1.
     999901    1    3    3    0    0  0.76714047165E-02  0.10467958775E+00  0.51853647119E-01  0.88775304407E+00  0.88000000000E+00 0. -1.
        -11    1    4    4    0    0  0.11684164996E-02 -0.97403458866E-01 -0.35644747645E-01  0.10372853104E+00  0.51100000000E-03 0.  1.
         11    1    4    4    0    0  0.66663930090E-02 -0.23669443745E-01 -0.16951101141E-01  0.29871128433E-01  0.51100000000E-03 0. -1.
</event>
<event>
 8    1  0.1054833E+005  0.1043930E+01  0.7957747E-01            NaN
         13   -1    0    0    0    0  0.00000000000E+00  0.00000000000E+00  0.74505805969E-08  0.10566000000E+00  0.10566000000E+00 0.  1.
     999900   -1    0    0    0    0 -0.00000000000E+00 -0.00000000000E+00 -0.74505805969E-08  0.93827000000E+00  0.93827000000E+00 0. -1.
     999902    2    1    2    0    0 -0.83580611095E-02 -0.19627283738E-01 -0.10564579332E-01  0.10201245849E+01  0.10198467880E+01 0.  0.
     999903    2    3    3    0    0 -0.32229053901E-01 -0.10661692182E+00  0.68354519258E-01  0.13200001842E+00  0.18595285044E-01 0.  0.
         14    1    1    2    0    0  0.83580611095E-02  0.19627283738E-01  0.10564579332E-01  0.23805415117E-01  0.00000000000E+00 0.  1.
     999901    1    3    3    0    0  0.23870992791E-01  0.86989638084E-01 -0.78919098590E-01  0.88812456646E+00  0.88000000000E+00 0. -1.
        -11    1    4    4    0    0 -0.96732055908E-02 -0.48730558978E-01  0.39629332481E-01  0.63552996771E-01  0.51100000000E-03 0.  1.
         11    1    4    4    0    0 -0.22555848310E-01 -0.57886362845E-01  0.28725186777E-01  0.68447021650E-01  0.51100000000E-03 0. -1.
</event>
<event>
 8    1  0.1054833E+005  0.1043930E+01  0.7957747E-01            NaN
         13   -1    0    0    0    0  0.00000000000E+00  0.00000000000E+00  0.74505805969E-08  0.10566000000E+00  0.10566000000E+00 0. -1.
     999900   -1    0    0    0    0 -0.00000000000E+00 -0.00000000000E+00 -0.74505805969E-08  0.93827000000E+00  0.93827000000E+00 0.  1.
     999902    2    1    2    0    0  0.19607103060E-01 -0.31277758756E-02 -0.14126216355E-01  0.10195625738E+01  0.10192713429E+01 0.  0.
     999903    2    3    3    0    0  0.87388408000E-01 -0.79910910075E-01 -0.56206074933E-01  0.13262364155E+00  0.20184648548E-01 0.  0.
         14    1    1    2    0    0 -0.19607103060E-01  0.31277758756E-02  0.14126216355E-01  0.24367426226E-01  0.00000000000E+00 0. -1.
     999901    1    3    3    0    0 -0.67781304939E-01  0.76783134199E-01  0.42079858578E-01  0.88693893222E+00  0.88000000000E+00 0. -1.
        -11    1    4    4    0    0  0.61632982136E-01 -0.43251195356E-01 -0.33991706381E-01  0.82613483224E-01  0.51100000000E-03 0. -1.
         11    1    4    4    0    0  0.25755425864E-01 -0.36659714719E-01 -0.22214368552E-01  0.50010158327E-01  0.51100000000E-03 0.  1.
</event>
<event>
 8    1  0.1054833E+005  0.1043930E+01  0.7957747E-01            NaN
         13   -1    0    0    0    0  0.00000000000E+00  0.00000000000E+00  0.74505805969E-08  0.10566000000E+00  0.10566000000E+00 0.  1.
     999900   -1    0    0    0    0 -0.00000000000E+00 -0.00000000000E+00 -0.74505805969E-08  0.93827000000E+00  0.93827000000E+00 0.  1.
     999902    2    1    2    0    0  0.17157603467E-01  0.99582539345E-02 -0.54797664378E-02  0.10233489889E+01  0.10231420112E+01 0.  0.
     999903    2    3    3    0    0  0.10765478917E+00  0.79504745763E-01 -0.13458839118E-01  0.13594258777E+00  0.19715186770E-01 0.  0.
         14    1    1    2    0    0 -0.17157603467E-01 -0.99582539345E-02  0.54797664378E-02  0.20581011112E-01  0.00000000000E+00 0. -1.
     999901    1    3    3    0    0 -0.90497185702E-01 -0.69546491828E-01  0.79790726798E-02  0.88740640112E+00  0.88000000000E+00 0.  1.
        -11    1    4    4    0    0  0.34162699149E-01  0.36456569588E-01 -0.20259198854E-02  0.50005369228E-01  0.51100000000E-03 0. -1.
         11    1    4    4    0    0  0.73492090020E-01  0.43048176174E-01 -0.11432919232E-01  0.85937218541E-01  0.51100000000E-03 0.  1.
</event>
<event>
 8    1  0.1054833E+005  0.1043930E+01  0.7957747E-01            NaN
         13   -1    0    0    0    0  0.00000000000E+00  0.00000000000E+00  0.74505805969E-08  0.10566000000E+00  0.10566000000E+00 0. -1.
     999900   -1    0    0    0    0 -0.00000000000E+00 -0.00000000000E+00 -0.74505805969E-08  0.93827000000E+00  0.93827000000E+00 0. -1.
     999902    2    1    2    0    0 -0.17817801716E-02  0.36992190952E-02  0.22237155692E-01  0.10213169494E+01  0.10210665802E+01 0.  0.
     999903    2    3    3    0    0  0.90360670629E-01  0.32388088287E-01  0.90441459320E-01  0.13341768179E+00  0.20163858527E-01 0.  0.
         14    1    1    2    0    0  0.17817801716E-02 -0.36992190952E-02 -0.22237155692E-01  0.22613050563E-01  0.00000000000E+00 0.  1.
     999901    1    3    3    0    0 -0.92142450801E-01 -0.28688869192E-01 -0.68204303628E-01  0.88789926765E+00  0.88000000000E+00 0. -1.
        -11    1    4    4    0    0  0.60973813112E-01  0.15108972425E-01  0.48481511189E-01  0.79352410053E-01  0.51100000000E-03 0. -1.
         11    1    4    4    0    0  0.29386857517E-01  0.17279115862E-01  0.41959948132E-01  0.54065271737E-01  0.51100000000E-03 0.  1.
</event>
<event>
 8    1  0.1054833E+005  0.1043930E+01  0.7957747E-01            NaN
         13   -1    0    0    0    0  0.00000000000E+00  0.00000000000E+00  0.74505805969E-08  0.10566000000E+00  0.10566000000E+00 0.  1.
     999900   -1    0    0    0    0 -0.00000000000E+00 -0.00000000000E+00 -0.74505805969E-08  0.93827000000E+00  0.93827000000E+00 0. -1.
     999902    2    1    2    0    0  0.11629821046E-01  0.95915685162E-02  0.19657867813E-01  0.10191573802E+01  0.10188562622E+01 0.  0.
     999903    2    3    3    0    0 -0.35122360948E-02  0.22517554822E-01 -0.12360969182E+00  0.12734912915E+00  0.20471167701E-01 0.  0.
         14    1    1    2    0    0 -0.11629821046E-01 -0.95915685162E-02 -0.19657867813E-01  0.24772619787E-01  0.00000000000E+00 0. -1.
     999901    1    3    3    0    0  0.15142057141E-01 -0.12925986306E-01  0.14326755963E+00  0.89180825106E+00  0.88000000000E+00 0.  1.
        -11    1    4    4    0    0 -0.39860572819E-02  0.26246368543E-01 -0.11312404689E+00  0.11619841488E+00  0.51100000000E-03 0.  1.
         11    1    4    4    0    0  0.47382118712E-03 -0.37288137207E-02 -0.10485644926E-01  0.11150714273E-01  0.51100000000E-03 0. -1.
</event>
<event>
 8    1  0.1054833E+005  0.1043930E+01  0.7957747E-01            NaN
         13   -1    0    0    0    0  0.00000000000E+00  0.00000000000E+00  0.74505805969E-08  0.10566000000E+00  0.10566000000E+00 0. -1.
     999900   -1    0    0    0    0 -0.00000000000E+00 -0.00000000000E+00 -0.74505805969E-08  0.93827000000E+00  0.93827000000E+00 0.  1.
     999902    2    1    2    0    0  0.84164143930E-02  0.13204314156E-01 -0.17833905589E-01  0.10201973615E+01  0.10199212804E+01 0.  0.
     999903    2    3    3    0    0  0.76500207042E-01 -0.10103788474E+00 -0.22279131691E-01  0.13019374188E+00  0.19827124979E-01 0.  0.
         14    1    1    2    0    0 -0.84164143930E-02 -0.13204314156E-01  0.17833905589E-01  0.23732638541E-01  0.00000000000E+00 0.  1.
     999901    1    3    3    0    0 -0.68083792649E-01  0.11424219890E+00  0.44452261016E-02  0.89000361958E+00  0.88000000000E+00 0. -1.
        -11    1    4    4    0    0  0.59056500967E-01 -0.62841706831E-01 -0.13430539900E-01  0.87277665797E-01  0.51100000000E-03 0.  1.
         11    1    4    4    0    0  0.17443706076E-01 -0.38196177910E-01 -0.88485917908E-02  0.42916076082E-01  0.51100000000E-03 0. -1.
</event>
<event>
 8    1  0.1054833E+005  0.1043930E+01  0.7957747E-01            NaN
         13   -1    0    0    0    0  0.00000000000E+00  0.00000000000E+00  0.74505805969E-08  0.10566000000E+00  0.10566000000E+00 0.  1.
     999900   -1    0    0    0    0 -0.00000000000E+00 -0.00000000000E+00 -0.74505805969E-08  0.93827000000E+00  0.93827000000E+00 0. -1.
     999902    2    1    2    0    0 -0.10469599998E-01 -0.11800035790E-01 -0.17487698433E-01  0.10203785040E+01  0.10201066701E+01 0.  0.
     999903    2    3    3    0    0 -0.30134231416E-02  0.12261328840E+00  0.33084079617E-01  0.12870589531E+00  0.20677329460E-01 0.  0.
         14    1    1    2    0    0  0.10469599998E-01  0.11800035790E-01  0.17487698433E-01  0.23551496030E-01  0.00000000000E+00 0.  1.
     999901    1    3    3    0    0 -0.74561768568E-02 -0.13441332419E+00 -0.50571778050E-01  0.89167260866E+00  0.88000000000E+00 0. -1.
        -11    1    4    4    0    0  0.60886408895E-02  0.34643618712E-01  0.30745280184E-02  0.35312401630E-01  0.51100000000E-03 0.  1.
         11    1    4    4    0    0 -0.91020640312E-02  0.87969669686E-01  0.30009551598E-01  0.93393493683E-01  0.51100000000E-03 0. -1.
</event>
<event>
 8    1  0.1054833E+005  0.1043930E+01  0.7957747E-01            NaN
         13   -1    0    0    0    0  0.00000000000E+00  0.00000000000E+00  0.74505805969E-08  0.10566000000E+00  0.10566000000E+00 0. -1.
     999900   -1    0    0    0    0 -0.00000000000E+00 -0.00000000000E+00 -0.74505805969E-08  0.93827000000E+00  0.93827000000E+00 0. -1.
     999902    2    1    2    0    0 -0.39716106263E-02 -0.12469930579E-01 -0.15635684442E-01  0.10235401131E+01  0.10233370000E+01 0.  0.
     999903    2    3    3    0    0  0.10929068902E+00 -0.54265661042E-01  0.48879244818E-01  0.13295749049E+00  0.19982417996E-01 0.  0.
         14    1    1    2    0    0  0.39716106263E-02  0.12469930579E-01  0.15635684442E-01  0.20389886895E-01  0.00000000000E+00 0. -1.
     999901    1    3    3    0    0 -0.11326229965E+00  0.41795730463E-01 -0.64514929259E-01  0.89058262261E+00  0.88000000000E+00 0. -1.
        -11    1    4    4    0    0  0.84495847735E-01 -0.39133944367E-01  0.28195391022E-01  0.97294681674E-01  0.51100000000E-03 0. -1.
         11    1    4    4    0    0  0.24794841285E-01 -0.15131716674E-01  0.20683853796E-01  0.35662808817E-01  0.51100000000E-03 0.  1.
</event>
<event>
 8    1  0.1054833E+005  0.1043930E+01  0.7957747E-01            NaN
         13   -1    0    0    0    0  0.00000000000E+00  0.00000000000E+00  0.74505805969E-08  0.10566000000E+00  0.10566000000E+00 0. -1.
     999900   -1    0    0    0    0 -0.00000000000E+00 -0.00000000000E+00 -0.74505805969E-08  0.93827000000E+00  0.93827000000E+00 0. -1.
     999902    2    1    2    0    0  0.76426372834E-04  0.23072465630E-01 -0.12802683142E-02  0.10208219149E+01  0.10205603354E+01 0.  0.
     999903    2    3    3    0    0  0.25124241860E-01 -0.12131420921E+00 -0.26976891647E-01  0.12833369569E+00  0.19834814900E-01 0.  0.
         14    1    1    2    0    0 -0.76426372834E-04 -0.23072465630E-01  0.12802683142E-02  0.23108085126E-01  0.00000000000E+00 0. -1.
     999901    1    3    3    0    0 -0.25047815487E-01  0.14438667484E+00  0.25696623332E-01  0.89248821918E+00  0.88000000000E+00 0.  1.
        -11    1    4    4    0    0  0.11824612993E-02 -0.48870436578E-01 -0.14726391173E-01  0.51057276700E-01  0.51100000000E-03 0.  1.
         11    1    4    4    0    0  0.23941780561E-01 -0.72443772629E-01 -0.12250500473E-01  0.77276418990E-01  0.51100000000E-03 0. -1.
</event>
<event>
 8    1  0.1054833E+005  0.1043930E+01  0.7957747E-01            NaN
         13   -1    0    0    0    0  0.00000000000E+00  0.00000000000E+00  0.74505805969E-08  0.10566000000E+00  0.10566000000E+00 0. -1.
     999900   -1    0    0    0    0 -0.00000000000E+00 -0.00000000000E+00 -0.74505805969E-08  0.93827000000E+00  0.93827000000E+00 0. -1.
     999902    2    1    2    0    0  0.22347404952E-01  0.49129893178E-02  0.14217029170E-02  0.10210047909E+01  0.10207473820E+01 0.  0.
     999903    2    3    3    0    0  0.50419319157E-01  0.41660713553E-02  0.12077263306E+00  0.13250423674E+00  0.20294825982E-01 0.  0.
         14    1    1    2    0    0 -0.22347404952E-01 -0.49129893178E-02 -0.14217029170E-02  0.22925209079E-01  0.00000000000E+00 0.  1.
     999901    1    3    3    0    0 -0.28071914205E-01  0.74691796252E-03 -0.11935093015E+00  0.88850055418E+00  0.88000000000E+00 0. -1.
        -11    1    4    4    0    0  0.28618387110E-01 -0.58344214020E-02  0.51671966579E-01  0.59357441025E-01  0.51100000000E-03 0.  1.
         11    1    4    4    0    0  0.21800932047E-01  0.10000492757E-01  0.69100666486E-01  0.73146795714E-01  0.51100000000E-03 0. -1.
</event>
<event>
 8    1  0.1054833E+005  0.1043930E+01  0.7957747E-01            NaN
         13   -1    0    0    0    0  0.00000000000E+00  0.00000000000E+00  0.74505805969E-08  0.10566000000E+00  0.10566000000E+00 0.  1.
     999900   -1    0    0    0    0 -0.00000000000E+00 -0.00000000000E+00 -0.74505805969E-08  0.93827000000E+00  0.93827000000E+00 0.  1.
     999902    2    1    2    0    0 -0.96930110959E-02  0.61357285371E-02  0.21265165657E-01  0.10197678623E+01  0.10194815761E+01 0.  0.
     999903    2    3    3    0    0 -0.49309136017E-01  0.97621051092E-01 -0.66865225248E-01  0.12976450982E+00  0.20164551791E-01 0.  0.
         14    1    1    2    0    0  0.96930110959E-02 -0.61357285371E-02 -0.21265165657E-01  0.24162137720E-01  0.00000000000E+00 0. -1.
     999901    1    3    3    0    0  0.39616124921E-01 -0.91485322555E-01  0.88130390906E-01  0.89000335246E+00  0.88000000000E+00 0. -1.
        -11    1    4    4    0    0 -0.30346460469E-01  0.68478883803E-01 -0.35310774392E-01  0.82809281479E-01  0.51100000000E-03 0. -1.
         11    1    4    4    0    0 -0.18962675548E-01  0.29142167289E-01 -0.31554450856E-01  0.46955228336E-01  0.51100000000E-03 0.  1.
</event>
<event>
 8    1  0.1054833E+005  0.1043930E+01  0.7957747E-01            NaN
         13   -1    0    0    0    0  0.00000000000E+00  0.00000000000E+00  0.74505805969E-08  0.10566000000E+00  0.10566000000E+00 0.  1.
     999900   -1    0    0    0    0 -0.00000000000E+00 -0.00000000000E+00 -0.74505805969E-08  0.93827000000E+00  0.93827000000E+00 0. -1.
     999902    2    1    2    0    0 -0.16947944141E-01 -0.15209608937E-01  0.63914754862E-02  0.10202780239E+01  0.10200038383E+01 0.  0.
     999903    2    3    3    0    0 -0.12833746018E+00 -0.88844529164E-02 -0.25678346552E-01  0.13265417036E+00  0.19705690612E-01 0.  0.
         14    1    1    2    0    0  0.16947944141E-01  0.15209608937E-01 -0.63914754862E-02  0.23651976102E-01  0.00000000000E+00 0. -1.
     999901    1    3    3    0    0  0.11138951604E+00 -0.63251560202E-02  0.32069822039E-01  0.88762385354E+00  0.88000000000E+00 0. -1.
        -11    1    4    4    0    0 -0.50010336500E-01  0.54695079318E-02 -0.13539727627E-01  0.52101195947E-01  0.51100000000E-03 0. -1.
         11    1    4    4    0    0 -0.78327123684E-01 -0.14353960848E-01 -0.12138618926E-01  0.80552974414E-01  0.51100000000E-03 0.  1.
</event>
<event>
 8    1  0.1640617E+005  0.1043930E+01  0.7957747E-01            NaN
         13   -1    0    0    0    0  0.00000000000E+00  0.00000000000E+00  0.74505805969E-08  0.10566000000E+00  0.10566000000E+00 0. -1.
     999900   -1    0    0    0    0 -0.00000000000E+00 -0.00000000000E+00 -0.74505805969E-08  0.93827000000E+00  0.93827000000E+00 0. -1.
     999902    2    1    2    0    0  0.64347116704E-02  0.12293912498E-01 -0.19198233656E-01  0.10202420711E+01  0.10199670415E+01 0.  0.
     999903    2    3    3    0    0  0.69047922544E-01  0.10454914054E+00  0.34835127111E-01  0.13156268836E+00  0.19927781920E-01 0.  0.
         14    1    1    2    0    0 -0.64347116704E-02 -0.12293912498E-01  0.19198233656E-01  0.23687928874E-01  0.00000000000E+00 0. -1.
     999901    1    3    3    0    0 -0.62613210873E-01 -0.92255228043E-01 -0.54033360768E-01  0.88867938277E+00  0.88000000000E+00 0.  1.
        -11    1    4    4    0    0  0.33904830668E-01  0.47403902526E-01  0.26268606866E-01  0.63929401256E-01  0.51100000000E-03 0. -1.
         11    1    4    4    0    0  0.35143091875E-01  0.57145238015E-01  0.85665202456E-02  0.67633287104E-01  0.51100000000E-03 0.  1.
</event>
<event>
 8    1  0.1386894E+005  0.1043930E+01  0.7957747E-01            NaN
         13   -1    0    0    0    0  0.00000000000E+00  0.00000000000E+00  0.74505805969E-08  0.10566000000E+00  0.10566000000E+00 0.  1.
     999900   -1    0    0    0    0 -0.00000000000E+00 -0.00000000000E+00 -0.74505805969E-08  0.93827000000E+00  0.93827000000E+00 0.  1.
     999902    2    1    2    0    0 -0.22559009079E-01 -0.10392953990E-01 -0.29576840750E-02  0.10189165980E+01  0.10186095245E+01 0.  0.
     999903    2    3    3    0    0  0.47597388501E-02  0.24077778196E-01  0.12420954495E+00  0.12868850955E+00  0.23028827958E-01 0.  0.
         14    1    1    2    0    0  0.22559009079E-01  0.10392953990E-01  0.29576840750E-02  0.25013401975E-01  0.00000000000E+00 0.  1.
     999901    1    3    3    0    0 -0.27318747929E-01 -0.34470732186E-01 -0.12716722903E+00  0.89022808847E+00  0.88000000000E+00 0.  1.
        -11    1    4    4    0    0  0.13836697675E-01  0.16218354338E-01  0.70699899434E-01  0.73845962117E-01  0.51100000000E-03 0. -1.
         11    1    4    4    0    0 -0.90769588246E-02  0.78594238581E-02  0.53509645518E-01  0.54842547437E-01  0.51100000000E-03 0.  1.
</event>
<event>
 8    1  0.1054833E+005  0.1043930E+01  0.7957747E-01            NaN
         13   -1    0    0    0    0  0.00000000000E+00  0.00000000000E+00  0.74505805969E-08  0.10566000000E+00  0.10566000000E+00 0. -1.
     999900   -1    0    0    0    0 -0.00000000000E+00 -0.00000000000E+00 -0.74505805969E-08  0.93827000000E+00  0.93827000000E+00 0. -1.
     999902    2    1    2    0    0 -0.15913560202E-01  0.10430248709E-01 -0.14299839611E-01  0.10201283845E+01  0.10198506773E+01 0.  0.
     999903    2    3    3    0    0 -0.63261594849E-01  0.84026122139E-01 -0.79472332213E-01  0.13338961647E+00  0.20359754683E-01 0.  0.
         14    1    1    2    0    0  0.15913560202E-01 -0.10430248709E-01  0.14299839611E-01  0.23801615478E-01  0.00000000000E+00 0. -1.
     999901    1    3    3    0    0  0.47348034647E-01 -0.73595873429E-01  0.65172492602E-01  0.88673876805E+00  0.88000000000E+00 0.  1.
        -11    1    4    4    0    0 -0.27363604463E-01  0.41723792732E-01 -0.25715666512E-01  0.56135535575E-01  0.51100000000E-03 0. -1.
         11    1    4    4    0    0 -0.35897990387E-01  0.42302329406E-01 -0.53756665701E-01  0.77254080897E-01  0.51100000000E-03 0.  1.
</event>
<event>
 8    1  0.1054833E+005  0.1043930E+01  0.7957747E-01            NaN
         13   -1    0    0    0    0  0.00000000000E+00  0.00000000000E+00  0.74505805969E-08  0.10566000000E+00  0.10566000000E+00 0. -1.
     999900   -1    0    0    0    0 -0.00000000000E+00 -0.00000000000E+00 -0.74505805969E-08  0.93827000000E+00  0.93827000000E+00 0. -1.
     999902    2    1    2    0    0  0.19366062085E-01  0.14709980038E-02 -0.13666051705E-01  0.10201819650E+01  0.10199055214E+01 0.  0.
     999903    2    3    3    0    0 -0.88134364462E-01  0.92002158126E-01 -0.15724979383E-02  0.12894771597E+00  0.19823657683E-01 0.  0.
         14    1    1    2    0    0 -0.19366062085E-01 -0.14709980038E-02  0.13666051705E-01  0.23748034971E-01  0.00000000000E+00 0. -1.
     999901    1    3    3    0    0  0.10750042655E+00 -0.90531160122E-01 -0.12093553766E-01  0.89123424906E+00  0.88000000000E+00 0.  1.
        -11    1    4    4    0    0 -0.10076450609E-01  0.85522380817E-02 -0.61537753829E-02  0.14587861582E-01  0.51100000000E-03 0. -1.
         11    1    4    4    0    0 -0.78057913853E-01  0.83449920044E-01  0.45812774446E-02  0.11435985438E+00  0.51100000000E-03 0.  1.
</event>
<event>
 8    1  0.1054833E+005  0.1043930E+01  0.7957747E-01            NaN
         13   -1    0    0    0    0  0.00000000000E+00  0.00000000000E+00  0.74505805969E-08  0.10566000000E+00  0.10566000000E+00 0.  1.
     999900   -1    0    0    0    0 -0.00000000000E+00 -0.00000000000E+00 -0.74505805969E-08  0.93827000000E+00  0.93827000000E+00 0. -1.
     999902    2    1    2    0    0 -0.21013088668E-01  0.11251870655E-01 -0.23347734356E-02  0.10199799341E+01  0.10196987106E+01 0.  0.
     999903    2    3    3    0    0 -0.11314692261E+00  0.63111289477E-01  0.23917629397E-01  0.13326282516E+00  0.20041622095E-01 0.  0.
         14    1    1    2    0    0  0.21013088668E-01 -0.11251870655E-01  0.23347734356E-02  0.23950065879E-01  0.00000000000E+00 0. -1.
     999901    1    3    3    0    0  0.92133833945E-01 -0.51859418822E-01 -0.26252402833E-01  0.88671710897E+00  0.88000000000E+00 0.  1.
        -11    1    4    4    0    0 -0.47939090677E-01  0.15603093029E-01  0.94947037955E-02  0.51303249880E-01  0.51100000000E-03 0.  1.
         11    1    4    4    0    0 -0.65207831935E-01  0.47508196448E-01  0.14422925602E-01  0.81959575276E-01  0.51100000000E-03 0. -1.
</event>
<event>
 8    1  0.1054833E+005  0.1043930E+01  0.7957747E-01            NaN
         13   -1    0    0    0    0  0.00000000000E+00  0.00000000000E+00  0.74505805969E-08  0.10566000000E+00  0.10566000000E+00 0. -1.
     999900   -1    0    0    0    0 -0.00000000000E+00 -0.00000000000E+00 -0.74505805969E-08  0.93827000000E+00  0.93827000000E+00 0.  1.
     999902    2    1    2    0    0  0.12802376426E-01  0.97882296733E-02  0.17068503902E-01  0.10204556713E+01  0.10201856365E+01 0.  0.
     999903    2    3    3    0    0  0.16364768712E-01 -0.79584596613E-01 -0.97641223876E-01  0.12851480198E+00  0.19512356487E-01 0.  0.
         14    1    1    2    0    0 -0.12802376426E-01 -0.97882296733E-02 -0.17068503902E-01  0.23474328696E-01  0.00000000000E+00 0.  1.
     999901    1    3    3    0    0 -0.35623922862E-02  0.89372826286E-01  0.11470972778E+00  0.89194086932E+00  0.88000000000E+00 0. -1.
        -11    1    4    4    0    0  0.12941419350E-01 -0.33939387232E-01 -0.55266262054E-01  0.66136095916E-01  0.51100000000E-03 0.  1.
         11    1    4    4    0    0  0.34233493616E-02 -0.45645209381E-01 -0.42374961822E-01  0.62378706068E-01  0.51100000000E-03 0. -1.
</event>
<event>
 8    1  0.1054833E+005  0.1043930E+01  0.7957747E-01            NaN
         13   -1    0    0    0    0  0.00000000000E+00  0.00000000000E+00  0.74505805969E-08  0.10566000000E+00  0.10566000000E+00 0.  1.
     999900   -1    0    0    0    0 -0.00000000000E+00 -0.00000000000E+00 -0.74505805969E-08  0.93827000000E+00  0.93827000000E+00 0. -1.
     999902    2    1    2    0    0  0.21305762164E-01 -0.11005899074E-01 -0.41096223261E-02  0.10195998888E+01  0.10193095599E+01 0.  0.
     999903    2    3    3    0    0  0.92744602438E-01  0.85824878917E-01  0.27591277029E-01  0.13084533635E+00  0.19792734868E-01 0.  0.
         14    1    1    2    0    0 -0.21305762164E-01  0.11005899074E-01  0.41096223261E-02  0.24330111210E-01  0.00000000000E+00 0.  1.
     999901    1    3    3    0    0 -0.71438840274E-01 -0.96830777991E-01 -0.31700899355E-01  0.88875455244E+00  0.88000000000E+00 0.  1.
        -11    1    4    4    0    0  0.37356733897E-01  0.23251342542E-01  0.50663368308E-02  0.44295365303E-01  0.51100000000E-03 0.  1.
         11    1    4    4    0    0  0.55387868541E-01  0.62573536375E-01  0.22524940199E-01  0.86549971045E-01  0.51100000000E-03 0. -1.
</event>
<event>
 8    1  0.1054833E+005  0.1043930E+01  0.7957747E-01            NaN
         13   -1    0    0    0    0  0.00000000000E+00  0.00000000000E+00  0.74505805969E-08  0.10566000000E+00  0.10566000000E+00 0.  1.
     999900   -1    0    0    0    0 -0.00000000000E+00 -0.00000000000E+00 -0.74505805969E-08  0.93827000000E+00  0.93827000000E+00 0.  1.
     999902    2    1    2    0    0  0.19813354584E-01  0.11475809357E-01  0.80992669169E-02  0.10196429387E+01  0.10193536487E+01 0.  0.
     999903    2    3    3    0    0 -0.55538676133E-01 -0.12452414660E-01  0.11478930706E+00  0.12968043778E+00  0.20020583157E-01 0.  0.
         14    1    1    2    0    0 -0.19813354584E-01 -0.11475809357E-01 -0.80992669169E-02  0.24287061265E-01  0.00000000000E+00 0.  1.
     999901    1    3    3    0    0  0.75352030717E-01  0.23928224018E-01 -0.10669004015E+00  0.88996250095E+00  0.88000000000E+00 0. -1.
        -11    1    4    4    0    0 -0.49207312711E-01 -0.34774916104E-02  0.94673809676E-01  0.10675600185E+00  0.51100000000E-03 0. -1.
         11    1    4    4    0    0 -0.63313634213E-02 -0.89749230500E-02  0.20115497387E-01  0.22924435928E-01  0.51100000000E-03 0.  1.
</event>
<event>
 8    1  0.1054833E+005  0.1043930E+01  0.7957747E-01            NaN
         13   -1    0    0    0    0  0.00000000000E+00  0.00000000000E+00  0.74505805969E-08  0.10566000000E+00  0.10566000000E+00 0. -1.
     999900   -1    0    0    0    0 -0.00000000000E+00 -0.00000000000E+00 -0.74505805969E-08  0.93827000000E+00  0.93827000000E+00 0.  1.
     999902    2    1    2    0    0 -0.21522182766E-01  0.12435766082E-01  0.71667700532E-02  0.10180608055E+01  0.10177320809E+01 0.  0.
     999903    2    3    3    0    0  0.58397470458E-01 -0.10283900690E+00  0.40139791932E-01  0.12634187873E+00  0.19103442858E-01 0.  0.
         14    1    1    2    0    0  0.21522182766E-01 -0.12435766082E-01 -0.71667700532E-02  0.25869194460E-01  0.00000000000E+00 0. -1.
     999901    1    3    3    0    0 -0.79919653224E-01  0.11527477298E+00 -0.32973021879E-01  0.89171892681E+00  0.88000000000E+00 0.  1.
        -11    1    4    4    0    0  0.47475209362E-01 -0.73209712551E-01  0.36376214377E-01  0.94535959344E-01  0.51100000000E-03 0. -1.
         11    1    4    4    0    0  0.10922261096E-01 -0.29629294348E-01  0.37635775556E-02  0.31805919387E-01  0.51100000000E-03 0.  1.
</event>
<event>
 8    1  0.1054833E+005  0.1043930E+01  0.7957747E-01            NaN
         13   -1    0    0    0    0  0.00000000000E+00  0.00000000000E+00  0.74505805969E-08  0.10566000000E+00  0.10566000000E+00 0.  1.
     999900   -1    0    0    0    0 -0.00000000000E+00 -0.00000000000E+00 -0.74505805969E-08  0.93827000000E+00  0.93827000000E+00 0. -1.
     999902    2    1    2    0    0 -0.18417259398E-01  0.75904503812E-02  0.14378473439E-01  0.10193627275E+01  0.10190666412E+01 0.  0.
     999903    2    3    3    0    0 -0.37295310380E-01 -0.11889247987E+00 -0.27911390568E-01  0.12911402905E+00  0.19105622923E-01 0.  0.
         14    1    1    2    0    0  0.18417259398E-01 -0.75904503812E-02 -0.14378473439E-01  0.24567272521E-01  0.00000000000E+00 0. -1.
     999901    1    3    3    0    0  0.18878050982E-01  0.12648293026E+00  0.42289864006E-01  0.89024869843E+00  0.88000000000E+00 0.  1.
        -11    1    4    4    0    0 -0.17888755346E-01 -0.38682153199E-01 -0.22111259008E-02  0.42678645043E-01  0.51100000000E-03 0.  1.
         11    1    4    4    0    0 -0.19406555034E-01 -0.80210326675E-01 -0.25700264667E-01  0.86435384008E-01  0.51100000000E-03 0. -1.
</event>
<event>
 8    1  0.1054833E+005  0.1043930E+01  0.7957747E-01            NaN
         13   -1    0    0    0    0  0.00000000000E+00  0.00000000000E+00  0.74505805969E-08  0.10566000000E+00  0.10566000000E+00 0. -1.
     999900   -1    0    0    0    0 -0.00000000000E+00 -0.00000000000E+00 -0.74505805969E-08  0.93827000000E+00  0.93827000000E+00 0. -1.
     999902    2    1    2    0    0  0.66590801566E-02 -0.19401948621E-01  0.91313066016E-02  0.10214764987E+01  0.10212296890E+01 0.  0.
     999903    2    3    3    0    0  0.24812439618E-01 -0.12779230720E+00 -0.24514619960E-01  0.13400252015E+00  0.20228145601E-01 0.  0.
         14    1    1    2    0    0 -0.66590801566E-02  0.19401948621E-01 -0.91313066016E-02  0.22453501265E-01  0.00000000000E+00 0.  1.
     999901    1    3    3    0    0 -0.18153359461E-01  0.10839035858E+00  0.33645926562E-01  0.88747397859E+00  0.88000000000E+00 0.  1.
        -11    1    4    4    0    0  0.13669769159E-01 -0.27192991996E-01 -0.36417353374E-02  0.30656887641E-01  0.51100000000E-03 0.  1.
         11    1    4    4    0    0  0.11142670459E-01 -0.10059931521E+00 -0.20872884623E-01  0.10334563251E+00  0.51100000000E-03 0. -1.
</event>
<event>
 8    1  0.1054833E+005  0.1043930E+01  0.7957747E-01            NaN
         13   -1    0    0    0    0  0.00000000000E+00  0.00000000000E+00  0.74505805969E-08  0.10566000000E+00  0.10566000000E+00 0. -1.
     999900   -1    0    0    0    0 -0.00000000000E+00 -0.00000000000E+00 -0.74505805969E-08  0.93827000000E+00  0.93827000000E+00 0.  1.
     999902    2    1    2    0    0  0.12545024123E-01 -0.17804901817E-01 -0.71945984944E-02  0.10209919441E+01  0.10207342434E+01 0.  0.
     999903    2    3    3    0    0  0.67144704907E-01 -0.87058638899E-01 -0.74218198333E-01  0.13404810817E+00  0.19311559630E-01 0.  0.
         14    1    1    2    0    0 -0.12545024123E-01  0.17804901817E-01  0.71945984944E-02  0.22938055856E-01  0.00000000000E+00 0. -1.
     999901    1    3    3    0    0 -0.54599680784E-01  0.69253737082E-01  0.67023599839E-01  0.88694383598E+00  0.88000000000E+00 0. -1.
        -11    1    4    4    0    0  0.52106629378E-01 -0.53722398083E-01 -0.53660444397E-01  0.92091809054E-01  0.51100000000E-03 0.  1.
         11    1    4    4    0    0  0.15038075528E-01 -0.33336240817E-01 -0.20557753937E-01  0.41956299114E-01  0.51100000000E-03 0. -1.
</event>
<event>
 8    1  0.1054833E+005  0.1043930E+01  0.7957747E-01            NaN
         13   -1    0    0    0    0  0.00000000000E+00  0.00000000000E+00  0.74505805969E-08  0.10566000000E+00  0.10566000000E+00 0. -1.
     999900   -1    0    0    0    0 -0.00000000000E+00 -0.00000000000E+00 -0.74505805969E-08  0.93827000000E+00  0.93827000000E+00 0. -1.
     999902    2    1    2    0    0 -0.18274614573E-01 -0.95627533566E-02 -0.11309481711E-01  0.10204074116E+01  0.10201362524E+01 0.  0.
     999903    2    3    3    0    0 -0.34138537348E-03 -0.11614244918E+00 -0.60373918474E-01  0.13243885852E+00  0.20145872242E-01 0.  0.
         14    1    1    2    0    0  0.18274614573E-01  0.95627533566E-02  0.11309481711E-01  0.23522588423E-01  0.00000000000E+00 0.  1.
     999901    1    3    3    0    0 -0.17933229200E-01  0.10657969582E+00  0.49064436763E-01  0.88796855306E+00  0.88000000000E+00 0.  1.
        -11    1    4    4    0    0  0.60482489445E-02 -0.74154939006E-01 -0.46580895811E-01  0.87781417565E-01  0.51100000000E-03 0. -1.
         11    1    4    4    0    0 -0.63896343179E-02 -0.41987510171E-01 -0.13793022663E-01  0.44657440950E-01  0.51100000000E-03 0.  1.
</event>
<event>
 8    1  0.1054833E+005  0.1043930E+01  0.7957747E-01            NaN
         13   -1    0    0    0    0  0.00000000000E+00  0.00000000000E+00  0.74505805969E-08  0.10566000000E+00  0.10566000000E+00 0. -1.
     999900   -1    0    0    0    0 -0.00000000000E+00 -0.00000000000E+00 -0.74505805969E-08  0.93827000000E+00  0.93827000000E+00 0. -1.
     999902    2    1    2    0    0  0.21015090748E-01 -0.65408902443E-02  0.18585495577E-01  0.10151230923E+01  0.10147142724E+01 0.  0.
     999903    2    3    3    0    0  0.12376120631E+00 -0.26207381327E-01 -0.85649219926E-02  0.12851118155E+00  0.20930907115E-01 0.  0.
         14    1    1    2    0    0 -0.21015090748E-01  0.65408902443E-02 -0.18585495577E-01  0.28806907681E-01  0.00000000000E+00 0.  1.
     999901    1    3    3    0    0 -0.10274611556E+00  0.19666491082E-01  0.27150417569E-01  0.88661191076E+00  0.88000000000E+00 0. -1.
        -11    1    4    4    0    0  0.37896066902E-01 -0.17278256392E-01 -0.65032741032E-02  0.42156894165E-01  0.51100000000E-03 0. -1.
         11    1    4    4    0    0  0.85865139407E-01 -0.89291249353E-02 -0.20616478894E-02  0.86354287389E-01  0.51100000000E-03 0.  1.
</event>
<event>
 8    1  0.1054833E+005  0.1043930E+01  0.7957747E-01            NaN
         13   -1    0    0    0    0  0.00000000000E+00  0.00000000000E+00  0.74505805969E-08  0.10566000000E+00  0.10566000000E+00 0.  1.
     999900   -1    0    0    0    0 -0.00000000000E+00 -0.00000000000E+00 -0.74505805969E-08  0.93827000000E+00  0.93827000000E+00 0. -1.
     999902    2    1    2    0    0 -0.16086255571E-01  0.21033896491E-01  0.12591215816E-02  0.10174200432E+01  0.10170746121E+01 0.  0.
     999903    2    3    3    0    0 -0.11581106090E+00 -0.52763016583E-01 -0.72709456769E-02  0.12867723274E+00  0.17573441045E-01 0.  0.
         14    1    1    2    0    0  0.16086255571E-01 -0.21033896491E-01 -0.12591215816E-02  0.26509956754E-01  0.00000000000E+00 0. -1.
     999901    1    3    3    0    0  0.99724805325E-01  0.73796913075E-01  0.85300672585E-02  0.88874281050E+00  0.88000000000E+00 0.  1.
        -11    1    4    4    0    0 -0.10963845922E+00 -0.53798491192E-01 -0.60312085796E-02  0.12227635092E+00  0.51100000000E-03 0.  1.
         11    1    4    4    0    0 -0.61726016731E-02  0.10354746086E-02 -0.12397370973E-02  0.64008818260E-02  0.51100000000E-03 0. -1.
</event>
<event>
 8    1  0.1054833E+005  0.1043930E+01  0.7957747E-01            NaN
         13   -1    0    0    0    0  0.00000000000E+00  0.00000000000E+00  0.74505805969E-08  0.10566000000E+00  0.10566000000E+00 0.  1.
     999900   -1    0    0    0    0 -0.00000000000E+00 -0.00000000000E+00 -0.74505805969E-08  0.93827000000E+00  0.93827000000E+00 0.  1.
     999902    2    1    2    0    0  0.57403697995E-02 -0.10451597900E-01  0.20232195356E-01  0.10204453354E+01  0.10201750600E+01 0.  0.
     999903    2    3    3    0    0 -0.51840979645E-01 -0.10351483603E+00 -0.56556482486E-01  0.13034821755E+00  0.19728498619E-01 0.  0.
         14    1    1    2    0    0 -0.57403697995E-02  0.10451597900E-01 -0.20232195356E-01  0.23484664635E-01  0.00000000000E+00 0.  1.
     999901    1    3    3    0    0  0.57581349445E-01  0.93063238135E-01  0.76788677842E-01  0.89009711781E+00  0.88000000000E+00 0.  1.
        -11    1    4    4    0    0 -0.10111920720E-01 -0.29487635599E-01 -0.24001102878E-01  0.39345719643E-01  0.51100000000E-03 0.  1.
         11    1    4    4    0    0 -0.41729058925E-01 -0.74027200436E-01 -0.32555379607E-01  0.91002497908E-01  0.51100000000E-03 0. -1.
</event>
<event>
 8    1  0.1054833E+005  0.1043930E+01  0.7957747E-01            NaN
         13   -1    0    0    0    0  0.00000000000E+00  0.00000000000E+00  0.74505805969E-08  0.10566000000E+00  0.10566000000E+00 0.  1.
     999900   -1    0    0    0    0 -0.00000000000E+00 -0.00000000000E+00 -0.74505805969E-08  0.93827000000E+00  0.93827000000E+00 0. -1.
     999902    2    1    2    0    0 -0.35580506642E-02  0.15995875342E-01  0.16800485304E-01  0.10204612110E+01  0.10201913051E+01 0.  0.
     999903    2    3    3    0    0 -0.12090963381E-01  0.27355381001E-01 -0.12414067109E+00  0.12913284356E+00  0.19232181391E-01 0.  0.
         14    1    1    2    0    0  0.35580506642E-02 -0.15995875342E-01 -0.16800485304E-01  0.23468789039E-01  0.00000000000E+00 0. -1.
     999901    1    3    3    0    0  0.85329127171E-02 -0.11359505659E-01  0.14094115640E+00  0.89132836740E+00  0.88000000000E+00 0.  1.
        -11    1    4    4    0    0 -0.12171672833E-02  0.99165774700E-02 -0.77753974951E-01  0.78394908932E-01  0.51100000000E-03 0.  1.
         11    1    4    4    0    0 -0.10873796098E-01  0.17438803531E-01 -0.46386696143E-01  0.50737934627E-01  0.51100000000E-03 0. -1.
</event>
<event>
 8    1  0.1054833E+005  0.1043930E+01  0.7957747E-01            NaN
         13   -1    0    0    0    0  0.00000000000E+00  0.00000000000E+00  0.74505805969E-08  0.10566000000E+00  0.10566000000E+00 0. -1.
     999900   -1    0    0    0    0 -0.00000000000E+00 -0.00000000000E+00 -0.74505805969E-08  0.93827000000E+00  0.93827000000E+00 0.  1.
     999902    2    1    2    0    0 -0.11421778736E-04 -0.72625024577E-02  0.21755316723E-01  0.10209944844E+01  0.10207368413E+01 0.  0.
     999903    2    3    3    0    0 -0.10103180886E+00 -0.45822980903E-01 -0.65045412694E-01  0.13013737138E+00  0.19941357418E-01 0.  0.
         14    1    1    2    0    0  0.11421778736E-04  0.72625024577E-02 -0.21755316723E-01  0.22935515650E-01  0.00000000000E+00 0.  1.
     999901    1    3    3    0    0  0.10102038709E+00  0.38560478445E-01  0.86800729417E-01  0.89085711297E+00  0.88000000000E+00 0. -1.
        -11    1    4    4    0    0 -0.21297443864E-01 -0.26944432343E-02 -0.74179925258E-02  0.22718469878E-01  0.51100000000E-03 0.  1.
         11    1    4    4    0    0 -0.79734365000E-01 -0.43128537669E-01 -0.57627420168E-01  0.10741890150E+00  0.51100000000E-03 0. -1.
</event>
<event>
 8    1  0.1054833E+005  0.1043930E+01  0.7957747E-01            NaN
         13   -1    0    0    0    0  0.00000000000E+00  0.00000000000E+00  0.74505805969E-08  0.10566000000E+00  0.10566000000E+00 0.  1.
     999900   -1    0    0    0    0 -0.00000000000E+00 -0.00000000000E+00 -0.74505805969E-08  0.93827000000E+00  0.93827000000E+00 0.  1.
     999902    2    1    2    0    0  0.80487705326E-02  0.22002182857E-01  0.19836311958E-02  0.10204180126E+01  0.10201471006E+01 0.  0.
     999903    2    3    3    0    0  0.38769268921E-01  0.80048562920E-01  0.96966558047E-01  0.13287371083E+00  0.18495432181E-01 0.  0.
         14    1    1    2    0    0 -0.80487705326E-02 -0.22002182857E-01 -0.19836311958E-02  0.23511987374E-01  0.00000000000E+00 0. -1.
     999901    1    3    3    0    0 -0.30720498389E-01 -0.58046380063E-01 -0.94982926852E-01  0.88754430180E+00  0.88000000000E+00 0.  1.
        -11    1    4    4    0    0  0.13062391514E-01  0.41627189704E-01  0.37368028893E-01  0.57446320153E-01  0.51100000000E-03 0. -1.
         11    1    4    4    0    0  0.25706877407E-01  0.38421373216E-01  0.59598529154E-01  0.75427390676E-01  0.51100000000E-03 0.  1.
</event>
<event>
 8    1  0.1054833E+005  0.1043930E+01  0.7957747E-01            NaN
         13   -1    0    0    0    0  0.00000000000E+00  0.00000000000E+00  0.74505805969E-08  0.10566000000E+00  0.10566000000E+00 0. -1.
     999900   -1    0    0    0    0 -0.00000000000E+00 -0.00000000000E+00 -0.74505805969E-08  0.93827000000E+00  0.93827000000E+00 0.  1.
     999902    2    1    2    0    0  0.10540327373E-01  0.23699132963E-02  0.19569204468E-01  0.10215767283E+01  0.10213321414E+01 0.  0.
     999903    2    3    3    0    0 -0.26674938324E-01  0.10133112375E+00 -0.74713321520E-01  0.13024766908E+00  0.20070523495E-01 0.  0.
         14    1    1    2    0    0 -0.10540327373E-01 -0.23699132963E-02 -0.19569204468E-01  0.22353271654E-01  0.00000000000E+00 0.  1.
     999901    1    3    3    0    0  0.37215265697E-01 -0.98961210459E-01  0.94282525988E-01  0.89132905926E+00  0.88000000000E+00 0. -1.
        -11    1    4    4    0    0 -0.15412223060E-01  0.57188829880E-01 -0.54185674400E-01  0.80277315064E-01  0.51100000000E-03 0. -1.
         11    1    4    4    0    0 -0.11262715264E-01  0.44142293875E-01 -0.20527647121E-01  0.49970354021E-01  0.51100000000E-03 0.  1.
</event>
<event>
 8    1  0.1054833E+005  0.1043930E+01  0.7957747E-01            NaN
         13   -1    0    0    0    0  0.00000000000E+00  0.00000000000E+00  0.74505805969E-08  0.10566000000E+00  0.10566000000E+00 0.  1.
     999900   -1    0    0    0    0 -0.00000000000E+00 -0.00000000000E+00 -0.74505805969E-08  0.93827000000E+00  0.93827000000E+00 0.  1.
     999902    2    1    2    0    0 -0.12368273717E-01 -0.75676275640E-02  0.23323208513E-01  0.10164670206E+01  0.10160959545E+01 0.  0.
     999903    2    3    3    0    0 -0.89953928672E-01 -0.90200157635E-01  0.52273900547E-02  0.12901272459E+00  0.19727639943E-01 0.  0.
         14    1    1    2    0    0  0.12368273717E-01  0.75676275640E-02 -0.23323208513E-01  0.27462979391E-01  0.00000000000E+00 0. -1.
     999901    1    3    3    0    0  0.77585654955E-01  0.82632530071E-01  0.18095818459E-01  0.88745429602E+00  0.88000000000E+00 0. -1.
        -11    1    4    4    0    0 -0.39066356417E-01 -0.32040973507E-01  0.10295430681E-01  0.51566085762E-01  0.51100000000E-03 0.  1.
         11    1    4    4    0    0 -0.50887572256E-01 -0.58159184128E-01 -0.50680406260E-02  0.77446638825E-01  0.51100000000E-03 0. -1.
</event>
<event>
 8    1  0.1054833E+005  0.1043930E+01  0.7957747E-01            NaN
         13   -1    0    0    0    0  0.00000000000E+00  0.00000000000E+00  0.74505805969E-08  0.10566000000E+00  0.10566000000E+00 0. -1.
     999900   -1    0    0    0    0 -0.00000000000E+00 -0.00000000000E+00 -0.74505805969E-08  0.93827000000E+00  0.93827000000E+00 0.  1.
     999902    2    1    2    0    0 -0.22685448068E-01 -0.33908259135E-02  0.62849857977E-02  0.10201470586E+01  0.10198697921E+01 0.  0.
     999903    2    3    3    0    0  0.69485600376E-01  0.12645539957E-01 -0.10502971392E+00  0.12821453338E+00  0.20483345030E-01 0.  0.
         14    1    1    2    0    0  0.22685448068E-01  0.33908259135E-02 -0.62849857977E-02  0.23782941384E-01  0.00000000000E+00 0.  1.
     999901    1    3    3    0    0 -0.92171048444E-01 -0.16036365871E-01  0.11131469972E+00  0.89193252524E+00  0.88000000000E+00 0. -1.
        -11    1    4    4    0    0  0.39553536154E-01  0.74948216250E-02 -0.76959926279E-01  0.86854740501E-01  0.51100000000E-03 0. -1.
         11    1    4    4    0    0  0.29932064222E-01  0.51507183324E-02 -0.28069787638E-01  0.41359792879E-01  0.51100000000E-03 0.  1.
</event>
<event>
 8    1  0.1054833E+005  0.1043930E+01  0.7957747E-01            NaN
         13   -1    0    0    0    0  0.00000000000E+00  0.00000000000E+00  0.74505805969E-08  0.10566000000E+00  0.10566000000E+00 0.  1.
     999900   -1    0    0    0    0 -0.00000000000E+00 -0.00000000000E+00 -0.74505805969E-08  0.93827000000E+00  0.93827000000E+00 0.  1.
     999902    2    1    2    0    0 -0.20829865460E-01  0.63909006993E-02 -0.93519088819E-02  0.10202195570E+01  0.10199439982E+01 0.  0.
     999903    2    3    3    0    0 -0.66855283114E-01  0.10391649012E+00  0.39770124852E-01  0.13227667943E+00  0.25439954604E-01 0.  0.
         14    1    1    2    0    0  0.20829865460E-01 -0.63909006993E-02  0.93519088819E-02  0.23710442985E-01  0.00000000000E+00 0. -1.
     999901    1    3    3    0    0  0.46025417654E-01 -0.97525589421E-01 -0.49122033734E-01  0.88794287759E+00  0.88000000000E+00 0.  1.
        -11    1    4    4    0    0 -0.26344096946E-01  0.60335622093E-01  0.28370883820E-01  0.71690772816E-01  0.51100000000E-03 0.  1.
         11    1    4    4    0    0 -0.40511186167E-01  0.43580868027E-01  0.11399241033E-01  0.60585906610E-01  0.51100000000E-03 0. -1.
</event>
<event>
 8    1  0.1054833E+005  0.1043930E+01  0.7957747E-01            NaN
         13   -1    0    0    0    0  0.00000000000E+00  0.00000000000E+00  0.74505805969E-08  0.10566000000E+00  0.10566000000E+00 0. -1.
     999900   -1    0    0    0    0 -0.00000000000E+00 -0.00000000000E+00 -0.74505805969E-08  0.93827000000E+00  0.93827000000E+00 0.  1.
     999902    2    1    2    0    0  0.16757253528E-01 -0.14576298367E-02  0.16173913323E-01  0.10205949255E+01  0.10203281218E+01 0.  0.
     999903    2    3    3    0    0  0.26966368303E-01  0.58264542572E-01 -0.11026455840E+00  0.12949580023E+00  0.22112157206E-01 0.  0.
         14    1    1    2    0    0 -0.16757253528E-01  0.14576298367E-02 -0.16173913323E-01  0.23335074518E-01  0.00000000000E+00 0. -1.
     999901    1    3    3    0    0 -0.10209114775E-01 -0.59722172408E-01  0.12643847172E+00  0.89109912526E+00  0.88000000000E+00 0. -1.
        -11    1    4    4    0    0  0.20148833398E-01  0.17936038659E-01 -0.42319309395E-01  0.50188265947E-01  0.51100000000E-03 0.  1.
         11    1    4    4    0    0  0.68175349058E-02  0.40328503913E-01 -0.67945249005E-01  0.79307534279E-01  0.51100000000E-03 0. -1.
</event>
<event>
 8    1  0.1054833E+005  0.1043930E+01  0.7957747E-01            NaN
         13   -1    0    0    0    0  0.00000000000E+00  0.00000000000E+00  0.74505805969E-08  0.10566000000E+00  0.10566000000E+00 0. -1.
     999900   -1    0    0    0    0 -0.00000000000E+00 -0.00000000000E+00 -0.74505805969E-08  0.93827000000E+00  0.93827000000E+00 0. -1.
     999902    2    1    2    0    0  0.78588145878E-02  0.88528461913E-02  0.45979157221E-02  0.10312306031E+01  0.10311524049E+01 0.  0.
     999903    2    3    3    0    0 -0.78444097739E-01 -0.10104855485E+00 -0.49317211006E-01  0.13857537766E+00  0.20165839540E-01 0.  0.
         14    1    1    2    0    0 -0.78588145878E-02 -0.88528461913E-02 -0.45979157221E-02  0.12699396891E-01  0.00000000000E+00 0.  1.
     999901    1    3    3    0    0  0.86302912327E-01  0.10990140105E+00  0.53915126728E-01  0.89265522545E+00  0.88000000000E+00 0.  1.
        -11    1    4    4    0    0 -0.29516214649E-01 -0.23214148281E-01 -0.15123102593E-01  0.40485466042E-01  0.51100000000E-03 0.  1.
         11    1    4    4    0    0 -0.48927883090E-01 -0.77834406574E-01 -0.34194108413E-01  0.98089911619E-01  0.51100000000E-03 0. -1.
</event>
<event>
 8    1  0.1054833E+005  0.1043930E+01  0.7957747E-01            NaN
         13   -1    0    0    0    0  0.00000000000E+00  0.00000000000E+00  0.74505805969E-08  0.10566000000E+00  0.10566000000E+00 0. -1.
     999900   -1    0    0    0    0 -0.00000000000E+00 -0.00000000000E+00 -0.74505805969E-08  0.93827000000E+00  0.93827000000E+00 0.  1.
     999902    2    1    2    0    0  0.27090929417E-02  0.12479635006E-01 -0.18914785458E-01  0.10211078708E+01  0.10208527975E+01 0.  0.
     999903    2    3    3    0    0  0.43480732680E-01 -0.30375904243E-01 -0.12062086519E+00  0.13327734047E+00  0.20004666725E-01 0.  0.
         14    1    1    2    0    0 -0.27090929417E-02 -0.12479635006E-01  0.18914785458E-01  0.22822129247E-01  0.00000000000E+00 0. -1.
     999901    1    3    3    0    0 -0.40771639738E-01  0.42855539249E-01  0.10170607973E+00  0.88783053028E+00  0.88000000000E+00 0. -1.
        -11    1    4    4    0    0  0.22074550530E-01 -0.36497898747E-02 -0.50735482287E-01  0.55452295094E-01  0.51100000000E-03 0. -1.
         11    1    4    4    0    0  0.21406182149E-01 -0.26726114368E-01 -0.69885382901E-01  0.77825045375E-01  0.51100000000E-03 0.  1.
</event>
<event>
 8    1  0.1054833E+005  0.1043930E+01  0.7957747E-01            NaN
         13   -1    0    0    0    0  0.00000000000E+00  0.00000000000E+00  0.74505805969E-08  0.10566000000E+00  0.10566000000E+00 0.  1.
     999900   -1    0    0    0    0 -0.00000000000E+00 -0.00000000000E+00 -0.74505805969E-08  0.93827000000E+00  0.93827000000E+00 0.  1.
     999902    2    1    2    0    0 -0.12415017561E-02 -0.21474454272E-01  0.10210919612E-01  0.10201191539E+01  0.10198412287E+01 0.  0.
     999903    2    3    3    0    0 -0.22406936871E-01 -0.14010293586E-01  0.12779195549E+00  0.13201499934E+00  0.19970403492E-01 0.  0.
         14    1    1    2    0    0  0.12415017561E-02  0.21474454272E-01 -0.10210919612E-01  0.23810846105E-01  0.00000000000E+00 0. -1.
     999901    1    3    3    0    0  0.21165435115E-01 -0.74641606868E-02 -0.11758103588E+00  0.88810415455E+00  0.88000000000E+00 0.  1.
        -11    1    4    4    0    0 -0.25217259515E-02 -0.12853506478E-01  0.46029531231E-01  0.47859696999E-01  0.51100000000E-03 0. -1.
         11    1    4    4    0    0 -0.19885210920E-01 -0.11567871076E-02  0.81762424263E-01  0.84155302341E-01  0.51100000000E-03 0.  1.
</event>
<event>
 8    1  0.1054833E+005  0.1043930E+01  0.7957747E-01            NaN
         13   -1    0    0    0    0  0.00000000000E+00  0.00000000000E+00  0.74505805969E-08  0.10566000000E+00  0.10566000000E+00 0.  1.
     999900   -1    0    0    0    0 -0.00000000000E+00 -0.00000000000E+00 -0.74505805969E-08  0.93827000000E+00  0.93827000000E+00 0.  1.
     999902    2    1    2    0    0  0.27176890432E-02 -0.15975241400E-01  0.19067975459E-01  0.10189063740E+01  0.10185990463E+01 0.  0.
     999903    2    3    3    0    0 -0.18379038464E-01  0.10846443501E+00 -0.58804577436E-01  0.12649702873E+00  0.21004695501E-01 0.  0.
         14    1    1    2    0    0 -0.27176890432E-02  0.15975241400E-01 -0.19067975459E-01  0.25023626029E-01  0.00000000000E+00 0. -1.
     999901    1    3    3    0    0  0.21096727507E-01 -0.12443967641E+00  0.77872552895E-01  0.89240934524E+00  0.88000000000E+00 0. -1.
        -11    1    4    4    0    0 -0.16807424399E-01  0.85764793588E-01 -0.36767089737E-01  0.94816503536E-01  0.51100000000E-03 0. -1.
         11    1    4    4    0    0 -0.15716140652E-02  0.22699641424E-01 -0.22037487699E-01  0.31680525195E-01  0.51100000000E-03 0.  1.
</event>
<event>
 8    1  0.1054833E+005  0.1043930E+01  0.7957747E-01            NaN
         13   -1    0    0    0    0  0.00000000000E+00  0.00000000000E+00  0.74505805969E-08  0.10566000000E+00  0.10566000000E+00 0.  1.
     999900   -1    0    0    0    0 -0.00000000000E+00 -0.00000000000E+00 -0.74505805969E-08  0.93827000000E+00  0.93827000000E+00 0. -1.
     999902    2    1    2    0    0  0.22897087280E-01  0.25465608237E-02  0.11205800315E-01  0.10183110317E+01  0.10179887159E+01 0.  0.
     999903    2    3    3    0    0 -0.54796934951E-01  0.86036525409E-01  0.75758570501E-01  0.12860658893E+00  0.19882301877E-01 0.  0.
         14    1    1    2    0    0 -0.22897087280E-01 -0.25465608237E-02 -0.11205800315E-01  0.25618968337E-01  0.00000000000E+00 0. -1.
     999901    1    3    3    0    0  0.77694022231E-01 -0.83489964585E-01 -0.64552770185E-01  0.88970444273E+00  0.88000000000E+00 0. -1.
        -11    1    4    4    0    0 -0.12496444079E-01  0.32104474249E-01  0.17473723265E-01  0.38632246986E-01  0.51100000000E-03 0. -1.
         11    1    4    4    0    0 -0.42300490872E-01  0.53932051159E-01  0.58284847236E-01  0.89974341946E-01  0.51100000000E-03 0.  1.
</event>
<event>
 8    1  0.1054833E+005  0.1043930E+01  0.7957747E-01            NaN
         13   -1    0    0    0    0  0.00000000000E+00  0.00000000000E+00  0.74505805969E-08  0.10566000000E+00  0.10566000000E+00 0. -1.
     999900   -1    0    0    0    0 -0.00000000000E+00 -0.00000000000E+00 -0.74505805969E-08  0.93827000000E+00  0.93827000000E+00 0.  1.
     999902    2    1    2    0    0 -0.11060741049E-01  0.19961542732E-01 -0.47510295108E-02  0.10206195847E+01  0.10203533511E+01 0.  0.
     999903    2    3    3    0    0  0.81427504401E-02 -0.12629213895E+00 -0.83633805997E-02  0.12833489773E+00  0.19593138976E-01 0.  0.
         14    1    1    2    0    0  0.11060741049E-01 -0.19961542732E-01  0.47510295108E-02  0.23310415316E-01  0.00000000000E+00 0. -1.
     999901    1    3    3    0    0 -0.19203491490E-01  0.14625368168E+00  0.36123510889E-02  0.89228468695E+00  0.88000000000E+00 0.  1.
        -11    1    4    4    0    0 -0.42468601872E-03 -0.88124072224E-01  0.90340455230E-03  0.88131207437E-01  0.51100000000E-03 0. -1.
         11    1    4    4    0    0  0.85674364588E-02 -0.38168066726E-01 -0.92667851520E-02  0.40203690293E-01  0.51100000000E-03 0.  1.
</event>
<event>
 8    1  0.1309417E+005  0.1043930E+01  0.7957747E-01            NaN
         13   -1    0    0    0    0  0.00000000000E+00  0.00000000000E+00  0.74505805969E-08  0.10566000000E+00  0.10566000000E+00 0. -1.
     999900   -1    0    0    0    0 -0.00000000000E+00 -0.00000000000E+00 -0.74505805969E-08  0.93827000000E+00  0.93827000000E+00 0.  1.
     999902    2    1    2    0    0  0.12234256930E-01  0.14757843668E-01  0.14798160109E-01  0.10197131353E+01  0.10194255352E+01 0.  0.
     999903    2    3    3    0    0  0.65252203316E-01  0.11306233545E+00 -0.88344290193E-02  0.13233882027E+00  0.19863898904E-01 0.  0.
         14    1    1    2    0    0 -0.12234256930E-01 -0.14757843668E-01 -0.14798160109E-01  0.24216864681E-01  0.00000000000E+00 0.  1.
     999901    1    3    3    0    0 -0.53017946386E-01 -0.98304491778E-01  0.23632589129E-01  0.88737431505E+00  0.88000000000E+00 0. -1.
        -11    1    4    4    0    0  0.33002954307E-01  0.52544315814E-01  0.54515758392E-02  0.62290295532E-01  0.51100000000E-03 0.  1.
         11    1    4    4    0    0  0.32249249009E-01  0.60518019632E-01 -0.14286004859E-01  0.70048524736E-01  0.51100000000E-03 0. -1.
</event>
<event>
 8    1  0.1054833E+005  0.1043930E+01  0.7957747E-01            NaN
         13   -1    0    0    0    0  0.00000000000E+00  0.00000000000E+00  0.74505805969E-08  0.10566000000E+00  0.10566000000E+00 0.  1.
     999900   -1    0    0    0    0 -0.00000000000E+00 -0.00000000000E+00 -0.74505805969E-08  0.93827000000E+00  0.93827000000E+00 0.  1.
     999902    2    1    2    0    0 -0.18141902504E-03  0.85226476711E-02  0.16051750314E-01  0.10257550963E+01  0.10255940671E+01 0.  0.
     999903    2    3    3    0    0 -0.67090985963E-02 -0.62686555718E-01 -0.11551070856E+00  0.13310620574E+00  0.19998048412E-01 0.  0.
         14    1    1    2    0    0  0.18141902504E-03 -0.85226476711E-02 -0.16051750314E-01  0.18174903696E-01  0.00000000000E+00 0. -1.
     999901    1    3    3    0    0  0.65276795712E-02  0.71209203389E-01  0.13156245888E+00  0.89264889057E+00  0.88000000000E+00 0. -1.
        -11    1    4    4    0    0 -0.65679335705E-02 -0.74788166868E-02 -0.27078860618E-01  0.28854744216E-01  0.51100000000E-03 0.  1.
         11    1    4    4    0    0 -0.14116502575E-03 -0.55207739031E-01 -0.88431847947E-01  0.10425146152E+00  0.51100000000E-03 0. -1.
</event>
<event>
 8    1  0.1054833E+005  0.1043930E+01  0.7957747E-01            NaN
         13   -1    0    0    0    0  0.00000000000E+00  0.00000000000E+00  0.74505805969E-08  0.10566000000E+00  0.10566000000E+00 0. -1.
     999900   -1    0    0    0    0 -0.00000000000E+00 -0.00000000000E+00 -0.74505805969E-08  0.93827000000E+00  0.93827000000E+00 0.  1.
     999902    2    1    2    0    0  0.20597832940E-01 -0.11236650389E-01 -0.39970852154E-02  0.10201285353E+01  0.10198508316E+01 0.  0.
     999903    2    3    3    0    0  0.89449463623E-01 -0.75337396148E-01 -0.60496664945E-01  0.13331307803E+00  0.20871044655E-01 0.  0.
         14    1    1    2    0    0 -0.20597832940E-01  0.11236650389E-01  0.39970852154E-02  0.23801464745E-01  0.00000000000E+00 0.  1.
     999901    1    3    3    0    0 -0.68851630682E-01  0.64100745759E-01  0.56499579730E-01  0.88681545722E+00  0.88000000000E+00 0. -1.
        -11    1    4    4    0    0  0.61189720588E-01 -0.40427329696E-01 -0.31298813234E-01  0.79739749955E-01  0.51100000000E-03 0. -1.
         11    1    4    4    0    0  0.28259743034E-01 -0.34910066452E-01 -0.29197851711E-01  0.53573328080E-01  0.51100000000E-03 0.  1.
</event>
<event>
 8    1  0.1054833E+005  0.1043930E+01  0.7957747E-01            NaN
         13   -1    0    0    0    0  0.00000000000E+00  0.00000000000E+00  0.74505805969E-08  0.10566000000E+00  0.10566000000E+00 0.  1.
     999900   -1    0    0    0    0 -0.00000000000E+00 -0.00000000000E+00 -0.74505805969E-08  0.93827000000E+00  0.93827000000E+00 0. -1.
     999902    2    1    2    0    0 -0.17357251064E-01 -0.12949830175E-01 -0.67590161883E-02  0.10212439566E+01  0.10209919502E+01 0.  0.
     999903    2    3    3    0    0 -0.10898416405E+00  0.35731814586E-01  0.62604067000E-01  0.13243766102E+00  0.21590605924E-01 0.  0.
         14    1    1    2    0    0  0.17357251064E-01  0.12949830175E-01  0.67590161883E-02  0.22686043416E-01  0.00000000000E+00 0.  1.
     999901    1    3    3    0    0  0.91626912990E-01 -0.48681644761E-01 -0.69363083188E-01  0.88880629556E+00  0.88000000000E+00 0. -1.
        -11    1    4    4    0    0 -0.97325092368E-01  0.24364367945E-01  0.55583756677E-01  0.11469791261E+00  0.51100000000E-03 0.  1.
         11    1    4    4    0    0 -0.11659071685E-01  0.11367446641E-01  0.70203103230E-02  0.17739748412E-01  0.51100000000E-03 0. -1.
</event>
<event>
 8    1  0.1054833E+005  0.1043930E+01  0.7957747E-01            NaN
         13   -1    0    0    0    0  0.00000000000E+00  0.00000000000E+00  0.74505805969E-08  0.10566000000E+00  0.10566000000E+00 0. -1.
     999900   -1    0    0    0    0 -0.00000000000E+00 -0.00000000000E+00 -0.74505805969E-08  0.93827000000E+00  0.93827000000E+00 0.  1.
     999902    2    1    2    0    0  0.19185493701E-01 -0.70466965082E-02  0.93102710080E-02  0.10214706980E+01  0.10212237593E+01 0.  0.
     999903    2    3    3    0    0  0.11086151585E+00 -0.50990719525E-01 -0.49955285169E-01  0.13363739363E+00  0.21750707686E-01 0.  0.
         14    1    1    2    0    0 -0.19185493701E-01  0.70466965082E-02 -0.93102710080E-02  0.22459302003E-01  0.00000000000E+00 0. -1.
     999901    1    3    3    0    0 -0.91676022151E-01  0.43944023016E-01  0.59265556177E-01  0.88783330437E+00  0.88000000000E+00 0. -1.
        -11    1    4    4    0    0  0.90148988020E-01 -0.50219375720E-01 -0.40658966612E-01  0.11091545621E+00  0.51100000000E-03 0. -1.
         11    1    4    4    0    0  0.20712527832E-01 -0.77134380474E-03 -0.92963185564E-02  0.22721937421E-01  0.51100000000E-03 0.  1.
</event>
<event>
 8    1  0.1054833E+005  0.1043930E+01  0.7957747E-01            NaN
         13   -1    0    0    0    0  0.00000000000E+00  0.00000000000E+00  0.74505805969E-08  0.10566000000E+00  0.10566000000E+00 0.  1.
     999900   -1    0    0    0    0 -0.00000000000E+00 -0.00000000000E+00 -0.74505805969E-08  0.93827000000E+00  0.93827000000E+00 0. -1.
     999902    2    1    2    0    0  0.46212134082E-02 -0.21128417123E-01  0.12213267427E-01  0.10190919340E+01  0.10187892031E+01 0.  0.
     999903    2    3    3    0    0  0.11823070933E+00 -0.53366866198E-01 -0.13489306154E-02  0.13109960945E+00  0.18941091509E-01 0.  0.
         14    1    1    2    0    0 -0.46212134082E-02  0.21128417123E-01 -0.12213267427E-01  0.24838066043E-01  0.00000000000E+00 0.  1.
     999901    1    3    3    0    0 -0.11360949593E+00  0.32238449074E-01  0.13562198043E-01  0.88799232450E+00  0.88000000000E+00 0.  1.
        -11    1    4    4    0    0  0.93231572916E-01 -0.42675818495E-01  0.66563916362E-02  0.10275174131E+00  0.51100000000E-03 0. -1.
         11    1    4    4    0    0  0.24999136418E-01 -0.10691047703E-01 -0.80053222516E-02  0.28347868138E-01  0.51100000000E-03 0.  1.
</event>
<event>
 8    1  0.1054833E+005  0.1043930E+01  0.7957747E-01            NaN
         13   -1    0    0    0    0  0.00000000000E+00  0.00000000000E+00  0.74505805969E-08  0.10566000000E+00  0.10566000000E+00 0.  1.
     999900   -1    0    0    0    0 -0.00000000000E+00 -0.00000000000E+00 -0.74505805969E-08  0.93827000000E+00  0.93827000000E+00 0.  1.
     999902    2    1    2    0    0  0.83430338783E-02 -0.21609879190E-01  0.22876625436E-02  0.10206528332E+01  0.10203873674E+01 0.  0.
     999903    2    3    3    0    0 -0.50458362290E-01 -0.11065519387E+00  0.50159051023E-01  0.13291506672E+00  0.18970142449E-01 0.  0.
         14    1    1    2    0    0 -0.83430338783E-02  0.21609879190E-01 -0.22876625436E-02  0.23277166770E-01  0.00000000000E+00 0.  1.
     999901    1    3    3    0    0  0.58801396169E-01  0.89045314684E-01 -0.47871388479E-01  0.88773776651E+00  0.88000000000E+00 0. -1.
        -11    1    4    4    0    0 -0.34997279181E-02 -0.25733691486E-01  0.12441315917E-01  0.28801361699E-01  0.51100000000E-03 0.  1.
         11    1    4    4    0    0 -0.46958634372E-01 -0.84921502389E-01  0.37717735106E-01  0.10411370502E+00  0.51100000000E-03 0. -1.
</event>
<event>
 8    1  0.1054833E+005  0.1043930E+01  0.7957747E-01            NaN
         13   -1    0    0    0    0  0.00000000000E+00  0.00000000000E+00  0.74505805969E-08  0.10566000000E+00  0.10566000000E+00 0. -1.
     999900   -1    0    0    0    0 -0.00000000000E+00 -0.00000000000E+00 -0.74505805969E-08  0.93827000000E+00  0.93827000000E+00 0. -1.
     999902    2    1    2    0    0  0.18502091287E-01  0.20776708505E-02  0.14374993042E-01  0.10204079992E+01  0.10201368537E+01 0.  0.
     999903    2    3    3    0    0 -0.12269538462E-01  0.88844063694E-01  0.94644468298E-01  0.13197202017E+00  0.20377180868E-01 0.  0.
         14    1    1    2    0    0 -0.18502091287E-01 -0.20776708505E-02 -0.14374993042E-01  0.23522000831E-01  0.00000000000E+00 0. -1.
     999901    1    3    3    0    0  0.30771629749E-01 -0.86766392844E-01 -0.80269475256E-01  0.88843597900E+00  0.88000000000E+00 0. -1.
        -11    1    4    4    0    0  0.25857582714E-02  0.39659350484E-01  0.32540932230E-01  0.51368508037E-01  0.51100000000E-03 0.  1.
         11    1    4    4    0    0 -0.14855296733E-01  0.49184713211E-01  0.62103536068E-01  0.80603512131E-01  0.51100000000E-03 0. -1.
</event>
<event>
 8    1  0.1054833E+005  0.1043930E+01  0.7957747E-01            NaN
         13   -1    0    0    0    0  0.00000000000E+00  0.00000000000E+00  0.74505805969E-08  0.10566000000E+00  0.10566000000E+00 0.  1.
     999900   -1    0    0    0    0 -0.00000000000E+00 -0.00000000000E+00 -0.74505805969E-08  0.93827000000E+00  0.93827000000E+00 0.  1.
     999902    2    1    2    0    0  0.10553893824E-01  0.82521191801E-04 -0.20029090385E-01  0.10212903015E+01  0.10210393352E+01 0.  0.
     999903    2    3    3    0    0 -0.13066950480E-01 -0.83450131627E-01  0.96103766061E-01  0.12942568810E+00  0.19503979710E-01 0.  0.
         14    1    1    2    0    0 -0.10553893824E-01 -0.82521191801E-04  0.20029090385E-01  0.22639698457E-01  0.00000000000E+00 0.  1.
     999901    1    3    3    0    0  0.23620844304E-01  0.83532652819E-01 -0.11613285645E+00  0.89186461345E+00  0.88000000000E+00 0.  1.
        -11    1    4    4    0    0 -0.11016894011E-01 -0.20321864425E-01  0.20423703631E-01  0.30850266099E-01  0.51100000000E-03 0.  1.
         11    1    4    4    0    0 -0.20500564685E-02 -0.63128267202E-01  0.75680062430E-01  0.98575421997E-01  0.51100000000E-03 0. -1.
</event>
<event>
 8    1  0.1054833E+005  0.1043930E+01  0.7957747E-01            NaN
         13   -1    0    0    0    0  0.00000000000E+00  0.00000000000E+00  0.74505805969E-08  0.10566000000E+00  0.10566000000E+00 0. -1.
     999900   -1    0    0    0    0 -0.00000000000E+00 -0.00000000000E+00 -0.74505805969E-08  0.93827000000E+00  0.93827000000E+00 0. -1.
     999902    2    1    2    0    0 -0.62909516571E-02  0.22919515387E-01 -0.72909625559E-02  0.10190696220E+01  0.10187663403E+01 0.  0.
     999903    2    3    3    0    0  0.10634954592E+00  0.36359303925E-01 -0.61950034374E-01  0.13010611110E+00  0.21390850596E-01 0.  0.
         14    1    1    2    0    0  0.62909516571E-02 -0.22919515387E-01  0.72909625559E-02  0.24860377980E-01  0.00000000000E+00 0. -1.
     999901    1    3    3    0    0 -0.11264049757E+00 -0.13439788538E-01  0.54659071819E-01  0.88896351092E+00  0.88000000000E+00 0.  1.
        -11    1    4    4    0    0  0.71809918773E-01  0.17819431169E-01 -0.49306918069E-01  0.88913608924E-01  0.51100000000E-03 0. -1.
         11    1    4    4    0    0  0.34539627142E-01  0.18539872755E-01 -0.12643116305E-01  0.41192502180E-01  0.51100000000E-03 0.  1.
</event>
<event>
 8    1  0.1054833E+005  0.1043930E+01  0.7957747E-01            NaN
         13   -1    0    0    0    0  0.00000000000E+00  0.00000000000E+00  0.74505805969E-08  0.10566000000E+00  0.10566000000E+00 0.  1.
     999900   -1    0    0    0    0 -0.00000000000E+00 -0.00000000000E+00 -0.74505805969E-08  0.93827000000E+00  0.93827000000E+00 0.  1.
     999902    2    1    2    0    0  0.22717346695E-01 -0.57129537364E-03 -0.67685110993E-02  0.10202188853E+01  0.10199433106E+01 0.  0.
     999903    2    3    3    0    0  0.93230750040E-01 -0.82327285165E-01 -0.42262663274E-01  0.13291058667E+00  0.20232071253E-01 0.  0.
         14    1    1    2    0    0 -0.22717346695E-01  0.57129537364E-03  0.67685110993E-02  0.23711114730E-01  0.00000000000E+00 0. -1.
     999901    1    3    3    0    0 -0.70513403346E-01  0.81755989792E-01  0.35494152175E-01  0.88730829860E+00  0.88000000000E+00 0. -1.
        -11    1    4    4    0    0  0.12222558957E-01 -0.35892827895E-02 -0.16177995932E-02  0.12851159283E-01  0.51100000000E-03 0. -1.
         11    1    4    4    0    0  0.81008191084E-01 -0.78738002376E-01 -0.40644863681E-01  0.12005942739E+00  0.51100000000E-03 0.  1.
</event>
<event>
 8    1  0.1054833E+005  0.1043930E+01  0.7957747E-01            NaN
         13   -1    0    0    0    0  0.00000000000E+00  0.00000000000E+00  0.74505805969E-08  0.10566000000E+00  0.10566000000E+00 0.  1.
     999900   -1    0    0    0    0 -0.00000000000E+00 -0.00000000000E+00 -0.74505805969E-08  0.93827000000E+00  0.93827000000E+00 0.  1.
     999902    2    1    2    0    0 -0.14504484733E-01  0.10458173391E-01 -0.13463714850E-01  0.10215464104E+01  0.10213011522E+01 0.  0.
     999903    2    3    3    0    0  0.16043973412E-01 -0.65590820739E-01 -0.11193341335E+00  0.13226977211E+00  0.20165285519E-01 0.  0.
         14    1    1    2    0    0  0.14504484733E-01 -0.10458173391E-01  0.13463714850E-01  0.22383589650E-01  0.00000000000E+00 0.  1.
     999901    1    3    3    0    0 -0.30548458145E-01  0.76048994130E-01  0.98469698503E-01  0.88927663824E+00  0.88000000000E+00 0. -1.
        -11    1    4    4    0    0 -0.53309987474E-03 -0.39735124855E-01 -0.64322625790E-01  0.75609692846E-01  0.51100000000E-03 0. -1.
         11    1    4    4    0    0  0.16577073287E-01 -0.25855695884E-01 -0.47610787563E-01  0.56660079260E-01  0.51100000000E-03 0.  1.
</event>
<event>
 8    1  0.1054833E+005  0.1043930E+01  0.7957747E-01            NaN
         13   -1    0    0    0    0  0.00000000000E+00  0.00000000000E+00  0.74505805969E-08  0.10566000000E+00  0.10566000000E+00 0.  1.
     999900   -1    0    0    0    0 -0.00000000000E+00 -0.00000000000E+00 -0.74505805969E-08  0.93827000000E+00  0.93827000000E+00 0.  1.
     999902    2    1    2    0    0  0.29795923746E-03 -0.92107830771E-02  0.22711716356E-01  0.10194198110E+01  0.10191251158E+01 0.  0.
     999903    2    3    3    0    0  0.88504551792E-01 -0.64746869669E-01  0.70596539020E-01  0.13197538113E+00  0.20209331567E-01 0.  0.
         14    1    1    2    0    0 -0.29795923746E-03  0.92107830771E-02 -0.22711716356E-01  0.24510188992E-01  0.00000000000E+00 0. -1.
     999901    1    3    3    0    0 -0.88206592554E-01  0.55536086592E-01 -0.47884822664E-01  0.88744442988E+00  0.88000000000E+00 0.  1.
        -11    1    4    4    0    0  0.81369986531E-01 -0.55301631913E-01  0.56108877671E-01  0.11325993323E+00  0.51100000000E-03 0.  1.
         11    1    4    4    0    0  0.71345652609E-02 -0.94452377558E-02  0.14487661349E-01  0.18715447900E-01  0.51100000000E-03 0. -1.
</event>
<event>
 8    1  0.1054833E+005  0.1043930E+01  0.7957747E-01            NaN
         13   -1    0    0    0    0  0.00000000000E+00  0.00000000000E+00  0.74505805969E-08  0.10566000000E+00  0.10566000000E+00 0.  1.
     999900   -1    0    0    0    0 -0.00000000000E+00 -0.00000000000E+00 -0.74505805969E-08  0.93827000000E+00  0.93827000000E+00 0.  1.
     999902    2    1    2    0    0 -0.83570919527E-02 -0.15194242381E-01  0.15567114861E-01  0.10206267588E+01  0.10203606909E+01 0.  0.
     999903    2    3    3    0    0  0.34705825031E-02 -0.10812282587E-01  0.13097900019E+00  0.13300127538E+00  0.20121887749E-01 0.  0.
         14    1    1    2    0    0  0.83570919527E-02  0.15194242381E-01 -0.15567114861E-01  0.23303241246E-01  0.00000000000E+00 0. -1.
     999901    1    3    3    0    0 -0.11827674456E-01 -0.43819597948E-02 -0.11541188532E+00  0.88762548337E+00  0.88000000000E+00 0.  1.
        -11    1    4    4    0    0  0.28886711975E-03 -0.16283802668E-01  0.10504084102E+00  0.10629715461E+00  0.51100000000E-03 0.  1.
         11    1    4    4    0    0  0.31817153833E-02  0.54715200818E-02  0.25938159161E-01  0.26704120777E-01  0.51100000000E-03 0. -1.
</event>
<event>
 8    1  0.1054833E+005  0.1043930E+01  0.7957747E-01            NaN
         13   -1    0    0    0    0  0.00000000000E+00  0.00000000000E+00  0.74505805969E-08  0.10566000000E+00  0.10566000000E+00 0. -1.
     999900   -1    0    0    0    0 -0.00000000000E+00 -0.00000000000E+00 -0.74505805969E-08  0.93827000000E+00  0.93827000000E+00 0. -1.
     999902    2    1    2    0    0  0.23090103707E-01 -0.47840740683E-02 -0.30538173420E-02  0.10201525726E+01  0.10198754362E+01 0.  0.
     999903    2    3    3    0    0 -0.12368751555E+00  0.19078841561E-01 -0.56135698518E-03  0.12767326156E+00  0.25249611824E-01 0.  0.
         14    1    1    2    0    0 -0.23090103707E-01  0.47840740683E-02  0.30538173420E-02  0.23777427410E-01  0.00000000000E+00 0.  1.
     999901    1    3    3    0    0  0.14677761926E+00 -0.23862915629E-01 -0.24924603568E-02  0.89247931103E+00  0.88000000000E+00 0. -1.
        -11    1    4    4    0    0 -0.40538114676E-01 -0.51342447081E-02 -0.35338520939E-02  0.41017660122E-01  0.51100000000E-03 0.  1.
         11    1    4    4    0    0 -0.83149400875E-01  0.24213086269E-01  0.29724951088E-02  0.86655601438E-01  0.51100000000E-03 0. -1.
</event>
<event>
 8    1  0.1054833E+005  0.1043930E+01  0.7957747E-01            NaN
         13   -1    0    0    0    0  0.00000000000E+00  0.00000000000E+00  0.74505805969E-08  0.10566000000E+00  0.10566000000E+00 0.  1.
     999900   -1    0    0    0    0 -0.00000000000E+00 -0.00000000000E+00 -0.74505805969E-08  0.93827000000E+00  0.93827000000E+00 0.  1.
     999902    2    1    2    0    0 -0.22149997751E-01 -0.72822964796E-02 -0.59145049714E-05  0.10206136050E+01  0.10203472332E+01 0.  0.
     999903    2    3    3    0    0  0.93978719006E-02 -0.12973242476E+00  0.28438320414E-02  0.13157062341E+00  0.19593864727E-01 0.  0.
         14    1    1    2    0    0  0.22149997751E-01  0.72822964796E-02  0.59145049714E-05  0.23316395034E-01  0.00000000000E+00 0.  1.
     999901    1    3    3    0    0 -0.31547869652E-01  0.12245012828E+00 -0.28497465464E-02  0.88904298155E+00  0.88000000000E+00 0. -1.
        -11    1    4    4    0    0  0.25996385005E-02 -0.86819617225E-01 -0.65819368076E-02  0.87109052736E-01  0.51100000000E-03 0.  1.
         11    1    4    4    0    0  0.67982334001E-02 -0.42912807531E-01  0.94257688490E-02  0.44461570676E-01  0.51100000000E-03 0. -1.
</event>
<event>
 8    1  0.1054833E+005  0.1043930E+01  0.7957747E-01            NaN
         13   -1    0    0    0    0  0.00000000000E+00  0.00000000000E+00  0.74505805969E-08  0.10566000000E+00  0.10566000000E+00 0. -1.
     999900   -1    0    0    0    0 -0.00000000000E+00 -0.00000000000E+00 -0.74505805969E-08  0.93827000000E+00  0.93827000000E+00 0.  1.
     999902    2    1    2    0    0 -0.89821905702E-02  0.18138141523E-01  0.12627935305E-01  0.10200734144E+01  0.10197944078E+01 0.  0.
     999903    2    3    3    0    0 -0.33403385332E-01 -0.94487923094E-01 -0.76913695475E-01  0.12805394780E+00  0.20936648112E-01 0.  0.
         14    1    1    2    0    0  0.89821905702E-02 -0.18138141523E-01 -0.12627935305E-01  0.23856585578E-01  0.00000000000E+00 0.  1.
     999901    1    3    3    0    0  0.24421194762E-01  0.11262606462E+00  0.89541630779E-01  0.89201946662E+00  0.88000000000E+00 0.  1.
        -11    1    4    4    0    0 -0.29426011361E-01 -0.78873730118E-01 -0.73086977121E-01  0.11148507879E+00  0.51100000000E-03 0.  1.
         11    1    4    4    0    0 -0.39773739708E-02 -0.15614192976E-01 -0.38267183543E-02  0.16568869012E-01  0.51100000000E-03 0. -1.
</event>
<event>
 8    1  0.1054833E+005  0.1043930E+01  0.7957747E-01            NaN
         13   -1    0    0    0    0  0.00000000000E+00  0.00000000000E+00  0.74505805969E-08  0.10566000000E+00  0.10566000000E+00 0. -1.
     999900   -1    0    0    0    0 -0.00000000000E+00 -0.00000000000E+00 -0.74505805969E-08  0.93827000000E+00  0.93827000000E+00 0. -1.
     999902    2    1    2    0    0  0.11234013259E-01 -0.36283135662E-02 -0.20689850788E-01  0.10201090504E+01  0.10198308865E+01 0.  0.
     999903    2    3    3    0    0 -0.25745573933E-01 -0.50069127644E-01 -0.11865090689E+00  0.13268547197E+00  0.18911495055E-01 0.  0.
         14    1    1    2    0    0 -0.11234013259E-01  0.36283135662E-02  0.20689850788E-01  0.23820949579E-01  0.00000000000E+00 0. -1.
     999901    1    3    3    0    0  0.36979587191E-01  0.46440814078E-01  0.97961056103E-01  0.88742357845E+00  0.88000000000E+00 0.  1.
        -11    1    4    4    0    0 -0.18813824300E-01 -0.33567357443E-01 -0.59304305349E-01  0.70696458359E-01  0.51100000000E-03 0.  1.
         11    1    4    4    0    0 -0.69317496321E-02 -0.16501770202E-01 -0.59346601542E-01  0.61989013610E-01  0.51100000000E-03 0. -1.
</event>
<event>
 8    1  0.1054833E+005  0.1043930E+01  0.7957747E-01            NaN
         13   -1    0    0    0    0  0.00000000000E+00  0.00000000000E+00  0.74505805969E-08  0.10566000000E+00  0.10566000000E+00 0.  1.
     999900   -1    0    0    0    0 -0.00000000000E+00 -0.00000000000E+00 -0.74505805969E-08  0.93827000000E+00  0.93827000000E+00 0.  1.
     999902    2    1    2    0    0  0.13500891389E-01  0.11235777000E-01  0.15722635163E-01  0.10203563280E+01  0.10200839760E+01 0.  0.
     999903    2    3    3    0    0  0.67998603737E-02  0.81585999588E-01  0.10322111103E+00  0.13319792003E+00  0.19610576435E-01 0.  0.
         14    1    1    2    0    0 -0.13500891389E-01 -0.11235777000E-01 -0.15722635163E-01  0.23573671958E-01  0.00000000000E+00 0. -1.
     999901    1    3    3    0    0  0.67010310156E-02 -0.70350222588E-01 -0.87498475862E-01  0.88715840802E+00  0.88000000000E+00 0.  1.
        -11    1    4    4    0    0  0.90024864229E-02  0.55962059368E-01  0.57531113052E-01  0.80764391538E-01  0.51100000000E-03 0.  1.
         11    1    4    4    0    0 -0.22026260492E-02  0.25623940220E-01  0.45689997974E-01  0.52433528488E-01  0.51100000000E-03 0. -1.
</event>
<event>
 8    1  0.1054833E+005  0.1043930E+01  0.7957747E-01            NaN
         13   -1    0    0    0    0  0.00000000000E+00  0.00000000000E+00  0.74505805969E-08  0.10566000000E+00  0.10566000000E+00 0. -1.
     999900   -1    0    0    0    0 -0.00000000000E+00 -0.00000000000E+00 -0.74505805969E-08  0.93827000000E+00  0.93827000000E+00 0.  1.
     999902    2    1    2    0    0 -0.71206174149E-02 -0.16915129252E-02  0.23256342549E-01  0.10195492314E+01  0.10192576776E+01 0.  0.
     999903    2    3    3    0    0  0.11236515690E+00  0.26365171100E-01 -0.51539748688E-01  0.12788871134E+00  0.19445463792E-01 0.  0.
         14    1    1    2    0    0  0.71206174149E-02  0.16915129252E-02 -0.23256342549E-01  0.24380768592E-01  0.00000000000E+00 0.  1.
     999901    1    3    3    0    0 -0.11948577431E+00 -0.28056684025E-01  0.74796091237E-01  0.89166052007E+00  0.88000000000E+00 0. -1.
        -11    1    4    4    0    0  0.68380028719E-01  0.15394532094E-01 -0.41490794961E-01  0.81452852213E-01  0.51100000000E-03 0.  1.
         11    1    4    4    0    0  0.43985128178E-01  0.10970639006E-01 -0.10048953726E-01  0.46435859129E-01  0.51100000000E-03 0. -1.
</event>
<event>
 8    1  0.1054833E+005  0.1043930E+01  0.7957747E-01            NaN
         13   -1    0    0    0    0  0.00000000000E+00  0.00000000000E+00  0.74505805969E-08  0.10566000000E+00  0.10566000000E+00 0.  1.
     999900   -1    0    0    0    0 -0.00000000000E+00 -0.00000000000E+00 -0.74505805969E-08  0.93827000000E+00  0.93827000000E+00 0.  1.
     999902    2    1    2    0    0 -0.13584327642E-01 -0.85504491993E-02  0.17411012996E-01  0.10202490475E+01  0.10199741817E+01 0.  0.
     999903    2    3    3    0    0 -0.12862222073E+00  0.15627731660E-01  0.19337186439E-01  0.13243036586E+00  0.19390032540E-01 0.  0.
         14    1    1    2    0    0  0.13584327642E-01  0.85504491993E-02 -0.17411012996E-01  0.23680952526E-01  0.00000000000E+00 0. -1.
     999901    1    3    3    0    0  0.11503789308E+00 -0.24178180859E-01 -0.19261734429E-02  0.88781868161E+00  0.88000000000E+00 0.  1.
        -11    1    4    4    0    0 -0.11897840455E+00  0.18386021623E-01  0.14434042011E-01  0.12125390398E+00  0.51100000000E-03 0.  1.
         11    1    4    4    0    0 -0.96438161715E-02 -0.27582899627E-02  0.49031444275E-02  0.11176461880E-01  0.51100000000E-03 0. -1.
</event>
<event>
 8    1  0.1054833E+005  0.1043930E+01  0.7957747E-01            NaN
         13   -1    0    0    0    0  0.00000000000E+00  0.00000000000E+00  0.74505805969E-08  0.10566000000E+00  0.10566000000E+00 0. -1.
     999900   -1    0    0    0    0 -0.00000000000E+00 -0.00000000000E+00 -0.74505805969E-08  0.93827000000E+00  0.93827000000E+00 0.  1.
     999902    2    1    2    0    0  0.15928593212E-01 -0.46279327537E-02 -0.16582715781E-01  0.10204752711E+01  0.10202056923E+01 0.  0.
     999903    2    3    3    0    0 -0.85704474207E-01  0.32599873023E-01 -0.91182744765E-01  0.13071105842E+00  0.19054637997E-01 0.  0.
         14    1    1    2    0    0 -0.15928593212E-01  0.46279327537E-02  0.16582715781E-01  0.23454728862E-01  0.00000000000E+00 0. -1.
     999901    1    3    3    0    0  0.10163306742E+00 -0.37227805777E-01  0.74600028984E-01  0.88976421272E+00  0.88000000000E+00 0. -1.
        -11    1    4    4    0    0 -0.53025548070E-01  0.10760264433E-01 -0.48189128863E-01  0.72456506267E-01  0.51100000000E-03 0. -1.
         11    1    4    4    0    0 -0.32678926137E-01  0.21839608589E-01 -0.42993615902E-01  0.58254552150E-01  0.51100000000E-03 0.  1.
</event>
<event>
 8    1  0.1111738E+005  0.1043930E+01  0.7957747E-01            NaN
         13   -1    0    0    0    0  0.00000000000E+00  0.00000000000E+00  0.74505805969E-08  0.10566000000E+00  0.10566000000E+00 0. -1.
     999900   -1    0    0    0    0 -0.00000000000E+00 -0.00000000000E+00 -0.74505805969E-08  0.93827000000E+00  0.93827000000E+00 0. -1.
     999902    2    1    2    0    0  0.66231486635E-02  0.18374610254E-01 -0.82007568804E-02  0.10227464023E+01  0.10225269965E+01 0.  0.
     999903    2    3    3    0    0  0.11329326513E-01  0.13280251721E+00  0.88800824208E-02  0.13516111110E+00  0.20610867862E-01 0.  0.
         14    1    1    2    0    0 -0.66231486635E-02 -0.18374610254E-01  0.82007568804E-02  0.21183597750E-01  0.00000000000E+00 0.  1.
     999901    1    3    3    0    0 -0.47061778498E-02 -0.11442790695E+00 -0.17080839301E-01  0.88758529115E+00  0.88000000000E+00 0.  1.
        -11    1    4    4    0    0 -0.46980674549E-02  0.39931364595E-01  0.75126215944E-02  0.40905822574E-01  0.51100000000E-03 0. -1.
         11    1    4    4    0    0  0.16027393968E-01  0.92871152611E-01  0.13674608265E-02  0.94255288524E-01  0.51100000000E-03 0.  1.
</event>
<event>
 8    1  0.1054833E+005  0.1043930E+01  0.7957747E-01            NaN
         13   -1    0    0    0    0  0.00000000000E+00  0.00000000000E+00  0.74505805969E-08  0.10566000000E+00  0.10566000000E+00 0. -1.
     999900   -1    0    0    0    0 -0.00000000000E+00 -0.00000000000E+00 -0.74505805969E-08  0.93827000000E+00  0.93827000000E+00 0.  1.
     999902    2    1    2    0    0 -0.13599207055E-01 -0.10523893218E-01 -0.17223001608E-01  0.10195923225E+01  0.10193018108E+01 0.  0.
     999903    2    3    3    0    0 -0.92165681219E-01  0.43945512049E-01  0.77230858079E-01  0.12938945879E+00  0.18743152957E-01 0.  0.
         14    1    1    2    0    0  0.13599207055E-01  0.10523893218E-01  0.17223001608E-01  0.24337677486E-01  0.00000000000E+00 0.  1.
     999901    1    3    3    0    0  0.78566474164E-01 -0.54469405267E-01 -0.94453859687E-01  0.89020286372E+00  0.88000000000E+00 0.  1.
        -11    1    4    4    0    0 -0.66650078067E-01  0.22590116842E-01  0.49048590111E-01  0.85782117007E-01  0.51100000000E-03 0.  1.
         11    1    4    4    0    0 -0.25515603152E-01  0.21355395207E-01  0.28182267968E-01  0.43607341784E-01  0.51100000000E-03 0. -1.
</event>
<event>
 7    1  0.1054833E+005  0.1043930E+01  0.7957747E-01            NaN
         13   -1    0    0    0    0  0.00000000000E+00  0.00000000000E+00  0.74505805969E-08  0.10566000000E+00  0.10566000000E+00 0.  1.
     999900   -1    0    0    0    0 -0.00000000000E+00 -0.00000000000E+00 -0.74505805969E-08  0.93827000000E+00  0.93827000000E+00 0.  1.
     999903    2    1    2    0    0 -0.79436048877E-01 -0.53431488320E-01 -0.53865834771E-01  0.11072664817E+00  0.13923097883E-01 0.  0.
         14    1    1    2    0    0 -0.33633605678E-01  0.66805877629E-03 -0.23507819919E-01  0.41040021086E-01  0.00000000000E+00 0. -1.
     999901    1    1    2    0    0  0.11306965456E+00  0.52763429543E-01  0.77373654690E-01  0.89216333074E+00  0.88000000000E+00 0. -1.
        -11    1    3    3    0    0 -0.45765025016E-01 -0.23441188832E-01 -0.32465582502E-01  0.60812844176E-01  0.51100000000E-03 0. -1.
         11    1    3    3    0    0 -0.33671023862E-01 -0.29990299488E-01 -0.21400252269E-01  0.49913803997E-01  0.51100000000E-03 0.  1.
</event>
<event>
 8    1  0.1054833E+005  0.1043930E+01  0.7957747E-01            NaN
         13   -1    0    0    0    0  0.00000000000E+00  0.00000000000E+00  0.74505805969E-08  0.10566000000E+00  0.10566000000E+00 0. -1.
     999900   -1    0    0    0    0 -0.00000000000E+00 -0.00000000000E+00 -0.74505805969E-08  0.93827000000E+00  0.93827000000E+00 0. -1.
     999902    2    1    2    0    0 -0.10790713826E-01 -0.42041116997E-02 -0.19207584868E-01  0.10215013269E+01  0.10212550688E+01 0.  0.
     999903    2    3    3    0    0  0.67251184908E-02  0.12544109992E+00 -0.35484237543E-01  0.13168133686E+00  0.17324739347E-01 0.  0.
         14    1    1    2    0    0  0.10790713826E-01  0.42041116997E-02  0.19207584868E-01  0.22428673089E-01  0.00000000000E+00 0. -1.
     999901    1    3    3    0    0 -0.17515832317E-01 -0.12964521162E+00  0.16276652674E-01  0.88981999005E+00  0.88000000000E+00 0.  1.
        -11    1    4    4    0    0  0.35129964421E-02  0.68801504498E-01 -0.10491496853E-01  0.69687307255E-01  0.51100000000E-03 0.  1.
         11    1    4    4    0    0  0.32121220487E-02  0.56639595426E-01 -0.24992740690E-01  0.61994029601E-01  0.51100000000E-03 0. -1.
</event>
<event>
 8    1  0.1054833E+005  0.1043930E+01  0.7957747E-01            NaN
         13   -1    0    0    0    0  0.00000000000E+00  0.00000000000E+00  0.74505805969E-08  0.10566000000E+00  0.10566000000E+00 0. -1.
     999900   -1    0    0    0    0 -0.00000000000E+00 -0.00000000000E+00 -0.74505805969E-08  0.93827000000E+00  0.93827000000E+00 0.  1.
     999902    2    1    2    0    0 -0.14816376147E-01  0.12006074213E-01  0.13825331205E-01  0.10203755821E+01  0.10201036800E+01 0.  0.
     999903    2    3    3    0    0 -0.64650983206E-01 -0.90369175290E-01  0.67158326825E-01  0.13143880808E+00  0.20483699240E-01 0.  0.
         14    1    1    2    0    0  0.14816376147E-01 -0.12006074213E-01 -0.13825331205E-01  0.23554417910E-01  0.00000000000E+00 0.  1.
     999901    1    3    3    0    0  0.49834607058E-01  0.10237524950E+00 -0.53332995620E-01  0.88893677401E+00  0.88000000000E+00 0.  1.
        -11    1    4    4    0    0 -0.46874876844E-01 -0.78322094433E-01  0.57559207979E-01  0.10791166804E+00  0.51100000000E-03 0.  1.
         11    1    4    4    0    0 -0.17776106362E-01 -0.12047080857E-01  0.95991188459E-02  0.23527140034E-01  0.51100000000E-03 0. -1.
</event>
<event>
 8    1  0.1054833E+005  0.1043930E+01  0.7957747E-01            NaN
         13   -1    0    0    0    0  0.00000000000E+00  0.00000000000E+00  0.74505805969E-08  0.10566000000E+00  0.10566000000E+00 0.  1.
     999900   -1    0    0    0    0 -0.00000000000E+00 -0.00000000000E+00 -0.74505805969E-08  0.93827000000E+00  0.93827000000E+00 0.  1.
     999902    2    1    2    0    0 -0.15912119522E-01  0.98816098748E-02  0.14025795280E-01  0.10205298997E+01  0.10202615897E+01 0.  0.
     999903    2    3    3    0    0  0.91159441033E-01 -0.60140225528E-01  0.67396342330E-01  0.12967873827E+00  0.18639146516E-01 0.  0.
         14    1    1    2    0    0  0.15912119522E-01 -0.98816098748E-02 -0.14025795280E-01  0.23400100312E-01  0.00000000000E+00 0. -1.
     999901    1    3    3    0    0 -0.10707156056E+00  0.70021835403E-01 -0.53370547050E-01  0.89085116142E+00  0.88000000000E+00 0.  1.
        -11    1    4    4    0    0  0.43030831609E-01 -0.18082760180E-01  0.24682671896E-01  0.52802784942E-01  0.51100000000E-03 0. -1.
         11    1    4    4    0    0  0.48128609424E-01 -0.42057465348E-01  0.42713670433E-01  0.76875953324E-01  0.51100000000E-03 0.  1.
</event>
<event>
 8    1  0.1054833E+005  0.1043930E+01  0.7957747E-01            NaN
         13   -1    0    0    0    0  0.00000000000E+00  0.00000000000E+00  0.74505805969E-08  0.10566000000E+00  0.10566000000E+00 0.  1.
     999900   -1    0    0    0    0 -0.00000000000E+00 -0.00000000000E+00 -0.74505805969E-08  0.93827000000E+00  0.93827000000E+00 0. -1.
     999902    2    1    2    0    0 -0.11330698848E-02 -0.24096633790E-01 -0.19768352592E-02  0.10197258788E+01  0.10194385849E+01 0.  0.
     999903    2    3    3    0    0  0.51642545618E-01 -0.73118897066E-01  0.94398147409E-01  0.13153863208E+00  0.19444173111E-01 0.  0.
         14    1    1    2    0    0  0.11330698848E-02  0.24096633790E-01  0.19768352592E-02  0.24204121240E-01  0.00000000000E+00 0.  1.
     999901    1    3    3    0    0 -0.52775615503E-01  0.49022263276E-01 -0.96374982668E-01  0.88818724668E+00  0.88000000000E+00 0. -1.
        -11    1    4    4    0    0  0.22454177966E-01 -0.16909100932E-01  0.32582770429E-01  0.43034937578E-01  0.51100000000E-03 0. -1.
         11    1    4    4    0    0  0.29188367652E-01 -0.56209796134E-01  0.61815376979E-01  0.88503694498E-01  0.51100000000E-03 0.  1.
</event>
<event>
 8    1  0.1054833E+005  0.1043930E+01  0.7957747E-01            NaN
         13   -1    0    0    0    0  0.00000000000E+00  0.00000000000E+00  0.74505805969E-08  0.10566000000E+00  0.10566000000E+00 0. -1.
     999900   -1    0    0    0    0 -0.00000000000E+00 -0.00000000000E+00 -0.74505805969E-08  0.93827000000E+00  0.93827000000E+00 0.  1.
     999902    2    1    2    0    0 -0.18759837635E-01 -0.12973361065E-01 -0.99804151849E-02  0.10190332473E+01  0.10187290665E+01 0.  0.
     999903    2    3    3    0    0 -0.30278593558E-01 -0.11391501562E+00 -0.55726750610E-01  0.13200752812E+00  0.20666222111E-01 0.  0.
         14    1    1    2    0    0  0.18759837635E-01  0.12973361065E-01  0.99804151849E-02  0.24896752654E-01  0.00000000000E+00 0. -1.
     999901    1    3    3    0    0  0.11518755923E-01  0.10094165455E+00  0.45746335425E-01  0.88702571922E+00  0.88000000000E+00 0.  1.
        -11    1    4    4    0    0 -0.58607124882E-02 -0.54657247029E-02 -0.69173073622E-02  0.10598696124E-01  0.51100000000E-03 0.  1.
         11    1    4    4    0    0 -0.24417881070E-01 -0.10844929091E+00 -0.48809443247E-01  0.12140883200E+00  0.51100000000E-03 0. -1.
</event>
<event>
 8    1  0.1054833E+005  0.1043930E+01  0.7957747E-01            NaN
         13   -1    0    0    0    0  0.00000000000E+00  0.00000000000E+00  0.74505805969E-08  0.10566000000E+00  0.10566000000E+00 0.  1.
     999900   -1    0    0    0    0 -0.00000000000E+00 -0.00000000000E+00 -0.74505805969E-08  0.93827000000E+00  0.93827000000E+00 0.  1.
     999902    2    1    2    0    0 -0.21160002732E-01 -0.58192102479E-02 -0.10487950368E-01  0.10196070473E+01  0.10193168913E+01 0.  0.
     999903    2    3    3    0    0 -0.15887306309E-01 -0.91745365140E-02  0.12619921215E+00  0.12903282811E+00  0.19663442250E-01 0.  0.
         14    1    1    2    0    0  0.21160002732E-01  0.58192102479E-02  0.10487950368E-01  0.24322952667E-01  0.00000000000E+00 0. -1.
     999901    1    3    3    0    0 -0.52726964228E-02  0.33553262660E-02 -0.13668716252E+00  0.89057421922E+00  0.88000000000E+00 0.  1.
        -11    1    4    4    0    0 -0.17672661273E-02  0.44909949119E-02  0.53611032238E-01  0.53830253236E-01  0.51100000000E-03 0.  1.
         11    1    4    4    0    0 -0.14120040182E-01 -0.13665531426E-01  0.72588179914E-01  0.75202574877E-01  0.51100000000E-03 0. -1.
</event>
<event>
 8    1  0.1054833E+005  0.1043930E+01  0.7957747E-01            NaN
         13   -1    0    0    0    0  0.00000000000E+00  0.00000000000E+00  0.74505805969E-08  0.10566000000E+00  0.10566000000E+00 0. -1.
     999900   -1    0    0    0    0 -0.00000000000E+00 -0.00000000000E+00 -0.74505805969E-08  0.93827000000E+00  0.93827000000E+00 0. -1.
     999902    2    1    2    0    0  0.93943114985E-02 -0.74197739217E-02  0.23709766869E-01  0.10173695185E+01  0.10170227519E+01 0.  0.
     999903    2    3    3    0    0 -0.31388605962E-01  0.30413091108E-01 -0.11510785658E+00  0.12475263279E+00  0.20079841847E-01 0.  0.
         14    1    1    2    0    0 -0.93943114985E-02  0.74197739217E-02 -0.23709766869E-01  0.26560481520E-01  0.00000000000E+00 0.  1.
     999901    1    3    3    0    0  0.40782917461E-01 -0.37832865029E-01  0.13881762344E+00  0.89261688569E+00  0.88000000000E+00 0.  1.
        -11    1    4    4    0    0 -0.18999832035E-01  0.20929724393E-01 -0.96013553171E-01  0.10008951241E+00  0.51100000000E-03 0. -1.
         11    1    4    4    0    0 -0.12388773928E-01  0.94833667146E-02 -0.19094303405E-01  0.24663120386E-01  0.51100000000E-03 0.  1.
</event>
<event>
 8    1  0.1054833E+005  0.1043930E+01  0.7957747E-01            NaN
         13   -1    0    0    0    0  0.00000000000E+00  0.00000000000E+00  0.74505805969E-08  0.10566000000E+00  0.10566000000E+00 0. -1.
     999900   -1    0    0    0    0 -0.00000000000E+00 -0.00000000000E+00 -0.74505805969E-08  0.93827000000E+00  0.93827000000E+00 0.  1.
     999902    2    1    2    0    0 -0.92740135896E-02  0.18780090363E-01  0.10632238615E-01  0.10204407765E+01  0.10201703950E+01 0.  0.
     999903    2    3    3    0    0 -0.47681442623E-01  0.10049652358E+00  0.71287314798E-01  0.13374367810E+00  0.20794685852E-01 0.  0.
         14    1    1    2    0    0  0.92740135896E-02 -0.18780090363E-01 -0.10632238615E-01  0.23489223488E-01  0.00000000000E+00 0. -1.
     999901    1    3    3    0    0  0.38407429034E-01 -0.81716433213E-01 -0.60655076182E-01  0.88669709841E+00  0.88000000000E+00 0.  1.
        -11    1    4    4    0    0 -0.33023047936E-01  0.47957657206E-01  0.31300492443E-01  0.66109307422E-01  0.51100000000E-03 0. -1.
         11    1    4    4    0    0 -0.14658394688E-01  0.52538866369E-01  0.39986822355E-01  0.67634370679E-01  0.51100000000E-03 0.  1.
</event>
<event>
 8    1  0.1054833E+005  0.1043930E+01  0.7957747E-01            NaN
         13   -1    0    0    0    0  0.00000000000E+00  0.00000000000E+00  0.74505805969E-08  0.10566000000E+00  0.10566000000E+00 0.  1.
     999900   -1    0    0    0    0 -0.00000000000E+00 -0.00000000000E+00 -0.74505805969E-08  0.93827000000E+00  0.93827000000E+00 0.  1.
     999902    2    1    2    0    0  0.10312940191E-01 -0.18361027540E-01  0.76326515777E-02  0.10215304143E+01  0.10212848016E+01 0.  0.
     999903    2    3    3    0    0  0.95597925318E-01  0.35117082728E-01 -0.80479702860E-01  0.13141962125E+00  0.20541700343E-01 0.  0.
         14    1    1    2    0    0 -0.10312940191E-01  0.18361027540E-01 -0.76326515777E-02  0.22399585662E-01  0.00000000000E+00 0. -1.
     999901    1    3    3    0    0 -0.85284985127E-01 -0.53478110267E-01  0.88112354438E-01  0.89011079309E+00  0.88000000000E+00 0. -1.
        -11    1    4    4    0    0  0.41013024611E-01  0.19953636744E-01 -0.47552643616E-01  0.65891811653E-01  0.51100000000E-03 0.  1.
         11    1    4    4    0    0  0.54584900707E-01  0.15163445984E-01 -0.32927059244E-01  0.65527809598E-01  0.51100000000E-03 0. -1.
</event>
<event>
 8    1  0.1054833E+005  0.1043930E+01  0.7957747E-01            NaN
         13   -1    0    0    0    0  0.00000000000E+00  0.00000000000E+00  0.74505805969E-08  0.10566000000E+00  0.10566000000E+00 0. -1.
     999900   -1    0    0    0    0 -0.00000000000E+00 -0.00000000000E+00 -0.74505805969E-08  0.93827000000E+00  0.93827000000E+00 0.  1.
     999902    2    1    2    0    0 -0.23378696851E-01  0.11264626031E-02  0.44303372941E-02  0.10201085753E+01  0.10198304002E+01 0.  0.
     999903    2    3    3    0    0  0.91249543825E-01  0.86230358719E-01 -0.17296656150E-01  0.12833821872E+00  0.20232895424E-01 0.  0.
         14    1    1    2    0    0  0.23378696851E-01 -0.11264626031E-02 -0.44303372941E-02  0.23821424663E-01  0.00000000000E+00 0.  1.
     999901    1    3    3    0    0 -0.11462824068E+00 -0.85103896116E-01  0.21726993444E-01  0.89177035662E+00  0.88000000000E+00 0.  1.
        -11    1    4    4    0    0  0.79442687534E-01  0.81441111933E-01 -0.19401018268E-01  0.11541427965E+00  0.51100000000E-03 0.  1.
         11    1    4    4    0    0  0.11806856291E-01  0.47892467863E-02  0.21043621185E-02  0.12923939074E-01  0.51100000000E-03 0. -1.
</event>
<event>
 8    1  0.1054833E+005  0.1043930E+01  0.7957747E-01            NaN
         13   -1    0    0    0    0  0.00000000000E+00  0.00000000000E+00  0.74505805969E-08  0.10566000000E+00  0.10566000000E+00 0.  1.
     999900   -1    0    0    0    0 -0.00000000000E+00 -0.00000000000E+00 -0.74505805969E-08  0.93827000000E+00  0.93827000000E+00 0. -1.
     999902    2    1    2    0    0  0.21822324165E-01  0.54468913069E-02  0.85227211593E-02  0.10198775732E+01  0.10195939119E+01 0.  0.
     999903    2    3    3    0    0  0.50939497513E-01  0.10605080230E+00  0.57043753822E-01  0.13233982909E+00  0.20450805319E-01 0.  0.
         14    1    1    2    0    0 -0.21822324165E-01 -0.54468913069E-02 -0.85227211593E-02  0.24052426756E-01  0.00000000000E+00 0. -1.
     999901    1    3    3    0    0 -0.29117173348E-01 -0.10060391099E+00 -0.48521032663E-01  0.88753774416E+00  0.88000000000E+00 0. -1.
        -11    1    4    4    0    0  0.32318031902E-01  0.57059198050E-01  0.41751022299E-01  0.77740698814E-01  0.51100000000E-03 0.  1.
         11    1    4    4    0    0  0.18621465611E-01  0.48991604248E-01  0.15292731523E-01  0.54599130274E-01  0.51100000000E-03 0. -1.
</event>
<event>
 8    1  0.1054833E+005  0.1043930E+01  0.7957747E-01            NaN
         13   -1    0    0    0    0  0.00000000000E+00  0.00000000000E+00  0.74505805969E-08  0.10566000000E+00  0.10566000000E+00 0. -1.
     999900   -1    0    0    0    0 -0.00000000000E+00 -0.00000000000E+00 -0.74505805969E-08  0.93827000000E+00  0.93827000000E+00 0.  1.
     999902    2    1    2    0    0  0.13735221407E-01  0.15489432454E-02 -0.19397434757E-01  0.10201116036E+01  0.10198335000E+01 0.  0.
     999903    2    3    3    0    0  0.12730130178E+00  0.21414173864E-01  0.17683554097E-01  0.13181723699E+00  0.19972170749E-01 0.  0.
         14    1    1    2    0    0 -0.13735221407E-01 -0.15489432454E-02  0.19397434757E-01  0.23818396408E-01  0.00000000000E+00 0. -1.
     999901    1    3    3    0    0 -0.11356608038E+00 -0.19865230619E-01 -0.37080988854E-01  0.88829436660E+00  0.88000000000E+00 0.  1.
        -11    1    4    4    0    0  0.12305607816E+00  0.16935112762E-01  0.15192370600E-01  0.12514258133E+00  0.51100000000E-03 0. -1.
         11    1    4    4    0    0  0.42452236196E-02  0.44790611019E-02  0.24911834962E-02  0.66746556575E-02  0.51100000000E-03 0.  1.
</event>
<event>
 8    1  0.1054833E+005  0.1043930E+01  0.7957747E-01            NaN
         13   -1    0    0    0    0  0.00000000000E+00  0.00000000000E+00  0.74505805969E-08  0.10566000000E+00  0.10566000000E+00 0.  1.
     999900   -1    0    0    0    0 -0.00000000000E+00 -0.00000000000E+00 -0.74505805969E-08  0.93827000000E+00  0.93827000000E+00 0. -1.
     999902    2    1    2    0    0 -0.23143487967E-01 -0.29052139737E-02  0.54639232874E-02  0.10199734610E+01  0.10196920836E+01 0.  0.
     999903    2    3    3    0    0 -0.99125349152E-01  0.58320428117E-01 -0.61668508433E-01  0.13203844881E+00  0.20100742537E-01 0.  0.
         14    1    1    2    0    0  0.23143487967E-01  0.29052139737E-02 -0.54639232874E-02  0.23956539007E-01  0.00000000000E+00 0. -1.
     999901    1    3    3    0    0  0.75981861185E-01 -0.61225642091E-01  0.67132431720E-01  0.88793501219E+00  0.88000000000E+00 0. -1.
        -11    1    4    4    0    0 -0.81112759686E-01  0.37958939261E-01 -0.46760970008E-01  0.10102974953E+00  0.51100000000E-03 0. -1.
         11    1    4    4    0    0 -0.18012589466E-01  0.20361488856E-01 -0.14907538425E-01  0.31008699273E-01  0.51100000000E-03 0.  1.
</event>
<event>
 8    1  0.1054833E+005  0.1043930E+01  0.7957747E-01            NaN
         13   -1    0    0    0    0  0.00000000000E+00  0.00000000000E+00  0.74505805969E-08  0.10566000000E+00  0.10566000000E+00 0. -1.
     999900   -1    0    0    0    0 -0.00000000000E+00 -0.00000000000E+00 -0.74505805969E-08  0.93827000000E+00  0.93827000000E+00 0. -1.
     999902    2    1    2    0    0 -0.14624591175E-01  0.11015098686E-01 -0.12179572847E-01  0.10219401601E+01  0.10217035469E+01 0.  0.
     999903    2    3    3    0    0 -0.49254013870E-01 -0.69740797040E-01  0.97071434058E-01  0.13084168395E+00  0.20172909905E-01 0.  0.
         14    1    1    2    0    0  0.14624591175E-01 -0.11015098686E-01  0.12179572847E-01  0.21989839945E-01  0.00000000000E+00 0. -1.
     999901    1    3    3    0    0  0.34629422695E-01  0.80755895726E-01 -0.10925100690E+00  0.89109847611E+00  0.88000000000E+00 0. -1.
        -11    1    4    4    0    0 -0.31276086313E-01 -0.28992414263E-01  0.40251132662E-01  0.58644423959E-01  0.51100000000E-03 0. -1.
         11    1    4    4    0    0 -0.17977927557E-01 -0.40748382777E-01  0.56820301395E-01  0.72197259988E-01  0.51100000000E-03 0.  1.
</event>
<event>
 8    1  0.1054833E+005  0.1043930E+01  0.7957747E-01            NaN
         13   -1    0    0    0    0  0.00000000000E+00  0.00000000000E+00  0.74505805969E-08  0.10566000000E+00  0.10566000000E+00 0.  1.
     999900   -1    0    0    0    0 -0.00000000000E+00 -0.00000000000E+00 -0.74505805969E-08  0.93827000000E+00  0.93827000000E+00 0. -1.
     999902    2    1    2    0    0  0.14412259154E-01 -0.17408913742E-01 -0.71492852835E-02  0.10202256592E+01  0.10199502439E+01 0.  0.
     999903    2    3    3    0    0 -0.33734155727E-01  0.12129375932E+00 -0.14621597608E-01  0.12803042037E+00  0.18106024200E-01 0.  0.
         14    1    1    2    0    0 -0.14412259154E-01  0.17408913742E-01  0.71492852835E-02  0.23704340776E-01  0.00000000000E+00 0.  1.
     999901    1    3    3    0    0  0.48146414881E-01 -0.13870267306E+00  0.74723123249E-02  0.89219523885E+00  0.88000000000E+00 0.  1.
        -11    1    4    4    0    0 -0.20473749935E-01  0.76193175525E-01 -0.17904111602E-01  0.80903601688E-01  0.51100000000E-03 0. -1.
         11    1    4    4    0    0 -0.13260405792E-01  0.45100583791E-01  0.32825139932E-02  0.47126818683E-01  0.51100000000E-03 0.  1.
</event>
<event>
 8    1  0.1054833E+005  0.1043930E+01  0.7957747E-01            NaN
         13   -1    0    0    0    0  0.00000000000E+00  0.00000000000E+00  0.74505805969E-08  0.10566000000E+00  0.10566000000E+00 0. -1.
     999900   -1    0    0    0    0 -0.00000000000E+00 -0.00000000000E+00 -0.74505805969E-08  0.93827000000E+00  0.93827000000E+00 0. -1.
     999902    2    1    2    0    0 -0.16066591531E-01 -0.98150031435E-02  0.13948292608E-01  0.10204987278E+01  0.10202296942E+01 0.  0.
     999903    2    3    3    0    0  0.12037561403E+00  0.37596355684E-01  0.15180406131E-01  0.12872194491E+00  0.20859529193E-01 0.  0.
         14    1    1    2    0    0  0.16066591531E-01  0.98150031435E-02 -0.13948292608E-01  0.23431272198E-01  0.00000000000E+00 0.  1.
     999901    1    3    3    0    0 -0.13644220556E+00 -0.47411358827E-01 -0.12321135237E-02  0.89177678289E+00  0.88000000000E+00 0. -1.
        -11    1    4    4    0    0  0.10020799628E+00  0.36502347106E-01  0.68564463742E-02  0.10687065004E+00  0.51100000000E-03 0.  1.
         11    1    4    4    0    0  0.20167617747E-01  0.10940085779E-02  0.83239597571E-02  0.21851294868E-01  0.51100000000E-03 0. -1.
</event>
<event>
 8    1  0.1054833E+005  0.1043930E+01  0.7957747E-01            NaN
         13   -1    0    0    0    0  0.00000000000E+00  0.00000000000E+00  0.74505805969E-08  0.10566000000E+00  0.10566000000E+00 0.  1.
     999900   -1    0    0    0    0 -0.00000000000E+00 -0.00000000000E+00 -0.74505805969E-08  0.93827000000E+00  0.93827000000E+00 0.  1.
     999902    2    1    2    0    0 -0.21411778303E-01  0.54791135910E-02 -0.11309498815E-01  0.10191028032E+01  0.10188003405E+01 0.  0.
     999903    2    3    3    0    0  0.30037647219E-01  0.85450589833E-01  0.89115434454E-01  0.12830111508E+00  0.17763781099E-01 0.  0.
         14    1    1    2    0    0  0.21411778303E-01 -0.54791135910E-02  0.11309498815E-01  0.24827196767E-01  0.00000000000E+00 0.  1.
     999901    1    3    3    0    0 -0.51449425522E-01 -0.79971476242E-01 -0.10042493327E+00  0.89080168816E+00  0.88000000000E+00 0.  1.
        -11    1    4    4    0    0  0.27076428371E-01  0.75703210315E-01  0.85780210859E-01  0.11756961649E+00  0.51100000000E-03 0.  1.
         11    1    4    4    0    0  0.29612188483E-02  0.97473795175E-02  0.33352235954E-02  0.10731498589E-01  0.51100000000E-03 0. -1.
</event>
<event>
 7    1  0.1054833E+005  0.1043930E+01  0.7957747E-01            NaN
         13   -1    0    0    0    0  0.00000000000E+00  0.00000000000E+00  0.74505805969E-08  0.10566000000E+00  0.10566000000E+00 0.  1.
     999900   -1    0    0    0    0 -0.00000000000E+00 -0.00000000000E+00 -0.74505805969E-08  0.93827000000E+00  0.93827000000E+00 0. -1.
     999903    2    1    2    0    0  0.59594181111E-02  0.46088574200E-01 -0.67523861921E-01  0.84421482874E-01  0.20195135697E-01 0.  0.
         14    1    1    2    0    0 -0.20806168340E-01 -0.66680044003E-01 -0.25234766237E-01  0.74269228731E-01  0.00000000000E+00 0.  1.
     999901    1    1    2    0    0  0.14846750228E-01  0.20591469803E-01  0.92758628158E-01  0.88523928840E+00  0.88000000000E+00 0.  1.
        -11    1    3    3    0    0  0.10632571730E-01  0.11345731396E-01 -0.22573482722E-01  0.27415332311E-01  0.51100000000E-03 0. -1.
         11    1    3    3    0    0 -0.46731536189E-02  0.34742842805E-01 -0.44950379199E-01  0.57006150563E-01  0.51100000000E-03 0.  1.
</event>
<event>
 8    1  0.1054833E+005  0.1043930E+01  0.7957747E-01            NaN
         13   -1    0    0    0    0  0.00000000000E+00  0.00000000000E+00  0.74505805969E-08  0.10566000000E+00  0.10566000000E+00 0.  1.
     999900   -1    0    0    0    0 -0.00000000000E+00 -0.00000000000E+00 -0.74505805969E-08  0.93827000000E+00  0.93827000000E+00 0. -1.
     999902    2    1    2    0    0  0.19465567086E-01 -0.75162730620E-02  0.11254409059E-01  0.10202221029E+01  0.10199466039E+01 0.  0.
     999903    2    3    3    0    0 -0.60761416522E-01  0.10620252747E+00 -0.32849021270E-01  0.12819438635E+00  0.19591220334E-01 0.  0.
         14    1    1    2    0    0 -0.19465567086E-01  0.75162730620E-02 -0.11254409059E-01  0.23707897122E-01  0.00000000000E+00 0.  1.
     999901    1    3    3    0    0  0.80226983608E-01 -0.11371880053E+00  0.44103430329E-01  0.89202771653E+00  0.88000000000E+00 0. -1.
        -11    1    4    4    0    0 -0.23819903099E-01  0.59338916585E-01 -0.12566554971E-01  0.65166511569E-01  0.51100000000E-03 0. -1.
         11    1    4    4    0    0 -0.36941513423E-01  0.46863610882E-01 -0.20282466299E-01  0.63027874778E-01  0.51100000000E-03 0.  1.
</event>
<event>
 8    1  0.1054833E+005  0.1043930E+01  0.7957747E-01            NaN
         13   -1    0    0    0    0  0.00000000000E+00  0.00000000000E+00  0.74505805969E-08  0.10566000000E+00  0.10566000000E+00 0. -1.
     999900   -1    0    0    0    0 -0.00000000000E+00 -0.00000000000E+00 -0.74505805969E-08  0.93827000000E+00  0.93827000000E+00 0.  1.
     999902    2    1    2    0    0  0.40873112310E-03 -0.50364405811E-02  0.23990018405E-01  0.10194136019E+01  0.10191187555E+01 0.  0.
     999903    2    3    3    0    0  0.90174390742E-01 -0.87619551520E-01 -0.24740242507E-01  0.12966505188E+00  0.19807562325E-01 0.  0.
         14    1    1    2    0    0 -0.40873112310E-03  0.50364405811E-02 -0.23990018405E-01  0.24516398143E-01  0.00000000000E+00 0.  1.
     999901    1    3    3    0    0 -0.89765659619E-01  0.82583110939E-01  0.48730260912E-01  0.88974854998E+00  0.88000000000E+00 0. -1.
        -11    1    4    4    0    0  0.84032249998E-01 -0.74622269158E-01 -0.18140297171E-01  0.11383862963E+00  0.51100000000E-03 0.  1.
         11    1    4    4    0    0  0.61421407445E-02 -0.12997282362E-01 -0.65999453358E-02  0.15826422247E-01  0.51100000000E-03 0. -1.
</event>
<event>
 8    1  0.1054833E+005  0.1043930E+01  0.7957747E-01            NaN
         13   -1    0    0    0    0  0.00000000000E+00  0.00000000000E+00  0.74505805969E-08  0.10566000000E+00  0.10566000000E+00 0. -1.
     999900   -1    0    0    0    0 -0.00000000000E+00 -0.00000000000E+00 -0.74505805969E-08  0.93827000000E+00  0.93827000000E+00 0.  1.
     999902    2    1    2    0    0 -0.15581271811E-01 -0.20512180321E-01 -0.13394599708E-02  0.10181362076E+01  0.10178094210E+01 0.  0.
     999903    2    3    3    0    0 -0.10644582608E+00 -0.72986523900E-02 -0.72640886887E-01  0.13049052491E+00  0.19159708396E-01 0.  0.
         14    1    1    2    0    0  0.15581271811E-01  0.20512180321E-01  0.13394599708E-02  0.25793792389E-01  0.00000000000E+00 0. -1.
     999901    1    3    3    0    0  0.90864554271E-01 -0.13213527931E-01  0.71301426916E-01  0.88764568270E+00  0.88000000000E+00 0. -1.
        -11    1    4    4    0    0 -0.92728661495E-01 -0.10346682631E-01 -0.56477819256E-01  0.10906724390E+00  0.51100000000E-03 0. -1.
         11    1    4    4    0    0 -0.13717164587E-01  0.30480302406E-02 -0.16163067631E-01  0.21423281002E-01  0.51100000000E-03 0.  1.
</event>
<event>
 8    1  0.1054833E+005  0.1043930E+01  0.7957747E-01            NaN
         13   -1    0    0    0    0  0.00000000000E+00  0.00000000000E+00  0.74505805969E-08  0.10566000000E+00  0.10566000000E+00 0. -1.
     999900   -1    0    0    0    0 -0.00000000000E+00 -0.00000000000E+00 -0.74505805969E-08  0.93827000000E+00  0.93827000000E+00 0. -1.
     999902    2    1    2    0    0  0.17442320347E-01  0.15520111026E-01 -0.39875224310E-03  0.10205790388E+01  0.10203118675E+01 0.  0.
     999903    2    3    3    0    0 -0.91750782783E-01 -0.10370465830E-01 -0.87752815684E-01  0.12916208354E+00  0.21366667037E-01 0.  0.
         14    1    1    2    0    0 -0.17442320347E-01 -0.15520111026E-01  0.39875224310E-03  0.23350961194E-01  0.00000000000E+00 0.  1.
     999901    1    3    3    0    0  0.10919310313E+00  0.25890576856E-01  0.87354063441E-01  0.89141695527E+00  0.88000000000E+00 0.  1.
        -11    1    4    4    0    0 -0.54579483347E-01 -0.10050292655E-01 -0.65433620521E-01  0.85800630536E-01  0.51100000000E-03 0.  1.
         11    1    4    4    0    0 -0.37171299436E-01 -0.32017317491E-03 -0.22319195163E-01  0.43361453001E-01  0.51100000000E-03 0. -1.
</event>
<event>
 8    1  0.1054833E+005  0.1043930E+01  0.7957747E-01            NaN
         13   -1    0    0    0    0  0.00000000000E+00  0.00000000000E+00  0.74505805969E-08  0.10566000000E+00  0.10566000000E+00 0. -1.
     999900   -1    0    0    0    0 -0.00000000000E+00 -0.00000000000E+00 -0.74505805969E-08  0.93827000000E+00  0.93827000000E+00 0.  1.
     999902    2    1    2    0    0  0.17840281294E-01  0.96344068008E-02  0.15369723425E-01  0.10184874013E+01  0.10181695639E+01 0.  0.
     999903    2    3    3    0    0 -0.12389157400E+00 -0.13699361566E-01  0.10209792944E-01  0.12682658661E+00  0.21070087388E-01 0.  0.
         14    1    1    2    0    0 -0.17840281294E-01 -0.96344068008E-02 -0.15369723425E-01  0.25442598712E-01  0.00000000000E+00 0.  1.
     999901    1    3    3    0    0  0.14173185530E+00  0.23333768367E-01  0.51599304815E-02  0.89166081468E+00  0.88000000000E+00 0. -1.
        -11    1    4    4    0    0 -0.83734708330E-01 -0.43967976085E-02 -0.18608697674E-02  0.83872266964E-01  0.51100000000E-03 0.  1.
         11    1    4    4    0    0 -0.40156865673E-01 -0.93025639578E-02  0.12070662711E-01  0.42954319645E-01  0.51100000000E-03 0. -1.
</event>
<event>
 8    1  0.1054833E+005  0.1043930E+01  0.7957747E-01            NaN
         13   -1    0    0    0    0  0.00000000000E+00  0.00000000000E+00  0.74505805969E-08  0.10566000000E+00  0.10566000000E+00 0.  1.
     999900   -1    0    0    0    0 -0.00000000000E+00 -0.00000000000E+00 -0.74505805969E-08  0.93827000000E+00  0.93827000000E+00 0.  1.
     999902    2    1    2    0    0 -0.17014977873E-02  0.18114803911E-01  0.15236817544E-01  0.10201981264E+01  0.10199220633E+01 0.  0.
     999903    2    3    3    0    0 -0.48613234287E-01  0.46338295612E-01  0.11333954164E+00  0.13305584865E+00  0.18641968033E-01 0.  0.
         14    1    1    2    0    0  0.17014977873E-02 -0.18114803911E-01 -0.15236817544E-01  0.23731873595E-01  0.00000000000E+00 0. -1.
     999901    1    3    3    0    0  0.46911736499E-01 -0.28223491701E-01 -0.98102724099E-01  0.88714227776E+00  0.88000000000E+00 0. -1.
        -11    1    4    4    0    0 -0.89402320179E-03  0.68602462699E-02  0.18763924122E-01  0.20005204968E-01  0.51100000000E-03 0.  1.
         11    1    4    4    0    0 -0.47719211085E-01  0.39478049342E-01  0.94575617521E-01  0.11305064368E+00  0.51100000000E-03 0. -1.
</event>
<event>
 8    1  0.1054833E+005  0.1043930E+01  0.7957747E-01            NaN
         13   -1    0    0    0    0  0.00000000000E+00  0.00000000000E+00  0.74505805969E-08  0.10566000000E+00  0.10566000000E+00 0. -1.
     999900   -1    0    0    0    0 -0.00000000000E+00 -0.00000000000E+00 -0.74505805969E-08  0.93827000000E+00  0.93827000000E+00 0. -1.
     999902    2    1    2    0    0  0.13536506210E-01 -0.10050792589E-02  0.21877451095E-01  0.10181837371E+01  0.10178581692E+01 0.  0.
     999903    2    3    3    0    0 -0.14152213247E-01 -0.43055187897E-01  0.12154421340E+00  0.13112774098E+00  0.19169097500E-01 0.  0.
         14    1    1    2    0    0 -0.13536506210E-01  0.10050792589E-02 -0.21877451095E-01  0.25746262857E-01  0.00000000000E+00 0.  1.
     999901    1    3    3    0    0  0.27688719457E-01  0.42050108638E-01 -0.99666762303E-01  0.88705599616E+00  0.88000000000E+00 0. -1.
        -11    1    4    4    0    0 -0.18949444538E-01 -0.35464502541E-01  0.98902565810E-01  0.10676512087E+00  0.51100000000E-03 0. -1.
         11    1    4    4    0    0  0.47972312915E-02 -0.75906853556E-02  0.22641647589E-01  0.24362620113E-01  0.51100000000E-03 0.  1.
</event>
<event>
 8    1  0.1054833E+005  0.1043930E+01  0.7957747E-01            NaN
         13   -1    0    0    0    0  0.00000000000E+00  0.00000000000E+00  0.74505805969E-08  0.10566000000E+00  0.10566000000E+00 0.  1.
     999900   -1    0    0    0    0 -0.00000000000E+00 -0.00000000000E+00 -0.74505805969E-08  0.93827000000E+00  0.93827000000E+00 0. -1.
     999902    2    1    2    0    0 -0.10217652720E-01  0.20484404848E-01 -0.92574812567E-02  0.10192376484E+01  0.10189385024E+01 0.  0.
     999903    2    3    3    0    0 -0.54262490969E-01 -0.45615173746E-01 -0.10734197466E+00  0.13023277218E+00  0.20325191885E-01 0.  0.
         14    1    1    2    0    0  0.10217652720E-01 -0.20484404848E-01  0.92574812567E-02  0.24692351616E-01  0.00000000000E+00 0.  1.
     999901    1    3    3    0    0  0.44044838248E-01  0.66099578594E-01  0.98084493399E-01  0.88900487620E+00  0.88000000000E+00 0.  1.
        -11    1    4    4    0    0 -0.31553686575E-01 -0.38560001428E-01 -0.76237499604E-01  0.91076486063E-01  0.51100000000E-03 0. -1.
         11    1    4    4    0    0 -0.22708804394E-01 -0.70551723183E-02 -0.31104475051E-01  0.39156286119E-01  0.51100000000E-03 0.  1.
</event>
<event>
 8    1  0.1054833E+005  0.1043930E+01  0.7957747E-01            NaN
         13   -1    0    0    0    0  0.00000000000E+00  0.00000000000E+00  0.74505805969E-08  0.10566000000E+00  0.10566000000E+00 0.  1.
     999900   -1    0    0    0    0 -0.00000000000E+00 -0.00000000000E+00 -0.74505805969E-08  0.93827000000E+00  0.93827000000E+00 0.  1.
     999902    2    1    2    0    0 -0.92731982297E-02  0.12494303975E-01  0.17529075472E-01  0.10204913924E+01  0.10202221884E+01 0.  0.
     999903    2    3    3    0    0 -0.10442249925E+00 -0.26615624891E-01 -0.70603190575E-01  0.13012614585E+00  0.18318118829E-01 0.  0.
         14    1    1    2    0    0  0.92731982297E-02 -0.12494303975E-01 -0.17529075472E-01  0.23438607555E-01  0.00000000000E+00 0. -1.
     999901    1    3    3    0    0  0.95149301020E-01  0.39109928866E-01  0.88132266046E-01  0.89036524659E+00  0.88000000000E+00 0. -1.
        -11    1    4    4    0    0 -0.38785785912E-01 -0.18796039671E-01 -0.25148941472E-01  0.49903493608E-01  0.51100000000E-03 0. -1.
         11    1    4    4    0    0 -0.65636713338E-01 -0.78195852201E-02 -0.45454249103E-01  0.80222652246E-01  0.51100000000E-03 0.  1.
</event>
<event>
 8    1  0.1054833E+005  0.1043930E+01  0.7957747E-01            NaN
         13   -1    0    0    0    0  0.00000000000E+00  0.00000000000E+00  0.74505805969E-08  0.10566000000E+00  0.10566000000E+00 0.  1.
     999900   -1    0    0    0    0 -0.00000000000E+00 -0.00000000000E+00 -0.74505805969E-08  0.93827000000E+00  0.93827000000E+00 0.  1.
     999902    2    1    2    0    0 -0.16028490764E-01 -0.55674637131E-02  0.17307900434E-01  0.10196921662E+01  0.10194040618E+01 0.  0.
     999903    2    3    3    0    0  0.49864007490E-02 -0.95119638004E-01 -0.82098027942E-01  0.12933114048E+00  0.30229918602E-01 0.  0.
         14    1    1    2    0    0  0.16028490764E-01  0.55674637131E-02 -0.17307900434E-01  0.24237833769E-01  0.00000000000E+00 0. -1.
     999901    1    3    3    0    0 -0.21014891513E-01  0.89552174291E-01  0.99405928376E-01  0.89036102575E+00  0.88000000000E+00 0. -1.
        -11    1    4    4    0    0  0.15128208027E-01 -0.28271280000E-01 -0.22224222007E-01  0.39016728666E-01  0.51100000000E-03 0. -1.
         11    1    4    4    0    0 -0.10141807278E-01 -0.66848358004E-01 -0.59873805935E-01  0.90314411811E-01  0.51100000000E-03 0.  1.
</event>
<event>
 8    1  0.1054833E+005  0.1043930E+01  0.7957747E-01            NaN
         13   -1    0    0    0    0  0.00000000000E+00  0.00000000000E+00  0.74505805969E-08  0.10566000000E+00  0.10566000000E+00 0.  1.
     999900   -1    0    0    0    0 -0.00000000000E+00 -0.00000000000E+00 -0.74505805969E-08  0.93827000000E+00  0.93827000000E+00 0. -1.
     999902    2    1    2    0    0  0.10384589156E-01 -0.47651789060E-02  0.18028244600E-01  0.10225860494E+01  0.10223632741E+01 0.  0.
     999903    2    3    3    0    0  0.27818789016E-01 -0.28818909213E-01 -0.12297679089E+00  0.13086582802E+00  0.19953929340E-01 0.  0.
         14    1    1    2    0    0 -0.10384589156E-01  0.47651789060E-02 -0.18028244600E-01  0.21343950556E-01  0.00000000000E+00 0. -1.
     999901    1    3    3    0    0 -0.17434199860E-01  0.24053730307E-01  0.14100503549E+00  0.89172022143E+00  0.88000000000E+00 0.  1.
        -11    1    4    4    0    0  0.11245394892E-02 -0.12013645017E-02 -0.32839668020E-01  0.32884841225E-01  0.51100000000E-03 0. -1.
         11    1    4    4    0    0  0.26694249527E-01 -0.27617544712E-01 -0.90137122865E-01  0.97980986794E-01  0.51100000000E-03 0.  1.
</event>
<event>
 8    1  0.1054833E+005  0.1043930E+01  0.7957747E-01            NaN
         13   -1    0    0    0    0  0.00000000000E+00  0.00000000000E+00  0.74505805969E-08  0.10566000000E+00  0.10566000000E+00 0. -1.
     999900   -1    0    0    0    0 -0.00000000000E+00 -0.00000000000E+00 -0.74505805969E-08  0.93827000000E+00  0.93827000000E+00 0. -1.
     999902    2    1    2    0    0 -0.61906801540E-02  0.16057115769E-01 -0.16301927935E-01  0.10202253941E+01  0.10199499725E+01 0.  0.
     999903    2    3    3    0    0  0.41977856590E-01 -0.11969416180E+00 -0.75356960017E-02  0.12847124404E+00  0.18953654440E-01 0.  0.
         14    1    1    2    0    0  0.61906801540E-02 -0.16057115769E-01  0.16301927935E-01  0.23704605923E-01  0.00000000000E+00 0. -1.
     999901    1    3    3    0    0 -0.48168536744E-01  0.13575127757E+00 -0.87662319337E-02  0.89175415004E+00  0.88000000000E+00 0. -1.
        -11    1    4    4    0    0  0.31447951326E-01 -0.87727513813E-01 -0.13865665149E-01  0.94221059819E-01  0.51100000000E-03 0.  1.
         11    1    4    4    0    0  0.10529905265E-01 -0.31966647988E-01  0.63299691468E-02  0.34250184216E-01  0.51100000000E-03 0. -1.
</event>
<event>
 8    1  0.1054833E+005  0.1043930E+01  0.7957747E-01            NaN
         13   -1    0    0    0    0  0.00000000000E+00  0.00000000000E+00  0.74505805969E-08  0.10566000000E+00  0.10566000000E+00 0. -1.
     999900   -1    0    0    0    0 -0.00000000000E+00 -0.00000000000E+00 -0.74505805969E-08  0.93827000000E+00  0.93827000000E+00 0. -1.
     999902    2    1    2    0    0  0.24086106088E-02 -0.22003907798E-01 -0.78110671540E-02  0.10204569062E+01  0.10201869001E+01 0.  0.
     999903    2    3    3    0    0  0.27875787001E-01 -0.43487345408E-01 -0.12050374264E+00  0.13264512755E+00  0.20133781613E-01 0.  0.
         14    1    1    2    0    0 -0.24086106088E-02  0.22003907798E-01  0.78110671540E-02  0.23473093821E-01  0.00000000000E+00 0. -1.
     999901    1    3    3    0    0 -0.25467176392E-01  0.21483437610E-01  0.11269267548E+00  0.88781177863E+00  0.88000000000E+00 0.  1.
        -11    1    4    4    0    0 -0.10743559840E-02 -0.89610636779E-02 -0.33067613333E-01  0.34280943330E-01  0.51100000000E-03 0. -1.
         11    1    4    4    0    0  0.28950142985E-01 -0.34526281730E-01 -0.87436129302E-01  0.98364184220E-01  0.51100000000E-03 0.  1.
</event>
<event>
 8    1  0.1054833E+005  0.1043930E+01  0.7957747E-01            NaN
         13   -1    0    0    0    0  0.00000000000E+00  0.00000000000E+00  0.74505805969E-08  0.10566000000E+00  0.10566000000E+00 0.  1.
     999900   -1    0    0    0    0 -0.00000000000E+00 -0.00000000000E+00 -0.74505805969E-08  0.93827000000E+00  0.93827000000E+00 0.  1.
     999902    2    1    2    0    0  0.21254726262E-01  0.34108582677E-02  0.88783774019E-02  0.10206443193E+01  0.10203786569E+01 0.  0.
     999903    2    3    3    0    0 -0.71687624394E-01  0.52979001765E-01 -0.91219933587E-01  0.12872786955E+00  0.17432670328E-01 0.  0.
         14    1    1    2    0    0 -0.21254726262E-01 -0.34108582677E-02 -0.88783774019E-02  0.23285680748E-01  0.00000000000E+00 0. -1.
     999901    1    3    3    0    0  0.92942350656E-01 -0.49568143497E-01  0.10009831099E+00  0.89191644971E+00  0.88000000000E+00 0. -1.
        -11    1    4    4    0    0 -0.64669554099E-01  0.51018455307E-01 -0.77078692374E-01  0.11281143536E+00  0.51100000000E-03 0. -1.
         11    1    4    4    0    0 -0.70180702955E-02  0.19605464580E-02 -0.14141241213E-01  0.15916434184E-01  0.51100000000E-03 0.  1.
</event>
<event>
 8    1  0.1054833E+005  0.1043930E+01  0.7957747E-01            NaN
         13   -1    0    0    0    0  0.00000000000E+00  0.00000000000E+00  0.74505805969E-08  0.10566000000E+00  0.10566000000E+00 0.  1.
     999900   -1    0    0    0    0 -0.00000000000E+00 -0.00000000000E+00 -0.74505805969E-08  0.93827000000E+00  0.93827000000E+00 0. -1.
     999902    2    1    2    0    0  0.44838442863E-02  0.17373844591E-01  0.17053091268E-01  0.10191759446E+01  0.10188752833E+01 0.  0.
     999903    2    3    3    0    0  0.74420624325E-01 -0.58409638423E-01  0.87327399114E-01  0.13037182232E+00  0.20509076826E-01 0.  0.
         14    1    1    2    0    0 -0.44838442863E-02 -0.17373844591E-01 -0.17053091268E-01  0.24754055370E-01  0.00000000000E+00 0. -1.
     999901    1    3    3    0    0 -0.69936780039E-01  0.75783483014E-01 -0.70274307845E-01  0.88880412231E+00  0.88000000000E+00 0. -1.
        -11    1    4    4    0    0  0.55739789080E-01 -0.44623297649E-01  0.52985523138E-01  0.88915069381E-01  0.51100000000E-03 0. -1.
         11    1    4    4    0    0  0.18680835245E-01 -0.13786340775E-01  0.34341875975E-01  0.41456752935E-01  0.51100000000E-03 0.  1.
</event>
<event>
 8    1  0.1054833E+005  0.1043930E+01  0.7957747E-01            NaN
         13   -1    0    0    0    0  0.00000000000E+00  0.00000000000E+00  0.74505805969E-08  0.10566000000E+00  0.10566000000E+00 0. -1.
     999900   -1    0    0    0    0 -0.00000000000E+00 -0.00000000000E+00 -0.74505805969E-08  0.93827000000E+00  0.93827000000E+00 0. -1.
     999902    2    1    2    0    0  0.51823769605E-02 -0.33713971643E-03 -0.23946349399E-01  0.10194269728E+01  0.10191324519E+01 0.  0.
     999903    2    3    3    0    0  0.70975663120E-01  0.10441467260E+00 -0.27748862509E-01  0.13076721909E+00  0.19750888856E-01 0.  0.
         14    1    1    2    0    0 -0.51823769605E-02  0.33713971643E-03  0.23946349399E-01  0.24503027235E-01  0.00000000000E+00 0. -1.
     999901    1    3    3    0    0 -0.65793286160E-01 -0.10475181231E+00  0.38025131099E-02  0.88865975367E+00  0.88000000000E+00 0. -1.
        -11    1    4    4    0    0  0.38622395588E-01  0.39572972620E-01 -0.13250613886E-01  0.56864307719E-01  0.51100000000E-03 0. -1.
         11    1    4    4    0    0  0.32353267532E-01  0.64841699976E-01 -0.14498248623E-01  0.73902911376E-01  0.51100000000E-03 0.  1.
</event>
<event>
 8    1  0.1054833E+005  0.1043930E+01  0.7957747E-01            NaN
         13   -1    0    0    0    0  0.00000000000E+00  0.00000000000E+00  0.74505805969E-08  0.10566000000E+00  0.10566000000E+00 0.  1.
     999900   -1    0    0    0    0 -0.00000000000E+00 -0.00000000000E+00 -0.74505805969E-08  0.93827000000E+00  0.93827000000E+00 0. -1.
     999902    2    1    2    0    0  0.14596673055E-01 -0.16951042698E-01  0.11325484424E-01  0.10188567611E+01  0.10185481983E+01 0.  0.
     999903    2    3    3    0    0 -0.24280447869E-01 -0.11635233824E+00 -0.49790151183E-01  0.13030334737E+00  0.19300166263E-01 0.  0.
         14    1    1    2    0    0 -0.14596673055E-01  0.16951042698E-01 -0.11325484424E-01  0.25073238926E-01  0.00000000000E+00 0. -1.
     999901    1    3    3    0    0  0.38877120924E-01  0.99401295546E-01  0.61115635607E-01  0.88855341370E+00  0.88000000000E+00 0.  1.
        -11    1    4    4    0    0 -0.20571546390E-01 -0.92736498751E-01 -0.31096660329E-01  0.99952539368E-01  0.51100000000E-03 0. -1.
         11    1    4    4    0    0 -0.37089014792E-02 -0.23615839492E-01 -0.18693490854E-01  0.30350808002E-01  0.51100000000E-03 0.  1.
</event>
<event>
 8    1  0.1054833E+005  0.1043930E+01  0.7957747E-01            NaN
         13   -1    0    0    0    0  0.00000000000E+00  0.00000000000E+00  0.74505805969E-08  0.10566000000E+00  0.10566000000E+00 0.  1.
     999900   -1    0    0    0    0 -0.00000000000E+00 -0.00000000000E+00 -0.74505805969E-08  0.93827000000E+00  0.93827000000E+00 0. -1.
     999902    2    1    2    0    0 -0.57864327719E-02 -0.22814904813E-01  0.45779127578E-02  0.10199516771E+01  0.10196697816E+01 0.  0.
     999903    2    3    3    0    0  0.11191750572E+00  0.42571639692E-01 -0.41379740121E-01  0.12852488635E+00  0.21644651228E-01 0.  0.
         14    1    1    2    0    0  0.57864327719E-02  0.22814904813E-01 -0.45779127578E-02  0.23978322941E-01  0.00000000000E+00 0. -1.
     999901    1    3    3    0    0 -0.11770393849E+00 -0.65386544505E-01  0.45957652879E-01  0.89142679071E+00  0.88000000000E+00 0. -1.
        -11    1    4    4    0    0  0.65541763589E-02  0.84041211263E-02 -0.60242289394E-02  0.12253119397E-01  0.51100000000E-03 0. -1.
         11    1    4    4    0    0  0.10536332936E+00  0.34167518566E-01 -0.35355511182E-01  0.11627176695E+00  0.51100000000E-03 0.  1.
</event>
<event>
 8    1  0.1054833E+005  0.1043930E+01  0.7957747E-01            NaN
         13   -1    0    0    0    0  0.00000000000E+00  0.00000000000E+00  0.74505805969E-08  0.10566000000E+00  0.10566000000E+00 0. -1.
     999900   -1    0    0    0    0 -0.00000000000E+00 -0.00000000000E+00 -0.74505805969E-08  0.93827000000E+00  0.93827000000E+00 0.  1.
     999902    2    1    2    0    0 -0.22529671279E-01 -0.58385640391E-02 -0.46450299742E-02  0.10201970857E+01  0.10199209981E+01 0.  0.
     999903    2    3    3    0    0 -0.44156461343E-02  0.10700538176E+00 -0.71507224935E-01  0.13029123274E+00  0.19821010400E-01 0.  0.
         14    1    1    2    0    0  0.22529671279E-01  0.58385640391E-02  0.46450299742E-02  0.23732914306E-01  0.00000000000E+00 0.  1.
     999901    1    3    3    0    0 -0.18114025145E-01 -0.11284394580E+00  0.66862194960E-01  0.88990585296E+00  0.88000000000E+00 0.  1.
        -11    1    4    4    0    0 -0.88332061849E-02  0.28726026639E-01 -0.25260108589E-01  0.39262505586E-01  0.51100000000E-03 0.  1.
         11    1    4    4    0    0  0.44175600506E-02  0.78279355125E-01 -0.46247116345E-01  0.91028727152E-01  0.51100000000E-03 0. -1.
</event>
<event>
 8    1  0.1054833E+005  0.1043930E+01  0.7957747E-01            NaN
         13   -1    0    0    0    0  0.00000000000E+00  0.00000000000E+00  0.74505805969E-08  0.10566000000E+00  0.10566000000E+00 0. -1.
     999900   -1    0    0    0    0 -0.00000000000E+00 -0.00000000000E+00 -0.74505805969E-08  0.93827000000E+00  0.93827000000E+00 0. -1.
     999902    2    1    2    0    0  0.64751207951E-02  0.76369458353E-02 -0.21171963632E-01  0.10205098767E+01  0.10202411020E+01 0.  0.
     999903    2    3    3    0    0 -0.10676544339E+00  0.37657299064E-01 -0.64238907320E-01  0.13170201861E+00  0.20046256921E-01 0.  0.
         14    1    1    2    0    0 -0.64751207951E-02 -0.76369458353E-02  0.21171963632E-01  0.23420123292E-01  0.00000000000E+00 0. -1.
     999901    1    3    3    0    0  0.11324056418E+00 -0.30020353229E-01  0.43066943688E-01  0.88880785810E+00  0.88000000000E+00 0.  1.
        -11    1    4    4    0    0 -0.52144893863E-01  0.28970767386E-01 -0.32502026577E-01  0.67934072243E-01  0.51100000000E-03 0.  1.
         11    1    4    4    0    0 -0.54620549526E-01  0.86865316780E-02 -0.31736880743E-01  0.63767946363E-01  0.51100000000E-03 0. -1.
</event>
<event>
 8    1  0.1054833E+005  0.1043930E+01  0.7957747E-01            NaN
         13   -1    0    0    0    0  0.00000000000E+00  0.00000000000E+00  0.74505805969E-08  0.10566000000E+00  0.10566000000E+00 0.  1.
     999900   -1    0    0    0    0 -0.00000000000E+00 -0.00000000000E+00 -0.74505805969E-08  0.93827000000E+00  0.93827000000E+00 0.  1.
     999902    2    1    2    0    0 -0.14081539584E-02  0.61525601498E-02  0.23233953595E-01  0.10198540059E+01  0.10195697817E+01 0.  0.
     999903    2    3    3    0    0 -0.11730455376E+00 -0.59385859123E-02  0.55785675583E-01  0.13157601677E+00  0.20114210264E-01 0.  0.
         14    1    1    2    0    0  0.14081539584E-02 -0.61525601498E-02 -0.23233953595E-01  0.24075994136E-01  0.00000000000E+00 0. -1.
     999901    1    3    3    0    0  0.11589639980E+00  0.12091146062E-01 -0.32551721988E-01  0.88827798909E+00  0.88000000000E+00 0. -1.
        -11    1    4    4    0    0 -0.63210535457E-01 -0.50489022085E-02  0.40908560778E-01  0.75464128380E-01  0.51100000000E-03 0. -1.
         11    1    4    4    0    0 -0.54094018301E-01 -0.88968370375E-03  0.14877114805E-01  0.56111888393E-01  0.51100000000E-03 0.  1.
</event>
<event>
 8    1  0.1054833E+005  0.1043930E+01  0.7957747E-01            NaN
         13   -1    0    0    0    0  0.00000000000E+00  0.00000000000E+00  0.74505805969E-08  0.10566000000E+00  0.10566000000E+00 0. -1.
     999900   -1    0    0    0    0 -0.00000000000E+00 -0.00000000000E+00 -0.74505805969E-08  0.93827000000E+00  0.93827000000E+00 0. -1.
     999902    2    1    2    0    0 -0.17408077388E-01  0.14339954805E-01 -0.59825245293E-02  0.10205962034E+01  0.10203294294E+01 0.  0.
     999903    2    3    3    0    0  0.97157766892E-01 -0.16134838304E-01 -0.81644644191E-01  0.12942910236E+00  0.19648916993E-01 0.  0.
         14    1    1    2    0    0  0.17408077388E-01 -0.14339954805E-01  0.59825245293E-02  0.23333796560E-01  0.00000000000E+00 0. -1.
     999901    1    3    3    0    0 -0.11456584428E+00  0.30474793109E-01  0.75662119661E-01  0.89116710108E+00  0.88000000000E+00 0. -1.
        -11    1    4    4    0    0  0.35378358030E-01 -0.95184599154E-02 -0.19314877606E-01  0.41419257768E-01  0.51100000000E-03 0.  1.
         11    1    4    4    0    0  0.61779408862E-01 -0.66163783888E-02 -0.62329766584E-01  0.88009844596E-01  0.51100000000E-03 0. -1.
</event>
<event>
 8    1  0.1054833E+005  0.1043930E+01  0.7957747E-01            NaN
         13   -1    0    0    0    0  0.00000000000E+00  0.00000000000E+00  0.74505805969E-08  0.10566000000E+00  0.10566000000E+00 0.  1.
     999900   -1    0    0    0    0 -0.00000000000E+00 -0.00000000000E+00 -0.74505805969E-08  0.93827000000E+00  0.93827000000E+00 0. -1.
     999902    2    1    2    0    0  0.12544714349E-01 -0.20504317751E-01  0.62566118619E-02  0.10190916809E+01  0.10187889438E+01 0.  0.
     999903    2    3    3    0    0 -0.11865340654E+00 -0.22579645109E-01  0.39773147344E-01  0.12873185920E+00  0.20037890804E-01 0.  0.
         14    1    1    2    0    0 -0.12544714349E-01  0.20504317751E-01 -0.62566118619E-02  0.24838319117E-01  0.00000000000E+00 0. -1.
     999901    1    3    3    0    0  0.13119812089E+00  0.20753273582E-02 -0.33516535482E-01  0.89035982168E+00  0.88000000000E+00 0.  1.
        -11    1    4    4    0    0 -0.74534872430E-01 -0.80496773687E-02  0.32508622841E-01  0.81714846838E-01  0.51100000000E-03 0.  1.
         11    1    4    4    0    0 -0.44118534111E-01 -0.14529967741E-01  0.72645245032E-02  0.47017012367E-01  0.51100000000E-03 0. -1.
</event>
<event>
 8    1  0.1054833E+005  0.1043930E+01  0.7957747E-01            NaN
         13   -1    0    0    0    0  0.00000000000E+00  0.00000000000E+00  0.74505805969E-08  0.10566000000E+00  0.10566000000E+00 0.  1.
     999900   -1    0    0    0    0 -0.00000000000E+00 -0.00000000000E+00 -0.74505805969E-08  0.93827000000E+00  0.93827000000E+00 0. -1.
     999902    2    1    2    0    0  0.74856249037E-02 -0.12484646985E-01  0.18548584234E-01  0.10203513875E+01  0.10200789200E+01 0.  0.
     999903    2    3    3    0    0  0.78540503706E-01  0.84435202267E-01  0.58956278585E-01  0.13126475800E+00  0.21370067961E-01 0.  0.
         14    1    1    2    0    0 -0.74856249037E-02  0.12484646985E-01 -0.18548584234E-01  0.23578612504E-01  0.00000000000E+00 0. -1.
     999901    1    3    3    0    0 -0.71054878802E-01 -0.96919849252E-01 -0.40407694351E-01  0.88908662949E+00  0.88000000000E+00 0.  1.
        -11    1    4    4    0    0  0.32878753561E-01  0.20864654181E-01  0.21649868959E-01  0.44556976746E-01  0.51100000000E-03 0. -1.
         11    1    4    4    0    0  0.45661750145E-01  0.63570548086E-01  0.37306409626E-01  0.86707781256E-01  0.51100000000E-03 0.  1.
</event>
<event>
 8    1  0.1054833E+005  0.1043930E+01  0.7957747E-01            NaN
         13   -1    0    0    0    0  0.00000000000E+00  0.00000000000E+00  0.74505805969E-08  0.10566000000E+00  0.10566000000E+00 0. -1.
     999900   -1    0    0    0    0 -0.00000000000E+00 -0.00000000000E+00 -0.74505805969E-08  0.93827000000E+00  0.93827000000E+00 0. -1.
     999902    2    1    2    0    0  0.14814412272E-01 -0.17890900178E-01  0.56826431534E-02  0.10200167494E+01  0.10197364000E+01 0.  0.
     999903    2    3    3    0    0 -0.10728109603E+00 -0.45630095575E-01  0.53545053900E-01  0.12986643264E+00  0.20171225588E-01 0.  0.
         14    1    1    2    0    0 -0.14814412272E-01  0.17890900178E-01 -0.56826431534E-02  0.23913250581E-01  0.00000000000E+00 0.  1.
     999901    1    3    3    0    0  0.12209550830E+00  0.27739195397E-01 -0.47862410747E-01  0.89015031678E+00  0.88000000000E+00 0.  1.
        -11    1    4    4    0    0 -0.35263648635E-01 -0.17096268735E-01  0.79906315136E-02  0.39998982896E-01  0.51100000000E-03 0.  1.
         11    1    4    4    0    0 -0.72017447390E-01 -0.28533826840E-01  0.45554422387E-01  0.89867449740E-01  0.51100000000E-03 0. -1.
</event>
<event>
 8    1  0.1054833E+005  0.1043930E+01  0.7957747E-01            NaN
         13   -1    0    0    0    0  0.00000000000E+00  0.00000000000E+00  0.74505805969E-08  0.10566000000E+00  0.10566000000E+00 0. -1.
     999900   -1    0    0    0    0 -0.00000000000E+00 -0.00000000000E+00 -0.74505805969E-08  0.93827000000E+00  0.93827000000E+00 0.  1.
     999902    2    1    2    0    0 -0.16153842455E-01  0.84502350381E-02  0.15676137711E-01  0.10198864064E+01  0.10196029559E+01 0.  0.
     999903    2    3    3    0    0 -0.11578619927E+00  0.40528168818E-01  0.47769642392E-01  0.13310255824E+00  0.19630992539E-01 0.  0.
         14    1    1    2    0    0  0.16153842455E-01 -0.84502350381E-02 -0.15676137711E-01  0.24043593570E-01  0.00000000000E+00 0.  1.
     999901    1    3    3    0    0  0.99632356814E-01 -0.32077933780E-01 -0.32093504681E-01  0.88678384819E+00  0.88000000000E+00 0.  1.
        -11    1    4    4    0    0 -0.85695678490E-01  0.37192751368E-01  0.30653983486E-01  0.98320790735E-01  0.51100000000E-03 0.  1.
         11    1    4    4    0    0 -0.30090520779E-01  0.33354174507E-02  0.17115658906E-01  0.34781767509E-01  0.51100000000E-03 0. -1.
</event>
<event>
 8    1  0.1054833E+005  0.1043930E+01  0.7957747E-01            NaN
         13   -1    0    0    0    0  0.00000000000E+00  0.00000000000E+00  0.74505805969E-08  0.10566000000E+00  0.10566000000E+00 0.  1.
     999900   -1    0    0    0    0 -0.00000000000E+00 -0.00000000000E+00 -0.74505805969E-08  0.93827000000E+00  0.93827000000E+00 0. -1.
     999902    2    1    2    0    0  0.54547935591E-02  0.20369715816E-01 -0.12680660953E-01  0.10193235119E+01  0.10190264681E+01 0.  0.
     999903    2    3    3    0    0 -0.10201342729E+00 -0.73925585020E-01  0.53060444694E-02  0.12760352006E+00  0.19564579088E-01 0.  0.
         14    1    1    2    0    0 -0.54547935591E-02 -0.20369715816E-01  0.12680660953E-01  0.24606488117E-01  0.00000000000E+00 0.  1.
     999901    1    3    3    0    0  0.10746822085E+00  0.94295300836E-01 -0.17986705423E-01  0.89171999183E+00  0.88000000000E+00 0.  1.
        -11    1    4    4    0    0 -0.82138215778E-01 -0.58567880773E-01  0.12030259774E-01  0.10159661127E+00  0.51100000000E-03 0.  1.
         11    1    4    4    0    0 -0.19875211512E-01 -0.15357704247E-01 -0.67242153050E-02  0.26006908790E-01  0.51100000000E-03 0. -1.
</event>
<event>
 8    1  0.1054833E+005  0.1043930E+01  0.7957747E-01            NaN
         13   -1    0    0    0    0  0.00000000000E+00  0.00000000000E+00  0.74505805969E-08  0.10566000000E+00  0.10566000000E+00 0. -1.
     999900   -1    0    0    0    0 -0.00000000000E+00 -0.00000000000E+00 -0.74505805969E-08  0.93827000000E+00  0.93827000000E+00 0. -1.
     999902    2    1    2    0    0 -0.16740576699E-01  0.50549226600E-02  0.15806369463E-01  0.10203579728E+01  0.10200856592E+01 0.  0.
     999903    2    3    3    0    0 -0.18170965788E-01  0.32698867247E-01  0.12607808690E+00  0.13304400054E+00  0.20140063675E-01 0.  0.
         14    1    1    2    0    0  0.16740576699E-01 -0.50549226600E-02 -0.15806369463E-01  0.23572027213E-01  0.00000000000E+00 0. -1.
     999901    1    3    3    0    0  0.14303890887E-02 -0.27643944587E-01 -0.11027171744E+00  0.88731397225E+00  0.88000000000E+00 0. -1.
        -11    1    4    4    0    0 -0.12967580905E-01  0.18135057025E-01  0.41992742755E-01  0.47546714008E-01  0.51100000000E-03 0. -1.
         11    1    4    4    0    0 -0.52033848834E-02  0.14563810222E-01  0.84085344146E-01  0.85497286528E-01  0.51100000000E-03 0.  1.
</event>
<event>
 8    1  0.1054833E+005  0.1043930E+01  0.7957747E-01            NaN
         13   -1    0    0    0    0  0.00000000000E+00  0.00000000000E+00  0.74505805969E-08  0.10566000000E+00  0.10566000000E+00 0. -1.
     999900   -1    0    0    0    0 -0.00000000000E+00 -0.00000000000E+00 -0.74505805969E-08  0.93827000000E+00  0.93827000000E+00 0. -1.
     999902    2    1    2    0    0 -0.89609157554E-02  0.18189552597E-01  0.11171529874E-01  0.10207791703E+01  0.10205166112E+01 0.  0.
     999903    2    3    3    0    0  0.10787025217E+00  0.29181994895E-01 -0.63147609040E-01  0.12988428876E+00  0.19867758085E-01 0.  0.
         14    1    1    2    0    0  0.89609157554E-02 -0.18189552597E-01 -0.11171529874E-01  0.23150829674E-01  0.00000000000E+00 0. -1.
     999901    1    3    3    0    0 -0.11683116792E+00 -0.10992442298E-01  0.74319138914E-01  0.89089488156E+00  0.88000000000E+00 0.  1.
        -11    1    4    4    0    0  0.59014548805E-01  0.13579335861E-01 -0.45118430261E-01  0.75518535495E-01  0.51100000000E-03 0.  1.
         11    1    4    4    0    0  0.48855703362E-01  0.15602659033E-01 -0.18029178779E-01  0.54365753268E-01  0.51100000000E-03 0. -1.
</event>
<event>
 8    1  0.1054833E+005  0.1043930E+01  0.7957747E-01            NaN
         13   -1    0    0    0    0  0.00000000000E+00  0.00000000000E+00  0.74505805969E-08  0.10566000000E+00  0.10566000000E+00 0. -1.
     999900   -1    0    0    0    0 -0.00000000000E+00 -0.00000000000E+00 -0.74505805969E-08  0.93827000000E+00  0.93827000000E+00 0. -1.
     999902    2    1    2    0    0  0.15196889218E-03  0.22513491214E-01 -0.49364359128E-02  0.10208811653E+01  0.10206209408E+01 0.  0.
     999903    2    3    3    0    0 -0.14307758371E-01 -0.49158571006E-01  0.11695500604E+00  0.12947581877E+00  0.21546163330E-01 0.  0.
         14    1    1    2    0    0 -0.15196889218E-03 -0.22513491214E-01  0.49364359128E-02  0.23048834693E-01  0.00000000000E+00 0. -1.
     999901    1    3    3    0    0  0.14459727263E-01  0.71672062220E-01 -0.12189144196E+00  0.89140534654E+00  0.88000000000E+00 0. -1.
        -11    1    4    4    0    0 -0.70322689580E-03 -0.32051849481E-01  0.53642066322E-01  0.62494383616E-01  0.51100000000E-03 0. -1.
         11    1    4    4    0    0 -0.13604531475E-01 -0.17106721525E-01  0.63312939721E-01  0.66981435152E-01  0.51100000000E-03 0.  1.
</event>
<event>
 8    1  0.1054833E+005  0.1043930E+01  0.7957747E-01            NaN
         13   -1    0    0    0    0  0.00000000000E+00  0.00000000000E+00  0.74505805969E-08  0.10566000000E+00  0.10566000000E+00 0.  1.
     999900   -1    0    0    0    0 -0.00000000000E+00 -0.00000000000E+00 -0.74505805969E-08  0.93827000000E+00  0.93827000000E+00 0. -1.
     999902    2    1    2    0    0 -0.19812700875E-01  0.11095509369E-02  0.14017024981E-01  0.10196349139E+01  0.10193454304E+01 0.  0.
     999903    2    3    3    0    0 -0.46673525401E-01  0.52947461611E-01  0.11041649642E+00  0.13244748671E+00  0.19201103815E-01 0.  0.
         14    1    1    2    0    0  0.19812700875E-01 -0.11095509369E-02 -0.14017024981E-01  0.24295086099E-01  0.00000000000E+00 0. -1.
     999901    1    3    3    0    0  0.26860824527E-01 -0.51837910675E-01 -0.96399471444E-01  0.88718742719E+00  0.88000000000E+00 0. -1.
        -11    1    4    4    0    0 -0.29831532960E-01  0.24148430384E-01  0.71774844374E-01  0.81393835483E-01  0.51100000000E-03 0.  1.
         11    1    4    4    0    0 -0.16841992441E-01  0.28799031228E-01  0.38641652051E-01  0.51053651224E-01  0.51100000000E-03 0. -1.
</event>
<event>
 8    1  0.1054833E+005  0.1043930E+01  0.7957747E-01            NaN
         13   -1    0    0    0    0  0.00000000000E+00  0.00000000000E+00  0.74505805969E-08  0.10566000000E+00  0.10566000000E+00 0. -1.
     999900   -1    0    0    0    0 -0.00000000000E+00 -0.00000000000E+00 -0.74505805969E-08  0.93827000000E+00  0.93827000000E+00 0.  1.
     999902    2    1    2    0    0 -0.38865550424E-02 -0.26467019568E-01 -0.87963039667E-03  0.10171646832E+01  0.10168124756E+01 0.  0.
     999903    2    3    3    0    0  0.54983226110E-01 -0.10404603838E+00  0.52183932348E-01  0.13020363726E+00  0.19521554830E-01 0.  0.
         14    1    1    2    0    0  0.38865550424E-02  0.26467019568E-01  0.87963039667E-03  0.26765316821E-01  0.00000000000E+00 0. -1.
     999901    1    3    3    0    0 -0.58869781152E-01  0.77579018815E-01 -0.53063562745E-01  0.88696104592E+00  0.88000000000E+00 0.  1.
        -11    1    4    4    0    0  0.38567114535E-01 -0.86152632236E-01  0.46658557218E-01  0.10529473134E+00  0.51100000000E-03 0.  1.
         11    1    4    4    0    0  0.16416111575E-01 -0.17893406146E-01  0.55253751305E-02  0.24908905919E-01  0.51100000000E-03 0. -1.
</event>
<event>
 8    1  0.1054833E+005  0.1043930E+01  0.7957747E-01            NaN
         13   -1    0    0    0    0  0.00000000000E+00  0.00000000000E+00  0.74505805969E-08  0.10566000000E+00  0.10566000000E+00 0. -1.
     999900   -1    0    0    0    0 -0.00000000000E+00 -0.00000000000E+00 -0.74505805969E-08  0.93827000000E+00  0.93827000000E+00 0.  1.
     999902    2    1    2    0    0 -0.11735925029E-01  0.78736114240E-02 -0.19106518616E-01  0.10201647997E+01  0.10198879516E+01 0.  0.
     999903    2    3    3    0    0  0.15623644751E-01 -0.12387876627E+00  0.24365775742E-01  0.12887524208E+00  0.20617710474E-01 0.  0.
         14    1    1    2    0    0  0.11735925029E-01 -0.78736114240E-02  0.19106518616E-01  0.23765200331E-01  0.00000000000E+00 0. -1.
     999901    1    3    3    0    0 -0.27359569780E-01  0.13175237770E+00 -0.43472294359E-01  0.89128955759E+00  0.88000000000E+00 0.  1.
        -11    1    4    4    0    0  0.99079998872E-02 -0.11378592328E+00  0.26030717078E-01  0.11714633649E+00  0.51100000000E-03 0.  1.
         11    1    4    4    0    0  0.57156448643E-02 -0.10092842990E-01 -0.16649413355E-02  0.11728905596E-01  0.51100000000E-03 0. -1.
</event>
<event>
 8    1  0.1054833E+005  0.1043930E+01  0.7957747E-01            NaN
         13   -1    0    0    0    0  0.00000000000E+00  0.00000000000E+00  0.74505805969E-08  0.10566000000E+00  0.10566000000E+00 0.  1.
     999900   -1    0    0    0    0 -0.00000000000E+00 -0.00000000000E+00 -0.74505805969E-08  0.93827000000E+00  0.93827000000E+00 0.  1.
     999902    2    1    2    0    0  0.84322700465E-02  0.20256294296E-01 -0.85252877851E-02  0.10203906464E+01  0.10201190960E+01 0.  0.
     999903    2    3    3    0    0  0.12429170809E+00 -0.26817129756E-01  0.24280128744E-01  0.13094390150E+00  0.19727988711E-01 0.  0.
         14    1    1    2    0    0 -0.84322700465E-02 -0.20256294296E-01  0.85252877851E-02  0.23539353614E-01  0.00000000000E+00 0.  1.
     999901    1    3    3    0    0 -0.11585943805E+00  0.47073424052E-01 -0.32805416529E-01  0.88944674489E+00  0.88000000000E+00 0.  1.
        -11    1    4    4    0    0  0.90243820008E-01 -0.18960049299E-01  0.85204310372E-02  0.92608257650E-01  0.51100000000E-03 0.  1.
         11    1    4    4    0    0  0.34047888087E-01 -0.78570804574E-02  0.15759697706E-01  0.38335643849E-01  0.51100000000E-03 0. -1.
</event>
<event>
 8    1  0.1054833E+005  0.1043930E+01  0.7957747E-01            NaN
         13   -1    0    0    0    0  0.00000000000E+00  0.00000000000E+00  0.74505805969E-08  0.10566000000E+00  0.10566000000E+00 0. -1.
     999900   -1    0    0    0    0 -0.00000000000E+00 -0.00000000000E+00 -0.74505805969E-08  0.93827000000E+00  0.93827000000E+00 0. -1.
     999902    2    1    2    0    0 -0.13861120796E-01 -0.17785580597E-01  0.63368583401E-02  0.10205075040E+01  0.10202386742E+01 0.  0.
     999903    2    3    3    0    0  0.20363276940E-02  0.12617593148E+00 -0.14057373994E-01  0.12843487769E+00  0.19323450224E-01 0.  0.
         14    1    1    2    0    0  0.13861120796E-01  0.17785580597E-01 -0.63368583401E-02  0.23422496035E-01  0.00000000000E+00 0.  1.
     999901    1    3    3    0    0 -0.15897448490E-01 -0.14396151208E+00  0.20394232334E-01  0.89207262627E+00  0.88000000000E+00 0.  1.
        -11    1    4    4    0    0  0.28581279437E-02  0.86935923079E-01 -0.18507429926E-01  0.88931488801E-01  0.51100000000E-03 0. -1.
         11    1    4    4    0    0 -0.82180024968E-03  0.39240008404E-01  0.44500559322E-02  0.39503388893E-01  0.51100000000E-03 0.  1.
</event>
<event>
 8    1  0.1054833E+005  0.1043930E+01  0.7957747E-01            NaN
         13   -1    0    0    0    0  0.00000000000E+00  0.00000000000E+00  0.74505805969E-08  0.10566000000E+00  0.10566000000E+00 0.  1.
     999900   -1    0    0    0    0 -0.00000000000E+00 -0.00000000000E+00 -0.74505805969E-08  0.93827000000E+00  0.93827000000E+00 0.  1.
     999902    2    1    2    0    0 -0.16503279623E-02 -0.20512709587E-01  0.49074002559E-02  0.10227739745E+01  0.10225551455E+01 0.  0.
     999903    2    3    3    0    0  0.95807933452E-01  0.45204889880E-01 -0.75482906408E-01  0.13132598557E+00  0.18061094756E-01 0.  0.
         14    1    1    2    0    0  0.16503279623E-02  0.20512709587E-01 -0.49074002559E-02  0.21156025483E-01  0.00000000000E+00 0. -1.
     999901    1    3    3    0    0 -0.97458261415E-01 -0.65717599467E-01  0.80390306664E-01  0.89144798895E+00  0.88000000000E+00 0.  1.
        -11    1    4    4    0    0  0.86809979731E-01  0.35005534866E-01 -0.68765973204E-01  0.11614809617E+00  0.51100000000E-03 0.  1.
         11    1    4    4    0    0  0.89979537213E-02  0.10199355015E-01 -0.67169332042E-02  0.15177889397E-01  0.51100000000E-03 0. -1.
</event>
<event>
 8    1  0.1054833E+005  0.1043930E+01  0.7957747E-01            NaN
         13   -1    0    0    0    0  0.00000000000E+00  0.00000000000E+00  0.74505805969E-08  0.10566000000E+00  0.10566000000E+00 0.  1.
     999900   -1    0    0    0    0 -0.00000000000E+00 -0.00000000000E+00 -0.74505805969E-08  0.93827000000E+00  0.93827000000E+00 0.  1.
     999902    2    1    2    0    0  0.12883617867E-01 -0.12907464232E-01  0.15630488753E-01  0.10199112069E+01  0.10196283478E+01 0.  0.
     999903    2    3    3    0    0 -0.11738202681E+00 -0.29836366439E-01 -0.38114598026E-01  0.12853908471E+00  0.20020607756E-01 0.  0.
         14    1    1    2    0    0 -0.12883617867E-01  0.12907464232E-01 -0.15630488753E-01  0.24018793078E-01  0.00000000000E+00 0. -1.
     999901    1    3    3    0    0  0.13026564467E+00  0.16928902207E-01  0.53745086779E-01  0.89137212222E+00  0.88000000000E+00 0. -1.
        -11    1    4    4    0    0 -0.90720401039E-01 -0.22338859890E-01 -0.20320945413E-01  0.95615991180E-01  0.51100000000E-03 0.  1.
         11    1    4    4    0    0 -0.26661625768E-01 -0.74975065487E-02 -0.17793652613E-01  0.32923093526E-01  0.51100000000E-03 0. -1.
</event>
<event>
 8    1  0.1054833E+005  0.1043930E+01  0.7957747E-01            NaN
         13   -1    0    0    0    0  0.00000000000E+00  0.00000000000E+00  0.74505805969E-08  0.10566000000E+00  0.10566000000E+00 0. -1.
     999900   -1    0    0    0    0 -0.00000000000E+00 -0.00000000000E+00 -0.74505805969E-08  0.93827000000E+00  0.93827000000E+00 0. -1.
     999902    2    1    2    0    0  0.57523684256E-02 -0.15827491747E-01 -0.16025052180E-01  0.10206834619E+01  0.10204187022E+01 0.  0.
     999903    2    3    3    0    0  0.17735530697E-01  0.62229171465E-01  0.10900837282E+00  0.12834395461E+00  0.20058078431E-01 0.  0.
         14    1    1    2    0    0 -0.57523684256E-02  0.15827491747E-01  0.16025052180E-01  0.23246538127E-01  0.00000000000E+00 0. -1.
     999901    1    3    3    0    0 -0.11983162271E-01 -0.78056663213E-01 -0.12503342500E+00  0.89233950726E+00  0.88000000000E+00 0. -1.
        -11    1    4    4    0    0  0.17190066399E-01  0.48649678866E-01  0.69504582572E-01  0.86564644954E-01  0.51100000000E-03 0. -1.
         11    1    4    4    0    0  0.54546429815E-03  0.13579492600E-01  0.39503790248E-01  0.41779309659E-01  0.51100000000E-03 0.  1.
</event>
<event>
 8    1  0.1054833E+005  0.1043930E+01  0.7957747E-01            NaN
         13   -1    0    0    0    0  0.00000000000E+00  0.00000000000E+00  0.74505805969E-08  0.10566000000E+00  0.10566000000E+00 0.  1.
     999900   -1    0    0    0    0 -0.00000000000E+00 -0.00000000000E+00 -0.74505805969E-08  0.93827000000E+00  0.93827000000E+00 0.  1.
     999902    2    1    2    0    0  0.12231394016E-01 -0.18258892889E-01  0.90283866014E-02  0.10201706664E+01  0.10198939566E+01 0.  0.
     999903    2    3    3    0    0  0.40551240778E-02  0.11555818993E+00 -0.51426927945E-01  0.12796625702E+00  0.18986698642E-01 0.  0.
         14    1    1    2    0    0 -0.12231394016E-01  0.18258892889E-01 -0.90283866014E-02  0.23759333613E-01  0.00000000000E+00 0. -1.
     999901    1    3    3    0    0  0.81762699386E-02 -0.13381708282E+00  0.60455314546E-01  0.89220440937E+00  0.88000000000E+00 0. -1.
        -11    1    4    4    0    0 -0.29611991781E-02  0.13802581789E-01 -0.94127039997E-03  0.14157226974E-01  0.51100000000E-03 0.  1.
         11    1    4    4    0    0  0.70163232558E-02  0.10175560814E+00 -0.50485657545E-01  0.11380903004E+00  0.51100000000E-03 0. -1.
</event>
<event>
 8    1  0.1054833E+005  0.1043930E+01  0.7957747E-01            NaN
         13   -1    0    0    0    0  0.00000000000E+00  0.00000000000E+00  0.74505805969E-08  0.10566000000E+00  0.10566000000E+00 0. -1.
     999900   -1    0    0    0    0 -0.00000000000E+00 -0.00000000000E+00 -0.74505805969E-08  0.93827000000E+00  0.93827000000E+00 0. -1.
     999902    2    1    2    0    0 -0.11614803888E-01 -0.12425198954E-01 -0.21938679043E-01  0.10161704093E+01  0.10157911724E+01 0.  0.
     999903    2    3    3    0    0 -0.59946319608E-01  0.98381763478E-01 -0.50726324333E-01  0.12743937750E+00  0.19877181345E-01 0.  0.
         14    1    1    2    0    0  0.11614803888E-01  0.12425198954E-01  0.21938679043E-01  0.27759590713E-01  0.00000000000E+00 0. -1.
     999901    1    3    3    0    0  0.48331515720E-01 -0.11080696243E+00  0.28787645290E-01  0.88873103178E+00  0.88000000000E+00 0.  1.
        -11    1    4    4    0    0 -0.41717422385E-01  0.52176964917E-01 -0.34463593996E-01  0.75171666407E-01  0.51100000000E-03 0. -1.
         11    1    4    4    0    0 -0.18228897223E-01  0.46204798562E-01 -0.16262730337E-01  0.52267711095E-01  0.51100000000E-03 0.  1.
</event>
<event>
 8    1  0.1054833E+005  0.1043930E+01  0.7957747E-01            NaN
         13   -1    0    0    0    0  0.00000000000E+00  0.00000000000E+00  0.74505805969E-08  0.10566000000E+00  0.10566000000E+00 0.  1.
     999900   -1    0    0    0    0 -0.00000000000E+00 -0.00000000000E+00 -0.74505805969E-08  0.93827000000E+00  0.93827000000E+00 0. -1.
     999902    2    1    2    0    0 -0.15560473145E-02 -0.23048578632E-01  0.30067777391E-02  0.10206340997E+01  0.10203682014E+01 0.  0.
     999903    2    3    3    0    0  0.14858425744E-01 -0.82939745322E-01  0.10093451501E+00  0.13302707597E+00  0.20215154012E-01 0.  0.
         14    1    1    2    0    0  0.15560473145E-02  0.23048578632E-01 -0.30067777391E-02  0.23295900339E-01  0.00000000000E+00 0.  1.
     999901    1    3    3    0    0 -0.16414473058E-01  0.59891166690E-01 -0.97927737272E-01  0.88760702369E+00  0.88000000000E+00 0. -1.
        -11    1    4    4    0    0  0.10707798817E-01 -0.77704504497E-01  0.84587429252E-01  0.11536005064E+00  0.51100000000E-03 0. -1.
         11    1    4    4    0    0  0.41506269271E-02 -0.52352408249E-02  0.16347085759E-01  0.17667025336E-01  0.51100000000E-03 0.  1.
</event>
<event>
 8    1  0.1054833E+005  0.1043930E+01  0.7957747E-01            NaN
         13   -1    0    0    0    0  0.00000000000E+00  0.00000000000E+00  0.74505805969E-08  0.10566000000E+00  0.10566000000E+00 0.  1.
     999900   -1    0    0    0    0 -0.00000000000E+00 -0.00000000000E+00 -0.74505805969E-08  0.93827000000E+00  0.93827000000E+00 0.  1.
     999902    2    1    2    0    0 -0.15417658401E-01  0.88289778173E-02 -0.16595871040E-01  0.10196179048E+01  0.10193280109E+01 0.  0.
     999903    2    3    3    0    0  0.88743339783E-01  0.60834036583E-01 -0.71045595534E-01  0.13028174099E+00  0.18700134413E-01 0.  0.
         14    1    1    2    0    0  0.15417658401E-01 -0.88289778173E-02  0.16595871040E-01  0.24312095250E-01  0.00000000000E+00 0.  1.
     999901    1    3    3    0    0 -0.10416099818E+00 -0.52005058766E-01  0.54449724494E-01  0.88933616376E+00  0.88000000000E+00 0. -1.
        -11    1    4    4    0    0  0.31800272343E-01  0.32876774702E-01 -0.28398939487E-01  0.53841438696E-01  0.51100000000E-03 0.  1.
         11    1    4    4    0    0  0.56943067439E-01  0.27957261881E-01 -0.42646656047E-01  0.76440302291E-01  0.51100000000E-03 0. -1.
</event>
<event>
 8    1  0.1054833E+005  0.1043930E+01  0.7957747E-01            NaN
         13   -1    0    0    0    0  0.00000000000E+00  0.00000000000E+00  0.74505805969E-08  0.10566000000E+00  0.10566000000E+00 0. -1.
     999900   -1    0    0    0    0 -0.00000000000E+00 -0.00000000000E+00 -0.74505805969E-08  0.93827000000E+00  0.93827000000E+00 0.  1.
     999902    2    1    2    0    0  0.16925917620E-01 -0.36478459650E-02  0.21070914180E-01  0.10166577267E+01  0.10162918657E+01 0.  0.
     999903    2    3    3    0    0  0.32622762292E-01 -0.10383981840E+00 -0.62090116308E-01  0.12693834437E+00  0.20278269712E-01 0.  0.
         14    1    1    2    0    0 -0.16925917620E-01  0.36478459650E-02 -0.21070914180E-01  0.27272273316E-01  0.00000000000E+00 0.  1.
     999901    1    3    3    0    0 -0.15696844672E-01  0.10019197244E+00  0.83161030488E-01  0.88971938231E+00  0.88000000000E+00 0. -1.
        -11    1    4    4    0    0  0.27255519929E-01 -0.62184567127E-01 -0.30771635779E-01  0.74544875376E-01  0.51100000000E-03 0. -1.
         11    1    4    4    0    0  0.53672423628E-02 -0.41655251277E-01 -0.31318480529E-01  0.52393468993E-01  0.51100000000E-03 0.  1.
</event>
<event>
 8    1  0.1054833E+005  0.1043930E+01  0.7957747E-01            NaN
         13   -1    0    0    0    0  0.00000000000E+00  0.00000000000E+00  0.74505805969E-08  0.10566000000E+00  0.10566000000E+00 0.  1.
     999900   -1    0    0    0    0 -0.00000000000E+00 -0.00000000000E+00 -0.74505805969E-08  0.93827000000E+00  0.93827000000E+00 0. -1.
     999902    2    1    2    0    0  0.17824863218E-01 -0.17459023662E-01 -0.36487827226E-02  0.10187137974E+01  0.10184016615E+01 0.  0.
     999903    2    3    3    0    0  0.13715846721E-01 -0.77870407017E-01  0.10201449183E+00  0.13032697469E+00  0.18062088730E-01 0.  0.
         14    1    1    2    0    0 -0.17824863218E-01  0.17459023662E-01  0.36487827226E-02  0.25216202555E-01  0.00000000000E+00 0. -1.
     999901    1    3    3    0    0  0.41090164972E-02  0.60411383355E-01 -0.10566327455E+00  0.88838682275E+00  0.88000000000E+00 0. -1.
        -11    1    4    4    0    0 -0.15941140049E-02 -0.38361081141E-01  0.54410236192E-01  0.66594659464E-01  0.51100000000E-03 0. -1.
         11    1    4    4    0    0  0.15309960725E-01 -0.39509325876E-01  0.47604255634E-01  0.63732315226E-01  0.51100000000E-03 0.  1.
</event>
<event>
 8    1  0.1054833E+005  0.1043930E+01  0.7957747E-01            NaN
         13   -1    0    0    0    0  0.00000000000E+00  0.00000000000E+00  0.74505805969E-08  0.10566000000E+00  0.10566000000E+00 0.  1.
     999900   -1    0    0    0    0 -0.00000000000E+00 -0.00000000000E+00 -0.74505805969E-08  0.93827000000E+00  0.93827000000E+00 0.  1.
     999902    2    1    2    0    0  0.15978860746E-01  0.18611043108E-01 -0.35193013571E-02  0.10191493544E+01  0.10188480388E+01 0.  0.
     999903    2    3    3    0    0 -0.11840280894E+00  0.83367952120E-03 -0.44419818271E-01  0.12783161074E+00  0.18651548579E-01 0.  0.
         14    1    1    2    0    0 -0.15978860746E-01 -0.18611043108E-01  0.35193013571E-02  0.24780645640E-01  0.00000000000E+00 0. -1.
     999901    1    3    3    0    0  0.13438166968E+00  0.17777363587E-01  0.40900516914E-01  0.89131774362E+00  0.88000000000E+00 0.  1.
        -11    1    4    4    0    0 -0.17636786641E-01 -0.84968374998E-04  0.14689628530E-03  0.17645003887E-01  0.51100000000E-03 0. -1.
         11    1    4    4    0    0 -0.10076602229E+00  0.91864789620E-03 -0.44566714557E-01  0.11018660686E+00  0.51100000000E-03 0.  1.
</event>
<event>
 8    1  0.1054833E+005  0.1043930E+01  0.7957747E-01            NaN
         13   -1    0    0    0    0  0.00000000000E+00  0.00000000000E+00  0.74505805969E-08  0.10566000000E+00  0.10566000000E+00 0. -1.
     999900   -1    0    0    0    0 -0.00000000000E+00 -0.00000000000E+00 -0.74505805969E-08  0.93827000000E+00  0.93827000000E+00 0. -1.
     999902    2    1    2    0    0 -0.17618655817E-01  0.15363515499E-01 -0.56976787492E-02  0.10198692813E+01  0.10195854220E+01 0.  0.
     999903    2    3    3    0    0  0.11718292768E+00 -0.12117199039E-01 -0.46477076792E-01  0.12824737943E+00  0.20214020170E-01 0.  0.
         14    1    1    2    0    0  0.17618655817E-01 -0.15363515499E-01  0.56976787492E-02  0.24060718701E-01  0.00000000000E+00 0.  1.
     999901    1    3    3    0    0 -0.13480158350E+00  0.27480714538E-01  0.40779398043E-01  0.89162190187E+00  0.88000000000E+00 0.  1.
        -11    1    4    4    0    0  0.46440604556E-01 -0.14744038735E-01 -0.18181252907E-01  0.52008994492E-01  0.51100000000E-03 0. -1.
         11    1    4    4    0    0  0.70742323125E-01  0.26268396960E-02 -0.28295823885E-01  0.76238384940E-01  0.51100000000E-03 0.  1.
</event>
<event>
 8    1  0.1054833E+005  0.1043930E+01  0.7957747E-01            NaN
         13   -1    0    0    0    0  0.00000000000E+00  0.00000000000E+00  0.74505805969E-08  0.10566000000E+00  0.10566000000E+00 0. -1.
     999900   -1    0    0    0    0 -0.00000000000E+00 -0.00000000000E+00 -0.74505805969E-08  0.93827000000E+00  0.93827000000E+00 0. -1.
     999902    2    1    2    0    0 -0.12657395006E-01 -0.78481165463E-02 -0.17516008635E-01  0.10209384115E+01  0.10206794928E+01 0.  0.
     999903    2    3    3    0    0 -0.11786093730E+00  0.17982783027E-01 -0.56791644696E-01  0.13342638555E+00  0.19045430588E-01 0.  0.
         14    1    1    2    0    0  0.12657395006E-01  0.78481165463E-02  0.17516008635E-01  0.22991588466E-01  0.00000000000E+00 0. -1.
     999901    1    3    3    0    0  0.10520354229E+00 -0.25830899573E-01  0.39275636060E-01  0.88751202599E+00  0.88000000000E+00 0. -1.
        -11    1    4    4    0    0 -0.51683307097E-01 -0.15596848998E-02 -0.25602778647E-01  0.57700608705E-01  0.51100000000E-03 0. -1.
         11    1    4    4    0    0 -0.66177630203E-01  0.19542467927E-01 -0.31188866048E-01  0.75725776842E-01  0.51100000000E-03 0.  1.
</event>
<event>
 8    1  0.1054833E+005  0.1043930E+01  0.7957747E-01            NaN
         13   -1    0    0    0    0  0.00000000000E+00  0.00000000000E+00  0.74505805969E-08  0.10566000000E+00  0.10566000000E+00 0. -1.
     999900   -1    0    0    0    0 -0.00000000000E+00 -0.00000000000E+00 -0.74505805969E-08  0.93827000000E+00  0.93827000000E+00 0. -1.
     999902    2    1    2    0    0 -0.22662456008E-02  0.82417697378E-02 -0.22388569499E-01  0.10199652200E+01  0.10196836467E+01 0.  0.
     999903    2    3    3    0    0 -0.54764644458E-01 -0.10922941124E+00 -0.41025910589E-01  0.13041313565E+00  0.19855227197E-01 0.  0.
         14    1    1    2    0    0  0.22662456008E-02 -0.82417697378E-02  0.22388569499E-01  0.23964780027E-01  0.00000000000E+00 0. -1.
     999901    1    3    3    0    0  0.52498398857E-01  0.11747118098E+00  0.18637341091E-01  0.88955208432E+00  0.88000000000E+00 0.  1.
        -11    1    4    4    0    0 -0.21654510135E-01 -0.33782525349E-01 -0.22330103239E-01  0.45924628031E-01  0.51100000000E-03 0.  1.
         11    1    4    4    0    0 -0.33110134323E-01 -0.75446885894E-01 -0.18695807350E-01  0.84488507618E-01  0.51100000000E-03 0. -1.
</event>
<event>
 8    1  0.1054833E+005  0.1043930E+01  0.7957747E-01            NaN
         13   -1    0    0    0    0  0.00000000000E+00  0.00000000000E+00  0.74505805969E-08  0.10566000000E+00  0.10566000000E+00 0.  1.
     999900   -1    0    0    0    0 -0.00000000000E+00 -0.00000000000E+00 -0.74505805969E-08  0.93827000000E+00  0.93827000000E+00 0.  1.
     999902    2    1    2    0    0  0.17641249619E-01 -0.14076495407E-01 -0.48040504913E-02  0.10208553318E+01  0.10205945170E+01 0.  0.
     999903    2    3    3    0    0  0.45344790155E-01  0.62067689626E-01  0.10382646584E+00  0.13048124630E+00  0.18354087714E-01 0.  0.
         14    1    1    2    0    0 -0.17641249619E-01  0.14076495407E-01  0.48040504913E-02  0.23074668192E-01  0.00000000000E+00 0. -1.
     999901    1    3    3    0    0 -0.27703540536E-01 -0.76144185033E-01 -0.10863051633E+00  0.89037408551E+00  0.88000000000E+00 0.  1.
        -11    1    4    4    0    0  0.13611163064E-01  0.32907740758E-01  0.41241320492E-01  0.54491199277E-01  0.51100000000E-03 0.  1.
         11    1    4    4    0    0  0.31733627091E-01  0.29159948868E-01  0.62585145351E-01  0.75990047019E-01  0.51100000000E-03 0. -1.
</event>
<event>
 8    1  0.1054833E+005  0.1043930E+01  0.7957747E-01            NaN
         13   -1    0    0    0    0  0.00000000000E+00  0.00000000000E+00  0.74505805969E-08  0.10566000000E+00  0.10566000000E+00 0.  1.
     999900   -1    0    0    0    0 -0.00000000000E+00 -0.00000000000E+00 -0.74505805969E-08  0.93827000000E+00  0.93827000000E+00 0.  1.
     999902    2    1    2    0    0  0.13670694636E-01 -0.18257818116E-01 -0.34179866736E-02  0.10208666428E+01  0.10206060865E+01 0.  0.
     999903    2    3    3    0    0 -0.94856583682E-01 -0.76404536693E-01  0.44081261758E-01  0.13102655060E+00  0.19732577842E-01 0.  0.
         14    1    1    2    0    0 -0.13670694636E-01  0.18257818116E-01  0.34179866736E-02  0.23063357238E-01  0.00000000000E+00 0.  1.
     999901    1    3    3    0    0  0.10852727832E+00  0.58146718577E-01 -0.47499248432E-01  0.88984009216E+00  0.88000000000E+00 0.  1.
        -11    1    4    4    0    0 -0.34037327735E-01 -0.17461540691E-01  0.86897100247E-02  0.39232859493E-01  0.51100000000E-03 0.  1.
         11    1    4    4    0    0 -0.60819255947E-01 -0.58942996002E-01  0.35391551734E-01  0.91793691106E-01  0.51100000000E-03 0. -1.
</event>
<event>
 8    1  0.1054833E+005  0.1043930E+01  0.7957747E-01            NaN
         13   -1    0    0    0    0  0.00000000000E+00  0.00000000000E+00  0.74505805969E-08  0.10566000000E+00  0.10566000000E+00 0. -1.
     999900   -1    0    0    0    0 -0.00000000000E+00 -0.00000000000E+00 -0.74505805969E-08  0.93827000000E+00  0.93827000000E+00 0.  1.
     999902    2    1    2    0    0  0.78656939918E-02 -0.20972272665E-01 -0.58152156448E-02  0.10207886497E+01  0.10205263079E+01 0.  0.
     999903    2    3    3    0    0 -0.30369338333E-01 -0.60093861485E-01  0.11078690899E+00  0.13141332288E+00  0.21497751684E-01 0.  0.
         14    1    1    2    0    0 -0.78656939918E-02  0.20972272665E-01  0.58152156448E-02  0.23141350343E-01  0.00000000000E+00 0. -1.
     999901    1    3    3    0    0  0.38235032325E-01  0.39121588820E-01 -0.11660212464E+00  0.88937532678E+00  0.88000000000E+00 0.  1.
        -11    1    4    4    0    0 -0.17114494135E-01 -0.12785502893E-01  0.29396965755E-01  0.36343055875E-01  0.51100000000E-03 0. -1.
         11    1    4    4    0    0 -0.13254844198E-01 -0.47308358592E-01  0.81389943237E-01  0.95070267005E-01  0.51100000000E-03 0.  1.
</event>
<event>
 8    1  0.1054833E+005  0.1043930E+01  0.7957747E-01            NaN
         13   -1    0    0    0    0  0.00000000000E+00  0.00000000000E+00  0.74505805969E-08  0.10566000000E+00  0.10566000000E+00 0.  1.
     999900   -1    0    0    0    0 -0.00000000000E+00 -0.00000000000E+00 -0.74505805969E-08  0.93827000000E+00  0.93827000000E+00 0.  1.
     999902    2    1    2    0    0  0.41672022910E-02 -0.15474275597E-01  0.16814592279E-01  0.10207017996E+01  0.10204374623E+01 0.  0.
     999903    2    3    3    0    0  0.94875189623E-01 -0.22648219709E-01 -0.83906087595E-01  0.13029511735E+00  0.20550975855E-01 0.  0.
         14    1    1    2    0    0 -0.41672022910E-02  0.15474275597E-01 -0.16814592279E-01  0.23228200397E-01  0.00000000000E+00 0. -1.
     999901    1    3    3    0    0 -0.90707987332E-01  0.71739441118E-02  0.10072067987E+00  0.89040668225E+00  0.88000000000E+00 0. -1.
        -11    1    4    4    0    0  0.67224099746E-01 -0.24705152822E-01 -0.55619751399E-01  0.90682093212E-01  0.51100000000E-03 0. -1.
         11    1    4    4    0    0  0.27651089877E-01  0.20569331126E-02 -0.28286336197E-01  0.39613024141E-01  0.51100000000E-03 0.  1.
</event>
<event>
 8    1  0.1054833E+005  0.1043930E+01  0.7957747E-01            NaN
         13   -1    0    0    0    0  0.00000000000E+00  0.00000000000E+00  0.74505805969E-08  0.10566000000E+00  0.10566000000E+00 0. -1.
     999900   -1    0    0    0    0 -0.00000000000E+00 -0.00000000000E+00 -0.74505805969E-08  0.93827000000E+00  0.93827000000E+00 0.  1.
     999902    2    1    2    0    0 -0.73429945882E-02 -0.10762454107E-01  0.16381437964E-01  0.10229991257E+01  0.10227849773E+01 0.  0.
     999903    2    3    3    0    0  0.11406424913E+00 -0.10049349307E-01 -0.60986286549E-01  0.13130075064E+00  0.20221711626E-01 0.  0.
         14    1    1    2    0    0  0.73429945882E-02  0.10762454107E-01 -0.16381437964E-01  0.20930874270E-01  0.00000000000E+00 0.  1.
     999901    1    3    3    0    0 -0.12140724371E+00 -0.71310480040E-03  0.77367724514E-01  0.89169837509E+00  0.88000000000E+00 0.  1.
        -11    1    4    4    0    0  0.54005828730E-01 -0.55574852716E-02 -0.40312356764E-01  0.67622942913E-01  0.51100000000E-03 0.  1.
         11    1    4    4    0    0  0.60058420395E-01 -0.44918640351E-02 -0.20673929785E-01  0.63677807725E-01  0.51100000000E-03 0. -1.
</event>
<event>
 8    1  0.1054833E+005  0.1043930E+01  0.7957747E-01            NaN
         13   -1    0    0    0    0  0.00000000000E+00  0.00000000000E+00  0.74505805969E-08  0.10566000000E+00  0.10566000000E+00 0.  1.
     999900   -1    0    0    0    0 -0.00000000000E+00 -0.00000000000E+00 -0.74505805969E-08  0.93827000000E+00  0.93827000000E+00 0.  1.
     999902    2    1    2    0    0 -0.15439729073E-01 -0.18068928179E-01 -0.82336960626E-03  0.10201487188E+01  0.10198714915E+01 0.  0.
     999903    2    3    3    0    0 -0.10380069820E+00  0.33255547640E-01  0.70607249753E-01  0.13136066976E+00  0.19741465150E-01 0.  0.
         14    1    1    2    0    0  0.15439729073E-01  0.18068928179E-01  0.82336960626E-03  0.23781281229E-01  0.00000000000E+00 0.  1.
     999901    1    3    3    0    0  0.88360969128E-01 -0.51324475819E-01 -0.71430619359E-01  0.88878804901E+00  0.88000000000E+00 0.  1.
        -11    1    4    4    0    0 -0.48446671566E-01  0.25605270508E-01  0.37594362345E-01  0.66455301254E-01  0.51100000000E-03 0.  1.
         11    1    4    4    0    0 -0.55354026635E-01  0.76502771319E-02  0.33012887408E-01  0.64905368506E-01  0.51100000000E-03 0. -1.
</event>
<event>
 8    1  0.1283984E+005  0.1043930E+01  0.7957747E-01            NaN
         13   -1    0    0    0    0  0.00000000000E+00  0.00000000000E+00  0.74505805969E-08  0.10566000000E+00  0.10566000000E+00 0.  1.
     999900   -1    0    0    0    0 -0.00000000000E+00 -0.00000000000E+00 -0.74505805969E-08  0.93827000000E+00  0.93827000000E+00 0. -1.
     999902    2    1    2    0    0  0.14001411754E-01 -0.18727013206E-01  0.31030094190E-02  0.10203425198E+01  0.10200698449E+01 0.  0.
     999903    2    3    3    0    0  0.43741035848E-01  0.14288859194E-01 -0.12060838097E+00  0.13057906743E+00  0.19673880547E-01 0.  0.
         14    1    1    2    0    0 -0.14001411754E-01  0.18727013206E-01 -0.31030094190E-02  0.23587480199E-01  0.00000000000E+00 0. -1.
     999901    1    3    3    0    0 -0.29739624094E-01 -0.33015872399E-01  0.12371139039E+00  0.88976345238E+00  0.88000000000E+00 0.  1.
        -11    1    4    4    0    0  0.12961925278E-01 -0.84355972816E-03 -0.55336710284E-01  0.56843079843E-01  0.51100000000E-03 0.  1.
         11    1    4    4    0    0  0.30779110569E-01  0.15132418922E-01 -0.65271670684E-01  0.73735987582E-01  0.51100000000E-03 0. -1.
</event>
<event>
 8    1  0.1054833E+005  0.1043930E+01  0.7957747E-01            NaN
         13   -1    0    0    0    0  0.00000000000E+00  0.00000000000E+00  0.74505805969E-08  0.10566000000E+00  0.10566000000E+00 0. -1.
     999900   -1    0    0    0    0 -0.00000000000E+00 -0.00000000000E+00 -0.74505805969E-08  0.93827000000E+00  0.93827000000E+00 0. -1.
     999902    2    1    2    0    0 -0.16388261148E-01 -0.12785140225E-02  0.15889199445E-01  0.10210678837E+01  0.10208119057E+01 0.  0.
     999903    2    3    3    0    0  0.10524621888E-02  0.11665939157E+00 -0.54482217006E-01  0.13024485716E+00  0.19618601589E-01 0.  0.
         14    1    1    2    0    0  0.16388261148E-01  0.12785140225E-02 -0.15889199445E-01  0.22862116274E-01  0.00000000000E+00 0.  1.
     999901    1    3    3    0    0 -0.17440723337E-01 -0.11793790559E+00  0.70371416450E-01  0.89082302657E+00  0.88000000000E+00 0. -1.
        -11    1    4    4    0    0 -0.20008996296E-02  0.10011191052E+00 -0.39279810376E-01  0.10756190242E+00  0.51100000000E-03 0. -1.
         11    1    4    4    0    0  0.30533618183E-02  0.16547481048E-01 -0.15202406629E-01  0.22682954740E-01  0.51100000000E-03 0.  1.
</event>
<event>
 8    1  0.1054833E+005  0.1043930E+01  0.7957747E-01            NaN
         13   -1    0    0    0    0  0.00000000000E+00  0.00000000000E+00  0.74505805969E-08  0.10566000000E+00  0.10566000000E+00 0. -1.
     999900   -1    0    0    0    0 -0.00000000000E+00 -0.00000000000E+00 -0.74505805969E-08  0.93827000000E+00  0.93827000000E+00 0. -1.
     999902    2    1    2    0    0 -0.12168496069E-01  0.16334490234E-02  0.21783346981E-01  0.10189249074E+01  0.10186180404E+01 0.  0.
     999903    2    3    3    0    0 -0.48046437800E-01 -0.37515860325E-01  0.11565188006E+00  0.13234090309E+00  0.20563494554E-01 0.  0.
         14    1    1    2    0    0  0.12168496069E-01 -0.16334490234E-02 -0.21783346981E-01  0.25005092641E-01  0.00000000000E+00 0.  1.
     999901    1    3    3    0    0  0.35877941731E-01  0.39149309349E-01 -0.93868533076E-01  0.88658400427E+00  0.88000000000E+00 0. -1.
        -11    1    4    4    0    0 -0.44775432755E-01 -0.31419357904E-01  0.86267622746E-01  0.10214880951E+00  0.51100000000E-03 0. -1.
         11    1    4    4    0    0 -0.32710050446E-02 -0.60965024208E-02  0.29384257312E-01  0.30192093577E-01  0.51100000000E-03 0.  1.
</event>
<event>
 8    1  0.1054833E+005  0.1043930E+01  0.7957747E-01            NaN
         13   -1    0    0    0    0  0.00000000000E+00  0.00000000000E+00  0.74505805969E-08  0.10566000000E+00  0.10566000000E+00 0. -1.
     999900   -1    0    0    0    0 -0.00000000000E+00 -0.00000000000E+00 -0.74505805969E-08  0.93827000000E+00  0.93827000000E+00 0.  1.
     999902    2    1    2    0    0 -0.94955959241E-02 -0.62044358124E-02  0.21438153716E-01  0.10196760148E+01  0.10193875216E+01 0.  0.
     999903    2    3    3    0    0 -0.10980534753E-01  0.33440460066E-01 -0.12058211698E+00  0.12740717628E+00  0.21300354931E-01 0.  0.
         14    1    1    2    0    0  0.94955959241E-02  0.62044358124E-02 -0.21438153716E-01  0.24253985249E-01  0.00000000000E+00 0.  1.
     999901    1    3    3    0    0  0.14849388292E-02 -0.39644895878E-01  0.14202027070E+00  0.89226883847E+00  0.88000000000E+00 0. -1.
        -11    1    4    4    0    0  0.80398727929E-04  0.29242646507E-01 -0.82878267901E-01  0.87887469243E-01  0.51100000000E-03 0.  1.
         11    1    4    4    0    0 -0.11060933481E-01  0.41978135583E-02 -0.37703849078E-01  0.39519707039E-01  0.51100000000E-03 0. -1.
</event>
<event>
 8    1  0.1054833E+005  0.1043930E+01  0.7957747E-01            NaN
         13   -1    0    0    0    0  0.00000000000E+00  0.00000000000E+00  0.74505805969E-08  0.10566000000E+00  0.10566000000E+00 0. -1.
     999900   -1    0    0    0    0 -0.00000000000E+00 -0.00000000000E+00 -0.74505805969E-08  0.93827000000E+00  0.93827000000E+00 0. -1.
     999902    2    1    2    0    0  0.11674114598E-01 -0.11223984613E-01  0.17323920323E-01  0.10202154265E+01  0.10199397705E+01 0.  0.
     999903    2    3    3    0    0  0.12876402025E+00 -0.21280027273E-01  0.89748682866E-02  0.13236359386E+00  0.20163339203E-01 0.  0.
         14    1    1    2    0    0 -0.11674114598E-01  0.11223984613E-01 -0.17323920323E-01  0.23714573527E-01  0.00000000000E+00 0.  1.
     999901    1    3    3    0    0 -0.11708990565E+00  0.10056042660E-01  0.83490520361E-02  0.88785183261E+00  0.88000000000E+00 0.  1.
        -11    1    4    4    0    0  0.45572277642E-01 -0.19002798001E-02 -0.46959756248E-02  0.45855826902E-01  0.51100000000E-03 0.  1.
         11    1    4    4    0    0  0.83191742608E-01 -0.19379747473E-01  0.13670843911E-01  0.86507766961E-01  0.51100000000E-03 0. -1.
</event>
<event>
 8    1  0.1054833E+005  0.1043930E+01  0.7957747E-01            NaN
         13   -1    0    0    0    0  0.00000000000E+00  0.00000000000E+00  0.74505805969E-08  0.10566000000E+00  0.10566000000E+00 0. -1.
     999900   -1    0    0    0    0 -0.00000000000E+00 -0.00000000000E+00 -0.74505805969E-08  0.93827000000E+00  0.93827000000E+00 0.  1.
     999902    2    1    2    0    0 -0.12962879451E-02 -0.24273787539E-01 -0.45725018691E-02  0.10191953098E+01  0.10188951245E+01 0.  0.
     999903    2    3    3    0    0 -0.91984301276E-01  0.82142909527E-01  0.26420015030E-01  0.12761841171E+00  0.19490319302E-01 0.  0.
         14    1    1    2    0    0  0.12962879451E-02  0.24273787539E-01  0.45725018691E-02  0.24734690159E-01  0.00000000000E+00 0.  1.
     999901    1    3    3    0    0  0.90688013331E-01 -0.10641669707E+00 -0.30992516899E-01  0.89157689813E+00  0.88000000000E+00 0. -1.
        -11    1    4    4    0    0 -0.12012925998E-01  0.18269935017E-01  0.96429312734E-02  0.23902890224E-01  0.51100000000E-03 0.  1.
         11    1    4    4    0    0 -0.79971375278E-01  0.63872974510E-01  0.16777083757E-01  0.10371552149E+00  0.51100000000E-03 0. -1.
</event>
<event>
 8    1  0.1054833E+005  0.1043930E+01  0.7957747E-01            NaN
         13   -1    0    0    0    0  0.00000000000E+00  0.00000000000E+00  0.74505805969E-08  0.10566000000E+00  0.10566000000E+00 0. -1.
     999900   -1    0    0    0    0 -0.00000000000E+00 -0.00000000000E+00 -0.74505805969E-08  0.93827000000E+00  0.93827000000E+00 0. -1.
     999902    2    1    2    0    0  0.16981776699E-01 -0.13566785546E-01  0.10338472844E-01  0.10198608822E+01  0.10195768223E+01 0.  0.
     999903    2    3    3    0    0  0.17581354130E-01 -0.70482340273E-01  0.10944972958E+00  0.13246988549E+00  0.17092774931E-01 0.  0.
         14    1    1    2    0    0 -0.16981776699E-01  0.13566785546E-01 -0.10338472844E-01  0.24069117779E-01  0.00000000000E+00 0.  1.
     999901    1    3    3    0    0 -0.59957743123E-03  0.56915554727E-01 -0.99111256732E-01  0.88739099673E+00  0.88000000000E+00 0. -1.
        -11    1    4    4    0    0  0.16686726424E-01 -0.62763504691E-01  0.86047492230E-01  0.10780601282E+00  0.51100000000E-03 0.  1.
         11    1    4    4    0    0  0.89462770620E-03 -0.77188355815E-02  0.23402237346E-01  0.24663872674E-01  0.51100000000E-03 0. -1.
</event>
<event>
 8    1  0.1054833E+005  0.1043930E+01  0.7957747E-01            NaN
         13   -1    0    0    0    0  0.00000000000E+00  0.00000000000E+00  0.74505805969E-08  0.10566000000E+00  0.10566000000E+00 0.  1.
     999900   -1    0    0    0    0 -0.00000000000E+00 -0.00000000000E+00 -0.74505805969E-08  0.93827000000E+00  0.93827000000E+00 0.  1.
     999902    2    1    2    0    0  0.10073446423E-01 -0.97914515197E-02 -0.18383987669E-01  0.10207930631E+01  0.10205308226E+01 0.  0.
     999903    2    3    3    0    0  0.69749431596E-01 -0.23192523036E-01  0.10537052513E+00  0.13003159597E+00  0.20059712132E-01 0.  0.
         14    1    1    2    0    0 -0.10073446423E-01  0.97914515197E-02  0.18383987669E-01  0.23136936883E-01  0.00000000000E+00 0.  1.
     999901    1    3    3    0    0 -0.59675985173E-01  0.13401071517E-01 -0.12375451280E+00  0.89076146715E+00  0.88000000000E+00 0.  1.
        -11    1    4    4    0    0  0.47799315595E-01 -0.18917241847E-01  0.57117083973E-01  0.76845683112E-01  0.51100000000E-03 0. -1.
         11    1    4    4    0    0  0.21950116001E-01 -0.42752811898E-02  0.48253441155E-01  0.53185912853E-01  0.51100000000E-03 0.  1.
</event>
<event>
 8    1  0.1054833E+005  0.1043930E+01  0.7957747E-01            NaN
         13   -1    0    0    0    0  0.00000000000E+00  0.00000000000E+00  0.74505805969E-08  0.10566000000E+00  0.10566000000E+00 0.  1.
     999900   -1    0    0    0    0 -0.00000000000E+00 -0.00000000000E+00 -0.74505805969E-08  0.93827000000E+00  0.93827000000E+00 0. -1.
     999902    2    1    2    0    0  0.19588202121E-01 -0.14757907141E-01  0.27076291241E-02  0.10192556258E+01  0.10189569206E+01 0.  0.
     999903    2    3    3    0    0 -0.33073373925E-01 -0.85028622250E-01  0.91271911867E-01  0.13046158491E+00  0.19129782429E-01 0.  0.
         14    1    1    2    0    0 -0.19588202121E-01  0.14757907141E-01 -0.27076291241E-02  0.24674374177E-01  0.00000000000E+00 0. -1.
     999901    1    3    3    0    0  0.52661576047E-01  0.70270715108E-01 -0.88564282742E-01  0.88879404092E+00  0.88000000000E+00 0. -1.
        -11    1    4    4    0    0 -0.24013140329E-01 -0.37079741465E-01  0.48043347481E-01  0.65268388166E-01  0.51100000000E-03 0. -1.
         11    1    4    4    0    0 -0.90602335968E-02 -0.47948880785E-01  0.43228564385E-01  0.65193196740E-01  0.51100000000E-03 0.  1.
</event>
<event>
 7    1  0.1054833E+005  0.1043930E+01  0.7957747E-01            NaN
         13   -1    0    0    0    0  0.00000000000E+00  0.00000000000E+00  0.74505805969E-08  0.10566000000E+00  0.10566000000E+00 0. -1.
     999900   -1    0    0    0    0 -0.00000000000E+00 -0.00000000000E+00 -0.74505805969E-08  0.93827000000E+00  0.93827000000E+00 0. -1.
     999902    2    1    2    0    0 -0.33774785516E-03 -0.67350786788E-04  0.23491531972E-01  0.10204359436E+01  0.10201654495E+01 0.  0.
         14    1    1    2    0    0  0.33774785516E-03  0.67350786788E-04 -0.23491531972E-01  0.23494056358E-01  0.00000000000E+00 0.  1.
     999901    1    3    3    0    0  0.17340181253E-01 -0.37057429790E-01  0.13733948804E+00  0.89159187410E+00  0.88000000000E+00 0.  1.
        -11    1    3    3    0    0  0.41614900061E-02 -0.27069992955E-02 -0.51656202992E-01  0.51896726995E-01  0.51100000000E-03 0.  1.
         11    1    3    3    0    0 -0.21839419114E-01  0.39697078299E-01 -0.62191753079E-01  0.76947342545E-01  0.51100000000E-03 0. -1.
</event>
<event>
 8    1  0.1054833E+005  0.1043930E+01  0.7957747E-01            NaN
         13   -1    0    0    0    0  0.00000000000E+00  0.00000000000E+00  0.74505805969E-08  0.10566000000E+00  0.10566000000E+00 0.  1.
     999900   -1    0    0    0    0 -0.00000000000E+00 -0.00000000000E+00 -0.74505805969E-08  0.93827000000E+00  0.93827000000E+00 0. -1.
     999902    2    1    2    0    0  0.14998834539E-01 -0.15639426131E-01 -0.10444413247E-01  0.10198750118E+01  0.10195912894E+01 0.  0.
     999903    2    3    3    0    0 -0.47457475284E-01 -0.11904468392E+00 -0.22210941006E-01  0.13154405485E+00  0.19663767105E-01 0.  0.
         14    1    1    2    0    0 -0.14998834539E-01  0.15639426131E-01  0.10444413247E-01  0.24054988158E-01  0.00000000000E+00 0.  1.
     999901    1    3    3    0    0  0.62456309822E-01  0.10340525779E+00  0.11766527758E-01  0.88833095699E+00  0.88000000000E+00 0. -1.
        -11    1    4    4    0    0 -0.12538957562E-01 -0.46864452391E-01 -0.68486877120E-03  0.48520434055E-01  0.51100000000E-03 0. -1.
         11    1    4    4    0    0 -0.34918517722E-01 -0.72180231526E-01 -0.21526072235E-01  0.83023620795E-01  0.51100000000E-03 0.  1.
</event>
<event>
 8    1  0.1054833E+005  0.1043930E+01  0.7957747E-01            NaN
         13   -1    0    0    0    0  0.00000000000E+00  0.00000000000E+00  0.74505805969E-08  0.10566000000E+00  0.10566000000E+00 0. -1.
     999900   -1    0    0    0    0 -0.00000000000E+00 -0.00000000000E+00 -0.74505805969E-08  0.93827000000E+00  0.93827000000E+00 0. -1.
     999902    2    1    2    0    0 -0.11464903734E-01 -0.11460193833E-01  0.16261234764E-01  0.10209689936E+01  0.10207107710E+01 0.  0.
     999903    2    3    3    0    0  0.48642884504E-02  0.12735436356E+00  0.14084717577E-01  0.12993540212E+00  0.21024610202E-01 0.  0.
         14    1    1    2    0    0  0.11464903734E-01  0.11460193833E-01 -0.16261234764E-01  0.22961006432E-01  0.00000000000E+00 0.  1.
     999901    1    3    3    0    0 -0.16329192184E-01 -0.13881455740E+00  0.21765171868E-02  0.89103359145E+00  0.88000000000E+00 0. -1.
        -11    1    4    4    0    0 -0.60769237291E-02  0.57999351021E-01 -0.15233010797E-04  0.58319079845E-01  0.51100000000E-03 0.  1.
         11    1    4    4    0    0  0.10941212180E-01  0.69355012542E-01  0.14099950588E-01  0.71616322275E-01  0.51100000000E-03 0. -1.
</event>
<event>
 8    1  0.1054833E+005  0.1043930E+01  0.7957747E-01            NaN
         13   -1    0    0    0    0  0.00000000000E+00  0.00000000000E+00  0.74505805969E-08  0.10566000000E+00  0.10566000000E+00 0.  1.
     999900   -1    0    0    0    0 -0.00000000000E+00 -0.00000000000E+00 -0.74505805969E-08  0.93827000000E+00  0.93827000000E+00 0. -1.
     999902    2    1    2    0    0 -0.43118998425E-02 -0.18881818270E-01  0.13402604100E-01  0.10203769675E+01  0.10201050978E+01 0.  0.
     999903    2    3    3    0    0  0.26140949838E-01  0.80601280738E-01 -0.93598448347E-01  0.12781129025E+00  0.19878145499E-01 0.  0.
         14    1    1    2    0    0  0.43118998425E-02  0.18881818270E-01 -0.13402604100E-01  0.23553032460E-01  0.00000000000E+00 0. -1.
     999901    1    3    3    0    0 -0.30452849681E-01 -0.99483099008E-01  0.10700105245E+00  0.89256567728E+00  0.88000000000E+00 0.  1.
        -11    1    4    4    0    0  0.88852982890E-02  0.52122585196E-01 -0.48512664294E-01  0.71759683187E-01  0.51100000000E-03 0. -1.
         11    1    4    4    0    0  0.17255651549E-01  0.28478695542E-01 -0.45085784053E-01  0.56051607067E-01  0.51100000000E-03 0.  1.
</event>
<event>
 8    1  0.1054833E+005  0.1043930E+01  0.7957747E-01            NaN
         13   -1    0    0    0    0  0.00000000000E+00  0.00000000000E+00  0.74505805969E-08  0.10566000000E+00  0.10566000000E+00 0. -1.
     999900   -1    0    0    0    0 -0.00000000000E+00 -0.00000000000E+00 -0.74505805969E-08  0.93827000000E+00  0.93827000000E+00 0.  1.
     999902    2    1    2    0    0 -0.18158061665E-01  0.14484669923E-01 -0.34211811905E-02  0.10204518113E+01  0.10201816866E+01 0.  0.
     999903    2    3    3    0    0 -0.61289573605E-01  0.92557470532E-01  0.70322896588E-01  0.13287427744E+00  0.19671467586E-01 0.  0.
         14    1    1    2    0    0  0.18158061665E-01 -0.14484669923E-01  0.34211811905E-02  0.23478188749E-01  0.00000000000E+00 0.  1.
     999901    1    3    3    0    0  0.43131511940E-01 -0.78072800609E-01 -0.73744077778E-01  0.88757753381E+00  0.88000000000E+00 0. -1.
        -11    1    4    4    0    0 -0.20934949135E-01  0.48307888310E-01  0.28975284427E-01  0.60097856841E-01  0.51100000000E-03 0.  1.
         11    1    4    4    0    0 -0.40354624470E-01  0.44249582221E-01  0.41347612161E-01  0.72776420600E-01  0.51100000000E-03 0. -1.
</event>
<event>
 8    1  0.1054833E+005  0.1043930E+01  0.7957747E-01            NaN
         13   -1    0    0    0    0  0.00000000000E+00  0.00000000000E+00  0.74505805969E-08  0.10566000000E+00  0.10566000000E+00 0.  1.
     999900   -1    0    0    0    0 -0.00000000000E+00 -0.00000000000E+00 -0.74505805969E-08  0.93827000000E+00  0.93827000000E+00 0.  1.
     999902    2    1    2    0    0 -0.22627478821E-01 -0.47551339014E-02  0.17796303983E-02  0.10207398905E+01  0.10204764293E+01 0.  0.
     999903    2    3    3    0    0  0.65554778836E-01 -0.35485476266E-01  0.10464437815E+00  0.12984055785E+00  0.18747707369E-01 0.  0.
         14    1    1    2    0    0  0.22627478821E-01  0.47551339014E-02 -0.17796303983E-02  0.23190109542E-01  0.00000000000E+00 0.  1.
     999901    1    3    3    0    0 -0.88182257656E-01  0.30730342365E-01 -0.10286474775E+00  0.89089933261E+00  0.88000000000E+00 0.  1.
        -11    1    4    4    0    0  0.37904930609E-01 -0.11347672496E-01  0.62257984881E-01  0.73769039833E-01  0.51100000000E-03 0. -1.
         11    1    4    4    0    0  0.27649848227E-01 -0.24137803771E-01  0.42386393267E-01  0.56071518020E-01  0.51100000000E-03 0.  1.
</event>
<event>
 7    1  0.1054833E+005  0.1043930E+01  0.7957747E-01            NaN
         13   -1    0    0    0    0  0.00000000000E+00  0.00000000000E+00  0.74505805969E-08  0.10566000000E+00  0.10566000000E+00 0. -1.
     999900   -1    0    0    0    0 -0.00000000000E+00 -0.00000000000E+00 -0.74505805969E-08  0.93827000000E+00  0.93827000000E+00 0.  1.
     999902    2    1    2    0    0  0.19380111999E-01  0.14740013857E-02 -0.12923766441E-01  0.10205893668E+01  0.10203224345E+01 0.  0.
         14    1    1    2    0    0 -0.19380111999E-01 -0.14740013857E-02  0.12923766441E-01  0.23340633243E-01  0.00000000000E+00 0. -1.
     999901    1    3    3    0    0 -0.40859974878E-01  0.11320395787E+00 -0.56989284678E-02  0.88821008293E+00  0.88000000000E+00 0. -1.
        -11    1    3    3    0    0  0.31440975948E-01 -0.70088025750E-01  0.12898168420E-01  0.77894096000E-01  0.51100000000E-03 0.  1.
         11    1    3    3    0    0  0.28799110929E-01 -0.41641930736E-01 -0.20123006393E-01  0.54485187832E-01  0.51100000000E-03 0. -1.
</event>
<event>
 8    1  0.1054833E+005  0.1043930E+01  0.7957747E-01            NaN
         13   -1    0    0    0    0  0.00000000000E+00  0.00000000000E+00  0.74505805969E-08  0.10566000000E+00  0.10566000000E+00 0.  1.
     999900   -1    0    0    0    0 -0.00000000000E+00 -0.00000000000E+00 -0.74505805969E-08  0.93827000000E+00  0.93827000000E+00 0. -1.
     999902    2    1    2    0    0  0.14572619775E-02  0.22281225726E-01 -0.61260535899E-03  0.10215927684E+01  0.10213485362E+01 0.  0.
     999903    2    3    3    0    0 -0.10701365677E+00 -0.40555341768E-01 -0.59891704503E-01  0.13073453832E+00  0.20195166731E-01 0.  0.
         14    1    1    2    0    0 -0.14572619775E-02 -0.22281225726E-01  0.61260535899E-03  0.22337231647E-01  0.00000000000E+00 0.  1.
     999901    1    3    3    0    0  0.10847091875E+00  0.62836567494E-01  0.59279099144E-01  0.89085823004E+00  0.88000000000E+00 0. -1.
        -11    1    4    4    0    0 -0.51353237883E-01 -0.23833366476E-01 -0.19193158687E-01  0.59781459166E-01  0.51100000000E-03 0. -1.
         11    1    4    4    0    0 -0.55660418887E-01 -0.16721975292E-01 -0.40698545816E-01  0.70953079150E-01  0.51100000000E-03 0.  1.
</event>
<event>
 8    1  0.1054833E+005  0.1043930E+01  0.7957747E-01            NaN
         13   -1    0    0    0    0  0.00000000000E+00  0.00000000000E+00  0.74505805969E-08  0.10566000000E+00  0.10566000000E+00 0.  1.
     999900   -1    0    0    0    0 -0.00000000000E+00 -0.00000000000E+00 -0.74505805969E-08  0.93827000000E+00  0.93827000000E+00 0. -1.
     999902    2    1    2    0    0  0.19464259723E-02  0.12751390912E-01 -0.19026710690E-01  0.10209429979E+01  0.10206841837E+01 0.  0.
     999903    2    3    3    0    0 -0.21401764761E-01  0.51823781382E-01  0.11525720895E+00  0.12959348131E+00  0.19144355127E-01 0.  0.
         14    1    1    2    0    0 -0.19464259723E-02 -0.12751390912E-01  0.19026710690E-01  0.22987002065E-01  0.00000000000E+00 0.  1.
     999901    1    3    3    0    0  0.23348190734E-01 -0.39072390470E-01 -0.13428391964E+00  0.89134951662E+00  0.88000000000E+00 0. -1.
        -11    1    4    4    0    0 -0.19745250044E-01  0.24876721044E-01  0.54017956512E-01  0.62665196847E-01  0.51100000000E-03 0. -1.
         11    1    4    4    0    0 -0.16565147176E-02  0.26947060337E-01  0.61239252435E-01  0.66928284466E-01  0.51100000000E-03 0.  1.
</event>
<event>
 8    1  0.1054833E+005  0.1043930E+01  0.7957747E-01            NaN
         13   -1    0    0    0    0  0.00000000000E+00  0.00000000000E+00  0.74505805969E-08  0.10566000000E+00  0.10566000000E+00 0. -1.
     999900   -1    0    0    0    0 -0.00000000000E+00 -0.00000000000E+00 -0.74505805969E-08  0.93827000000E+00  0.93827000000E+00 0. -1.
     999902    2    1    2    0    0  0.18796856232E-01  0.25830213842E-02  0.13489970367E-01  0.10206496842E+01  0.10203841457E+01 0.  0.
     999903    2    3    3    0    0  0.79389206917E-01 -0.99144688089E-01  0.31673142393E-01  0.13253336997E+00  0.20726573666E-01 0.  0.
         14    1    1    2    0    0 -0.18796856232E-01 -0.25830213842E-02 -0.13489970367E-01  0.23280315809E-01  0.00000000000E+00 0.  1.
     999901    1    3    3    0    0 -0.60592350685E-01  0.10172770947E+00 -0.18183172026E-01  0.88811631422E+00  0.88000000000E+00 0.  1.
        -11    1    4    4    0    0  0.35613486684E-01 -0.44923757270E-01  0.24941803367E-01  0.62520549240E-01  0.51100000000E-03 0.  1.
         11    1    4    4    0    0  0.43775720233E-01 -0.54220930819E-01  0.67313390259E-02  0.70012820732E-01  0.51100000000E-03 0. -1.
</event>
<event>
 8    1  0.1054833E+005  0.1043930E+01  0.7957747E-01            NaN
         13   -1    0    0    0    0  0.00000000000E+00  0.00000000000E+00  0.74505805969E-08  0.10566000000E+00  0.10566000000E+00 0.  1.
     999900   -1    0    0    0    0 -0.00000000000E+00 -0.00000000000E+00 -0.74505805969E-08  0.93827000000E+00  0.93827000000E+00 0. -1.
     999902    2    1    2    0    0 -0.15614421788E-01 -0.17234281340E-01  0.49375845770E-02  0.10201558468E+01  0.10198787876E+01 0.  0.
     999903    2    3    3    0    0 -0.21247093602E-01  0.88622631148E-01  0.90142273676E-01  0.12970806504E+00  0.19827831329E-01 0.  0.
         14    1    1    2    0    0  0.15614421788E-01  0.17234281340E-01 -0.49375845770E-02  0.23774153245E-01  0.00000000000E+00 0. -1.
     999901    1    3    3    0    0  0.56326718133E-02 -0.10585691249E+00 -0.85204689100E-01  0.89044778171E+00  0.88000000000E+00 0. -1.
        -11    1    4    4    0    0 -0.23194641047E-01  0.83669078258E-01  0.88801713610E-01  0.12419545680E+00  0.51100000000E-03 0. -1.
         11    1    4    4    0    0  0.19475474451E-02  0.49535528899E-02  0.13405600664E-02  0.55126082371E-02  0.51100000000E-03 0.  1.
</event>
<event>
 8    1  0.1054833E+005  0.1043930E+01  0.7957747E-01            NaN
         13   -1    0    0    0    0  0.00000000000E+00  0.00000000000E+00  0.74505805969E-08  0.10566000000E+00  0.10566000000E+00 0. -1.
     999900   -1    0    0    0    0 -0.00000000000E+00 -0.00000000000E+00 -0.74505805969E-08  0.93827000000E+00  0.93827000000E+00 0.  1.
     999902    2    1    2    0    0  0.13268223546E-01 -0.18400309634E-01  0.32848765959E-02  0.10210082295E+01  0.10207508986E+01 0.  0.
     999903    2    3    3    0    0  0.10131924097E+00 -0.18274616053E-01  0.82136688959E-01  0.13310586670E+00  0.19266185296E-01 0.  0.
         14    1    1    2    0    0 -0.13268223546E-01  0.18400309634E-01 -0.32848765959E-02  0.22921770546E-01  0.00000000000E+00 0. -1.
     999901    1    3    3    0    0 -0.88051017419E-01 -0.12569358089E-03 -0.78851812363E-01  0.88790236275E+00  0.88000000000E+00 0.  1.
        -11    1    4    4    0    0  0.77315156486E-01 -0.22132553309E-01  0.62766374776E-01  0.10201648034E+00  0.51100000000E-03 0.  1.
         11    1    4    4    0    0  0.24004084480E-01  0.38579372559E-02  0.19370314183E-01  0.31089386358E-01  0.51100000000E-03 0. -1.
</event>
<event>
 8    1  0.1054833E+005  0.1043930E+01  0.7957747E-01            NaN
         13   -1    0    0    0    0  0.00000000000E+00  0.00000000000E+00  0.74505805969E-08  0.10566000000E+00  0.10566000000E+00 0.  1.
     999900   -1    0    0    0    0 -0.00000000000E+00 -0.00000000000E+00 -0.74505805969E-08  0.93827000000E+00  0.93827000000E+00 0.  1.
     999902    2    1    2    0    0 -0.91253103904E-02  0.62479459869E-02 -0.12787430745E-01  0.10270235958E+01  0.10268844335E+01 0.  0.
     999903    2    3    3    0    0  0.94284184680E-01 -0.68837597756E-01  0.63760767757E-01  0.13450413423E+00  0.19945031296E-01 0.  0.
         14    1    1    2    0    0  0.91253103904E-02 -0.62479459869E-02  0.12787430745E-01  0.16906404225E-01  0.00000000000E+00 0. -1.
     999901    1    3    3    0    0 -0.10340949507E+00  0.75085543742E-01 -0.76548198502E-01  0.89251946155E+00  0.88000000000E+00 0. -1.
        -11    1    4    4    0    0  0.30447781900E-01 -0.29782254496E-01  0.31660620046E-01  0.53072649154E-01  0.51100000000E-03 0. -1.
         11    1    4    4    0    0  0.63836402780E-01 -0.39055343259E-01  0.32100147711E-01  0.81431485072E-01  0.51100000000E-03 0.  1.
</event>
<event>
 8    1  0.1085395E+005  0.1043930E+01  0.7957747E-01            NaN
         13   -1    0    0    0    0  0.00000000000E+00  0.00000000000E+00  0.74505805969E-08  0.10566000000E+00  0.10566000000E+00 0. -1.
     999900   -1    0    0    0    0 -0.00000000000E+00 -0.00000000000E+00 -0.74505805969E-08  0.93827000000E+00  0.93827000000E+00 0.  1.
     999902    2    1    2    0    0  0.16513606338E-02 -0.46093951820E-02  0.22643064243E-01  0.10207636046E+01  0.10205006882E+01 0.  0.
     999903    2    3    3    0    0  0.83497927150E-02  0.85666287090E-01 -0.93348712241E-01  0.12854801409E+00  0.20054377753E-01 0.  0.
         14    1    1    2    0    0 -0.16513606338E-02  0.46093951820E-02 -0.22643064243E-01  0.23166395364E-01  0.00000000000E+00 0.  1.
     999901    1    3    3    0    0 -0.66984320813E-02 -0.90275682272E-01  0.11599177648E+00  0.89221559055E+00  0.88000000000E+00 0.  1.
        -11    1    4    4    0    0 -0.58746664158E-02  0.24360080597E-01 -0.32117363410E-01  0.40739555540E-01  0.51100000000E-03 0.  1.
         11    1    4    4    0    0  0.14224459131E-01  0.61306206494E-01 -0.61231348831E-01  0.87808458550E-01  0.51100000000E-03 0. -1.
</event>
<event>
 8    1  0.1054833E+005  0.1043930E+01  0.7957747E-01            NaN
         13   -1    0    0    0    0  0.00000000000E+00  0.00000000000E+00  0.74505805969E-08  0.10566000000E+00  0.10566000000E+00 0.  1.
     999900   -1    0    0    0    0 -0.00000000000E+00 -0.00000000000E+00 -0.74505805969E-08  0.93827000000E+00  0.93827000000E+00 0.  1.
     999902    2    1    2    0    0 -0.20886742544E-01 -0.31450460895E-02 -0.98137792886E-02  0.10206392810E+01  0.10203735023E+01 0.  0.
     999903    2    3    3    0    0 -0.24165293440E-01 -0.12343212194E+00  0.32719131434E-01  0.13143245576E+00  0.19608639163E-01 0.  0.
         14    1    1    2    0    0  0.20886742544E-01  0.31450460895E-02  0.98137792886E-02  0.23290719030E-01  0.00000000000E+00 0.  1.
     999901    1    3    3    0    0  0.32785508962E-02  0.12028707585E+00 -0.42532910722E-01  0.88920682521E+00  0.88000000000E+00 0. -1.
        -11    1    4    4    0    0 -0.34375264098E-02 -0.45783639385E-01  0.40120856349E-02  0.46090304570E-01  0.51100000000E-03 0. -1.
         11    1    4    4    0    0 -0.20727767031E-01 -0.77648482558E-01  0.28707045799E-01  0.85342151186E-01  0.51100000000E-03 0.  1.
</event>
<event>
 8    1  0.1054833E+005  0.1043930E+01  0.7957747E-01            NaN
         13   -1    0    0    0    0  0.00000000000E+00  0.00000000000E+00  0.74505805969E-08  0.10566000000E+00  0.10566000000E+00 0. -1.
     999900   -1    0    0    0    0 -0.00000000000E+00 -0.00000000000E+00 -0.74505805969E-08  0.93827000000E+00  0.93827000000E+00 0.  1.
     999902    2    1    2    0    0 -0.35315581415E-02 -0.72530092911E-02  0.22188462050E-01  0.10203205550E+01  0.10200473661E+01 0.  0.
     999903    2    3    3    0    0  0.63929055466E-01  0.79860709270E-01 -0.74903994399E-01  0.12815090773E+00  0.18638394698E-01 0.  0.
         14    1    1    2    0    0  0.35315581415E-02  0.72530092911E-02 -0.22188462050E-01  0.23609445034E-01  0.00000000000E+00 0.  1.
     999901    1    3    3    0    0 -0.67460613608E-01 -0.87113718562E-01  0.97092456450E-01  0.89216964724E+00  0.88000000000E+00 0. -1.
        -11    1    4    4    0    0  0.10829399409E-01  0.20687627021E-01 -0.25333030342E-01  0.34456891192E-01  0.51100000000E-03 0. -1.
         11    1    4    4    0    0  0.53099656058E-01  0.59173082249E-01 -0.49570964057E-01  0.93694016537E-01  0.51100000000E-03 0.  1.
</event>
<event>
 8    1  0.1054833E+005  0.1043930E+01  0.7957747E-01            NaN
         13   -1    0    0    0    0  0.00000000000E+00  0.00000000000E+00  0.74505805969E-08  0.10566000000E+00  0.10566000000E+00 0.  1.
     999900   -1    0    0    0    0 -0.00000000000E+00 -0.00000000000E+00 -0.74505805969E-08  0.93827000000E+00  0.93827000000E+00 0.  1.
     999902    2    1    2    0    0  0.69479581556E-02 -0.19338053365E-01 -0.13334247529E-01  0.10194343557E+01  0.10191400145E+01 0.  0.
     999903    2    3    3    0    0 -0.67402402072E-01  0.63420128182E-01 -0.87977524177E-01  0.12929475353E+00  0.20295124196E-01 0.  0.
         14    1    1    2    0    0 -0.69479581556E-02  0.19338053365E-01  0.13334247529E-01  0.24495644259E-01  0.00000000000E+00 0. -1.
     999901    1    3    3    0    0  0.74350360227E-01 -0.82758181547E-01  0.74643276648E-01  0.89013960221E+00  0.88000000000E+00 0. -1.
        -11    1    4    4    0    0 -0.45884725941E-01  0.33644653007E-01 -0.43611411604E-01  0.71690913606E-01  0.51100000000E-03 0. -1.
         11    1    4    4    0    0 -0.21517676131E-01  0.29775475175E-01 -0.44366112573E-01  0.57603839922E-01  0.51100000000E-03 0.  1.
</event>
<event>
 8    1  0.1054833E+005  0.1043930E+01  0.7957747E-01            NaN
         13   -1    0    0    0    0  0.00000000000E+00  0.00000000000E+00  0.74505805969E-08  0.10566000000E+00  0.10566000000E+00 0. -1.
     999900   -1    0    0    0    0 -0.00000000000E+00 -0.00000000000E+00 -0.74505805969E-08  0.93827000000E+00  0.93827000000E+00 0. -1.
     999902    2    1    2    0    0  0.71276982620E-04  0.72679128986E-02 -0.22481132341E-01  0.10203031308E+01  0.10200295337E+01 0.  0.
     999903    2    3    3    0    0  0.86376281551E-01  0.65512656851E-01 -0.74004235029E-01  0.13266827672E+00  0.19273676960E-01 0.  0.
         14    1    1    2    0    0 -0.71276982620E-04 -0.72679128986E-02  0.22481132341E-01  0.23626869230E-01  0.00000000000E+00 0. -1.
     999901    1    3    3    0    0 -0.86305004569E-01 -0.58244743952E-01  0.51523102688E-01  0.88763485405E+00  0.88000000000E+00 0.  1.
        -11    1    4    4    0    0  0.54385761253E-01  0.51499744768E-01 -0.54802086375E-01  0.92809291186E-01  0.51100000000E-03 0.  1.
         11    1    4    4    0    0  0.31990520298E-01  0.14012912083E-01 -0.19202148654E-01  0.39858985535E-01  0.51100000000E-03 0. -1.
</event>
<event>
 8    1  0.1054833E+005  0.1043930E+01  0.7957747E-01            NaN
         13   -1    0    0    0    0  0.00000000000E+00  0.00000000000E+00  0.74505805969E-08  0.10566000000E+00  0.10566000000E+00 0.  1.
     999900   -1    0    0    0    0 -0.00000000000E+00 -0.00000000000E+00 -0.74505805969E-08  0.93827000000E+00  0.93827000000E+00 0. -1.
     999902    2    1    2    0    0  0.42301322474E-03 -0.10807058789E-01  0.20901379043E-01  0.10203962135E+01  0.10201247931E+01 0.  0.
     999903    2    3    3    0    0 -0.73878914181E-01 -0.79146640610E-01 -0.69201031690E-01  0.13005385281E+00  0.20073294814E-01 0.  0.
         14    1    1    2    0    0 -0.42301322474E-03  0.10807058789E-01 -0.20901379043E-01  0.23533786473E-01  0.00000000000E+00 0. -1.
     999901    1    3    3    0    0  0.74301927406E-01  0.68339581821E-01  0.90102410732E-01  0.89034236071E+00  0.88000000000E+00 0.  1.
        -11    1    4    4    0    0 -0.56824269063E-01 -0.48244005802E-01 -0.51160981923E-01  0.90411220779E-01  0.51100000000E-03 0. -1.
         11    1    4    4    0    0 -0.17054645118E-01 -0.30902634808E-01 -0.18040049766E-01  0.39642632036E-01  0.51100000000E-03 0.  1.
</event>
<event>
 8    1  0.1054833E+005  0.1043930E+01  0.7957747E-01            NaN
         13   -1    0    0    0    0  0.00000000000E+00  0.00000000000E+00  0.74505805969E-08  0.10566000000E+00  0.10566000000E+00 0. -1.
     999900   -1    0    0    0    0 -0.00000000000E+00 -0.00000000000E+00 -0.74505805969E-08  0.93827000000E+00  0.93827000000E+00 0.  1.
     999902    2    1    2    0    0 -0.17762657938E-01  0.10209068686E-01 -0.14563971423E-01  0.10187934457E+01  0.10184833030E+01 0.  0.
     999903    2    3    3    0    0  0.20966707775E-01 -0.12275366171E+00  0.18119116301E-01  0.12736356302E+00  0.19624232767E-01 0.  0.
         14    1    1    2    0    0  0.17762657938E-01 -0.10209068686E-01  0.14563971423E-01  0.25136554340E-01  0.00000000000E+00 0. -1.
     999901    1    3    3    0    0 -0.38729365714E-01  0.13296273039E+00 -0.32683087724E-01  0.89142988264E+00  0.88000000000E+00 0. -1.
        -11    1    4    4    0    0  0.14822123919E-01 -0.88163562236E-01  0.21841383909E-01  0.92031604548E-01  0.51100000000E-03 0.  1.
         11    1    4    4    0    0  0.61445838568E-02 -0.34590099472E-01 -0.37222676079E-02  0.35331958471E-01  0.51100000000E-03 0. -1.
</event>
<event>
 8    1  0.1054833E+005  0.1043930E+01  0.7957747E-01            NaN
         13   -1    0    0    0    0  0.00000000000E+00  0.00000000000E+00  0.74505805969E-08  0.10566000000E+00  0.10566000000E+00 0.  1.
     999900   -1    0    0    0    0 -0.00000000000E+00 -0.00000000000E+00 -0.74505805969E-08  0.93827000000E+00  0.93827000000E+00 0. -1.
     999902    2    1    2    0    0 -0.17143418816E-01  0.11032918312E-01  0.11914129157E-01  0.10203171101E+01  0.10200438405E+01 0.  0.
     999903    2    3    3    0    0  0.93287505120E-01  0.99346647294E-02 -0.84981887596E-01  0.12813717693E+00  0.19898711424E-01 0.  0.
         14    1    1    2    0    0  0.17143418816E-01 -0.11032918312E-01 -0.11914129157E-01  0.23612889886E-01  0.00000000000E+00 0. -1.
     999901    1    3    3    0    0 -0.11043092394E+00  0.10982535829E-02  0.96896016753E-01  0.89217993319E+00  0.88000000000E+00 0.  1.
        -11    1    4    4    0    0  0.58085531162E-01 -0.13676056575E-02 -0.43603082823E-01  0.72644953220E-01  0.51100000000E-03 0.  1.
         11    1    4    4    0    0  0.35201973958E-01  0.11302270387E-01 -0.41378804772E-01  0.55492223706E-01  0.51100000000E-03 0. -1.
</event>
<event>
 8    1  0.1054833E+005  0.1043930E+01  0.7957747E-01            NaN
         13   -1    0    0    0    0  0.00000000000E+00  0.00000000000E+00  0.74505805969E-08  0.10566000000E+00  0.10566000000E+00 0.  1.
     999900   -1    0    0    0    0 -0.00000000000E+00 -0.00000000000E+00 -0.74505805969E-08  0.93827000000E+00  0.93827000000E+00 0. -1.
     999902    2    1    2    0    0  0.22705111215E-01 -0.64659628092E-02 -0.26336565740E-02  0.10201756973E+01  0.10198991060E+01 0.  0.
     999903    2    3    3    0    0  0.92860983846E-01 -0.85214603626E-01 -0.38322612766E-01  0.13315997224E+00  0.19449024780E-01 0.  0.
         14    1    1    2    0    0 -0.22705111215E-01  0.64659628092E-02  0.26336565740E-02  0.23754302711E-01  0.00000000000E+00 0.  1.
     999901    1    3    3    0    0 -0.70155872631E-01  0.78748640817E-01  0.35688956192E-01  0.88701572505E+00  0.88000000000E+00 0. -1.
        -11    1    4    4    0    0  0.46527827079E-01 -0.50924989173E-01 -0.28722035472E-01  0.74722216627E-01  0.51100000000E-03 0. -1.
         11    1    4    4    0    0  0.46333156768E-01 -0.34289614453E-01 -0.96005772940E-02  0.58437755610E-01  0.51100000000E-03 0.  1.
</event>
<event>
 8    1  0.1054833E+005  0.1043930E+01  0.7957747E-01            NaN
         13   -1    0    0    0    0  0.00000000000E+00  0.00000000000E+00  0.74505805969E-08  0.10566000000E+00  0.10566000000E+00 0.  1.
     999900   -1    0    0    0    0 -0.00000000000E+00 -0.00000000000E+00 -0.74505805969E-08  0.93827000000E+00  0.93827000000E+00 0.  1.
     999902    2    1    2    0    0 -0.30510909157E-03  0.20130421245E-01  0.11138923537E-01  0.10209212502E+01  0.10206619404E+01 0.  0.
     999903    2    3    3    0    0  0.76525615722E-01  0.25432540918E-01 -0.10074481524E+00  0.13050053851E+00  0.19439360976E-01 0.  0.
         14    1    1    2    0    0  0.30510909157E-03 -0.20130421245E-01 -0.11138923537E-01  0.23008749827E-01  0.00000000000E+00 0.  1.
     999901    1    3    3    0    0 -0.76830724813E-01 -0.53021196735E-02  0.11188373878E+00  0.89042071166E+00  0.88000000000E+00 0. -1.
        -11    1    4    4    0    0  0.64693366206E-01  0.26651817803E-01 -0.77697135649E-01  0.10455934694E+00  0.51100000000E-03 0. -1.
         11    1    4    4    0    0  0.11832249516E-01 -0.12192768842E-02 -0.23047679592E-01  0.25941191574E-01  0.51100000000E-03 0.  1.
</event>
<event>
 8    1  0.1054833E+005  0.1043930E+01  0.7957747E-01            NaN
         13   -1    0    0    0    0  0.00000000000E+00  0.00000000000E+00  0.74505805969E-08  0.10566000000E+00  0.10566000000E+00 0.  1.
     999900   -1    0    0    0    0 -0.00000000000E+00 -0.00000000000E+00 -0.74505805969E-08  0.93827000000E+00  0.93827000000E+00 0.  1.
     999902    2    1    2    0    0 -0.19592153172E-01  0.59524038923E-02 -0.17782184169E-01  0.10168100875E+01  0.10164483580E+01 0.  0.
     999903    2    3    3    0    0  0.13243686137E-01  0.32803996470E-01 -0.12283020626E+00  0.12954784484E+00  0.21068628962E-01 0.  0.
         14    1    1    2    0    0  0.19592153172E-01 -0.59524038923E-02  0.17782184169E-01  0.27119912460E-01  0.00000000000E+00 0.  1.
     999901    1    3    3    0    0 -0.32835839309E-01 -0.26851592578E-01  0.10504802209E+00  0.88726224270E+00  0.88000000000E+00 0. -1.
        -11    1    4    4    0    0  0.17199239184E-01  0.29716223427E-01 -0.89922713312E-01  0.96256029700E-01  0.51100000000E-03 0. -1.
         11    1    4    4    0    0 -0.39555530470E-02  0.30877730429E-02 -0.32907492951E-01  0.33291815144E-01  0.51100000000E-03 0.  1.
</event>
<event>
 8    1  0.1054833E+005  0.1043930E+01  0.7957747E-01            NaN
         13   -1    0    0    0    0  0.00000000000E+00  0.00000000000E+00  0.74505805969E-08  0.10566000000E+00  0.10566000000E+00 0. -1.
     999900   -1    0    0    0    0 -0.00000000000E+00 -0.00000000000E+00 -0.74505805969E-08  0.93827000000E+00  0.93827000000E+00 0.  1.
     999902    2    1    2    0    0 -0.10999619764E-01 -0.14774287573E-01  0.13439081526E-01  0.10211291202E+01  0.10208745270E+01 0.  0.
     999903    2    3    3    0    0 -0.43650839291E-01 -0.10517940860E+00  0.67921396441E-01  0.13422015604E+00  0.20823794758E-01 0.  0.
         14    1    1    2    0    0  0.10999619764E-01  0.14774287573E-01 -0.13439081526E-01  0.22800879818E-01  0.00000000000E+00 0.  1.
     999901    1    3    3    0    0  0.32651219527E-01  0.90405121024E-01 -0.54482314915E-01  0.88690896415E+00  0.88000000000E+00 0.  1.
        -11    1    4    4    0    0 -0.35881305880E-01 -0.65046889172E-01  0.50223334441E-01  0.89672796020E-01  0.51100000000E-03 0.  1.
         11    1    4    4    0    0 -0.77695334105E-02 -0.40132519426E-01  0.17698061999E-01  0.44547360016E-01  0.51100000000E-03 0. -1.
</event>
<event>
 7    1  0.1054833E+005  0.1043930E+01  0.7957747E-01            NaN
         13   -1    0    0    0    0  0.00000000000E+00  0.00000000000E+00  0.74505805969E-08  0.10566000000E+00  0.10566000000E+00 0. -1.
     999900   -1    0    0    0    0 -0.00000000000E+00 -0.00000000000E+00 -0.74505805969E-08  0.93827000000E+00  0.93827000000E+00 0.  1.
     999903    2    1    2    0    0  0.90082720037E-01  0.29164919245E-03 -0.72158957880E-01  0.11713112398E+00  0.19945011776E-01 0.  0.
         14    1    1    2    0    0 -0.14087787530E-01 -0.29181839910E-01 -0.20284141565E-01  0.38229464253E-01  0.00000000000E+00 0.  1.
     999901    1    1    2    0    0 -0.75994932507E-01  0.28890190717E-01  0.92443099446E-01  0.88856941176E+00  0.88000000000E+00 0. -1.
        -11    1    3    3    0    0  0.11625290204E-01 -0.56182397803E-02 -0.15459781494E-01  0.20148894644E-01  0.51100000000E-03 0. -1.
         11    1    3    3    0    0  0.78457429833E-01  0.59098889727E-02 -0.56699176387E-01  0.96982229339E-01  0.51100000000E-03 0.  1.
</event>
<event>
 8    1  0.1054833E+005  0.1043930E+01  0.7957747E-01            NaN
         13   -1    0    0    0    0  0.00000000000E+00  0.00000000000E+00  0.74505805969E-08  0.10566000000E+00  0.10566000000E+00 0. -1.
     999900   -1    0    0    0    0 -0.00000000000E+00 -0.00000000000E+00 -0.74505805969E-08  0.93827000000E+00  0.93827000000E+00 0. -1.
     999902    2    1    2    0    0  0.90358525315E-02 -0.21071310266E-01 -0.65231474195E-02  0.10200930917E+01  0.10198145505E+01 0.  0.
     999903    2    3    3    0    0  0.85987296483E-01  0.14381207644E-01  0.94643097747E-01  0.13025433384E+00  0.20204980625E-01 0.  0.
         14    1    1    2    0    0 -0.90358525315E-02  0.21071310266E-01  0.65231474195E-02  0.23836908348E-01  0.00000000000E+00 0. -1.
     999901    1    3    3    0    0 -0.76951443951E-01 -0.35452517911E-01 -0.10116624517E+00  0.88983875782E+00  0.88000000000E+00 0. -1.
        -11    1    4    4    0    0  0.21106827171E-01  0.14524527164E-02  0.36432321275E-01  0.42132919749E-01  0.51100000000E-03 0. -1.
         11    1    4    4    0    0  0.64880469311E-01  0.12928754928E-01  0.58210776472E-01  0.88121414086E-01  0.51100000000E-03 0.  1.
</event>
<event>
 8    1  0.1054833E+005  0.1043930E+01  0.7957747E-01            NaN
         13   -1    0    0    0    0  0.00000000000E+00  0.00000000000E+00  0.74505805969E-08  0.10566000000E+00  0.10566000000E+00 0. -1.
     999900   -1    0    0    0    0 -0.00000000000E+00 -0.00000000000E+00 -0.74505805969E-08  0.93827000000E+00  0.93827000000E+00 0. -1.
     999902    2    1    2    0    0 -0.38641044631E-02  0.23556266220E-01  0.94933966303E-02  0.10182404387E+01  0.10179163214E+01 0.  0.
     999903    2    3    3    0    0 -0.95598363905E-01 -0.36088260295E-01  0.76114637424E-01  0.12896487192E+00  0.19927128418E-01 0.  0.
         14    1    1    2    0    0  0.38641044631E-02 -0.23556266220E-01 -0.94933966303E-02  0.25689561326E-01  0.00000000000E+00 0.  1.
     999901    1    3    3    0    0  0.91734259442E-01  0.59644526515E-01 -0.66621240793E-01  0.88927556675E+00  0.88000000000E+00 0.  1.
        -11    1    4    4    0    0 -0.34179194215E-01 -0.44153408884E-02  0.31612458021E-01  0.46768805581E-01  0.51100000000E-03 0. -1.
         11    1    4    4    0    0 -0.61419169690E-01 -0.31672919406E-01  0.44502179402E-01  0.82196066340E-01  0.51100000000E-03 0.  1.
</event>
<event>
 8    1  0.1054833E+005  0.1043930E+01  0.7957747E-01            NaN
         13   -1    0    0    0    0  0.00000000000E+00  0.00000000000E+00  0.74505805969E-08  0.10566000000E+00  0.10566000000E+00 0. -1.
     999900   -1    0    0    0    0 -0.00000000000E+00 -0.00000000000E+00 -0.74505805969E-08  0.93827000000E+00  0.93827000000E+00 0.  1.
     999902    2    1    2    0    0 -0.13118973781E-01 -0.20159887586E-01  0.14868519294E-02  0.10198314675E+01  0.10195467046E+01 0.  0.
     999903    2    3    3    0    0  0.35033843824E-01 -0.12281716513E+00  0.27205751479E-01  0.13218363627E+00  0.20516688830E-01 0.  0.
         14    1    1    2    0    0  0.13118973781E-01  0.20159887586E-01 -0.14868519294E-02  0.24098532512E-01  0.00000000000E+00 0. -1.
     999901    1    3    3    0    0 -0.48152817605E-01  0.10265727754E+00 -0.25718899550E-01  0.88764783122E+00  0.88000000000E+00 0.  1.
        -11    1    4    4    0    0  0.14450366450E-01 -0.54092462216E-01  0.16202664397E-02  0.56015122453E-01  0.51100000000E-03 0.  1.
         11    1    4    4    0    0  0.20583477374E-01 -0.68724702912E-01  0.25585485039E-01  0.76168513815E-01  0.51100000000E-03 0. -1.
</event>
<event>
 8    1  0.1054833E+005  0.1043930E+01  0.7957747E-01            NaN
         13   -1    0    0    0    0  0.00000000000E+00  0.00000000000E+00  0.74505805969E-08  0.10566000000E+00  0.10566000000E+00 0.  1.
     999900   -1    0    0    0    0 -0.00000000000E+00 -0.00000000000E+00 -0.74505805969E-08  0.93827000000E+00  0.93827000000E+00 0.  1.
     999902    2    1    2    0    0 -0.14765898059E-01  0.74222960935E-02 -0.14183765852E-01  0.10221515373E+01  0.10219194996E+01 0.  0.
     999903    2    3    3    0    0 -0.36974490149E-01 -0.22035067487E-01  0.12200925862E+00  0.13091111082E+00  0.19970043243E-01 0.  0.
         14    1    1    2    0    0  0.14765898059E-01 -0.74222960935E-02  0.14183765852E-01  0.21778462722E-01  0.00000000000E+00 0.  1.
     999901    1    3    3    0    0  0.22208592090E-01  0.29457363580E-01 -0.13619302447E+00  0.89124042645E+00  0.88000000000E+00 0.  1.
        -11    1    4    4    0    0 -0.98570906244E-02 -0.91074350739E-02  0.65993054003E-01  0.67345763837E-01  0.51100000000E-03 0. -1.
         11    1    4    4    0    0 -0.27117399524E-01 -0.12927632413E-01  0.56016204617E-01  0.63565346986E-01  0.51100000000E-03 0.  1.
</event>
<event>
 8    1  0.1054833E+005  0.1043930E+01  0.7957747E-01            NaN
         13   -1    0    0    0    0  0.00000000000E+00  0.00000000000E+00  0.74505805969E-08  0.10566000000E+00  0.10566000000E+00 0. -1.
     999900   -1    0    0    0    0 -0.00000000000E+00 -0.00000000000E+00 -0.74505805969E-08  0.93827000000E+00  0.93827000000E+00 0. -1.
     999902    2    1    2    0    0  0.14688510268E-01 -0.19118850847E-01 -0.11658919215E-02  0.10197920196E+01  0.10195063125E+01 0.  0.
     999903    2    3    3    0    0  0.60332640026E-01 -0.60962294296E-01 -0.98509668753E-01  0.13226169835E+00  0.20798394960E-01 0.  0.
         14    1    1    2    0    0 -0.14688510268E-01  0.19118850847E-01  0.11658919215E-02  0.24137980354E-01  0.00000000000E+00 0. -1.
     999901    1    3    3    0    0 -0.45644129758E-01  0.41843443449E-01  0.97343776832E-01  0.88753032130E+00  0.88000000000E+00 0.  1.
        -11    1    4    4    0    0  0.36328975018E-02 -0.59735552633E-02 -0.18715422308E-01  0.19985231044E-01  0.51100000000E-03 0.  1.
         11    1    4    4    0    0  0.56699742524E-01 -0.54988739033E-01 -0.79794246446E-01  0.11227646730E+00  0.51100000000E-03 0. -1.
</event>
<event>
 8    1  0.1054833E+005  0.1043930E+01  0.7957747E-01            NaN
         13   -1    0    0    0    0  0.00000000000E+00  0.00000000000E+00  0.74505805969E-08  0.10566000000E+00  0.10566000000E+00 0.  1.
     999900   -1    0    0    0    0 -0.00000000000E+00 -0.00000000000E+00 -0.74505805969E-08  0.93827000000E+00  0.93827000000E+00 0. -1.
     999902    2    1    2    0    0 -0.22709852836E-01  0.33921709830E-02 -0.69422010779E-02  0.10199417029E+01  0.10196595702E+01 0.  0.
     999903    2    3    3    0    0  0.29665876930E-01 -0.12406542805E+00  0.11302150393E-02  0.12918145433E+00  0.20353772744E-01 0.  0.
         14    1    1    2    0    0  0.22709852836E-01 -0.33921709830E-02  0.69422010779E-02  0.23988297055E-01  0.00000000000E+00 0.  1.
     999901    1    3    3    0    0 -0.52375729766E-01  0.12745759903E+00 -0.80724161172E-02  0.89076024862E+00  0.88000000000E+00 0.  1.
        -11    1    4    4    0    0  0.81002404874E-02 -0.36093666599E-01 -0.88981436790E-02  0.38050029520E-01  0.51100000000E-03 0.  1.
         11    1    4    4    0    0  0.21565636443E-01 -0.87971761448E-01  0.10028358718E-01  0.91131424805E-01  0.51100000000E-03 0. -1.
</event>
<event>
 7    1  0.1054833E+005  0.1043930E+01  0.7957747E-01            NaN
         13   -1    0    0    0    0  0.00000000000E+00  0.00000000000E+00  0.74505805969E-08  0.10566000000E+00  0.10566000000E+00 0. -1.
     999900   -1    0    0    0    0 -0.00000000000E+00 -0.00000000000E+00 -0.74505805969E-08  0.93827000000E+00  0.93827000000E+00 0. -1.
     999902    2    1    2    0    0 -0.48196564490E-02  0.18992185004E-01  0.12783307396E-01  0.10205345917E+01  0.10202663906E+01 0.  0.
         14    1    1    2    0    0  0.48196564490E-02 -0.18992185004E-01 -0.12783307396E-01  0.23395408257E-01  0.00000000000E+00 0.  1.
     999901    1    3    3    0    0 -0.71931676612E-01  0.98572275016E-01  0.86892155266E-01  0.89265945699E+00  0.88000000000E+00 0. -1.
        -11    1    3    3    0    0  0.59524161625E-01 -0.69016669771E-01 -0.63460701791E-01  0.11105831043E+00  0.51100000000E-03 0. -1.
         11    1    3    3    0    0  0.75878585384E-02 -0.10563420242E-01 -0.10648146079E-01  0.16816824323E-01  0.51100000000E-03 0.  1.
</event>
<event>
 8    1  0.1054833E+005  0.1043930E+01  0.7957747E-01            NaN
         13   -1    0    0    0    0  0.00000000000E+00  0.00000000000E+00  0.74505805969E-08  0.10566000000E+00  0.10566000000E+00 0.  1.
     999900   -1    0    0    0    0 -0.00000000000E+00 -0.00000000000E+00 -0.74505805969E-08  0.93827000000E+00  0.93827000000E+00 0.  1.
     999902    2    1    2    0    0 -0.67556516372E-02  0.22387895899E-01  0.88693098406E-04  0.10205448642E+01  0.10202769012E+01 0.  0.
     999903    2    3    3    0    0  0.43359978257E-01  0.90707336152E-01  0.83857213310E-01  0.13251542363E+00  0.20503578428E-01 0.  0.
         14    1    1    2    0    0  0.67556516372E-02 -0.22387895899E-01 -0.88693098406E-04  0.23385135840E-01  0.00000000000E+00 0. -1.
     999901    1    3    3    0    0 -0.50115629894E-01 -0.68319440253E-01 -0.83768520212E-01  0.88802944053E+00  0.88000000000E+00 0.  1.
        -11    1    4    4    0    0  0.22270739096E-01  0.26777803207E-01  0.34623886230E-01  0.49113248550E-01  0.51100000000E-03 0. -1.
         11    1    4    4    0    0  0.21089239161E-01  0.63929532945E-01  0.49233327080E-01  0.83402175076E-01  0.51100000000E-03 0.  1.
</event>
<event>
 8    1  0.1054833E+005  0.1043930E+01  0.7957747E-01            NaN
         13   -1    0    0    0    0  0.00000000000E+00  0.00000000000E+00  0.74505805969E-08  0.10566000000E+00  0.10566000000E+00 0. -1.
     999900   -1    0    0    0    0 -0.00000000000E+00 -0.00000000000E+00 -0.74505805969E-08  0.93827000000E+00  0.93827000000E+00 0.  1.
     999902    2    1    2    0    0 -0.14915930087E-01 -0.12281834251E-02 -0.15997083357E-01  0.10220233782E+01  0.10217885718E+01 0.  0.
     999903    2    3    3    0    0 -0.39754631763E-01 -0.11692790076E+00 -0.46658412643E-01  0.13357332170E+00  0.20304188631E-01 0.  0.
         14    1    1    2    0    0  0.14915930087E-01  0.12281834251E-02  0.15997083357E-01  0.21906621849E-01  0.00000000000E+00 0. -1.
     999901    1    3    3    0    0  0.24838701677E-01  0.11569971734E+00  0.30661329285E-01  0.88845005645E+00  0.88000000000E+00 0. -1.
        -11    1    4    4    0    0 -0.32508717995E-01 -0.10530969116E+00 -0.35162708763E-01  0.11568761821E+00  0.51100000000E-03 0.  1.
         11    1    4    4    0    0 -0.72459137682E-02 -0.11618209602E-01 -0.11495703879E-01  0.17885703491E-01  0.51100000000E-03 0. -1.
</event>
<event>
 8    1  0.1054833E+005  0.1043930E+01  0.7957747E-01            NaN
         13   -1    0    0    0    0  0.00000000000E+00  0.00000000000E+00  0.74505805969E-08  0.10566000000E+00  0.10566000000E+00 0. -1.
     999900   -1    0    0    0    0 -0.00000000000E+00 -0.00000000000E+00 -0.74505805969E-08  0.93827000000E+00  0.93827000000E+00 0. -1.
     999902    2    1    2    0    0 -0.17018494467E-01 -0.12958144173E-01 -0.73598593020E-02  0.10213089880E+01  0.10210584405E+01 0.  0.
     999903    2    3    3    0    0 -0.87520857097E-01  0.54598660427E-01 -0.81079936184E-01  0.13284449535E+00  0.20803599363E-01 0.  0.
         14    1    1    2    0    0  0.17018494467E-01  0.12958144173E-01  0.73598593020E-02  0.22621011986E-01  0.00000000000E+00 0. -1.
     999901    1    3    3    0    0  0.70502362630E-01 -0.67556804601E-01  0.73720076882E-01  0.88846449266E+00  0.88000000000E+00 0.  1.
        -11    1    4    4    0    0 -0.28219745137E-01  0.82922292094E-02 -0.16748012264E-01  0.33850732882E-01  0.51100000000E-03 0. -1.
         11    1    4    4    0    0 -0.59301111960E-01  0.46306431218E-01 -0.64331923920E-01  0.98993762470E-01  0.51100000000E-03 0.  1.
</event>
<event>
 8    1  0.1054833E+005  0.1043930E+01  0.7957747E-01            NaN
         13   -1    0    0    0    0  0.00000000000E+00  0.00000000000E+00  0.74505805969E-08  0.10566000000E+00  0.10566000000E+00 0.  1.
     999900   -1    0    0    0    0 -0.00000000000E+00 -0.00000000000E+00 -0.74505805969E-08  0.93827000000E+00  0.93827000000E+00 0.  1.
     999902    2    1    2    0    0 -0.13424318514E-01 -0.76429984310E-02  0.17566182229E-01  0.10205377254E+01  0.10202695970E+01 0.  0.
     999903    2    3    3    0    0  0.10808474508E+00 -0.65042558223E-01  0.19167757082E-01  0.13033453116E+00  0.26586474043E-01 0.  0.
         14    1    1    2    0    0  0.13424318514E-01  0.76429984310E-02 -0.17566182229E-01  0.23392274594E-01  0.00000000000E+00 0. -1.
     999901    1    3    3    0    0 -0.12150906360E+00  0.57399559792E-01 -0.16015748529E-02  0.89020319424E+00  0.88000000000E+00 0.  1.
        -11    1    4    4    0    0  0.51263642689E-01 -0.20844434779E-01  0.18469662216E-01  0.58342446523E-01  0.51100000000E-03 0. -1.
         11    1    4    4    0    0  0.56821102393E-01 -0.44198123444E-01  0.69809486618E-03  0.71992084639E-01  0.51100000000E-03 0.  1.
</event>
<event>
 8    1  0.1054833E+005  0.1043930E+01  0.7957747E-01            NaN
         13   -1    0    0    0    0  0.00000000000E+00  0.00000000000E+00  0.74505805969E-08  0.10566000000E+00  0.10566000000E+00 0.  1.
     999900   -1    0    0    0    0 -0.00000000000E+00 -0.00000000000E+00 -0.74505805969E-08  0.93827000000E+00  0.93827000000E+00 0. -1.
     999902    2    1    2    0    0  0.45831654395E-02 -0.20886190504E-01 -0.97875115150E-02  0.10204133306E+01  0.10201423094E+01 0.  0.
     999903    2    3    3    0    0 -0.10619144773E+00 -0.49147634876E-01 -0.56949312020E-01  0.13176606670E+00  0.20662976806E-01 0.  0.
         14    1    1    2    0    0 -0.45831654395E-02  0.20886190504E-01  0.97875115150E-02  0.23516669426E-01  0.00000000000E+00 0.  1.
     999901    1    3    3    0    0  0.11077461317E+00  0.28261444372E-01  0.47161800505E-01  0.88864726387E+00  0.88000000000E+00 0.  1.
        -11    1    4    4    0    0 -0.41417010993E-01 -0.22907055168E-01 -0.12557268613E-01  0.48969869227E-01  0.51100000000E-03 0.  1.
         11    1    4    4    0    0 -0.64774436734E-01 -0.26240579708E-01 -0.44392043407E-01  0.82796197476E-01  0.51100000000E-03 0. -1.
</event>
<event>
 8    1  0.1054833E+005  0.1043930E+01  0.7957747E-01            NaN
         13   -1    0    0    0    0  0.00000000000E+00  0.00000000000E+00  0.74505805969E-08  0.10566000000E+00  0.10566000000E+00 0. -1.
     999900   -1    0    0    0    0 -0.00000000000E+00 -0.00000000000E+00 -0.74505805969E-08  0.93827000000E+00  0.93827000000E+00 0. -1.
     999902    2    1    2    0    0  0.94987815925E-02  0.99668821845E-02  0.19973750479E-01  0.10196706451E+01  0.10193820227E+01 0.  0.
     999903    2    3    3    0    0 -0.81891204018E-01  0.36368737200E-01  0.94229230599E-01  0.13143471712E+00  0.19159400406E-01 0.  0.
         14    1    1    2    0    0 -0.94987815925E-02 -0.99668821845E-02 -0.19973750479E-01  0.24259354906E-01  0.00000000000E+00 0.  1.
     999901    1    3    3    0    0  0.91389985611E-01 -0.26401855015E-01 -0.74255480119E-01  0.88823592798E+00  0.88000000000E+00 0. -1.
        -11    1    4    4    0    0 -0.39976264941E-01  0.27942451430E-01  0.53212296441E-01  0.72185122872E-01  0.51100000000E-03 0. -1.
         11    1    4    4    0    0 -0.41914939077E-01  0.84262857697E-02  0.41016934158E-01  0.59249594247E-01  0.51100000000E-03 0.  1.
</event>
<event>
 8    1  0.1054833E+005  0.1043930E+01  0.7957747E-01            NaN
         13   -1    0    0    0    0  0.00000000000E+00  0.00000000000E+00  0.74505805969E-08  0.10566000000E+00  0.10566000000E+00 0. -1.
     999900   -1    0    0    0    0 -0.00000000000E+00 -0.00000000000E+00 -0.74505805969E-08  0.93827000000E+00  0.93827000000E+00 0.  1.
     999902    2    1    2    0    0  0.16138898645E-02 -0.20787120988E-01  0.82483315511E-02  0.10215080462E+01  0.10212619372E+01 0.  0.
     999903    2    3    3    0    0 -0.51935254567E-01  0.10409416729E+00  0.54201681163E-01  0.12989458881E+00  0.20047833547E-01 0.  0.
         14    1    1    2    0    0 -0.16138898645E-02  0.20787120988E-01 -0.82483315511E-02  0.22421953814E-01  0.00000000000E+00 0. -1.
     999901    1    3    3    0    0  0.53549144432E-01 -0.12488128828E+00 -0.45953349612E-01  0.89161345738E+00  0.88000000000E+00 0. -1.
        -11    1    4    4    0    0 -0.19861228504E-01  0.28889729992E-01  0.79250298613E-02  0.35946517439E-01  0.51100000000E-03 0. -1.
         11    1    4    4    0    0 -0.32074026063E-01  0.75204437302E-01  0.46276651302E-01  0.93948071372E-01  0.51100000000E-03 0.  1.
</event>
<event>
 8    1  0.1054833E+005  0.1043930E+01  0.7957747E-01            NaN
         13   -1    0    0    0    0  0.00000000000E+00  0.00000000000E+00  0.74505805969E-08  0.10566000000E+00  0.10566000000E+00 0. -1.
     999900   -1    0    0    0    0 -0.00000000000E+00 -0.00000000000E+00 -0.74505805969E-08  0.93827000000E+00  0.93827000000E+00 0. -1.
     999902    2    1    2    0    0  0.43199615381E-02  0.43762962455E-02 -0.22420555740E-01  0.10206814440E+01  0.10204166378E+01 0.  0.
     999903    2    3    3    0    0  0.55429946843E-01  0.11467486436E-01 -0.11966222567E+00  0.13382268526E+00  0.19633659540E-01 0.  0.
         14    1    1    2    0    0 -0.43199615381E-02 -0.43762962455E-02  0.22420555740E-01  0.23248556003E-01  0.00000000000E+00 0. -1.
     999901    1    3    3    0    0 -0.51109985305E-01 -0.70911901902E-02  0.97241669926E-01  0.88685875874E+00  0.88000000000E+00 0.  1.
        -11    1    4    4    0    0  0.12744122009E-01 -0.29613134025E-02 -0.15238154781E-01  0.20090906027E-01  0.51100000000E-03 0.  1.
         11    1    4    4    0    0  0.42685824834E-01  0.14428799838E-01 -0.10442407089E+00  0.11373177923E+00  0.51100000000E-03 0. -1.
</event>
<event>
 8    1  0.1054833E+005  0.1043930E+01  0.7957747E-01            NaN
         13   -1    0    0    0    0  0.00000000000E+00  0.00000000000E+00  0.74505805969E-08  0.10566000000E+00  0.10566000000E+00 0. -1.
     999900   -1    0    0    0    0 -0.00000000000E+00 -0.00000000000E+00 -0.74505805969E-08  0.93827000000E+00  0.93827000000E+00 0.  1.
     999902    2    1    2    0    0 -0.79846316508E-03 -0.89173666361E-02 -0.21725113248E-01  0.10204323934E+01  0.10201618165E+01 0.  0.
     999903    2    3    3    0    0  0.10051718253E+00 -0.81319931239E-01 -0.13528804709E-01  0.13162748177E+00  0.20642921338E-01 0.  0.
         14    1    1    2    0    0  0.79846316508E-03  0.89173666361E-02  0.21725113248E-01  0.23497606619E-01  0.00000000000E+00 0. -1.
     999901    1    3    3    0    0 -0.10131564569E+00  0.72402564603E-01 -0.81963085393E-02  0.88880491161E+00  0.88000000000E+00 0.  1.
        -11    1    4    4    0    0  0.76095751088E-02 -0.47961716229E-02 -0.63987127151E-02  0.11050499581E-01  0.51100000000E-03 0. -1.
         11    1    4    4    0    0  0.92907607419E-01 -0.76523759616E-01 -0.71300919940E-02  0.12057698219E+00  0.51100000000E-03 0.  1.
</event>
<event>
 8    1  0.1054833E+005  0.1043930E+01  0.7957747E-01            NaN
         13   -1    0    0    0    0  0.00000000000E+00  0.00000000000E+00  0.74505805969E-08  0.10566000000E+00  0.10566000000E+00 0.  1.
     999900   -1    0    0    0    0 -0.00000000000E+00 -0.00000000000E+00 -0.74505805969E-08  0.93827000000E+00  0.93827000000E+00 0. -1.
     999902    2    1    2    0    0 -0.73766768431E-02 -0.18381412282E-02 -0.22589607708E-01  0.10200954767E+01  0.10198169920E+01 0.  0.
     999903    2    3    3    0    0 -0.67912044904E-02 -0.53945908685E-01  0.11408327696E+00  0.12802202703E+00  0.20453943406E-01 0.  0.
         14    1    1    2    0    0  0.73766768431E-02  0.18381412282E-02  0.22589607708E-01  0.23834523297E-01  0.00000000000E+00 0.  1.
     999901    1    3    3    0    0 -0.58547235272E-03  0.52107767457E-01 -0.13667288467E+00  0.89207344967E+00  0.88000000000E+00 0. -1.
        -11    1    4    4    0    0  0.40970690785E-02 -0.31042828593E-01  0.76691432338E-01  0.82838880347E-01  0.51100000000E-03 0.  1.
         11    1    4    4    0    0 -0.10888273569E-01 -0.22903080091E-01  0.37391844621E-01  0.45183146683E-01  0.51100000000E-03 0. -1.
</event>
<event>
 8    1  0.1054833E+005  0.1043930E+01  0.7957747E-01            NaN
         13   -1    0    0    0    0  0.00000000000E+00  0.00000000000E+00  0.74505805969E-08  0.10566000000E+00  0.10566000000E+00 0.  1.
     999900   -1    0    0    0    0 -0.00000000000E+00 -0.00000000000E+00 -0.74505805969E-08  0.93827000000E+00  0.93827000000E+00 0.  1.
     999902    2    1    2    0    0  0.21633554089E-01 -0.16014058564E-02  0.93951949737E-02  0.10202901004E+01  0.10200161980E+01 0.  0.
     999903    2    3    3    0    0 -0.73400926212E-01  0.65787811806E-01  0.81918567063E-01  0.12965409251E+00  0.19590812216E-01 0.  0.
         14    1    1    2    0    0 -0.21633554089E-01  0.16014058564E-02 -0.93951949737E-02  0.23639899573E-01  0.00000000000E+00 0. -1.
     999901    1    3    3    0    0  0.95034480301E-01 -0.67389217663E-01 -0.72523372089E-01  0.89063600792E+00  0.88000000000E+00 0.  1.
        -11    1    4    4    0    0 -0.28308462385E-01  0.37986083052E-01  0.42129984630E-01  0.63399592066E-01  0.51100000000E-03 0. -1.
         11    1    4    4    0    0 -0.45092463827E-01  0.27801728755E-01  0.39788582433E-01  0.66254500442E-01  0.51100000000E-03 0.  1.
</event>
<event>
 8    1  0.1054833E+005  0.1043930E+01  0.7957747E-01            NaN
         13   -1    0    0    0    0  0.00000000000E+00  0.00000000000E+00  0.74505805969E-08  0.10566000000E+00  0.10566000000E+00 0. -1.
     999900   -1    0    0    0    0 -0.00000000000E+00 -0.00000000000E+00 -0.74505805969E-08  0.93827000000E+00  0.93827000000E+00 0.  1.
     999902    2    1    2    0    0 -0.73297251525E-02  0.21482223621E-01  0.10561344357E-02  0.10212071872E+01  0.10209543540E+01 0.  0.
     999903    2    3    3    0    0  0.10768020524E-01 -0.66968443832E-01  0.10892452519E+00  0.13003568927E+00  0.21071439455E-01 0.  0.
         14    1    1    2    0    0  0.73297251525E-02 -0.21482223621E-01 -0.10561344357E-02  0.22722812820E-01  0.00000000000E+00 0. -1.
     999901    1    3    3    0    0 -0.18097745677E-01  0.88450667453E-01 -0.10786839075E+00  0.89117149791E+00  0.88000000000E+00 0.  1.
        -11    1    4    4    0    0  0.40042826057E-02 -0.58273805242E-01  0.79810759483E-01  0.98903433241E-01  0.51100000000E-03 0.  1.
         11    1    4    4    0    0  0.67637379185E-02 -0.86946385904E-02  0.29113765703E-01  0.31132256026E-01  0.51100000000E-03 0. -1.
</event>
<event>
 8    1  0.1054833E+005  0.1043930E+01  0.7957747E-01            NaN
         13   -1    0    0    0    0  0.00000000000E+00  0.00000000000E+00  0.74505805969E-08  0.10566000000E+00  0.10566000000E+00 0. -1.
     999900   -1    0    0    0    0 -0.00000000000E+00 -0.00000000000E+00 -0.74505805969E-08  0.93827000000E+00  0.93827000000E+00 0.  1.
     999902    2    1    2    0    0 -0.81057961655E-02 -0.22905665108E-01  0.26923672737E-03  0.10196309071E+01  0.10193413270E+01 0.  0.
     999903    2    3    3    0    0 -0.12444531954E+00  0.18649733097E-01  0.28411722920E-01  0.13055625597E+00  0.20081331490E-01 0.  0.
         14    1    1    2    0    0  0.81057961655E-02  0.22905665108E-01 -0.26923672737E-03  0.24299092862E-01  0.00000000000E+00 0.  1.
     999901    1    3    3    0    0  0.11633952337E+00 -0.41555398204E-01 -0.28142486193E-01  0.88907465117E+00  0.88000000000E+00 0. -1.
        -11    1    4    4    0    0 -0.82753088431E-01  0.56044791268E-02  0.11630363210E-01  0.83755658319E-01  0.51100000000E-03 0.  1.
         11    1    4    4    0    0 -0.41692231107E-01  0.13045253970E-01  0.16781359711E-01  0.46800597652E-01  0.51100000000E-03 0. -1.
</event>
<event>
 8    1  0.1054833E+005  0.1043930E+01  0.7957747E-01            NaN
         13   -1    0    0    0    0  0.00000000000E+00  0.00000000000E+00  0.74505805969E-08  0.10566000000E+00  0.10566000000E+00 0. -1.
     999900   -1    0    0    0    0 -0.00000000000E+00 -0.00000000000E+00 -0.74505805969E-08  0.93827000000E+00  0.93827000000E+00 0.  1.
     999902    2    1    2    0    0  0.21689845973E-01 -0.31307187416E-02 -0.79228006588E-02  0.10206271764E+01  0.10203611182E+01 0.  0.
     999903    2    3    3    0    0  0.47995043842E-01  0.94895200736E-01  0.75577805700E-01  0.13086687406E+00  0.10271838033E-01 0.  0.
         14    1    1    2    0    0 -0.21689845973E-01  0.31307187416E-02  0.79228006588E-02  0.23302823615E-01  0.00000000000E+00 0.  1.
     999901    1    3    3    0    0 -0.26305197868E-01 -0.98025919478E-01 -0.83500606359E-01  0.88976030232E+00  0.88000000000E+00 0.  1.
        -11    1    4    4    0    0  0.23398132359E-01  0.41985926961E-01  0.39931114821E-01  0.62490364957E-01  0.51100000000E-03 0.  1.
         11    1    4    4    0    0  0.24596911482E-01  0.52909273775E-01  0.35646690879E-01  0.68376509106E-01  0.51100000000E-03 0. -1.
</event>
<event>
 8    1  0.1054833E+005  0.1043930E+01  0.7957747E-01            NaN
         13   -1    0    0    0    0  0.00000000000E+00  0.00000000000E+00  0.74505805969E-08  0.10566000000E+00  0.10566000000E+00 0. -1.
     999900   -1    0    0    0    0 -0.00000000000E+00 -0.00000000000E+00 -0.74505805969E-08  0.93827000000E+00  0.93827000000E+00 0.  1.
     999902    2    1    2    0    0  0.17833114279E-01  0.86086065192E-02 -0.13408055341E-01  0.10200154852E+01  0.10197351058E+01 0.  0.
     999903    2    3    3    0    0  0.13021494610E+00  0.36734502031E-02  0.12215279012E-01  0.13248487323E+00  0.20823116215E-01 0.  0.
         14    1    1    2    0    0 -0.17833114279E-01 -0.86086065192E-02  0.13408055341E-01  0.23914514821E-01  0.00000000000E+00 0.  1.
     999901    1    3    3    0    0 -0.11238183182E+00  0.49351563160E-02 -0.25623334353E-01  0.88753061195E+00  0.88000000000E+00 0. -1.
        -11    1    4    4    0    0  0.87327030260E-01  0.58074787597E-02 -0.10857893153E-02  0.87528150232E-01  0.51100000000E-03 0.  1.
         11    1    4    4    0    0  0.42887915837E-01 -0.21340285566E-02  0.13301068327E-01  0.44956722994E-01  0.51100000000E-03 0. -1.
</event>
<event>
 8    1  0.1054833E+005  0.1043930E+01  0.7957747E-01            NaN
         13   -1    0    0    0    0  0.00000000000E+00  0.00000000000E+00  0.74505805969E-08  0.10566000000E+00  0.10566000000E+00 0. -1.
     999900   -1    0    0    0    0 -0.00000000000E+00 -0.00000000000E+00 -0.74505805969E-08  0.93827000000E+00  0.93827000000E+00 0.  1.
     999902    2    1    2    0    0  0.18972246134E-01 -0.98135463057E-02  0.89403177210E-02  0.10207744155E+01  0.10205117472E+01 0.  0.
     999903    2    3    3    0    0 -0.61129520797E-01  0.55195825139E-01  0.98736859206E-01  0.13020946538E+00  0.20546047891E-01 0.  0.
         14    1    1    2    0    0 -0.18972246134E-01  0.98135463057E-02 -0.89403177210E-02  0.23155584541E-01  0.00000000000E+00 0.  1.
     999901    1    3    3    0    0  0.80101766932E-01 -0.65009371445E-01 -0.89796541485E-01  0.89056495008E+00  0.88000000000E+00 0.  1.
        -11    1    4    4    0    0 -0.35080866474E-01  0.28640968318E-01  0.38659284291E-01  0.59546399065E-01  0.51100000000E-03 0. -1.
         11    1    4    4    0    0 -0.26048654324E-01  0.26554856821E-01  0.60077574915E-01  0.70663066318E-01  0.51100000000E-03 0.  1.
</event>
<event>
 8    1  0.1054833E+005  0.1043930E+01  0.7957747E-01            NaN
         13   -1    0    0    0    0  0.00000000000E+00  0.00000000000E+00  0.74505805969E-08  0.10566000000E+00  0.10566000000E+00 0. -1.
     999900   -1    0    0    0    0 -0.00000000000E+00 -0.00000000000E+00 -0.74505805969E-08  0.93827000000E+00  0.93827000000E+00 0.  1.
     999902    2    1    2    0    0 -0.19454470799E-01  0.13947285181E-01 -0.86218431205E-03  0.10199769927E+01  0.10196956992E+01 0.  0.
     999903    2    3    3    0    0  0.48384446215E-01 -0.10713918225E+00 -0.46326916867E-01  0.12793938520E+00  0.20061008190E-01 0.  0.
         14    1    1    2    0    0  0.19454470799E-01 -0.13947285181E-01  0.86218431205E-03  0.23953007322E-01  0.00000000000E+00 0.  1.
     999901    1    3    3    0    0 -0.67838917014E-01  0.12108646743E+00  0.45464732554E-01  0.89203760748E+00  0.88000000000E+00 0. -1.
        -11    1    4    4    0    0  0.19654541452E-02 -0.23570040437E-01 -0.95489998693E-02  0.25511846967E-01  0.51100000000E-03 0.  1.
         11    1    4    4    0    0  0.46418992070E-01 -0.83569141811E-01 -0.36777916997E-01  0.10242753823E+00  0.51100000000E-03 0. -1.
</event>
<event>
 8    1  0.1054833E+005  0.1043930E+01  0.7957747E-01            NaN
         13   -1    0    0    0    0  0.00000000000E+00  0.00000000000E+00  0.74505805969E-08  0.10566000000E+00  0.10566000000E+00 0.  1.
     999900   -1    0    0    0    0 -0.00000000000E+00 -0.00000000000E+00 -0.74505805969E-08  0.93827000000E+00  0.93827000000E+00 0.  1.
     999902    2    1    2    0    0  0.12696836194E-02 -0.97514948265E-02 -0.21953307166E-01  0.10198748250E+01  0.10195910981E+01 0.  0.
     999903    2    3    3    0    0  0.91330662155E-01 -0.23586470830E-01  0.85162272354E-01  0.12870922100E+00  0.20392142639E-01 0.  0.
         14    1    1    2    0    0 -0.12696836194E-02  0.97514948265E-02  0.21953307166E-01  0.24055174981E-01  0.00000000000E+00 0.  1.
     999901    1    3    3    0    0 -0.90060978535E-01  0.13834976003E-01 -0.10711557952E+00  0.89116560402E+00  0.88000000000E+00 0. -1.
        -11    1    4    4    0    0  0.30968866788E-01 -0.17925853001E-01  0.28930296158E-01  0.46017714771E-01  0.51100000000E-03 0.  1.
         11    1    4    4    0    0  0.60361795366E-01 -0.56606178291E-02  0.56231976196E-01  0.82691506226E-01  0.51100000000E-03 0. -1.
</event>
<event>
 8    1  0.1054833E+005  0.1043930E+01  0.7957747E-01            NaN
         13   -1    0    0    0    0  0.00000000000E+00  0.00000000000E+00  0.74505805969E-08  0.10566000000E+00  0.10566000000E+00 0.  1.
     999900   -1    0    0    0    0 -0.00000000000E+00 -0.00000000000E+00 -0.74505805969E-08  0.93827000000E+00  0.93827000000E+00 0.  1.
     999902    2    1    2    0    0 -0.90396777631E-02  0.53668045177E-02 -0.21510912282E-01  0.10199876168E+01  0.10197065758E+01 0.  0.
     999903    2    3    3    0    0 -0.10977465390E+00  0.56747832182E-01  0.37690564183E-01  0.13077877733E+00  0.20290856963E-01 0.  0.
         14    1    1    2    0    0  0.90396777631E-02 -0.53668045177E-02  0.21510912282E-01  0.23942383173E-01  0.00000000000E+00 0.  1.
     999901    1    3    3    0    0  0.10073497613E+00 -0.51381027664E-01 -0.59201476465E-01  0.88920883950E+00  0.88000000000E+00 0.  1.
        -11    1    4    4    0    0 -0.73195744816E-01  0.44745433038E-01  0.18511144724E-01  0.87764995510E-01  0.51100000000E-03 0. -1.
         11    1    4    4    0    0 -0.36578909082E-01  0.12002399144E-01  0.19179419459E-01  0.43013781822E-01  0.51100000000E-03 0.  1.
</event>
<event>
 8    1  0.1054833E+005  0.1043930E+01  0.7957747E-01            NaN
         13   -1    0    0    0    0  0.00000000000E+00  0.00000000000E+00  0.74505805969E-08  0.10566000000E+00  0.10566000000E+00 0. -1.
     999900   -1    0    0    0    0 -0.00000000000E+00 -0.00000000000E+00 -0.74505805969E-08  0.93827000000E+00  0.93827000000E+00 0.  1.
     999902    2    1    2    0    0  0.14734483515E-01 -0.17447068227E-01 -0.60802323146E-02  0.10202979366E+01  0.10200242179E+01 0.  0.
     999903    2    3    3    0    0  0.75306364164E-01 -0.93028118794E-01  0.54407309336E-01  0.13291966857E+00  0.19550028471E-01 0.  0.
         14    1    1    2    0    0 -0.14734483515E-01  0.17447068227E-01  0.60802323146E-02  0.23632063371E-01  0.00000000000E+00 0.  1.
     999901    1    3    3    0    0 -0.60571880649E-01  0.75581050567E-01 -0.60487541651E-01  0.88737826806E+00  0.88000000000E+00 0. -1.
        -11    1    4    4    0    0  0.64757624477E-01 -0.70913289041E-01  0.49044400803E-01  0.10783255010E+00  0.51100000000E-03 0.  1.
         11    1    4    4    0    0  0.10548739687E-01 -0.22114829753E-01  0.53629085335E-02  0.25087118466E-01  0.51100000000E-03 0. -1.
</event>
<event>
 8    1  0.1054833E+005  0.1043930E+01  0.7957747E-01            NaN
         13   -1    0    0    0    0  0.00000000000E+00  0.00000000000E+00  0.74505805969E-08  0.10566000000E+00  0.10566000000E+00 0.  1.
     999900   -1    0    0    0    0 -0.00000000000E+00 -0.00000000000E+00 -0.74505805969E-08  0.93827000000E+00  0.93827000000E+00 0.  1.
     999902    2    1    2    0    0 -0.10134290689E-01 -0.21229411841E-01 -0.68762910504E-02  0.10194213249E+01  0.10191266666E+01 0.  0.
     999903    2    3    3    0    0  0.35407602986E-01 -0.12535587996E+00  0.37384872368E-02  0.13204932912E+00  0.21336683034E-01 0.  0.
         14    1    1    2    0    0  0.10134290689E-01  0.21229411841E-01  0.68762910504E-02  0.24508675066E-01  0.00000000000E+00 0. -1.
     999901    1    3    3    0    0 -0.45541893675E-01  0.10412646812E+00 -0.10614778287E-01  0.88737199582E+00  0.88000000000E+00 0.  1.
        -11    1    4    4    0    0  0.51274794567E-02 -0.43493330071E-01 -0.60663182464E-02  0.44215632352E-01  0.51100000000E-03 0.  1.
         11    1    4    4    0    0  0.30280123529E-01 -0.81862549892E-01  0.98048054832E-02  0.87833696765E-01  0.51100000000E-03 0. -1.
</event>
<event>
 8    1  0.1054833E+005  0.1043930E+01  0.7957747E-01            NaN
         13   -1    0    0    0    0  0.00000000000E+00  0.00000000000E+00  0.74505805969E-08  0.10566000000E+00  0.10566000000E+00 0.  1.
     999900   -1    0    0    0    0 -0.00000000000E+00 -0.00000000000E+00 -0.74505805969E-08  0.93827000000E+00  0.93827000000E+00 0.  1.
     999902    2    1    2    0    0 -0.24860386817E-02  0.15217060645E-01 -0.14412889425E-01  0.10228238231E+01  0.10226060348E+01 0.  0.
     999903    2    3    3    0    0 -0.47997890272E-01 -0.11564466406E+00  0.32296815599E-01  0.13075997100E+00  0.19431930476E-01 0.  0.
         14    1    1    2    0    0  0.24860386817E-02 -0.15217060645E-01  0.14412889425E-01  0.21106176929E-01  0.00000000000E+00 0.  1.
     999901    1    3    3    0    0  0.45511851590E-01  0.13086172470E+00 -0.46709705024E-01  0.89206385207E+00  0.88000000000E+00 0.  1.
        -11    1    4    4    0    0 -0.28127206951E-01 -0.54276282349E-01  0.72548957857E-02  0.61562563546E-01  0.51100000000E-03 0.  1.
         11    1    4    4    0    0 -0.19870683321E-01 -0.61368381710E-01  0.25041919813E-01  0.69197407454E-01  0.51100000000E-03 0. -1.
</event>
<event>
 8    1  0.1054833E+005  0.1043930E+01  0.7957747E-01            NaN
         13   -1    0    0    0    0  0.00000000000E+00  0.00000000000E+00  0.74505805969E-08  0.10566000000E+00  0.10566000000E+00 0.  1.
     999900   -1    0    0    0    0 -0.00000000000E+00 -0.00000000000E+00 -0.74505805969E-08  0.93827000000E+00  0.93827000000E+00 0.  1.
     999902    2    1    2    0    0 -0.31616240649E-02 -0.21642870216E-01  0.93821615775E-02  0.10201301123E+01  0.10198524459E+01 0.  0.
     999903    2    3    3    0    0 -0.73194481293E-01  0.90783913879E-01  0.51743284404E-01  0.12920988715E+00  0.20461582215E-01 0.  0.
         14    1    1    2    0    0  0.31616240649E-02  0.21642870216E-01 -0.93821615775E-02  0.23799887684E-01  0.00000000000E+00 0.  1.
     999901    1    3    3    0    0  0.70032857228E-01 -0.11242678410E+00 -0.42361122827E-01  0.89092022516E+00  0.88000000000E+00 0.  1.
        -11    1    4    4    0    0 -0.31611673142E-01  0.26027435296E-01  0.12463675719E-01  0.42805719248E-01  0.51100000000E-03 0. -1.
         11    1    4    4    0    0 -0.41582808151E-01  0.64756478583E-01  0.39279608685E-01  0.86404167907E-01  0.51100000000E-03 0.  1.
</event>
<event>
 8    1  0.1054833E+005  0.1043930E+01  0.7957747E-01            NaN
         13   -1    0    0    0    0  0.00000000000E+00  0.00000000000E+00  0.74505805969E-08  0.10566000000E+00  0.10566000000E+00 0. -1.
     999900   -1    0    0    0    0 -0.00000000000E+00 -0.00000000000E+00 -0.74505805969E-08  0.93827000000E+00  0.93827000000E+00 0.  1.
     999902    2    1    2    0    0  0.20904976500E-01  0.13780478539E-02 -0.56125961474E-02  0.10222408715E+01  0.10220107539E+01 0.  0.
     999903    2    3    3    0    0 -0.78534315559E-01 -0.70652648968E-01 -0.74857507176E-01  0.13102178971E+00  0.20090482130E-01 0.  0.
         14    1    1    2    0    0 -0.20904976500E-01 -0.13780478539E-02  0.56125961474E-02  0.21689128472E-01  0.00000000000E+00 0. -1.
     999901    1    3    3    0    0  0.99439292059E-01  0.72030696821E-01  0.69244911029E-01  0.89121908182E+00  0.88000000000E+00 0.  1.
        -11    1    4    4    0    0 -0.65352384917E-01 -0.67497356563E-01 -0.66136524770E-01  0.11489616350E+00  0.51100000000E-03 0. -1.
         11    1    4    4    0    0 -0.13181930642E-01 -0.31552924048E-02 -0.87209824067E-02  0.16125626212E-01  0.51100000000E-03 0.  1.
</event>
<event>
 8    1  0.1054833E+005  0.1043930E+01  0.7957747E-01            NaN
         13   -1    0    0    0    0  0.00000000000E+00  0.00000000000E+00  0.74505805969E-08  0.10566000000E+00  0.10566000000E+00 0.  1.
     999900   -1    0    0    0    0 -0.00000000000E+00 -0.00000000000E+00 -0.74505805969E-08  0.93827000000E+00  0.93827000000E+00 0. -1.
     999902    2    1    2    0    0 -0.47719203283E-02 -0.13120998469E-01  0.18733975426E-01  0.10205656327E+01  0.10202981510E+01 0.  0.
     999903    2    3    3    0    0 -0.69037486898E-02  0.12592052345E+00  0.22637655470E-01  0.12963784200E+00  0.19745041406E-01 0.  0.
         14    1    1    2    0    0  0.47719203283E-02  0.13120998469E-01 -0.18733975426E-01  0.23364367308E-01  0.00000000000E+00 0. -1.
     999901    1    3    3    0    0  0.21318283614E-02 -0.13904152192E+00 -0.39036800439E-02  0.89092779069E+00  0.88000000000E+00 0.  1.
        -11    1    4    4    0    0  0.44855054140E-02  0.78620891013E-01  0.17854853737E-01  0.80749124983E-01  0.51100000000E-03 0. -1.
         11    1    4    4    0    0 -0.11389254104E-01  0.47299632441E-01  0.47828017326E-02  0.48888717017E-01  0.51100000000E-03 0.  1.
</event>
<event>
 8    1  0.1054833E+005  0.1043930E+01  0.7957747E-01            NaN
         13   -1    0    0    0    0  0.00000000000E+00  0.00000000000E+00  0.74505805969E-08  0.10566000000E+00  0.10566000000E+00 0. -1.
     999900   -1    0    0    0    0 -0.00000000000E+00 -0.00000000000E+00 -0.74505805969E-08  0.93827000000E+00  0.93827000000E+00 0.  1.
     999902    2    1    2    0    0 -0.84465257119E-02  0.10050391974E-01  0.20473171744E-01  0.10196091255E+01  0.10193190197E+01 0.  0.
     999903    2    3    3    0    0 -0.72577397620E-01  0.20405324525E-01 -0.10247432821E+00  0.12869045294E+00  0.19400742831E-01 0.  0.
         14    1    1    2    0    0  0.84465257119E-02 -0.10050391974E-01 -0.20473171744E-01  0.24320874505E-01  0.00000000000E+00 0.  1.
     999901    1    3    3    0    0  0.64130871908E-01 -0.10354932552E-01  0.12294749995E+00  0.89091867255E+00  0.88000000000E+00 0. -1.
        -11    1    4    4    0    0 -0.54714236937E-01  0.15196990428E-01 -0.89518911339E-01  0.10601175807E+00  0.51100000000E-03 0.  1.
         11    1    4    4    0    0 -0.17863160683E-01  0.52083340970E-02 -0.12955416870E-01  0.22678694868E-01  0.51100000000E-03 0. -1.
</event>
<event>
 7    1  0.1054833E+005  0.1043930E+01  0.7957747E-01            NaN
         13   -1    0    0    0    0  0.00000000000E+00  0.00000000000E+00  0.74505805969E-08  0.10566000000E+00  0.10566000000E+00 0. -1.
     999900   -1    0    0    0    0 -0.00000000000E+00 -0.00000000000E+00 -0.74505805969E-08  0.93827000000E+00  0.93827000000E+00 0.  1.
     999903    2    1    2    0    0  0.25469604520E-01  0.51620106933E-01  0.79279481426E-01  0.10002025324E+00  0.20136501397E-01 0.  0.
         14    1    1    2    0    0  0.35414970916E-01 -0.23593832384E-01  0.33534472015E-01  0.54179792403E-01  0.00000000000E+00 0. -1.
     999901    1    1    2    0    0 -0.60884575436E-01 -0.28026274549E-01 -0.11281395344E+00  0.88972995436E+00  0.88000000000E+00 0.  1.
        -11    1    3    3    0    0  0.25266261389E-01  0.42262064436E-01  0.54109133800E-01  0.73160956367E-01  0.51100000000E-03 0. -1.
         11    1    3    3    0    0  0.20334313098E-03  0.93580424977E-02  0.25170347626E-01  0.26859296872E-01  0.51100000000E-03 0.  1.
</event>
<event>
 8    1  0.1054833E+005  0.1043930E+01  0.7957747E-01            NaN
         13   -1    0    0    0    0  0.00000000000E+00  0.00000000000E+00  0.74505805969E-08  0.10566000000E+00  0.10566000000E+00 0.  1.
     999900   -1    0    0    0    0 -0.00000000000E+00 -0.00000000000E+00 -0.74505805969E-08  0.93827000000E+00  0.93827000000E+00 0. -1.
     999902    2    1    2    0    0 -0.21055719093E-01 -0.83444536721E-02  0.65708673164E-02  0.10203471776E+01  0.10200746117E+01 0.  0.
     999903    2    3    3    0    0  0.12489440640E+00  0.33232665075E-02 -0.18373536675E-01  0.12790121394E+00  0.20284891601E-01 0.  0.
         14    1    1    2    0    0  0.21055719093E-01  0.83444536721E-02 -0.65708673164E-02  0.23582822369E-01  0.00000000000E+00 0. -1.
     999901    1    3    3    0    0 -0.14595012549E+00 -0.11667720180E-01  0.24944403992E-01  0.89244596369E+00  0.88000000000E+00 0.  1.
        -11    1    4    4    0    0  0.94713686821E-01 -0.62140333045E-02 -0.13800562776E-01  0.95916699980E-01  0.51100000000E-03 0. -1.
         11    1    4    4    0    0  0.30180719575E-01  0.95372998119E-02 -0.45729738993E-02  0.31984513956E-01  0.51100000000E-03 0.  1.
</event>
<event>
 8    1  0.1054833E+005  0.1043930E+01  0.7957747E-01            NaN
         13   -1    0    0    0    0  0.00000000000E+00  0.00000000000E+00  0.74505805969E-08  0.10566000000E+00  0.10566000000E+00 0. -1.
     999900   -1    0    0    0    0 -0.00000000000E+00 -0.00000000000E+00 -0.74505805969E-08  0.93827000000E+00  0.93827000000E+00 0.  1.
     999902    2    1    2    0    0  0.15911874573E-01 -0.15335594017E-01 -0.35909576026E-03  0.10218280285E+01  0.10215889695E+01 0.  0.
     999903    2    3    3    0    0 -0.87862183401E-01 -0.96722800286E-03 -0.94555004133E-01  0.13062189394E+00  0.20018280831E-01 0.  0.
         14    1    1    2    0    0 -0.15911874573E-01  0.15335594017E-01  0.35909576026E-03  0.22101971542E-01  0.00000000000E+00 0.  1.
     999901    1    3    3    0    0  0.10377405797E+00 -0.14368366014E-01  0.94195908373E-01  0.89120613452E+00  0.88000000000E+00 0. -1.
        -11    1    4    4    0    0 -0.31301325035E-01 -0.61582378441E-02 -0.45492240498E-01  0.55565294104E-01  0.51100000000E-03 0.  1.
         11    1    4    4    0    0 -0.56560858365E-01  0.51910098412E-02 -0.49062763636E-01  0.75056599835E-01  0.51100000000E-03 0. -1.
</event>
<event>
 8    1  0.1054833E+005  0.1043930E+01  0.7957747E-01            NaN
         13   -1    0    0    0    0  0.00000000000E+00  0.00000000000E+00  0.74505805969E-08  0.10566000000E+00  0.10566000000E+00 0. -1.
     999900   -1    0    0    0    0 -0.00000000000E+00 -0.00000000000E+00 -0.74505805969E-08  0.93827000000E+00  0.93827000000E+00 0.  1.
     999902    2    1    2    0    0  0.57461709528E-02  0.28880223859E-02  0.21991947220E-01  0.10210170147E+01  0.10207598833E+01 0.  0.
     999903    2    3    3    0    0  0.12450903641E+00 -0.18900700710E-01  0.36544997736E-01  0.13265269867E+00  0.20036590811E-01 0.  0.
         14    1    1    2    0    0 -0.57461709528E-02 -0.28880223859E-02 -0.21991947220E-01  0.22912985324E-01  0.00000000000E+00 0.  1.
     999901    1    3    3    0    0 -0.11876286546E+00  0.21788723096E-01 -0.14553050515E-01  0.88836431600E+00  0.88000000000E+00 0.  1.
        -11    1    4    4    0    0  0.30102520111E-01 -0.11563915665E-01  0.38772563154E-02  0.32483535831E-01  0.51100000000E-03 0. -1.
         11    1    4    4    0    0  0.94406516298E-01 -0.73367850451E-02  0.32667741420E-01  0.10016916284E+00  0.51100000000E-03 0.  1.
</event>
<event>
 8    1  0.1054833E+005  0.1043930E+01  0.7957747E-01            NaN
         13   -1    0    0    0    0  0.00000000000E+00  0.00000000000E+00  0.74505805969E-08  0.10566000000E+00  0.10566000000E+00 0.  1.
     999900   -1    0    0    0    0 -0.00000000000E+00 -0.00000000000E+00 -0.74505805969E-08  0.93827000000E+00  0.93827000000E+00 0.  1.
     999902    2    1    2    0    0 -0.11011150401E-01  0.15265827300E-01 -0.10674700052E-01  0.10222911429E+01  0.10220621022E+01 0.  0.
     999903    2    3    3    0    0  0.98790970639E-01  0.67374727549E-01 -0.54385197804E-01  0.13286298339E+00  0.19895045218E-01 0.  0.
         14    1    1    2    0    0  0.11011150401E-01 -0.15265827300E-01  0.10674700052E-01  0.21638857121E-01  0.00000000000E+00 0.  1.
     999901    1    3    3    0    0 -0.10980212104E+00 -0.52108900249E-01  0.43710497752E-01  0.88942815948E+00  0.88000000000E+00 0. -1.
        -11    1    4    4    0    0  0.13819180878E-01  0.17580046561E-01 -0.14186506901E-01  0.26486711693E-01  0.51100000000E-03 0. -1.
         11    1    4    4    0    0  0.84971789761E-01  0.49794680988E-01 -0.40198690903E-01  0.10637627170E+00  0.51100000000E-03 0.  1.
</event>
<event>
 8    1  0.1054833E+005  0.1043930E+01  0.7957747E-01            NaN
         13   -1    0    0    0    0  0.00000000000E+00  0.00000000000E+00  0.74505805969E-08  0.10566000000E+00  0.10566000000E+00 0.  1.
     999900   -1    0    0    0    0 -0.00000000000E+00 -0.00000000000E+00 -0.74505805969E-08  0.93827000000E+00  0.93827000000E+00 0.  1.
     999902    2    1    2    0    0 -0.21612309635E-01  0.16363718548E-03 -0.71995008361E-02  0.10211494926E+01  0.10208953593E+01 0.  0.
     999903    2    3    3    0    0 -0.29498461029E-01 -0.20437305755E-01  0.12466547585E+00  0.13105120460E+00  0.18576724368E-01 0.  0.
         14    1    1    2    0    0  0.21612309635E-01 -0.16363718548E-03  0.71995008361E-02  0.22780507395E-01  0.00000000000E+00 0. -1.
     999901    1    3    3    0    0  0.78861513940E-02  0.20600942941E-01 -0.13186497669E+00  0.89009828801E+00  0.88000000000E+00 0.  1.
        -11    1    4    4    0    0 -0.81612003209E-02 -0.95328972132E-02  0.73311376197E-01  0.74379434798E-01  0.51100000000E-03 0.  1.
         11    1    4    4    0    0 -0.21337260708E-01 -0.10904408542E-01  0.51354099653E-01  0.56671769801E-01  0.51100000000E-03 0. -1.
</event>
<event>
 8    1  0.1054833E+005  0.1043930E+01  0.7957747E-01            NaN
         13   -1    0    0    0    0  0.00000000000E+00  0.00000000000E+00  0.74505805969E-08  0.10566000000E+00  0.10566000000E+00 0. -1.
     999900   -1    0    0    0    0 -0.00000000000E+00 -0.00000000000E+00 -0.74505805969E-08  0.93827000000E+00  0.93827000000E+00 0.  1.
     999902    2    1    2    0    0  0.11759822529E-01  0.30229931990E-02  0.17631207693E-01  0.10225222584E+01  0.10222981354E+01 0.  0.
     999903    2    3    3    0    0  0.32986938349E-01 -0.10762916360E+00 -0.65000027128E-01  0.13149902013E+00  0.19869922203E-01 0.  0.
         14    1    1    2    0    0 -0.11759822529E-01 -0.30229931990E-02 -0.17631207693E-01  0.21407741556E-01  0.00000000000E+00 0.  1.
     999901    1    3    3    0    0 -0.21227115819E-01  0.11065215680E+00  0.82631234821E-01  0.89102323832E+00  0.88000000000E+00 0. -1.
        -11    1    4    4    0    0  0.90431530862E-02 -0.18336001739E-01 -0.42843043682E-02  0.20895070290E-01  0.51100000000E-03 0. -1.
         11    1    4    4    0    0  0.23943785262E-01 -0.89293161865E-01 -0.60715722760E-01  0.11060394984E+00  0.51100000000E-03 0.  1.
</event>
<event>
 8    1  0.1054833E+005  0.1043930E+01  0.7957747E-01            NaN
         13   -1    0    0    0    0  0.00000000000E+00  0.00000000000E+00  0.74505805969E-08  0.10566000000E+00  0.10566000000E+00 0. -1.
     999900   -1    0    0    0    0 -0.00000000000E+00 -0.00000000000E+00 -0.74505805969E-08  0.93827000000E+00  0.93827000000E+00 0.  1.
     999902    2    1    2    0    0  0.12935849750E-01  0.15669941489E-01 -0.90999541191E-02  0.10216658485E+01  0.10214232294E+01 0.  0.
     999903    2    3    3    0    0  0.37950043365E-01  0.11449104393E+00  0.53873914737E-01  0.13354590826E+00  0.19588414758E-01 0.  0.
         14    1    1    2    0    0 -0.12935849750E-01 -0.15669941489E-01  0.90999541191E-02  0.22264151455E-01  0.00000000000E+00 0.  1.
     999901    1    3    3    0    0 -0.25014193615E-01 -0.98821102441E-01 -0.62973868856E-01  0.88811994028E+00  0.88000000000E+00 0.  1.
        -11    1    4    4    0    0  0.10508494340E-01  0.13748781278E-01  0.11916237658E-01  0.21017023596E-01  0.51100000000E-03 0. -1.
         11    1    4    4    0    0  0.27441549025E-01  0.10074226265E+00  0.41957677079E-01  0.11252888467E+00  0.51100000000E-03 0.  1.
</event>
<event>
 8    1  0.1054833E+005  0.1043930E+01  0.7957747E-01            NaN
         13   -1    0    0    0    0  0.00000000000E+00  0.00000000000E+00  0.74505805969E-08  0.10566000000E+00  0.10566000000E+00 0.  1.
     999900   -1    0    0    0    0 -0.00000000000E+00 -0.00000000000E+00 -0.74505805969E-08  0.93827000000E+00  0.93827000000E+00 0. -1.
     999902    2    1    2    0    0 -0.18925045364E-01 -0.50076349795E-02  0.13254198711E-01  0.10202887747E+01  0.10200148412E+01 0.  0.
     999903    2    3    3    0    0  0.20395035885E-01  0.71847780180E-02  0.12828752634E+00  0.13184778612E+00  0.21414265466E-01 0.  0.
         14    1    1    2    0    0  0.18925045364E-01  0.50076349795E-02 -0.13254198711E-01  0.23641225299E-01  0.00000000000E+00 0. -1.
     999901    1    3    3    0    0 -0.39320081249E-01 -0.12192412997E-01 -0.11503332763E+00  0.88844098858E+00  0.88000000000E+00 0. -1.
        -11    1    4    4    0    0  0.16566204894E-01  0.22940438525E-02  0.40241030400E-01  0.43580998502E-01  0.51100000000E-03 0. -1.
         11    1    4    4    0    0  0.38288309911E-02  0.48907341655E-02  0.88046495944E-01  0.88266787618E-01  0.51100000000E-03 0.  1.
</event>
<event>
 8    1  0.1054833E+005  0.1043930E+01  0.7957747E-01            NaN
         13   -1    0    0    0    0  0.00000000000E+00  0.00000000000E+00  0.74505805969E-08  0.10566000000E+00  0.10566000000E+00 0. -1.
     999900   -1    0    0    0    0 -0.00000000000E+00 -0.00000000000E+00 -0.74505805969E-08  0.93827000000E+00  0.93827000000E+00 0.  1.
     999902    2    1    2    0    0  0.10825179593E-03  0.13068496116E-01  0.19476586700E-01  0.10204750487E+01  0.10202054648E+01 0.  0.
     999903    2    3    3    0    0 -0.89275474010E-01 -0.27986975229E-01 -0.85677168780E-01  0.12877312856E+00  0.22103401224E-01 0.  0.
         14    1    1    2    0    0 -0.10825179593E-03 -0.13068496116E-01 -0.19476586700E-01  0.23454951261E-01  0.00000000000E+00 0.  1.
     999901    1    3    3    0    0  0.89383725806E-01  0.41055471345E-01  0.10515375548E+00  0.89170192018E+00  0.88000000000E+00 0. -1.
        -11    1    4    4    0    0 -0.74301803780E-01 -0.15362493600E-01 -0.73886718513E-01  0.10590690510E+00  0.51100000000E-03 0. -1.
         11    1    4    4    0    0 -0.14973670230E-01 -0.12624481629E-01 -0.11790450268E-01  0.22866223455E-01  0.51100000000E-03 0.  1.
</event>
<event>
 8    1  0.1054833E+005  0.1043930E+01  0.7957747E-01            NaN
         13   -1    0    0    0    0  0.00000000000E+00  0.00000000000E+00  0.74505805969E-08  0.10566000000E+00  0.10566000000E+00 0.  1.
     999900   -1    0    0    0    0 -0.00000000000E+00 -0.00000000000E+00 -0.74505805969E-08  0.93827000000E+00  0.93827000000E+00 0.  1.
     999902    2    1    2    0    0 -0.21763374345E-01 -0.86070630178E-02  0.74220424228E-03  0.10205146874E+01  0.10202460244E+01 0.  0.
     999903    2    3    3    0    0  0.10313303679E+00 -0.65909565522E-01  0.36127504665E-01  0.12914786629E+00  0.19836347133E-01 0.  0.
         14    1    1    2    0    0  0.21763374345E-01  0.86070630178E-02 -0.74220424228E-03  0.23415312592E-01  0.00000000000E+00 0. -1.
     999901    1    3    3    0    0 -0.12489641114E+00  0.57302502504E-01 -0.35385300422E-01  0.89136682112E+00  0.88000000000E+00 0.  1.
        -11    1    4    4    0    0  0.94293663109E-01 -0.57831330452E-01  0.26429297889E-01  0.11373006020E+00  0.51100000000E-03 0. -1.
         11    1    4    4    0    0  0.88393736845E-02 -0.80782350702E-02  0.96982067753E-02  0.15417806090E-01  0.51100000000E-03 0.  1.
</event>
<event>
 8    1  0.1054833E+005  0.1043930E+01  0.7957747E-01            NaN
         13   -1    0    0    0    0  0.00000000000E+00  0.00000000000E+00  0.74505805969E-08  0.10566000000E+00  0.10566000000E+00 0. -1.
     999900   -1    0    0    0    0 -0.00000000000E+00 -0.00000000000E+00 -0.74505805969E-08  0.93827000000E+00  0.93827000000E+00 0.  1.
     999902    2    1    2    0    0  0.46160461822E-02 -0.22499141035E-01  0.32431130956E-02  0.10207343751E+01  0.10204707872E+01 0.  0.
     999903    2    3    3    0    0 -0.84429248473E-01  0.94451872190E-01 -0.80856567582E-02  0.12847043156E+00  0.19743854318E-01 0.  0.
         14    1    1    2    0    0 -0.46160461822E-02  0.22499141035E-01 -0.32431130956E-02  0.23195624851E-01  0.00000000000E+00 0. -1.
     999901    1    3    3    0    0  0.89045294655E-01 -0.11695101322E+00  0.11328769854E-01  0.89226394358E+00  0.88000000000E+00 0.  1.
        -11    1    4    4    0    0 -0.12309632306E-01  0.25848062464E-01 -0.31906045465E-02  0.28811290478E-01  0.51100000000E-03 0. -1.
         11    1    4    4    0    0 -0.72119616167E-01  0.68603809726E-01 -0.48950522117E-02  0.99659141087E-01  0.51100000000E-03 0.  1.
</event>
<event>
 8    1  0.1054833E+005  0.1043930E+01  0.7957747E-01            NaN
         13   -1    0    0    0    0  0.00000000000E+00  0.00000000000E+00  0.74505805969E-08  0.10566000000E+00  0.10566000000E+00 0.  1.
     999900   -1    0    0    0    0 -0.00000000000E+00 -0.00000000000E+00 -0.74505805969E-08  0.93827000000E+00  0.93827000000E+00 0. -1.
     999902    2    1    2    0    0  0.34974607054E-03  0.76610510707E-02  0.19188863329E-01  0.10232653804E+01  0.10230567004E+01 0.  0.
     999903    2    3    3    0    0  0.87634581373E-01  0.98393427178E-01  0.16982175491E-01  0.13430200885E+00  0.19686262549E-01 0.  0.
         14    1    1    2    0    0 -0.34974607054E-03 -0.76610510707E-02 -0.19188863329E-01  0.20664619563E-01  0.00000000000E+00 0. -1.
     999901    1    3    3    0    0 -0.87284835302E-01 -0.90732376107E-01  0.22066878384E-02  0.88896337158E+00  0.88000000000E+00 0. -1.
        -11    1    4    4    0    0  0.27517529029E-01  0.39180515759E-01  0.13920448583E-01  0.49863485927E-01  0.51100000000E-03 0. -1.
         11    1    4    4    0    0  0.60117052344E-01  0.59212911418E-01  0.30617269079E-02  0.84438522925E-01  0.51100000000E-03 0.  1.
</event>
<event>
 8    1  0.1054833E+005  0.1043930E+01  0.7957747E-01            NaN
         13   -1    0    0    0    0  0.00000000000E+00  0.00000000000E+00  0.74505805969E-08  0.10566000000E+00  0.10566000000E+00 0.  1.
     999900   -1    0    0    0    0 -0.00000000000E+00 -0.00000000000E+00 -0.74505805969E-08  0.93827000000E+00  0.93827000000E+00 0.  1.
     999902    2    1    2    0    0  0.19741625096E-01 -0.38479020712E-02 -0.11337777088E-01  0.10208414032E+01  0.10205802699E+01 0.  0.
     999903    2    3    3    0    0 -0.88132181771E-01  0.23988433425E-02 -0.91123898720E-01  0.13064951085E+00  0.31507044536E-01 0.  0.
         14    1    1    2    0    0 -0.19741625096E-01  0.38479020712E-02  0.11337777088E-01  0.23088596776E-01  0.00000000000E+00 0.  1.
     999901    1    3    3    0    0  0.10787380687E+00 -0.62467454137E-02  0.79786121632E-01  0.89019189237E+00  0.88000000000E+00 0. -1.
        -11    1    4    4    0    0 -0.66609350650E-01  0.14199626722E-01 -0.58252484430E-01  0.89621694116E-01  0.51100000000E-03 0. -1.
         11    1    4    4    0    0 -0.21522831121E-01 -0.11800783379E-01 -0.32871414290E-01  0.41027816738E-01  0.51100000000E-03 0.  1.
</event>
<event>
 8    1  0.1054833E+005  0.1043930E+01  0.7957747E-01            NaN
         13   -1    0    0    0    0  0.00000000000E+00  0.00000000000E+00  0.74505805969E-08  0.10566000000E+00  0.10566000000E+00 0.  1.
     999900   -1    0    0    0    0 -0.00000000000E+00 -0.00000000000E+00 -0.74505805969E-08  0.93827000000E+00  0.93827000000E+00 0.  1.
     999902    2    1    2    0    0 -0.12101091859E-02  0.17996711507E-01  0.12723894404E-01  0.10218564077E+01  0.10216179689E+01 0.  0.
     999903    2    3    3    0    0  0.65765314237E-01  0.61301294622E-02 -0.11089567577E+00  0.13061664126E+00  0.20005025031E-01 0.  0.
         14    1    1    2    0    0  0.12101091859E-02 -0.17996711507E-01 -0.12723894404E-01  0.22073592324E-01  0.00000000000E+00 0.  1.
     999901    1    3    3    0    0 -0.66975423423E-01  0.11866582044E-01  0.12361957017E+00  0.89123976642E+00  0.88000000000E+00 0. -1.
        -11    1    4    4    0    0  0.21965598528E-01 -0.60778060406E-02 -0.28389195057E-01  0.36409267528E-01  0.51100000000E-03 0. -1.
         11    1    4    4    0    0  0.43799715710E-01  0.12207935503E-01 -0.82506480709E-01  0.94207373732E-01  0.51100000000E-03 0.  1.
</event>
<event>
 8    1  0.1054833E+005  0.1043930E+01  0.7957747E-01            NaN
         13   -1    0    0    0    0  0.00000000000E+00  0.00000000000E+00  0.74505805969E-08  0.10566000000E+00  0.10566000000E+00 0.  1.
     999900   -1    0    0    0    0 -0.00000000000E+00 -0.00000000000E+00 -0.74505805969E-08  0.93827000000E+00  0.93827000000E+00 0.  1.
     999902    2    1    2    0    0  0.17671961726E-01  0.13232809472E-01 -0.42809573784E-03  0.10218485883E+01  0.10216099787E+01 0.  0.
     999903    2    3    3    0    0  0.85814607648E-01  0.83561200575E-01 -0.58103157846E-01  0.13454034669E+00  0.19455251472E-01 0.  0.
         14    1    1    2    0    0 -0.17671961726E-01 -0.13232809472E-01  0.42809573784E-03  0.22081411725E-01  0.00000000000E+00 0.  1.
     999901    1    3    3    0    0 -0.68142645922E-01 -0.70328391102E-01  0.57675062108E-01  0.88730824158E+00  0.88000000000E+00 0. -1.
        -11    1    4    4    0    0  0.34003998249E-01  0.33224288167E-01 -0.12671696328E-01  0.49203233938E-01  0.51100000000E-03 0.  1.
         11    1    4    4    0    0  0.51810609399E-01  0.50336912407E-01 -0.45431461517E-01  0.85337112756E-01  0.51100000000E-03 0. -1.
</event>
<event>
 8    1  0.1054833E+005  0.1043930E+01  0.7957747E-01            NaN
         13   -1    0    0    0    0  0.00000000000E+00  0.00000000000E+00  0.74505805969E-08  0.10566000000E+00  0.10566000000E+00 0.  1.
     999900   -1    0    0    0    0 -0.00000000000E+00 -0.00000000000E+00 -0.74505805969E-08  0.93827000000E+00  0.93827000000E+00 0.  1.
     999902    2    1    2    0    0  0.16099655125E-01  0.14835222238E-01  0.85927224586E-02  0.10204115478E+01  0.10201404851E+01 0.  0.
     999903    2    3    3    0    0 -0.79848081916E-01 -0.54658144512E-01 -0.80845342268E-01  0.12797977805E+00  0.21900348757E-01 0.  0.
         14    1    1    2    0    0 -0.16099655125E-01 -0.14835222238E-01 -0.85927224586E-02  0.23518452187E-01  0.00000000000E+00 0. -1.
     999901    1    3    3    0    0  0.95947737041E-01  0.69493366750E-01  0.89438064726E-01  0.89243176977E+00  0.88000000000E+00 0. -1.
        -11    1    4    4    0    0 -0.37450754066E-01 -0.15722561621E-01 -0.42631173199E-01  0.58884938425E-01  0.51100000000E-03 0.  1.
         11    1    4    4    0    0 -0.42397327850E-01 -0.38935582890E-01 -0.38214169068E-01  0.69094839622E-01  0.51100000000E-03 0. -1.
</event>
<event>
 8    1  0.1054833E+005  0.1043930E+01  0.7957747E-01            NaN
         13   -1    0    0    0    0  0.00000000000E+00  0.00000000000E+00  0.74505805969E-08  0.10566000000E+00  0.10566000000E+00 0.  1.
     999900   -1    0    0    0    0 -0.00000000000E+00 -0.00000000000E+00 -0.74505805969E-08  0.93827000000E+00  0.93827000000E+00 0.  1.
     999902    2    1    2    0    0  0.14958760898E-01  0.17054921919E-01 -0.12162668564E-02  0.10212118532E+01  0.10209591250E+01 0.  0.
     999903    2    3    3    0    0 -0.14085830838E-01  0.10158540270E+00 -0.82348528987E-01  0.13297121325E+00  0.19546320756E-01 0.  0.
         14    1    1    2    0    0 -0.14958760898E-01 -0.17054921919E-01  0.12162668564E-02  0.22718146806E-01  0.00000000000E+00 0.  1.
     999901    1    3    3    0    0  0.29044591735E-01 -0.84530480779E-01  0.81132262131E-01  0.88824063994E+00  0.88000000000E+00 0. -1.
        -11    1    4    4    0    0 -0.12826755918E-01  0.33235908689E-01 -0.22715390668E-01  0.42254010318E-01  0.51100000000E-03 0.  1.
         11    1    4    4    0    0 -0.12590749194E-02  0.68349494008E-01 -0.59633138320E-01  0.90717202931E-01  0.51100000000E-03 0. -1.
</event>
<event>
 7    1  0.1054833E+005  0.1043930E+01  0.7957747E-01            NaN
         13   -1    0    0    0    0  0.00000000000E+00  0.00000000000E+00  0.74505805969E-08  0.10566000000E+00  0.10566000000E+00 0.  1.
     999900   -1    0    0    0    0 -0.00000000000E+00 -0.00000000000E+00 -0.74505805969E-08  0.93827000000E+00  0.93827000000E+00 0. -1.
     999902    2    1    2    0    0  0.61334073274E-02 -0.15781982848E-01  0.22939050653E-01  0.10154187792E+01  0.10150184271E+01 0.  0.
         14    1    1    2    0    0 -0.61334073274E-02  0.15781982848E-01 -0.22939050653E-01  0.28511220825E-01  0.00000000000E+00 0. -1.
     999901    1    3    3    0    0  0.95985638981E-01  0.32004988766E-01  0.86439593048E-01  0.89000526147E+00  0.88000000000E+00 0. -1.
        -11    1    3    3    0    0 -0.55804340698E-01 -0.43983799089E-01 -0.55669452992E-01  0.90266539429E-01  0.51100000000E-03 0.  1.
         11    1    3    3    0    0 -0.34047890955E-01 -0.38031725251E-02 -0.78310894022E-02  0.35146978277E-01  0.51100000000E-03 0. -1.
</event>
<event>
 8    1  0.1054833E+005  0.1043930E+01  0.7957747E-01            NaN
         13   -1    0    0    0    0  0.00000000000E+00  0.00000000000E+00  0.74505805969E-08  0.10566000000E+00  0.10566000000E+00 0.  1.
     999900   -1    0    0    0    0 -0.00000000000E+00 -0.00000000000E+00 -0.74505805969E-08  0.93827000000E+00  0.93827000000E+00 0.  1.
     999902    2    1    2    0    0 -0.12169201390E-01  0.86412291857E-02  0.18699203065E-01  0.10200046891E+01  0.10197240535E+01 0.  0.
     999903    2    3    3    0    0 -0.23667533378E-01  0.35281526570E-01 -0.11976533220E+00  0.12870544388E+00  0.20406328256E-01 0.  0.
         14    1    1    2    0    0  0.12169201390E-01 -0.86412291857E-02 -0.18699203065E-01  0.23925310856E-01  0.00000000000E+00 0. -1.
     999901    1    3    3    0    0  0.11498331988E-01 -0.26640297384E-01  0.13846453527E+00  0.89129924527E+00  0.88000000000E+00 0. -1.
        -11    1    4    4    0    0 -0.18539802442E-01  0.31519278819E-01 -0.74494820036E-01  0.82987520418E-01  0.51100000000E-03 0. -1.
         11    1    4    4    0    0 -0.51277309366E-02  0.37622477506E-02 -0.45270512167E-01  0.45717923461E-01  0.51100000000E-03 0.  1.
</event>
<event>
 8    1  0.1054833E+005  0.1043930E+01  0.7957747E-01            NaN
         13   -1    0    0    0    0  0.00000000000E+00  0.00000000000E+00  0.74505805969E-08  0.10566000000E+00  0.10566000000E+00 0. -1.
     999900   -1    0    0    0    0 -0.00000000000E+00 -0.00000000000E+00 -0.74505805969E-08  0.93827000000E+00  0.93827000000E+00 0.  1.
     999902    2    1    2    0    0  0.10446697442E-01  0.15282897980E-01 -0.12966009882E-01  0.10213287197E+01  0.10210786139E+01 0.  0.
     999903    2    3    3    0    0  0.73902708875E-01 -0.18412541200E-01 -0.10817702380E+00  0.13328188245E+00  0.16160434981E-01 0.  0.
         14    1    1    2    0    0 -0.10446697442E-01 -0.15282897980E-01  0.12966009882E-01  0.22601280282E-01  0.00000000000E+00 0. -1.
     999901    1    3    3    0    0 -0.63456011433E-01  0.33695439179E-01  0.95211013920E-01  0.88804683727E+00  0.88000000000E+00 0. -1.
        -11    1    4    4    0    0  0.31530979998E-01 -0.48742776878E-02 -0.58205668710E-01  0.66378628139E-01  0.51100000000E-03 0.  1.
         11    1    4    4    0    0  0.42371728877E-01 -0.13538263512E-01 -0.49971355091E-01  0.66903254312E-01  0.51100000000E-03 0. -1.
</event>
<event>
 8    1  0.1054833E+005  0.1043930E+01  0.7957747E-01            NaN
         13   -1    0    0    0    0  0.00000000000E+00  0.00000000000E+00  0.74505805969E-08  0.10566000000E+00  0.10566000000E+00 0. -1.
     999900   -1    0    0    0    0 -0.00000000000E+00 -0.00000000000E+00 -0.74505805969E-08  0.93827000000E+00  0.93827000000E+00 0. -1.
     999902    2    1    2    0    0 -0.77981014985E-02 -0.19307938844E-01  0.10316878204E-01  0.10206911346E+01  0.10204265517E+01 0.  0.
     999903    2    3    3    0    0 -0.19085798188E-01  0.77304923005E-01 -0.99247777763E-01  0.12857798538E+00  0.18489405605E-01 0.  0.
         14    1    1    2    0    0  0.77981014985E-02  0.19307938844E-01 -0.10316878204E-01  0.23238865404E-01  0.00000000000E+00 0. -1.
     999901    1    3    3    0    0  0.11287696689E-01 -0.96612861849E-01  0.10956465597E+00  0.89211314922E+00  0.88000000000E+00 0.  1.
        -11    1    4    4    0    0 -0.15838525554E-01  0.26963709789E-01 -0.36585415596E-01  0.48131635051E-01  0.51100000000E-03 0. -1.
         11    1    4    4    0    0 -0.32472726341E-02  0.50341213216E-01 -0.62662362167E-01  0.80446350327E-01  0.51100000000E-03 0.  1.
</event>
<event>
 8    1  0.1054833E+005  0.1043930E+01  0.7957747E-01            NaN
         13   -1    0    0    0    0  0.00000000000E+00  0.00000000000E+00  0.74505805969E-08  0.10566000000E+00  0.10566000000E+00 0.  1.
     999900   -1    0    0    0    0 -0.00000000000E+00 -0.00000000000E+00 -0.74505805969E-08  0.93827000000E+00  0.93827000000E+00 0. -1.
     999902    2    1    2    0    0 -0.94260575190E-02  0.10270688257E-01  0.15363315712E-01  0.10231846616E+01  0.10229743313E+01 0.  0.
     999903    2    3    3    0    0  0.11879084917E+00  0.48493005545E-01  0.30921774443E-01  0.13293605227E+00  0.15905987030E-01 0.  0.
         14    1    1    2    0    0  0.94260575190E-02 -0.10270688257E-01 -0.15363315712E-01  0.20745338447E-01  0.00000000000E+00 0. -1.
     999901    1    3    3    0    0 -0.12821690669E+00 -0.38222317287E-01 -0.15558458731E-01  0.89024860929E+00  0.88000000000E+00 0. -1.
        -11    1    4    4    0    0  0.64934987022E-01  0.28402915807E-01  0.24964277272E-01  0.75144889557E-01  0.51100000000E-03 0.  1.
         11    1    4    4    0    0  0.53855862150E-01  0.20090089738E-01  0.59574971714E-02  0.57791162708E-01  0.51100000000E-03 0. -1.
</event>
<event>
 8    1  0.1054833E+005  0.1043930E+01  0.7957747E-01            NaN
         13   -1    0    0    0    0  0.00000000000E+00  0.00000000000E+00  0.74505805969E-08  0.10566000000E+00  0.10566000000E+00 0. -1.
     999900   -1    0    0    0    0 -0.00000000000E+00 -0.00000000000E+00 -0.74505805969E-08  0.93827000000E+00  0.93827000000E+00 0.  1.
     999902    2    1    2    0    0  0.52104992301E-02  0.23883252915E-01 -0.32934143062E-02  0.10192641197E+01  0.10189656226E+01 0.  0.
     999903    2    3    3    0    0  0.32409501140E-01  0.36502931633E-01  0.11899249350E+00  0.13030243031E+00  0.20896651747E-01 0.  0.
         14    1    1    2    0    0 -0.52104992301E-02 -0.23883252915E-01  0.32934143062E-02  0.24665880276E-01  0.00000000000E+00 0.  1.
     999901    1    3    3    0    0 -0.27199001910E-01 -0.12619678718E-01 -0.12228590780E+00  0.88896168941E+00  0.88000000000E+00 0.  1.
        -11    1    4    4    0    0  0.20610027985E-01  0.27781746986E-01  0.57704877016E-01  0.67280849218E-01  0.51100000000E-03 0. -1.
         11    1    4    4    0    0  0.11799473155E-01  0.87211846468E-02  0.61287616482E-01  0.63021581093E-01  0.51100000000E-03 0.  1.
</event>
<event>
 8    1  0.1054833E+005  0.1043930E+01  0.7957747E-01            NaN
         13   -1    0    0    0    0  0.00000000000E+00  0.00000000000E+00  0.74505805969E-08  0.10566000000E+00  0.10566000000E+00 0.  1.
     999900   -1    0    0    0    0 -0.00000000000E+00 -0.00000000000E+00 -0.74505805969E-08  0.93827000000E+00  0.93827000000E+00 0. -1.
     999902    2    1    2    0    0  0.90743697571E-02 -0.17816291547E-01 -0.14236756767E-01  0.10193851497E+01  0.10190896103E+01 0.  0.
     999903    2    3    3    0    0 -0.78898678729E-01 -0.66464977571E-01 -0.79040326078E-01  0.13129424532E+00  0.18660411575E-01 0.  0.
         14    1    1    2    0    0 -0.90743697571E-02  0.17816291547E-01  0.14236756767E-01  0.24544850259E-01  0.00000000000E+00 0. -1.
     999901    1    3    3    0    0  0.87973048486E-01  0.48648686024E-01  0.64803569311E-01  0.88809090442E+00  0.88000000000E+00 0.  1.
        -11    1    4    4    0    0 -0.30978287537E-01 -0.36979460982E-01 -0.31342510012E-01  0.57530417068E-01  0.51100000000E-03 0. -1.
         11    1    4    4    0    0 -0.47920391192E-01 -0.29485516590E-01 -0.47697816066E-01  0.73763828257E-01  0.51100000000E-03 0.  1.
</event>
<event>
 8    1  0.1054833E+005  0.1043930E+01  0.7957747E-01            NaN
         13   -1    0    0    0    0  0.00000000000E+00  0.00000000000E+00  0.74505805969E-08  0.10566000000E+00  0.10566000000E+00 0. -1.
     999900   -1    0    0    0    0 -0.00000000000E+00 -0.00000000000E+00 -0.74505805969E-08  0.93827000000E+00  0.93827000000E+00 0.  1.
     999902    2    1    2    0    0  0.16428641119E-01 -0.58918723890E-02  0.15492860972E-01  0.10205924091E+01  0.10203255472E+01 0.  0.
     999903    2    3    3    0    0 -0.95162605439E-01 -0.85218870686E-01 -0.11867859780E-01  0.12958512066E+00  0.18255958062E-01 0.  0.
         14    1    1    2    0    0 -0.16428641119E-01  0.58918723890E-02 -0.15492860972E-01  0.23337590929E-01  0.00000000000E+00 0. -1.
     999901    1    3    3    0    0  0.11159124656E+00  0.79326998297E-01  0.27360720752E-01  0.89100728841E+00  0.88000000000E+00 0. -1.
        -11    1    4    4    0    0 -0.36019213426E-01 -0.28931396267E-01  0.41206221034E-02  0.46385882263E-01  0.51100000000E-03 0.  1.
         11    1    4    4    0    0 -0.59143392013E-01 -0.56287474419E-01 -0.15988481884E-01  0.83199238394E-01  0.51100000000E-03 0. -1.
</event>
<event>
 8    1  0.1054833E+005  0.1043930E+01  0.7957747E-01            NaN
         13   -1    0    0    0    0  0.00000000000E+00  0.00000000000E+00  0.74505805969E-08  0.10566000000E+00  0.10566000000E+00 0. -1.
     999900   -1    0    0    0    0 -0.00000000000E+00 -0.00000000000E+00 -0.74505805969E-08  0.93827000000E+00  0.93827000000E+00 0. -1.
     999902    2    1    2    0    0 -0.23857685322E-01 -0.12603396383E-02  0.26276688561E-03  0.10200376026E+01  0.10197577478E+01 0.  0.
     999903    2    3    3    0    0 -0.17777032901E-01  0.93459007335E-01  0.87393298691E-01  0.13065553705E+00  0.19561997742E-01 0.  0.
         14    1    1    2    0    0  0.23857685322E-01  0.12603396383E-02 -0.26276688561E-03  0.23892397355E-01  0.00000000000E+00 0.  1.
     999901    1    3    3    0    0 -0.60806524210E-02 -0.94719346973E-01 -0.87130531805E-01  0.88938206559E+00  0.88000000000E+00 0. -1.
        -11    1    4    4    0    0 -0.15419087250E-01  0.48813296379E-01  0.36273402408E-01  0.62741589064E-01  0.51100000000E-03 0.  1.
         11    1    4    4    0    0 -0.23579456508E-02  0.44645710955E-01  0.51119896283E-01  0.67913947988E-01  0.51100000000E-03 0. -1.
</event>
<event>
 8    1  0.1054833E+005  0.1043930E+01  0.7957747E-01            NaN
         13   -1    0    0    0    0  0.00000000000E+00  0.00000000000E+00  0.74505805969E-08  0.10566000000E+00  0.10566000000E+00 0.  1.
     999900   -1    0    0    0    0 -0.00000000000E+00 -0.00000000000E+00 -0.74505805969E-08  0.93827000000E+00  0.93827000000E+00 0. -1.
     999902    2    1    2    0    0 -0.80196151723E-02  0.77531558957E-02 -0.21435880037E-01  0.10197655094E+01  0.10194791668E+01 0.  0.
     999903    2    3    3    0    0  0.45435545749E-01 -0.10122959454E-01 -0.12221326086E+00  0.13222222018E+00  0.19487720533E-01 0.  0.
         14    1    1    2    0    0  0.80196151723E-02 -0.77531558957E-02  0.21435880037E-01  0.24164490618E-01  0.00000000000E+00 0.  1.
     999901    1    3    3    0    0 -0.53455160921E-01  0.17876115350E-01  0.10077738083E+00  0.88754328921E+00  0.88000000000E+00 0.  1.
        -11    1    4    4    0    0  0.41471439761E-01 -0.24062392613E-02 -0.10548824854E+00  0.11337416816E+00  0.51100000000E-03 0.  1.
         11    1    4    4    0    0  0.39641059877E-02 -0.77167201931E-02 -0.16725012320E-01  0.18848052019E-01  0.51100000000E-03 0. -1.
</event>
<event>
 8    1  0.1054833E+005  0.1043930E+01  0.7957747E-01            NaN
         13   -1    0    0    0    0  0.00000000000E+00  0.00000000000E+00  0.74505805969E-08  0.10566000000E+00  0.10566000000E+00 0.  1.
     999900   -1    0    0    0    0 -0.00000000000E+00 -0.00000000000E+00 -0.74505805969E-08  0.93827000000E+00  0.93827000000E+00 0. -1.
     999902    2    1    2    0    0  0.22818399935E-01  0.58222098366E-04  0.66602847740E-02  0.10201593846E+01  0.10198824088E+01 0.  0.
     999903    2    3    3    0    0  0.25385707294E-01  0.11863900152E+00 -0.44364551630E-01  0.13073736647E+00  0.20109667704E-01 0.  0.
         14    1    1    2    0    0 -0.22818399935E-01 -0.58222098366E-04 -0.66602847740E-02  0.23770615446E-01  0.00000000000E+00 0. -1.
     999901    1    3    3    0    0 -0.25673073588E-02 -0.11858077942E+00  0.51024836404E-01  0.88942201808E+00  0.88000000000E+00 0.  1.
        -11    1    4    4    0    0  0.16991272250E-01  0.44807038605E-01 -0.10424292050E-01  0.49043868393E-01  0.51100000000E-03 0.  1.
         11    1    4    4    0    0  0.83944350438E-02  0.73831962914E-01 -0.33940259579E-01  0.81693498081E-01  0.51100000000E-03 0. -1.
</event>
<event>
 8    1  0.1054833E+005  0.1043930E+01  0.7957747E-01            NaN
         13   -1    0    0    0    0  0.00000000000E+00  0.00000000000E+00  0.74505805969E-08  0.10566000000E+00  0.10566000000E+00 0.  1.
     999900   -1    0    0    0    0 -0.00000000000E+00 -0.00000000000E+00 -0.74505805969E-08  0.93827000000E+00  0.93827000000E+00 0. -1.
     999902    2    1    2    0    0 -0.19122226147E-01 -0.89206398953E-03 -0.17451245453E-01  0.10180263076E+01  0.10176966944E+01 0.  0.
     999903    2    3    3    0    0 -0.23442615540E-01  0.11516033270E+00  0.46995077556E-01  0.12805993012E+00  0.19476907769E-01 0.  0.
         14    1    1    2    0    0  0.19122226147E-01  0.89206398953E-03  0.17451245453E-01  0.25903692378E-01  0.00000000000E+00 0.  1.
     999901    1    3    3    0    0  0.43203893936E-02 -0.11605239669E+00 -0.64446323010E-01  0.88996637751E+00  0.88000000000E+00 0. -1.
        -11    1    4    4    0    0 -0.19144722347E-01  0.46439045386E-01  0.21349296713E-01  0.54581672027E-01  0.51100000000E-03 0.  1.
         11    1    4    4    0    0 -0.42978931934E-02  0.68721287312E-01  0.25645780843E-01  0.73478258089E-01  0.51100000000E-03 0. -1.
</event>
<event>
 8    1  0.1054833E+005  0.1043930E+01  0.7957747E-01            NaN
         13   -1    0    0    0    0  0.00000000000E+00  0.00000000000E+00  0.74505805969E-08  0.10566000000E+00  0.10566000000E+00 0. -1.
     999900   -1    0    0    0    0 -0.00000000000E+00 -0.00000000000E+00 -0.74505805969E-08  0.93827000000E+00  0.93827000000E+00 0. -1.
     999902    2    1    2    0    0  0.16054502754E-01  0.11017826068E-01  0.11644568497E-01  0.10212422164E+01  0.10209901709E+01 0.  0.
     999903    2    3    3    0    0 -0.68019865711E-01 -0.83614241483E-01 -0.67544785494E-01  0.12866466713E+00  0.19345671627E-01 0.  0.
         14    1    1    2    0    0 -0.16054502754E-01 -0.11017826068E-01 -0.11644568497E-01  0.22687783616E-01  0.00000000000E+00 0.  1.
     999901    1    3    3    0    0  0.84074368465E-01  0.94632067551E-01  0.79189353991E-01  0.89257754925E+00  0.88000000000E+00 0.  1.
        -11    1    4    4    0    0 -0.62279149396E-01 -0.65909543350E-01 -0.58947147342E-01  0.10815631121E+00  0.51100000000E-03 0.  1.
         11    1    4    4    0    0 -0.57407163155E-02 -0.17704698133E-01 -0.85976381516E-02  0.20508355921E-01  0.51100000000E-03 0. -1.
</event>
<event>
 8    1  0.1054833E+005  0.1043930E+01  0.7957747E-01            NaN
         13   -1    0    0    0    0  0.00000000000E+00  0.00000000000E+00  0.74505805969E-08  0.10566000000E+00  0.10566000000E+00 0.  1.
     999900   -1    0    0    0    0 -0.00000000000E+00 -0.00000000000E+00 -0.74505805969E-08  0.93827000000E+00  0.93827000000E+00 0.  1.
     999902    2    1    2    0    0 -0.17137366255E-01 -0.87375838954E-02 -0.13641305066E-01  0.10203478055E+01  0.10200752542E+01 0.  0.
     999903    2    3    3    0    0 -0.12585067943E+00  0.36048788967E-01  0.22531330762E-02  0.13238551077E+00  0.19568805655E-01 0.  0.
         14    1    1    2    0    0  0.17137366255E-01  0.87375838954E-02  0.13641305066E-01  0.23582194520E-01  0.00000000000E+00 0.  1.
     999901    1    3    3    0    0  0.10871331318E+00 -0.44786372863E-01 -0.15894438142E-01  0.88796229471E+00  0.88000000000E+00 0. -1.
        -11    1    4    4    0    0 -0.46832589109E-01  0.13356646891E-01 -0.86085502835E-02  0.49457655401E-01  0.51100000000E-03 0. -1.
         11    1    4    4    0    0 -0.79018090323E-01  0.22692142076E-01  0.10861683360E-01  0.82927855372E-01  0.51100000000E-03 0.  1.
</event>
<event>
 8    1  0.1054833E+005  0.1043930E+01  0.7957747E-01            NaN
         13   -1    0    0    0    0  0.00000000000E+00  0.00000000000E+00  0.74505805969E-08  0.10566000000E+00  0.10566000000E+00 0.  1.
     999900   -1    0    0    0    0 -0.00000000000E+00 -0.00000000000E+00 -0.74505805969E-08  0.93827000000E+00  0.93827000000E+00 0. -1.
     999902    2    1    2    0    0  0.19599595963E-01 -0.92606907535E-02  0.10398639460E-01  0.10198876154E+01  0.10196041937E+01 0.  0.
     999903    2    3    3    0    0 -0.11718348503E+00 -0.37132740956E-01  0.31830054451E-01  0.12862684099E+00  0.20515902201E-01 0.  0.
         14    1    1    2    0    0 -0.19599595963E-01  0.92606907535E-02 -0.10398639460E-01  0.24042384611E-01  0.00000000000E+00 0.  1.
     999901    1    3    3    0    0  0.13678308099E+00  0.27872050202E-01 -0.21431414990E-01  0.89126077440E+00  0.88000000000E+00 0.  1.
        -11    1    4    4    0    0 -0.24605495256E-01 -0.16488736348E-01  0.10276977467E-01  0.31355800261E-01  0.51100000000E-03 0.  1.
         11    1    4    4    0    0 -0.92577989773E-01 -0.20644004608E-01  0.21553076983E-01  0.97271040732E-01  0.51100000000E-03 0. -1.
</event>
<event>
 8    1  0.1054833E+005  0.1043930E+01  0.7957747E-01            NaN
         13   -1    0    0    0    0  0.00000000000E+00  0.00000000000E+00  0.74505805969E-08  0.10566000000E+00  0.10566000000E+00 0.  1.
     999900   -1    0    0    0    0 -0.00000000000E+00 -0.00000000000E+00 -0.74505805969E-08  0.93827000000E+00  0.93827000000E+00 0. -1.
     999902    2    1    2    0    0 -0.25388543199E-02 -0.23094235491E-01  0.35400021194E-02  0.10204284871E+01  0.10201578192E+01 0.  0.
     999903    2    3    3    0    0 -0.17535066894E-01 -0.12526789501E+00  0.38923957333E-01  0.13368367183E+00  0.18887180002E-01 0.  0.
         14    1    1    2    0    0  0.25388543199E-02  0.23094235491E-01 -0.35400021194E-02  0.23501512912E-01  0.00000000000E+00 0.  1.
     999901    1    3    3    0    0  0.14996212574E-01  0.10217365952E+00 -0.35383955214E-01  0.88674481525E+00  0.88000000000E+00 0. -1.
        -11    1    4    4    0    0 -0.92828363634E-02 -0.17625744694E-01  0.56378315405E-02  0.20709519368E-01  0.51100000000E-03 0.  1.
         11    1    4    4    0    0 -0.82522305305E-02 -0.10764215032E+00  0.33286125793E-01  0.11297415247E+00  0.51100000000E-03 0. -1.
</event>
<event>
 8    1  0.1054833E+005  0.1043930E+01  0.7957747E-01            NaN
         13   -1    0    0    0    0  0.00000000000E+00  0.00000000000E+00  0.74505805969E-08  0.10566000000E+00  0.10566000000E+00 0. -1.
     999900   -1    0    0    0    0 -0.00000000000E+00 -0.00000000000E+00 -0.74505805969E-08  0.93827000000E+00  0.93827000000E+00 0.  1.
     999902    2    1    2    0    0 -0.11522370463E-01 -0.35920228059E-02 -0.20373302692E-01  0.10202500694E+01  0.10199752277E+01 0.  0.
     999903    2    3    3    0    0  0.86490088605E-01  0.12051557997E-01 -0.96308386496E-01  0.13142089535E+00  0.19245023988E-01 0.  0.
         14    1    1    2    0    0  0.11522370463E-01  0.35920228059E-02  0.20373302692E-01  0.23679930564E-01  0.00000000000E+00 0. -1.
     999901    1    3    3    0    0 -0.98012459068E-01 -0.15643580803E-01  0.75935083804E-01  0.88882917409E+00  0.88000000000E+00 0. -1.
        -11    1    4    4    0    0  0.53497762908E-01  0.37417743043E-03 -0.48825962023E-01  0.72431942770E-01  0.51100000000E-03 0. -1.
         11    1    4    4    0    0  0.32992325697E-01  0.11677380566E-01 -0.47482424473E-01  0.58988952581E-01  0.51100000000E-03 0.  1.
</event>
<event>
 8    1  0.1054833E+005  0.1043930E+01  0.7957747E-01            NaN
         13   -1    0    0    0    0  0.00000000000E+00  0.00000000000E+00  0.74505805969E-08  0.10566000000E+00  0.10566000000E+00 0.  1.
     999900   -1    0    0    0    0 -0.00000000000E+00 -0.00000000000E+00 -0.74505805969E-08  0.93827000000E+00  0.93827000000E+00 0.  1.
     999902    2    1    2    0    0 -0.16301007952E-01  0.41903210476E-02  0.16603433951E-01  0.10202877567E+01  0.10200137993E+01 0.  0.
     999903    2    3    3    0    0 -0.11017660672E+00 -0.34194151925E-01  0.63474490411E-01  0.13322355846E+00  0.20282527027E-01 0.  0.
         14    1    1    2    0    0  0.16301007952E-01 -0.41903210476E-02 -0.16603433951E-01  0.23642243330E-01  0.00000000000E+00 0. -1.
     999901    1    3    3    0    0  0.93875598766E-01  0.38384472972E-01 -0.46871056460E-01  0.88706419821E+00  0.88000000000E+00 0. -1.
        -11    1    4    4    0    0 -0.48136565532E-02 -0.52674709384E-02  0.78355497481E-02  0.10610113117E-01  0.51100000000E-03 0. -1.
         11    1    4    4    0    0 -0.10536295016E+00 -0.28926680986E-01  0.55638940663E-01  0.12261344534E+00  0.51100000000E-03 0.  1.
</event>
<event>
 8    1  0.1054833E+005  0.1043930E+01  0.7957747E-01            NaN
         13   -1    0    0    0    0  0.00000000000E+00  0.00000000000E+00  0.74505805969E-08  0.10566000000E+00  0.10566000000E+00 0.  1.
     999900   -1    0    0    0    0 -0.00000000000E+00 -0.00000000000E+00 -0.74505805969E-08  0.93827000000E+00  0.93827000000E+00 0. -1.
     999902    2    1    2    0    0 -0.13953577347E-01  0.14949446273E-01 -0.13239295592E-01  0.10195688175E+01  0.10192777376E+01 0.  0.
     999903    2    3    3    0    0 -0.60048686309E-01 -0.77923212949E-01  0.80157756675E-01  0.12857325115E+00  0.20686785922E-01 0.  0.
         14    1    1    2    0    0  0.13953577347E-01 -0.14949446273E-01  0.13239295592E-01  0.24361182492E-01  0.00000000000E+00 0.  1.
     999901    1    3    3    0    0  0.46095108961E-01  0.92872659222E-01 -0.93397052267E-01  0.89099556636E+00  0.88000000000E+00 0. -1.
        -11    1    4    4    0    0 -0.27870390214E-01 -0.43371214964E-01  0.29836284285E-01  0.59567490455E-01  0.51100000000E-03 0.  1.
         11    1    4    4    0    0 -0.32178296095E-01 -0.34551997985E-01  0.50321472390E-01  0.69005760693E-01  0.51100000000E-03 0. -1.
</event>
<event>
 8    1  0.1054833E+005  0.1043930E+01  0.7957747E-01            NaN
         13   -1    0    0    0    0  0.00000000000E+00  0.00000000000E+00  0.74505805969E-08  0.10566000000E+00  0.10566000000E+00 0.  1.
     999900   -1    0    0    0    0 -0.00000000000E+00 -0.00000000000E+00 -0.74505805969E-08  0.93827000000E+00  0.93827000000E+00 0. -1.
     999902    2    1    2    0    0 -0.21999709610E-01 -0.86458597641E-02 -0.58616739946E-02  0.10195764102E+01  0.10192855139E+01 0.  0.
     999903    2    3    3    0    0  0.76536727588E-01 -0.37176856826E-01  0.93796254873E-01  0.12802991672E+00  0.18813101672E-01 0.  0.
         14    1    1    2    0    0  0.21999709610E-01  0.86458597641E-02  0.58616739946E-02  0.24353589797E-01  0.00000000000E+00 0.  1.
     999901    1    3    3    0    0 -0.98536437199E-01  0.28530997062E-01 -0.99657928868E-01  0.89154649348E+00  0.88000000000E+00 0. -1.
        -11    1    4    4    0    0  0.64417775593E-01 -0.31679037877E-01  0.87834565055E-01  0.11343889629E+00  0.51100000000E-03 0.  1.
         11    1    4    4    0    0  0.12118951995E-01 -0.54978189496E-02  0.59616898185E-02  0.14591020429E-01  0.51100000000E-03 0. -1.
</event>
<event>
 8    1  0.1054833E+005  0.1043930E+01  0.7957747E-01            NaN
         13   -1    0    0    0    0  0.00000000000E+00  0.00000000000E+00  0.74505805969E-08  0.10566000000E+00  0.10566000000E+00 0. -1.
     999900   -1    0    0    0    0 -0.00000000000E+00 -0.00000000000E+00 -0.74505805969E-08  0.93827000000E+00  0.93827000000E+00 0. -1.
     999902    2    1    2    0    0  0.12635248610E-01  0.21260437871E-01  0.18172944511E-01  0.10132394210E+01  0.10127745123E+01 0.  0.
     999903    2    3    3    0    0 -0.50787657816E-01 -0.10712284392E+00 -0.14746190373E-01  0.12105760012E+00  0.19565340311E-01 0.  0.
         14    1    1    2    0    0 -0.12635248610E-01 -0.21260437871E-01 -0.18172944511E-01  0.30690578980E-01  0.00000000000E+00 0.  1.
     999901    1    3    3    0    0  0.63422906425E-01  0.12838328179E+00  0.32919134884E-01  0.89218182090E+00  0.88000000000E+00 0.  1.
        -11    1    4    4    0    0 -0.33871345246E-01 -0.49744788349E-01 -0.43665212276E-02  0.60341856330E-01  0.51100000000E-03 0.  1.
         11    1    4    4    0    0 -0.16916312570E-01 -0.57378055566E-01 -0.10379669145E-01  0.60715743791E-01  0.51100000000E-03 0. -1.
</event>
<event>
 8    1  0.1054833E+005  0.1043930E+01  0.7957747E-01            NaN
         13   -1    0    0    0    0  0.00000000000E+00  0.00000000000E+00  0.74505805969E-08  0.10566000000E+00  0.10566000000E+00 0. -1.
     999900   -1    0    0    0    0 -0.00000000000E+00 -0.00000000000E+00 -0.74505805969E-08  0.93827000000E+00  0.93827000000E+00 0.  1.
     999902    2    1    2    0    0 -0.92781080407E-02  0.16971458669E-01 -0.15066544880E-01  0.10194123640E+01  0.10191174876E+01 0.  0.
     999903    2    3    3    0    0  0.65995808662E-01  0.10650504960E+00  0.30654272020E-01  0.13049570904E+00  0.19765458114E-01 0.  0.
         14    1    1    2    0    0  0.92781080407E-02 -0.16971458669E-01  0.15066544880E-01  0.24517635954E-01  0.00000000000E+00 0. -1.
     999901    1    3    3    0    0 -0.75273916703E-01 -0.89533590932E-01 -0.45720816900E-01  0.88891665500E+00  0.88000000000E+00 0. -1.
        -11    1    4    4    0    0  0.41702973594E-01  0.80100552549E-01  0.27843286081E-01  0.94502625498E-01  0.51100000000E-03 0. -1.
         11    1    4    4    0    0  0.24292835068E-01  0.26404497052E-01  0.28109859385E-02  0.35993083546E-01  0.51100000000E-03 0.  1.
</event>
<event>
 8    1  0.1054833E+005  0.1043930E+01  0.7957747E-01            NaN
         13   -1    0    0    0    0  0.00000000000E+00  0.00000000000E+00  0.74505805969E-08  0.10566000000E+00  0.10566000000E+00 0. -1.
     999900   -1    0    0    0    0 -0.00000000000E+00 -0.00000000000E+00 -0.74505805969E-08  0.93827000000E+00  0.93827000000E+00 0. -1.
     999902    2    1    2    0    0 -0.68434704860E-02  0.36128491730E-02 -0.22962234965E-01  0.10196988217E+01  0.10194108774E+01 0.  0.
     999903    2    3    3    0    0 -0.17013630705E-01  0.96871342124E-01 -0.86282796814E-01  0.13245022507E+00  0.20611175112E-01 0.  0.
         14    1    1    2    0    0  0.68434704860E-02 -0.36128491730E-02  0.22962234965E-01  0.24231178305E-01  0.00000000000E+00 0. -1.
     999901    1    3    3    0    0  0.10170160219E-01 -0.93258492951E-01  0.63320561849E-01  0.88724859663E+00  0.88000000000E+00 0. -1.
        -11    1    4    4    0    0 -0.13308229192E-01  0.54385318693E-01 -0.61293678506E-01  0.83018359411E-01  0.51100000000E-03 0.  1.
         11    1    4    4    0    0 -0.37054015127E-02  0.42486023431E-01 -0.24989118308E-01  0.49431865656E-01  0.51100000000E-03 0. -1.
</event>
<event>
 8    1  0.1054833E+005  0.1043930E+01  0.7957747E-01            NaN
         13   -1    0    0    0    0  0.00000000000E+00  0.00000000000E+00  0.74505805969E-08  0.10566000000E+00  0.10566000000E+00 0. -1.
     999900   -1    0    0    0    0 -0.00000000000E+00 -0.00000000000E+00 -0.74505805969E-08  0.93827000000E+00  0.93827000000E+00 0. -1.
     999902    2    1    2    0    0 -0.66180974123E-02 -0.22615134763E-01  0.58381991294E-02  0.10196539191E+01  0.10193648938E+01 0.  0.
     999903    2    3    3    0    0 -0.59554385377E-01  0.10510320231E+00 -0.36795868189E-01  0.12784010004E+00  0.19893398666E-01 0.  0.
         14    1    1    2    0    0  0.66180974123E-02  0.22615134763E-01 -0.58381991294E-02  0.24276080877E-01  0.00000000000E+00 0.  1.
     999901    1    3    3    0    0  0.52936287965E-01 -0.12771833707E+00  0.42634067319E-01  0.89181381908E+00  0.88000000000E+00 0. -1.
        -11    1    4    4    0    0 -0.47486388811E-01  0.76052919985E-01 -0.18855652385E-01  0.91623143956E-01  0.51100000000E-03 0. -1.
         11    1    4    4    0    0 -0.12067996566E-01  0.29050282321E-01 -0.17940215805E-01  0.36216956086E-01  0.51100000000E-03 0.  1.
</event>
<event>
 8    1  0.1054833E+005  0.1043930E+01  0.7957747E-01            NaN
         13   -1    0    0    0    0  0.00000000000E+00  0.00000000000E+00  0.74505805969E-08  0.10566000000E+00  0.10566000000E+00 0.  1.
     999900   -1    0    0    0    0 -0.00000000000E+00 -0.00000000000E+00 -0.74505805969E-08  0.93827000000E+00  0.93827000000E+00 0.  1.
     999902    2    1    2    0    0  0.19029673396E-01 -0.48916413670E-02  0.12542595338E-01  0.10206196306E+01  0.10203533981E+01 0.  0.
     999903    2    3    3    0    0 -0.79564615564E-01  0.93322451628E-01 -0.33106215212E-01  0.12851500903E+00  0.19505846121E-01 0.  0.
         14    1    1    2    0    0 -0.19029673396E-01  0.48916413670E-02 -0.12542595338E-01  0.23310369423E-01  0.00000000000E+00 0. -1.
     999901    1    3    3    0    0  0.98594288960E-01 -0.98214092995E-01  0.45648810551E-01  0.89210462155E+00  0.88000000000E+00 0.  1.
        -11    1    4    4    0    0 -0.31173208019E-01  0.37424851965E-01 -0.33799374940E-02  0.48826975549E-01  0.51100000000E-03 0.  1.
         11    1    4    4    0    0 -0.48391407545E-01  0.55897599662E-01 -0.29726277718E-01  0.79688033482E-01  0.51100000000E-03 0. -1.
</event>
<event>
 8    1  0.1054833E+005  0.1043930E+01  0.7957747E-01            NaN
         13   -1    0    0    0    0  0.00000000000E+00  0.00000000000E+00  0.74505805969E-08  0.10566000000E+00  0.10566000000E+00 0. -1.
     999900   -1    0    0    0    0 -0.00000000000E+00 -0.00000000000E+00 -0.74505805969E-08  0.93827000000E+00  0.93827000000E+00 0.  1.
     999902    2    1    2    0    0 -0.20550167550E-01 -0.15622274632E-02 -0.12655060092E-01  0.10197452840E+01  0.10194584561E+01 0.  0.
     999903    2    3    3    0    0  0.93962926524E-01 -0.77933192319E-01  0.32671633890E-01  0.12789312017E+00  0.19662159057E-01 0.  0.
         14    1    1    2    0    0  0.20550167550E-01  0.15622274632E-02  0.12655060092E-01  0.24184715977E-01  0.00000000000E+00 0. -1.
     999901    1    3    3    0    0 -0.11451309407E+00  0.76370964856E-01 -0.45326693982E-01  0.89185216386E+00  0.88000000000E+00 0. -1.
        -11    1    4    4    0    0  0.48787224961E-01 -0.28203507130E-01  0.17556772593E-01  0.59026540799E-01  0.51100000000E-03 0.  1.
         11    1    4    4    0    0  0.45175701564E-01 -0.49729685189E-01  0.15114861297E-01  0.68866579368E-01  0.51100000000E-03 0. -1.
</event>
<event>
 8    1  0.1054833E+005  0.1043930E+01  0.7957747E-01            NaN
         13   -1    0    0    0    0  0.00000000000E+00  0.00000000000E+00  0.74505805969E-08  0.10566000000E+00  0.10566000000E+00 0.  1.
     999900   -1    0    0    0    0 -0.00000000000E+00 -0.00000000000E+00 -0.74505805969E-08  0.93827000000E+00  0.93827000000E+00 0. -1.
     999902    2    1    2    0    0 -0.58525696426E-02  0.19639539263E-01 -0.15887582919E-01  0.10179997211E+01  0.10176694221E+01 0.  0.
     999903    2    3    3    0    0 -0.54042023780E-01 -0.11186576515E+00  0.98327263877E-02  0.12655291791E+00  0.22010651412E-01 0.  0.
         14    1    1    2    0    0  0.58525696426E-02 -0.19639539263E-01  0.15887582919E-01  0.25930278920E-01  0.00000000000E+00 0.  1.
     999901    1    3    3    0    0  0.48189454138E-01  0.13150530441E+00 -0.25720309307E-01  0.89144680317E+00  0.88000000000E+00 0. -1.
        -11    1    4    4    0    0 -0.39753422427E-01 -0.58729723953E-01  0.18007306078E-02  0.70943772256E-01  0.51100000000E-03 0. -1.
         11    1    4    4    0    0 -0.14288601353E-01 -0.53136041196E-01  0.80319957799E-02  0.55609145649E-01  0.51100000000E-03 0.  1.
</event>
<event>
 8    1  0.1054833E+005  0.1043930E+01  0.7957747E-01            NaN
         13   -1    0    0    0    0  0.00000000000E+00  0.00000000000E+00  0.74505805969E-08  0.10566000000E+00  0.10566000000E+00 0. -1.
     999900   -1    0    0    0    0 -0.00000000000E+00 -0.00000000000E+00 -0.74505805969E-08  0.93827000000E+00  0.93827000000E+00 0. -1.
     999902    2    1    2    0    0 -0.18029752003E-02  0.24792183523E-01  0.54507196648E-04  0.10190722838E+01  0.10187690678E+01 0.  0.
     999903    2    3    3    0    0  0.71143680219E-01 -0.10181671498E+00  0.15650161945E-01  0.12688718408E+00  0.20672765429E-01 0.  0.
         14    1    1    2    0    0  0.18029752003E-02 -0.24792183523E-01 -0.54507196648E-04  0.24857716195E-01  0.00000000000E+00 0.  1.
     999901    1    3    3    0    0 -0.72946655420E-01  0.12660889851E+00 -0.15595654748E-01  0.89218509972E+00  0.88000000000E+00 0. -1.
        -11    1    4    4    0    0  0.59200687687E-01 -0.83543180271E-01  0.20722898971E-01  0.10446953649E+00  0.51100000000E-03 0. -1.
         11    1    4    4    0    0  0.11942992532E-01 -0.18273534712E-01 -0.50727370265E-02  0.22417647589E-01  0.51100000000E-03 0.  1.
</event>
<event>
 8    1  0.1054833E+005  0.1043930E+01  0.7957747E-01            NaN
         13   -1    0    0    0    0  0.00000000000E+00  0.00000000000E+00  0.74505805969E-08  0.10566000000E+00  0.10566000000E+00 0.  1.
     999900   -1    0    0    0    0 -0.00000000000E+00 -0.00000000000E+00 -0.74505805969E-08  0.93827000000E+00  0.93827000000E+00 0.  1.
     999902    2    1    2    0    0 -0.12580662228E-01  0.17671769208E-01 -0.17915019150E-02  0.10221636506E+01  0.10219318737E+01 0.  0.
     999903    2    3    3    0    0 -0.45645447141E-01 -0.41024459643E-01  0.11499353225E+00  0.13189556088E+00  0.20159697091E-01 0.  0.
         14    1    1    2    0    0  0.12580662228E-01 -0.17671769208E-01  0.17915019150E-02  0.21766349445E-01  0.00000000000E+00 0.  1.
     999901    1    3    3    0    0  0.33064784912E-01  0.58696228852E-01 -0.11678503417E+00  0.89026808967E+00  0.88000000000E+00 0.  1.
        -11    1    4    4    0    0 -0.30085120921E-02 -0.11774082905E-01  0.14894868556E-01  0.19230143098E-01  0.51100000000E-03 0. -1.
         11    1    4    4    0    0 -0.42636935049E-01 -0.29250376738E-01  0.10009866370E+00  0.11266541778E+00  0.51100000000E-03 0.  1.
</event>
<event>
 8    1  0.1054833E+005  0.1043930E+01  0.7957747E-01            NaN
         13   -1    0    0    0    0  0.00000000000E+00  0.00000000000E+00  0.74505805969E-08  0.10566000000E+00  0.10566000000E+00 0.  1.
     999900   -1    0    0    0    0 -0.00000000000E+00 -0.00000000000E+00 -0.74505805969E-08  0.93827000000E+00  0.93827000000E+00 0. -1.
     999902    2    1    2    0    0  0.75910176271E-03 -0.63243948199E-02 -0.22511343545E-01  0.10205348126E+01  0.10202666166E+01 0.  0.
     999903    2    3    3    0    0 -0.25256176374E-01 -0.88138160436E-01  0.89158277220E-01  0.12933315689E+00  0.19278415484E-01 0.  0.
         14    1    1    2    0    0 -0.75910176271E-03  0.63243948199E-02  0.22511343545E-01  0.23395187401E-01  0.00000000000E+00 0.  1.
     999901    1    3    3    0    0  0.26015278137E-01  0.81813765616E-01 -0.11166962077E+00  0.89120165571E+00  0.88000000000E+00 0.  1.
        -11    1    4    4    0    0 -0.95204145046E-02 -0.65024978043E-01  0.63096045743E-01  0.91105752680E-01  0.51100000000E-03 0.  1.
         11    1    4    4    0    0 -0.15735761870E-01 -0.23113182392E-01  0.26062231477E-01  0.38227404208E-01  0.51100000000E-03 0. -1.
</event>
<event>
 8    1  0.1054833E+005  0.1043930E+01  0.7957747E-01            NaN
         13   -1    0    0    0    0  0.00000000000E+00  0.00000000000E+00  0.74505805969E-08  0.10566000000E+00  0.10566000000E+00 0. -1.
     999900   -1    0    0    0    0 -0.00000000000E+00 -0.00000000000E+00 -0.74505805969E-08  0.93827000000E+00  0.93827000000E+00 0.  1.
     999902    2    1    2    0    0  0.46782697109E-02 -0.70719830465E-02  0.22515694262E-01  0.10198705811E+01  0.10195867528E+01 0.  0.
     999903    2    3    3    0    0  0.90244497206E-01  0.25406813942E-01  0.91108373387E-01  0.13246908953E+00  0.21395058040E-01 0.  0.
         14    1    1    2    0    0 -0.46782697109E-02  0.70719830465E-02 -0.22515694262E-01  0.24059418941E-01  0.00000000000E+00 0.  1.
     999901    1    3    3    0    0 -0.85566227495E-01 -0.32478796988E-01 -0.68592679125E-01  0.88740149153E+00  0.88000000000E+00 0. -1.
        -11    1    4    4    0    0  0.83860945645E-01  0.18068091773E-01  0.76685108857E-01  0.11506511716E+00  0.51100000000E-03 0. -1.
         11    1    4    4    0    0  0.63835515606E-02  0.73387221692E-02  0.14423264530E-01  0.17403972372E-01  0.51100000000E-03 0.  1.
</event>
<event>
 8    1  0.1054833E+005  0.1043930E+01  0.7957747E-01            NaN
         13   -1    0    0    0    0  0.00000000000E+00  0.00000000000E+00  0.74505805969E-08  0.10566000000E+00  0.10566000000E+00 0. -1.
     999900   -1    0    0    0    0 -0.00000000000E+00 -0.00000000000E+00 -0.74505805969E-08  0.93827000000E+00  0.93827000000E+00 0.  1.
     999902    2    1    2    0    0 -0.23022662791E-01  0.67733449780E-02  0.18658234608E-02  0.10198592189E+01  0.10195751193E+01 0.  0.
     999903    2    3    3    0    0  0.49656762863E-01 -0.18741089261E-01 -0.11558856267E+00  0.12872016239E+00  0.19777306699E-01 0.  0.
         14    1    1    2    0    0  0.23022662791E-01 -0.67733449780E-02 -0.18658234608E-02  0.24070781071E-01  0.00000000000E+00 0. -1.
     999901    1    3    3    0    0 -0.72679425653E-01  0.25514434239E-01  0.11745438613E+00  0.89113905654E+00  0.88000000000E+00 0. -1.
        -11    1    4    4    0    0  0.16579226136E-01 -0.13416427164E-01 -0.30049294331E-01  0.36852306141E-01  0.51100000000E-03 0. -1.
         11    1    4    4    0    0  0.33077536726E-01 -0.53246620972E-02 -0.85539268342E-01  0.91867856249E-01  0.51100000000E-03 0.  1.
</event>
<event>
 8    1  0.1054833E+005  0.1043930E+01  0.7957747E-01            NaN
         13   -1    0    0    0    0  0.00000000000E+00  0.00000000000E+00  0.74505805969E-08  0.10566000000E+00  0.10566000000E+00 0.  1.
     999900   -1    0    0    0    0 -0.00000000000E+00 -0.00000000000E+00 -0.74505805969E-08  0.93827000000E+00  0.93827000000E+00 0.  1.
     999902    2    1    2    0    0 -0.12381976398E-01 -0.62960184768E-02 -0.19614724810E-01  0.10198948046E+01  0.10196115544E+01 0.  0.
     999903    2    3    3    0    0  0.58147054358E-01 -0.80524243834E-01 -0.83813212696E-01  0.13163492177E+00  0.20925205618E-01 0.  0.
         14    1    1    2    0    0  0.12381976398E-01  0.62960184768E-02  0.19614724810E-01  0.24035195393E-01  0.00000000000E+00 0.  1.
     999901    1    3    3    0    0 -0.70529030757E-01  0.74228225358E-01  0.64198487886E-01  0.88825988284E+00  0.88000000000E+00 0.  1.
        -11    1    4    4    0    0  0.32742839424E-01 -0.60076831119E-01 -0.50719663084E-01  0.85170796140E-01  0.51100000000E-03 0.  1.
         11    1    4    4    0    0  0.25404214934E-01 -0.20447412715E-01 -0.33093549612E-01  0.46464125625E-01  0.51100000000E-03 0. -1.
</event>
<event>
 8    1  0.1054833E+005  0.1043930E+01  0.7957747E-01            NaN
         13   -1    0    0    0    0  0.00000000000E+00  0.00000000000E+00  0.74505805969E-08  0.10566000000E+00  0.10566000000E+00 0. -1.
     999900   -1    0    0    0    0 -0.00000000000E+00 -0.00000000000E+00 -0.74505805969E-08  0.93827000000E+00  0.93827000000E+00 0. -1.
     999902    2    1    2    0    0  0.72381951868E-02  0.20161504694E-01  0.71202484080E-02  0.10213562170E+01  0.10211067262E+01 0.  0.
     999903    2    3    3    0    0  0.96535807620E-01 -0.69400520112E-01  0.51976066725E-01  0.13118350101E+00  0.19287433226E-01 0.  0.
         14    1    1    2    0    0 -0.72381951868E-02 -0.20161504694E-01 -0.71202484080E-02  0.22573782990E-01  0.00000000000E+00 0.  1.
     999901    1    3    3    0    0 -0.89297612433E-01  0.89562024806E-01 -0.44855818317E-01  0.89017271600E+00  0.88000000000E+00 0. -1.
        -11    1    4    4    0    0  0.29674599828E-01 -0.19001083410E-01  0.25026948040E-01  0.43223052818E-01  0.51100000000E-03 0. -1.
         11    1    4    4    0    0  0.66861207793E-01 -0.50399436702E-01  0.26949118685E-01  0.87960448193E-01  0.51100000000E-03 0.  1.
</event>
<event>
 8    1  0.1054833E+005  0.1043930E+01  0.7957747E-01            NaN
         13   -1    0    0    0    0  0.00000000000E+00  0.00000000000E+00  0.74505805969E-08  0.10566000000E+00  0.10566000000E+00 0. -1.
     999900   -1    0    0    0    0 -0.00000000000E+00 -0.00000000000E+00 -0.74505805969E-08  0.93827000000E+00  0.93827000000E+00 0. -1.
     999902    2    1    2    0    0  0.20014953932E-01 -0.44299926328E-02 -0.10074570470E-01  0.10210888051E+01  0.10208333006E+01 0.  0.
     999903    2    3    3    0    0  0.65908846975E-01  0.70028164814E-01 -0.89915110767E-01  0.13315593683E+00  0.19946337805E-01 0.  0.
         14    1    1    2    0    0 -0.20014953932E-01  0.44299926328E-02  0.10074570470E-01  0.22841194929E-01  0.00000000000E+00 0.  1.
     999901    1    3    3    0    0 -0.45893893043E-01 -0.74458157447E-01  0.79840540296E-01  0.88793286824E+00  0.88000000000E+00 0.  1.
        -11    1    4    4    0    0  0.38852886675E-01  0.27262334650E-01 -0.39990290642E-01  0.62066626782E-01  0.51100000000E-03 0. -1.
         11    1    4    4    0    0  0.27055960300E-01  0.42765830164E-01 -0.49924820125E-01  0.71089310047E-01  0.51100000000E-03 0.  1.
</event>
<event>
 8    1  0.1054833E+005  0.1043930E+01  0.7957747E-01            NaN
         13   -1    0    0    0    0  0.00000000000E+00  0.00000000000E+00  0.74505805969E-08  0.10566000000E+00  0.10566000000E+00 0. -1.
     999900   -1    0    0    0    0 -0.00000000000E+00 -0.00000000000E+00 -0.74505805969E-08  0.93827000000E+00  0.93827000000E+00 0.  1.
     999902    2    1    2    0    0 -0.22353882063E-01  0.63924132995E-02 -0.10645456477E-01  0.10183588300E+01  0.10180377311E+01 0.  0.
     999903    2    3    3    0    0  0.93173944861E-01  0.63802166697E-01 -0.56194767806E-01  0.12778749747E+00  0.20486388279E-01 0.  0.
         14    1    1    2    0    0  0.22353882063E-01 -0.63924132995E-02  0.10645456477E-01  0.25571169990E-01  0.00000000000E+00 0.  1.
     999901    1    3    3    0    0 -0.11552782692E+00 -0.57409753398E-01  0.45549311329E-01  0.89057133254E+00  0.88000000000E+00 0. -1.
        -11    1    4    4    0    0  0.60961478695E-01  0.36886930166E-01 -0.25102138989E-01  0.75546846423E-01  0.51100000000E-03 0.  1.
         11    1    4    4    0    0  0.32212466167E-01  0.26915236532E-01 -0.31092628816E-01  0.52240651047E-01  0.51100000000E-03 0. -1.
</event>
<event>
 8    1  0.1054833E+005  0.1043930E+01  0.7957747E-01            NaN
         13   -1    0    0    0    0  0.00000000000E+00  0.00000000000E+00  0.74505805969E-08  0.10566000000E+00  0.10566000000E+00 0.  1.
     999900   -1    0    0    0    0 -0.00000000000E+00 -0.00000000000E+00 -0.74505805969E-08  0.93827000000E+00  0.93827000000E+00 0. -1.
     999902    2    1    2    0    0 -0.19698247377E-02 -0.17493762474E-01  0.18189492224E-01  0.10186165735E+01  0.10183019956E+01 0.  0.
     999903    2    3    3    0    0  0.36069240576E-02 -0.33785554064E-02  0.12967321516E+00  0.13145313888E+00  0.20984767211E-01 0.  0.
         14    1    1    2    0    0  0.19698247377E-02  0.17493762474E-01 -0.18189492224E-01  0.25313426524E-01  0.00000000000E+00 0. -1.
     999901    1    3    3    0    0 -0.55767487953E-02 -0.14115207068E-01 -0.11148372294E+00  0.88716343459E+00  0.88000000000E+00 0. -1.
        -11    1    4    4    0    0 -0.53407555366E-02 -0.93564150289E-02  0.64479515968E-01  0.65375341471E-01  0.51100000000E-03 0. -1.
         11    1    4    4    0    0  0.89476795941E-02  0.59778596225E-02  0.65193699191E-01  0.66077797413E-01  0.51100000000E-03 0.  1.
</event>
<event>
 8    1  0.1054833E+005  0.1043930E+01  0.7957747E-01            NaN
         13   -1    0    0    0    0  0.00000000000E+00  0.00000000000E+00  0.74505805969E-08  0.10566000000E+00  0.10566000000E+00 0. -1.
     999900   -1    0    0    0    0 -0.00000000000E+00 -0.00000000000E+00 -0.74505805969E-08  0.93827000000E+00  0.93827000000E+00 0.  1.
     999902    2    1    2    0    0 -0.10806225288E-01  0.16847024078E-01  0.11963741491E-01  0.10206120276E+01  0.10203456194E+01 0.  0.
     999903    2    3    3    0    0 -0.86569986789E-01 -0.67290990043E-01 -0.66805215102E-01  0.12986857326E+00  0.19505629979E-01 0.  0.
         14    1    1    2    0    0  0.10806225288E-01 -0.16847024078E-01 -0.11963741491E-01  0.23317972376E-01  0.00000000000E+00 0.  1.
     999901    1    3    3    0    0  0.75763761501E-01  0.84138014121E-01  0.78768956593E-01  0.89074345437E+00  0.88000000000E+00 0. -1.
        -11    1    4    4    0    0 -0.45798841949E-01 -0.43849663272E-01 -0.29999518182E-01  0.70146697036E-01  0.51100000000E-03 0. -1.
         11    1    4    4    0    0 -0.40771144840E-01 -0.23441326772E-01 -0.36805696920E-01  0.59721876219E-01  0.51100000000E-03 0.  1.
</event>
<event>
 8    1  0.1054833E+005  0.1043930E+01  0.7957747E-01            NaN
         13   -1    0    0    0    0  0.00000000000E+00  0.00000000000E+00  0.74505805969E-08  0.10566000000E+00  0.10566000000E+00 0. -1.
     999900   -1    0    0    0    0 -0.00000000000E+00 -0.00000000000E+00 -0.74505805969E-08  0.93827000000E+00  0.93827000000E+00 0. -1.
     999902    2    1    2    0    0 -0.17517570471E-01  0.10154718079E-01  0.12445639416E-01  0.10201628480E+01  0.10198859539E+01 0.  0.
     999903    2    3    3    0    0  0.45371943467E-01 -0.10255696741E+00 -0.58229393500E-01  0.12794427875E+00  0.20063184674E-01 0.  0.
         14    1    1    2    0    0  0.17517570471E-01 -0.10154718079E-01 -0.12445639416E-01  0.23767152016E-01  0.00000000000E+00 0.  1.
     999901    1    3    3    0    0 -0.62889513938E-01  0.11271168549E+00  0.70675032917E-01  0.89221856923E+00  0.88000000000E+00 0.  1.
        -11    1    4    4    0    0  0.29922523229E-01 -0.74729160399E-01 -0.31735718279E-01  0.86528733644E-01  0.51100000000E-03 0. -1.
         11    1    4    4    0    0  0.15449420238E-01 -0.27827807010E-01 -0.26493675222E-01  0.41415545106E-01  0.51100000000E-03 0.  1.
</event>
<event>
 8    1  0.1054833E+005  0.1043930E+01  0.7957747E-01            NaN
         13   -1    0    0    0    0  0.00000000000E+00  0.00000000000E+00  0.74505805969E-08  0.10566000000E+00  0.10566000000E+00 0. -1.
     999900   -1    0    0    0    0 -0.00000000000E+00 -0.00000000000E+00 -0.74505805969E-08  0.93827000000E+00  0.93827000000E+00 0.  1.
     999902    2    1    2    0    0 -0.51452939089E-02  0.15795728765E-01 -0.16818185979E-01  0.10202904045E+01  0.10200165092E+01 0.  0.
     999903    2    3    3    0    0 -0.27140971687E-01 -0.57400306662E-01  0.10930840651E+00  0.12801836817E+00  0.20222445627E-01 0.  0.
         14    1    1    2    0    0  0.51452939089E-02 -0.15795728765E-01  0.16818185979E-01  0.23639595518E-01  0.00000000000E+00 0. -1.
     999901    1    3    3    0    0  0.21995677778E-01  0.73196035427E-01 -0.12612659249E+00  0.89227203631E+00  0.88000000000E+00 0.  1.
        -11    1    4    4    0    0 -0.60829676636E-02 -0.27609621763E-01  0.33150765335E-01  0.43572102001E-01  0.51100000000E-03 0. -1.
         11    1    4    4    0    0 -0.21058004024E-01 -0.29790684899E-01  0.76157641175E-01  0.84446266173E-01  0.51100000000E-03 0.  1.
</event>
<event>
 8    1  0.1054833E+005  0.1043930E+01  0.7957747E-01            NaN
         13   -1    0    0    0    0  0.00000000000E+00  0.00000000000E+00  0.74505805969E-08  0.10566000000E+00  0.10566000000E+00 0.  1.
     999900   -1    0    0    0    0 -0.00000000000E+00 -0.00000000000E+00 -0.74505805969E-08  0.93827000000E+00  0.93827000000E+00 0.  1.
     999902    2    1    2    0    0  0.21103764196E-01 -0.25517136180E-02 -0.83371996634E-02  0.10210960559E+01  0.10208407155E+01 0.  0.
     999903    2    3    3    0    0 -0.90849434290E-01  0.12914922679E-01 -0.90035869698E-01  0.13011490672E+00  0.20075262859E-01 0.  0.
         14    1    1    2    0    0 -0.21103764196E-01  0.25517136180E-02  0.83371996634E-02  0.22833944115E-01  0.00000000000E+00 0.  1.
     999901    1    3    3    0    0  0.11195319849E+00 -0.15466636297E-01  0.81698670034E-01  0.89098114917E+00  0.88000000000E+00 0. -1.
        -11    1    4    4    0    0 -0.53976734358E-01  0.84102774649E-02 -0.39598202890E-01  0.67472212148E-01  0.51100000000E-03 0. -1.
         11    1    4    4    0    0 -0.36872699932E-01  0.45046452140E-02 -0.50437666807E-01  0.62642694568E-01  0.51100000000E-03 0.  1.
</event>
<event>
 8    1  0.1054833E+005  0.1043930E+01  0.7957747E-01            NaN
         13   -1    0    0    0    0  0.00000000000E+00  0.00000000000E+00  0.74505805969E-08  0.10566000000E+00  0.10566000000E+00 0.  1.
     999900   -1    0    0    0    0 -0.00000000000E+00 -0.00000000000E+00 -0.74505805969E-08  0.93827000000E+00  0.93827000000E+00 0.  1.
     999902    2    1    2    0    0 -0.15255025183E-01 -0.50082085866E-02  0.18504543276E-01  0.10194306925E+01  0.10191362621E+01 0.  0.
     999903    2    3    3    0    0  0.64260069670E-01  0.10154757558E+00  0.42974264344E-01  0.12910740699E+00  0.19510727421E-01 0.  0.
         14    1    1    2    0    0  0.15255025183E-01  0.50082085866E-02 -0.18504543276E-01  0.24499307509E-01  0.00000000000E+00 0. -1.
     999901    1    3    3    0    0 -0.79515094854E-01 -0.10655578417E+00 -0.24469721068E-01  0.89032328550E+00  0.88000000000E+00 0.  1.
        -11    1    4    4    0    0  0.42411334644E-01  0.48842752907E-01  0.23030066407E-01  0.68665718503E-01  0.51100000000E-03 0. -1.
         11    1    4    4    0    0  0.21848735026E-01  0.52704822673E-01  0.19944197938E-01  0.60441688491E-01  0.51100000000E-03 0.  1.
</event>
<event>
 8    1  0.1054833E+005  0.1043930E+01  0.7957747E-01            NaN
         13   -1    0    0    0    0  0.00000000000E+00  0.00000000000E+00  0.74505805969E-08  0.10566000000E+00  0.10566000000E+00 0.  1.
     999900   -1    0    0    0    0 -0.00000000000E+00 -0.00000000000E+00 -0.74505805969E-08  0.93827000000E+00  0.93827000000E+00 0. -1.
     999902    2    1    2    0    0 -0.21111910061E-01  0.49630553322E-02  0.11033067042E-01  0.10195974450E+01  0.10193070571E+01 0.  0.
     999903    2    3    3    0    0 -0.88480968858E-01  0.12565981179E-01  0.96354608862E-01  0.13287530133E+00  0.19617576871E-01 0.  0.
         14    1    1    2    0    0  0.21111910061E-01 -0.49630553322E-02 -0.11033067042E-01  0.24332555004E-01  0.00000000000E+00 0. -1.
     999901    1    3    3    0    0  0.67369058796E-01 -0.76029258465E-02 -0.85321541819E-01  0.88672214366E+00  0.88000000000E+00 0. -1.
        -11    1    4    4    0    0 -0.32285544929E-01  0.14024730047E-01  0.34485208491E-01  0.49280221082E-01  0.51100000000E-03 0.  1.
         11    1    4    4    0    0 -0.56195423929E-01 -0.14587488683E-02  0.61869400371E-01  0.83595080251E-01  0.51100000000E-03 0. -1.
</event>
<event>
 8    1  0.1054833E+005  0.1043930E+01  0.7957747E-01            NaN
         13   -1    0    0    0    0  0.00000000000E+00  0.00000000000E+00  0.74505805969E-08  0.10566000000E+00  0.10566000000E+00 0. -1.
     999900   -1    0    0    0    0 -0.00000000000E+00 -0.00000000000E+00 -0.74505805969E-08  0.93827000000E+00  0.93827000000E+00 0. -1.
     999902    2    1    2    0    0  0.36903544885E-02  0.49102548532E-02  0.22377204434E-01  0.10207250739E+01  0.10204612721E+01 0.  0.
     999903    2    3    3    0    0 -0.78823228124E-01  0.10299319703E+00  0.31007109182E-02  0.13123064551E+00  0.19777967187E-01 0.  0.
         14    1    1    2    0    0 -0.36903544885E-02 -0.49102548532E-02 -0.22377204434E-01  0.23204926142E-01  0.00000000000E+00 0.  1.
     999901    1    3    3    0    0  0.82513582613E-01 -0.98082942177E-01  0.19276493515E-01  0.88949442835E+00  0.88000000000E+00 0.  1.
        -11    1    4    4    0    0 -0.23709826004E-01  0.45158702387E-01 -0.30863256488E-02  0.51100398995E-01  0.51100000000E-03 0. -1.
         11    1    4    4    0    0 -0.55113402121E-01  0.57834494643E-01  0.61870365670E-02  0.80130246514E-01  0.51100000000E-03 0.  1.
</event>
<event>
 8    1  0.1054833E+005  0.1043930E+01  0.7957747E-01            NaN
         13   -1    0    0    0    0  0.00000000000E+00  0.00000000000E+00  0.74505805969E-08  0.10566000000E+00  0.10566000000E+00 0. -1.
     999900   -1    0    0    0    0 -0.00000000000E+00 -0.00000000000E+00 -0.74505805969E-08  0.93827000000E+00  0.93827000000E+00 0.  1.
     999902    2    1    2    0    0  0.15890629081E-01 -0.14696289322E-01 -0.87892390787E-02  0.10205688413E+01  0.10203014339E+01 0.  0.
     999903    2    3    3    0    0 -0.59848785191E-01 -0.67016130757E-01 -0.94200548571E-01  0.13165438170E+00  0.19649274801E-01 0.  0.
         14    1    1    2    0    0 -0.15890629081E-01  0.14696289322E-01  0.87892390787E-02  0.23361158705E-01  0.00000000000E+00 0. -1.
     999901    1    3    3    0    0  0.75739414272E-01  0.52319841434E-01  0.85411309493E-01  0.88891445959E+00  0.88000000000E+00 0. -1.
        -11    1    4    4    0    0 -0.12623688249E-01 -0.14019040577E-01 -0.94617555840E-02  0.21111062111E-01  0.51100000000E-03 0.  1.
         11    1    4    4    0    0 -0.47225096942E-01 -0.52997090179E-01 -0.84738792987E-01  0.11054331959E+00  0.51100000000E-03 0. -1.
</event>
<event>
 8    1  0.1054833E+005  0.1043930E+01  0.7957747E-01            NaN
         13   -1    0    0    0    0  0.00000000000E+00  0.00000000000E+00  0.74505805969E-08  0.10566000000E+00  0.10566000000E+00 0. -1.
     999900   -1    0    0    0    0 -0.00000000000E+00 -0.00000000000E+00 -0.74505805969E-08  0.93827000000E+00  0.93827000000E+00 0. -1.
     999902    2    1    2    0    0 -0.19588304517E-01  0.42504521789E-02 -0.31334216413E-02  0.10236424090E+01  0.10234413491E+01 0.  0.
     999903    2    3    3    0    0 -0.45288959739E-01 -0.57122594514E-01  0.11065693985E+00  0.13382477548E+00  0.18709129254E-01 0.  0.
         14    1    1    2    0    0  0.19588304517E-01 -0.42504521789E-02  0.31334216413E-02  0.20287591004E-01  0.00000000000E+00 0. -1.
     999901    1    3    3    0    0  0.25700655222E-01  0.61373046693E-01 -0.11379036149E+00  0.88981763351E+00  0.88000000000E+00 0. -1.
        -11    1    4    4    0    0 -0.34273777921E-01 -0.30603489464E-01  0.76027261297E-01  0.88835077540E-01  0.51100000000E-03 0. -1.
         11    1    4    4    0    0 -0.11015181817E-01 -0.26519105050E-01  0.34629678557E-01  0.44989697944E-01  0.51100000000E-03 0.  1.
</event>
<event>
 8    1  0.1054833E+005  0.1043930E+01  0.7957747E-01            NaN
         13   -1    0    0    0    0  0.00000000000E+00  0.00000000000E+00  0.74505805969E-08  0.10566000000E+00  0.10566000000E+00 0. -1.
     999900   -1    0    0    0    0 -0.00000000000E+00 -0.00000000000E+00 -0.74505805969E-08  0.93827000000E+00  0.93827000000E+00 0.  1.
     999902    2    1    2    0    0 -0.22954807191E-01 -0.34042268322E-02 -0.37827032354E-02  0.10204178589E+01  0.10201469434E+01 0.  0.
     999903    2    3    3    0    0  0.86915546046E-01  0.49279590513E-01 -0.79114393375E-01  0.12883390738E+00  0.18875864674E-01 0.  0.
         14    1    1    2    0    0  0.22954807191E-01  0.34042268322E-02  0.37827032354E-02  0.23512141061E-01  0.00000000000E+00 0. -1.
     999901    1    3    3    0    0 -0.10987035324E+00 -0.52683817346E-01  0.75331690139E-01  0.89158395155E+00  0.88000000000E+00 0.  1.
        -11    1    4    4    0    0  0.54640932538E-01  0.40969267288E-01 -0.55120332455E-01  0.87764597314E-01  0.51100000000E-03 0. -1.
         11    1    4    4    0    0  0.32274613509E-01  0.83103232248E-02 -0.23994060919E-01  0.41069310070E-01  0.51100000000E-03 0.  1.
</event>
<event>
 8    1  0.1054833E+005  0.1043930E+01  0.7957747E-01            NaN
         13   -1    0    0    0    0  0.00000000000E+00  0.00000000000E+00  0.74505805969E-08  0.10566000000E+00  0.10566000000E+00 0.  1.
     999900   -1    0    0    0    0 -0.00000000000E+00 -0.00000000000E+00 -0.74505805969E-08  0.93827000000E+00  0.93827000000E+00 0. -1.
     999902    2    1    2    0    0 -0.19889964170E-01 -0.50571618258E-02  0.45061217784E-02  0.10229183201E+01  0.10227024977E+01 0.  0.
     999903    2    3    3    0    0  0.11127856809E+00  0.64320774919E-01  0.22441819607E-02  0.13049263781E+00  0.22432350941E-01 0.  0.
         14    1    1    2    0    0  0.19889964170E-01  0.50571618258E-02 -0.45061217784E-02  0.21011679940E-01  0.00000000000E+00 0.  1.
     999901    1    3    3    0    0 -0.13116853226E+00 -0.69377936745E-01  0.22619398176E-02  0.89242568225E+00  0.88000000000E+00 0. -1.
        -11    1    4    4    0    0  0.35526003653E-01  0.33028899563E-01  0.91467458137E-03  0.48519098224E-01  0.51100000000E-03 0. -1.
         11    1    4    4    0    0  0.75752564436E-01  0.31291875356E-01  0.13295073793E-02  0.81973539590E-01  0.51100000000E-03 0.  1.
</event>
<event>
 8    1  0.1054833E+005  0.1043930E+01  0.7957747E-01            NaN
         13   -1    0    0    0    0  0.00000000000E+00  0.00000000000E+00  0.74505805969E-08  0.10566000000E+00  0.10566000000E+00 0. -1.
     999900   -1    0    0    0    0 -0.00000000000E+00 -0.00000000000E+00 -0.74505805969E-08  0.93827000000E+00  0.93827000000E+00 0. -1.
     999902    2    1    2    0    0  0.98201420251E-02 -0.14585792138E-01  0.17857820749E-01  0.10188684301E+01  0.10185601581E+01 0.  0.
     999903    2    3    3    0    0  0.68849136254E-01  0.93116361992E-02 -0.10464585622E+00  0.12810321971E+00  0.25154910946E-01 0.  0.
         14    1    1    2    0    0 -0.98201420251E-02  0.14585792138E-01 -0.17857820749E-01  0.25061569855E-01  0.00000000000E+00 0.  1.
     999901    1    3    3    0    0 -0.59028994229E-01 -0.23897428337E-01  0.12250367697E+00  0.89076521043E+00  0.88000000000E+00 0.  1.
        -11    1    4    4    0    0  0.54936385185E-01 -0.26250225502E-02 -0.71322282114E-01  0.90066787484E-01  0.51100000000E-03 0. -1.
         11    1    4    4    0    0  0.13912751068E-01  0.11936658749E-01 -0.33323574110E-01  0.38036432231E-01  0.51100000000E-03 0.  1.
</event>
<event>
 8    1  0.1054833E+005  0.1043930E+01  0.7957747E-01            NaN
         13   -1    0    0    0    0  0.00000000000E+00  0.00000000000E+00  0.74505805969E-08  0.10566000000E+00  0.10566000000E+00 0.  1.
     999900   -1    0    0    0    0 -0.00000000000E+00 -0.00000000000E+00 -0.74505805969E-08  0.93827000000E+00  0.93827000000E+00 0. -1.
     999902    2    1    2    0    0  0.64887943515E-02  0.21366569069E-01 -0.64768840553E-02  0.10206795214E+01  0.10204146710E+01 0.  0.
     999903    2    3    3    0    0 -0.26147732064E-01  0.12526370906E+00 -0.31411593792E-01  0.13361610866E+00  0.22178267932E-01 0.  0.
         14    1    1    2    0    0 -0.64887943515E-02 -0.21366569069E-01  0.64768840553E-02  0.23250478553E-01  0.00000000000E+00 0.  1.
     999901    1    3    3    0    0  0.32636526416E-01 -0.10389713999E+00  0.24934709737E-01  0.88706341279E+00  0.88000000000E+00 0.  1.
        -11    1    4    4    0    0 -0.69806486748E-02  0.23341859848E-01 -0.15001768544E-01  0.28616185238E-01  0.51100000000E-03 0.  1.
         11    1    4    4    0    0 -0.19167083389E-01  0.10192184921E+00 -0.16409825249E-01  0.10499992342E+00  0.51100000000E-03 0. -1.
</event>
<event>
 8    1  0.1054833E+005  0.1043930E+01  0.7957747E-01            NaN
         13   -1    0    0    0    0  0.00000000000E+00  0.00000000000E+00  0.74505805969E-08  0.10566000000E+00  0.10566000000E+00 0.  1.
     999900   -1    0    0    0    0 -0.00000000000E+00 -0.00000000000E+00 -0.74505805969E-08  0.93827000000E+00  0.93827000000E+00 0. -1.
     999902    2    1    2    0    0  0.16309025201E-01 -0.77702023180E-02 -0.16792887148E-01  0.10192650166E+01  0.10189665415E+01 0.  0.
     999903    2    3    3    0    0 -0.50307879779E-01 -0.88702529718E-01 -0.79462474519E-01  0.13083081486E+00  0.20084713450E-01 0.  0.
         14    1    1    2    0    0 -0.16309025201E-01  0.77702023180E-02  0.16792887148E-01  0.24664983394E-01  0.00000000000E+00 0.  1.
     999901    1    3    3    0    0  0.66616904980E-01  0.80932327400E-01  0.62669587371E-01  0.88843420174E+00  0.88000000000E+00 0.  1.
        -11    1    4    4    0    0 -0.24750237099E-01 -0.52147515654E-01 -0.33315218087E-01  0.66649099787E-01  0.51100000000E-03 0.  1.
         11    1    4    4    0    0 -0.25557642680E-01 -0.36555014065E-01 -0.46147256433E-01  0.64181715074E-01  0.51100000000E-03 0. -1.
</event>
<event>
 8    1  0.1054833E+005  0.1043930E+01  0.7957747E-01            NaN
         13   -1    0    0    0    0  0.00000000000E+00  0.00000000000E+00  0.74505805969E-08  0.10566000000E+00  0.10566000000E+00 0.  1.
     999900   -1    0    0    0    0 -0.00000000000E+00 -0.00000000000E+00 -0.74505805969E-08  0.93827000000E+00  0.93827000000E+00 0. -1.
     999902    2    1    2    0    0  0.23814986357E-01  0.45447627571E-03  0.58847036607E-03  0.10201034094E+01  0.10198251122E+01 0.  0.
     999903    2    3    3    0    0 -0.68121408940E-01  0.96640602582E-01 -0.46912208610E-01  0.12883443415E+00  0.20435843108E-01 0.  0.
         14    1    1    2    0    0 -0.23814986357E-01 -0.45447627571E-03 -0.58847036607E-03  0.23826590634E-01  0.00000000000E+00 0.  1.
     999901    1    3    3    0    0  0.91936395297E-01 -0.96186126306E-01  0.47500678976E-01  0.89126897521E+00  0.88000000000E+00 0. -1.
        -11    1    4    4    0    0 -0.23646315269E-01  0.32276946783E-01 -0.57373626840E-02  0.40424348739E-01  0.51100000000E-03 0. -1.
         11    1    4    4    0    0 -0.44475093671E-01  0.64363655799E-01 -0.41174845926E-01  0.88410085414E-01  0.51100000000E-03 0.  1.
</event>
<event>
 8    1  0.1054833E+005  0.1043930E+01  0.7957747E-01            NaN
         13   -1    0    0    0    0  0.00000000000E+00  0.00000000000E+00  0.74505805969E-08  0.10566000000E+00  0.10566000000E+00 0.  1.
     999900   -1    0    0    0    0 -0.00000000000E+00 -0.00000000000E+00 -0.74505805969E-08  0.93827000000E+00  0.93827000000E+00 0.  1.
     999902    2    1    2    0    0  0.11229986147E-02 -0.92330646940E-02  0.20434217550E-01  0.10214785444E+01  0.10212317802E+01 0.  0.
     999903    2    3    3    0    0  0.10193758407E+00  0.80040663165E-01  0.29998473701E-02  0.13106440688E+00  0.19263978297E-01 0.  0.
         14    1    1    2    0    0 -0.11229986147E-02  0.92330646940E-02 -0.20434217550E-01  0.22451455552E-01  0.00000000000E+00 0. -1.
     999901    1    3    3    0    0 -0.10081458545E+00 -0.89273727859E-01  0.17434370180E-01  0.89041413757E+00  0.88000000000E+00 0.  1.
        -11    1    4    4    0    0  0.52530313670E-01  0.33439196149E-01  0.88291295496E-02  0.62895376165E-01  0.51100000000E-03 0.  1.
         11    1    4    4    0    0  0.49407270398E-01  0.46601467016E-01 -0.58292821794E-02  0.68169030710E-01  0.51100000000E-03 0. -1.
</event>
<event>
 8    1  0.1054833E+005  0.1043930E+01  0.7957747E-01            NaN
         13   -1    0    0    0    0  0.00000000000E+00  0.00000000000E+00  0.74505805969E-08  0.10566000000E+00  0.10566000000E+00 0.  1.
     999900   -1    0    0    0    0 -0.00000000000E+00 -0.00000000000E+00 -0.74505805969E-08  0.93827000000E+00  0.93827000000E+00 0.  1.
     999902    2    1    2    0    0  0.74508684478E-02 -0.17845707715E-02 -0.22801946386E-01  0.10198752938E+01  0.10195915780E+01 0.  0.
     999903    2    3    3    0    0  0.98363193603E-01  0.15600719138E-01  0.79598091878E-01  0.12911546810E+00  0.20402146409E-01 0.  0.
         14    1    1    2    0    0 -0.74508684478E-02  0.17845707715E-02  0.22801946386E-01  0.24054706244E-01  0.00000000000E+00 0.  1.
     999901    1    3    3    0    0 -0.90912325155E-01 -0.17385289909E-01 -0.10240003826E+00  0.89075982566E+00  0.88000000000E+00 0. -1.
        -11    1    4    4    0    0  0.79716410109E-01  0.49055051059E-02  0.66571656200E-01  0.10397507659E+00  0.51100000000E-03 0.  1.
         11    1    4    4    0    0  0.18646783494E-01  0.10695214032E-01  0.13026435678E-01  0.25140391511E-01  0.51100000000E-03 0. -1.
</event>
<event>
 8    1  0.1054833E+005  0.1043930E+01  0.7957747E-01            NaN
         13   -1    0    0    0    0  0.00000000000E+00  0.00000000000E+00  0.74505805969E-08  0.10566000000E+00  0.10566000000E+00 0.  1.
     999900   -1    0    0    0    0 -0.00000000000E+00 -0.00000000000E+00 -0.74505805969E-08  0.93827000000E+00  0.93827000000E+00 0. -1.
     999902    2    1    2    0    0  0.10780169919E-01 -0.14745408914E-01 -0.14716435443E-01  0.10204733886E+01  0.10202037660E+01 0.  0.
     999903    2    3    3    0    0 -0.12308899488E+00  0.23281083957E-01  0.22399222466E-01  0.12876461352E+00  0.19639017189E-01 0.  0.
         14    1    1    2    0    0 -0.10780169919E-01  0.14745408914E-01  0.14716435443E-01  0.23456611428E-01  0.00000000000E+00 0.  1.
     999901    1    3    3    0    0  0.13386916480E+00 -0.38026492871E-01 -0.37115657910E-01  0.89170877505E+00  0.88000000000E+00 0.  1.
        -11    1    4    4    0    0 -0.10658305579E+00  0.13285318545E-01  0.17242302325E-01  0.10878421568E+00  0.51100000000E-03 0.  1.
         11    1    4    4    0    0 -0.16505939093E-01  0.99957654126E-02  0.51569201410E-02  0.19980397840E-01  0.51100000000E-03 0. -1.
</event>
<event>
 8    1  0.1054833E+005  0.1043930E+01  0.7957747E-01            NaN
         13   -1    0    0    0    0  0.00000000000E+00  0.00000000000E+00  0.74505805969E-08  0.10566000000E+00  0.10566000000E+00 0.  1.
     999900   -1    0    0    0    0 -0.00000000000E+00 -0.00000000000E+00 -0.74505805969E-08  0.93827000000E+00  0.93827000000E+00 0.  1.
     999902    2    1    2    0    0  0.22681391593E-01 -0.54236486406E-02  0.29852086875E-02  0.10204188758E+01  0.10201479840E+01 0.  0.
     999903    2    3    3    0    0 -0.11886815276E+00  0.41393434082E-01 -0.46640232436E-02  0.12784584044E+00  0.21903234463E-01 0.  0.
         14    1    1    2    0    0 -0.22681391593E-01  0.54236486406E-02 -0.29852086875E-02  0.23511124177E-01  0.00000000000E+00 0.  1.
     999901    1    3    3    0    0  0.14154954435E+00 -0.46817082723E-01  0.76492319312E-02  0.89257303538E+00  0.88000000000E+00 0.  1.
        -11    1    4    4    0    0 -0.95480592486E-01  0.36935710710E-01  0.41290633695E-02  0.10246023889E+00  0.51100000000E-03 0. -1.
         11    1    4    4    0    0 -0.23387560273E-01  0.44577233720E-02 -0.87930866131E-02  0.25385601556E-01  0.51100000000E-03 0.  1.
</event>
<event>
 8    1  0.1054833E+005  0.1043930E+01  0.7957747E-01            NaN
         13   -1    0    0    0    0  0.00000000000E+00  0.00000000000E+00  0.74505805969E-08  0.10566000000E+00  0.10566000000E+00 0. -1.
     999900   -1    0    0    0    0 -0.00000000000E+00 -0.00000000000E+00 -0.74505805969E-08  0.93827000000E+00  0.93827000000E+00 0.  1.
     999902    2    1    2    0    0  0.71253600303E-02  0.22112988920E-01 -0.86378864421E-02  0.10191435497E+01  0.10188420912E+01 0.  0.
     999903    2    3    3    0    0 -0.52140526792E-02 -0.12475242049E+00 -0.48791875440E-02  0.12687910608E+00  0.22003370781E-01 0.  0.
         14    1    1    2    0    0 -0.71253600303E-02 -0.22112988920E-01  0.86378864421E-02  0.24786450265E-01  0.00000000000E+00 0.  1.
     999901    1    3    3    0    0  0.12339412710E-01  0.14686540941E+00 -0.37586988982E-02  0.89226444365E+00  0.88000000000E+00 0. -1.
        -11    1    4    4    0    0  0.14960417203E-02 -0.11182144528E+00 -0.74349410225E-02  0.11207949516E+00  0.51100000000E-03 0. -1.
         11    1    4    4    0    0 -0.67100943996E-02 -0.12930975208E-01  0.25557534785E-02  0.14799610924E-01  0.51100000000E-03 0.  1.
</event>
<event>
 8    1  0.1054833E+005  0.1043930E+01  0.7957747E-01            NaN
         13   -1    0    0    0    0  0.00000000000E+00  0.00000000000E+00  0.74505805969E-08  0.10566000000E+00  0.10566000000E+00 0.  1.
     999900   -1    0    0    0    0 -0.00000000000E+00 -0.00000000000E+00 -0.74505805969E-08  0.93827000000E+00  0.93827000000E+00 0. -1.
     999902    2    1    2    0    0 -0.17600540374E-02 -0.38199607936E-03 -0.23536001389E-01  0.10203251896E+01  0.10200521092E+01 0.  0.
     999903    2    3    3    0    0 -0.67020575476E-01  0.99659886459E-01 -0.51462476361E-01  0.13181677553E+00  0.17419108244E-01 0.  0.
         14    1    1    2    0    0  0.17600540374E-02  0.38199607936E-03  0.23536001389E-01  0.23604810370E-01  0.00000000000E+00 0.  1.
     999901    1    3    3    0    0  0.65260521438E-01 -0.10004188254E+00  0.27926474972E-01  0.88850841410E+00  0.88000000000E+00 0.  1.
        -11    1    4    4    0    0 -0.34841396683E-01  0.46017302412E-01 -0.15956166906E-01  0.59886354267E-01  0.51100000000E-03 0. -1.
         11    1    4    4    0    0 -0.32179178793E-01  0.53642584047E-01 -0.35506309455E-01  0.71930421264E-01  0.51100000000E-03 0.  1.
</event>
<event>
 8    1  0.1054833E+005  0.1043930E+01  0.7957747E-01            NaN
         13   -1    0    0    0    0  0.00000000000E+00  0.00000000000E+00  0.74505805969E-08  0.10566000000E+00  0.10566000000E+00 0.  1.
     999900   -1    0    0    0    0 -0.00000000000E+00 -0.00000000000E+00 -0.74505805969E-08  0.93827000000E+00  0.93827000000E+00 0. -1.
     999902    2    1    2    0    0 -0.17722622682E-01 -0.15063002647E-01  0.52112415077E-02  0.10200942613E+01  0.10198157478E+01 0.  0.
     999903    2    3    3    0    0 -0.69154480360E-01 -0.72575154248E-01 -0.83850836191E-01  0.13224014190E+00  0.20174172417E-01 0.  0.
         14    1    1    2    0    0  0.17722622682E-01  0.15063002647E-01 -0.52112415077E-02  0.23835738745E-01  0.00000000000E+00 0. -1.
     999901    1    3    3    0    0  0.51431857678E-01  0.57512151601E-01  0.89062077698E-01  0.88785411935E+00  0.88000000000E+00 0. -1.
        -11    1    4    4    0    0 -0.46386145748E-01 -0.60410235421E-01 -0.66700699736E-01  0.10124384192E+00  0.51100000000E-03 0.  1.
         11    1    4    4    0    0 -0.22768334612E-01 -0.12164918827E-01 -0.17150136454E-01  0.30996299980E-01  0.51100000000E-03 0. -1.
</event>
<event>
 8    1  0.1054833E+005  0.1043930E+01  0.7957747E-01            NaN
         13   -1    0    0    0    0  0.00000000000E+00  0.00000000000E+00  0.74505805969E-08  0.10566000000E+00  0.10566000000E+00 0. -1.
     999900   -1    0    0    0    0 -0.00000000000E+00 -0.00000000000E+00 -0.74505805969E-08  0.93827000000E+00  0.93827000000E+00 0.  1.
     999902    2    1    2    0    0  0.10842680030E-01 -0.14089183258E-01 -0.16518961011E-01  0.10196618137E+01  0.10193729785E+01 0.  0.
     999903    2    3    3    0    0  0.34321035124E-01  0.12002541345E-01  0.12130439017E+00  0.12824312002E+00  0.20237299865E-01 0.  0.
         14    1    1    2    0    0 -0.10842680030E-01  0.14089183258E-01  0.16518961011E-01  0.24268186335E-01  0.00000000000E+00 0. -1.
     999901    1    3    3    0    0 -0.23478355094E-01 -0.26091724603E-01 -0.13782335119E+00  0.89141869365E+00  0.88000000000E+00 0.  1.
        -11    1    4    4    0    0  0.14220342802E-01 -0.21601331856E-02  0.24990831370E-01  0.28838985737E-01  0.51100000000E-03 0. -1.
         11    1    4    4    0    0  0.20100692322E-01  0.14162674531E-01  0.96313558805E-01  0.99404134282E-01  0.51100000000E-03 0.  1.
</event>
<event>
 8    1  0.1054833E+005  0.1043930E+01  0.7957747E-01            NaN
         13   -1    0    0    0    0  0.00000000000E+00  0.00000000000E+00  0.74505805969E-08  0.10566000000E+00  0.10566000000E+00 0.  1.
     999900   -1    0    0    0    0 -0.00000000000E+00 -0.00000000000E+00 -0.74505805969E-08  0.93827000000E+00  0.93827000000E+00 0.  1.
     999902    2    1    2    0    0 -0.15290060786E-01 -0.64467787870E-02  0.16700745076E-01  0.10203872346E+01  0.10201156046E+01 0.  0.
     999903    2    3    3    0    0 -0.10984668726E+00 -0.63760791096E-01 -0.31517041285E-01  0.13215820642E+00  0.18458993742E-01 0.  0.
         14    1    1    2    0    0  0.15290060786E-01  0.64467787870E-02 -0.16700745076E-01  0.23542765378E-01  0.00000000000E+00 0. -1.
     999901    1    3    3    0    0  0.94556626474E-01  0.57314012309E-01  0.48217786361E-01  0.88822902820E+00  0.88000000000E+00 0. -1.
        -11    1    4    4    0    0 -0.15643160379E-01 -0.37413592699E-02 -0.81566629119E-02  0.18041577167E-01  0.51100000000E-03 0.  1.
         11    1    4    4    0    0 -0.94203526881E-01 -0.60019431826E-01 -0.23360378373E-01  0.11411662925E+00  0.51100000000E-03 0. -1.
</event>
<event>
 8    1  0.1054833E+005  0.1043930E+01  0.7957747E-01            NaN
         13   -1    0    0    0    0  0.00000000000E+00  0.00000000000E+00  0.74505805969E-08  0.10566000000E+00  0.10566000000E+00 0.  1.
     999900   -1    0    0    0    0 -0.00000000000E+00 -0.00000000000E+00 -0.74505805969E-08  0.93827000000E+00  0.93827000000E+00 0. -1.
     999902    2    1    2    0    0  0.96964951844E-02 -0.14398024982E-01 -0.15305609428E-01  0.10207872512E+01  0.10205248774E+01 0.  0.
     999903    2    3    3    0    0  0.55147951823E-01  0.11379657902E+00 -0.24421241304E-01  0.13029144203E+00  0.19710526407E-01 0.  0.
         14    1    1    2    0    0 -0.96964951844E-02  0.14398024982E-01  0.15305609428E-01  0.23142748804E-01  0.00000000000E+00 0.  1.
     999901    1    3    3    0    0 -0.45451456639E-01 -0.12819460400E+00  0.91156318757E-02  0.89049580917E+00  0.88000000000E+00 0.  1.
        -11    1    4    4    0    0  0.20301728232E-01  0.26838104626E-01 -0.12280245778E-01  0.35826102028E-01  0.51100000000E-03 0. -1.
         11    1    4    4    0    0  0.34846223591E-01  0.86958474394E-01 -0.12140995525E-01  0.94465339997E-01  0.51100000000E-03 0.  1.
</event>
<event>
 8    1  0.1054833E+005  0.1043930E+01  0.7957747E-01            NaN
         13   -1    0    0    0    0  0.00000000000E+00  0.00000000000E+00  0.74505805969E-08  0.10566000000E+00  0.10566000000E+00 0.  1.
     999900   -1    0    0    0    0 -0.00000000000E+00 -0.00000000000E+00 -0.74505805969E-08  0.93827000000E+00  0.93827000000E+00 0.  1.
     999902    2    1    2    0    0 -0.20624721286E-02  0.17997189176E-01  0.15667925164E-01  0.10199792904E+01  0.10196980516E+01 0.  0.
     999903    2    3    3    0    0  0.56564580510E-01 -0.10534309085E+00 -0.40092250098E-01  0.12770178141E+00  0.20090741628E-01 0.  0.
         14    1    1    2    0    0  0.20624721286E-02 -0.17997189176E-01 -0.15667925164E-01  0.23950709561E-01  0.00000000000E+00 0. -1.
     999901    1    3    3    0    0 -0.58627052639E-01  0.12334028002E+00  0.55760175262E-01  0.89227750903E+00  0.88000000000E+00 0. -1.
        -11    1    4    4    0    0  0.42400901172E-01 -0.58531267104E-01 -0.25835915684E-01  0.76756115777E-01  0.51100000000E-03 0.  1.
         11    1    4    4    0    0  0.14163679338E-01 -0.46811823744E-01 -0.14256334414E-01  0.50945665631E-01  0.51100000000E-03 0. -1.
</event>
<event>
 8    1  0.1054833E+005  0.1043930E+01  0.7957747E-01            NaN
         13   -1    0    0    0    0  0.00000000000E+00  0.00000000000E+00  0.74505805969E-08  0.10566000000E+00  0.10566000000E+00 0. -1.
     999900   -1    0    0    0    0 -0.00000000000E+00 -0.00000000000E+00 -0.74505805969E-08  0.93827000000E+00  0.93827000000E+00 0. -1.
     999902    2    1    2    0    0  0.18581341117E-01  0.10004585273E-01  0.94889285558E-02  0.10207913369E+01  0.10205290568E+01 0.  0.
     999903    2    3    3    0    0 -0.67449039653E-01 -0.10320645971E+00 -0.30390636350E-01  0.12848626194E+00  0.19600572810E-01 0.  0.
         14    1    1    2    0    0 -0.18581341117E-01 -0.10004585273E-01 -0.94889285558E-02  0.23138663085E-01  0.00000000000E+00 0.  1.
     999901    1    3    3    0    0  0.86030380770E-01  0.11321104498E+00  0.39879564906E-01  0.89230507497E+00  0.88000000000E+00 0. -1.
        -11    1    4    4    0    0 -0.25464743263E-01 -0.24919936920E-01 -0.42559960968E-02  0.35886362721E-01  0.51100000000E-03 0. -1.
         11    1    4    4    0    0 -0.41984296390E-01 -0.78286522790E-01 -0.26134640254E-01  0.92599899223E-01  0.51100000000E-03 0.  1.
</event>
<event>
 8    1  0.1054833E+005  0.1043930E+01  0.7957747E-01            NaN
         13   -1    0    0    0    0  0.00000000000E+00  0.00000000000E+00  0.74505805969E-08  0.10566000000E+00  0.10566000000E+00 0.  1.
     999900   -1    0    0    0    0 -0.00000000000E+00 -0.00000000000E+00 -0.74505805969E-08  0.93827000000E+00  0.93827000000E+00 0.  1.
     999902    2    1    2    0    0  0.15957223685E-01  0.54328474545E-02  0.16190013283E-01  0.10205576798E+01  0.10202900139E+01 0.  0.
     999903    2    3    3    0    0 -0.83027551256E-02  0.92957842770E-01 -0.88035865785E-01  0.12976465942E+00  0.19453968609E-01 0.  0.
         14    1    1    2    0    0 -0.15957223685E-01 -0.54328474545E-02 -0.16190013283E-01  0.23372320152E-01  0.00000000000E+00 0. -1.
     999901    1    3    3    0    0  0.24259978810E-01 -0.87524995315E-01  0.10422587907E+00  0.89079302043E+00  0.88000000000E+00 0. -1.
        -11    1    4    4    0    0 -0.48146245045E-03  0.34005257535E-01 -0.44749295294E-01  0.56208094581E-01  0.51100000000E-03 0.  1.
         11    1    4    4    0    0 -0.78212926751E-02  0.58952585235E-01 -0.43286570491E-01  0.73556564838E-01  0.51100000000E-03 0. -1.
</event>
<event>
 8    1  0.1054833E+005  0.1043930E+01  0.7957747E-01            NaN
         13   -1    0    0    0    0  0.00000000000E+00  0.00000000000E+00  0.74505805969E-08  0.10566000000E+00  0.10566000000E+00 0.  1.
     999900   -1    0    0    0    0 -0.00000000000E+00 -0.00000000000E+00 -0.74505805969E-08  0.93827000000E+00  0.93827000000E+00 0. -1.
     999902    2    1    2    0    0 -0.72996801116E-02 -0.13009226496E-01  0.17961749955E-01  0.10205815575E+01  0.10203144446E+01 0.  0.
     999903    2    3    3    0    0 -0.98704287858E-03 -0.79383962108E-02 -0.12687553643E+00  0.12870521957E+00  0.20090779276E-01 0.  0.
         14    1    1    2    0    0  0.72996801116E-02  0.13009226496E-01 -0.17961749955E-01  0.23348442458E-01  0.00000000000E+00 0.  1.
     999901    1    3    3    0    0 -0.63126372331E-02 -0.50708302850E-02  0.14483728639E+00  0.89187633797E+00  0.88000000000E+00 0.  1.
        -11    1    4    4    0    0  0.72794099078E-02 -0.99407256378E-02 -0.57439528596E-01  0.58748348071E-01  0.51100000000E-03 0. -1.
         11    1    4    4    0    0 -0.82664527864E-02  0.20023294270E-02 -0.69436007834E-01  0.69956871498E-01  0.51100000000E-03 0.  1.
</event>
<event>
 8    1  0.1054833E+005  0.1043930E+01  0.7957747E-01            NaN
         13   -1    0    0    0    0  0.00000000000E+00  0.00000000000E+00  0.74505805969E-08  0.10566000000E+00  0.10566000000E+00 0.  1.
     999900   -1    0    0    0    0 -0.00000000000E+00 -0.00000000000E+00 -0.74505805969E-08  0.93827000000E+00  0.93827000000E+00 0.  1.
     999902    2    1    2    0    0 -0.15076067927E-01 -0.23484671676E-01  0.34818446144E-03  0.10160205238E+01  0.10156371232E+01 0.  0.
     999903    2    3    3    0    0 -0.11605457123E+00  0.45960082669E-01  0.16365028985E-01  0.12738349368E+00  0.19435729622E-01 0.  0.
         14    1    1    2    0    0  0.15076067927E-01  0.23484671676E-01 -0.34818446144E-03  0.27909476174E-01  0.00000000000E+00 0. -1.
     999901    1    3    3    0    0  0.10097850331E+00 -0.69444754345E-01 -0.16016844523E-01  0.88863703014E+00  0.88000000000E+00 0. -1.
        -11    1    4    4    0    0 -0.74277025197E-01  0.32824817414E-01  0.19360617364E-01  0.83484368214E-01  0.51100000000E-03 0. -1.
         11    1    4    4    0    0 -0.41777546036E-01  0.13135265255E-01 -0.29955883793E-02  0.43899125468E-01  0.51100000000E-03 0.  1.
</event>
<event>
 8    1  0.1054833E+005  0.1043930E+01  0.7957747E-01            NaN
         13   -1    0    0    0    0  0.00000000000E+00  0.00000000000E+00  0.74505805969E-08  0.10566000000E+00  0.10566000000E+00 0. -1.
     999900   -1    0    0    0    0 -0.00000000000E+00 -0.00000000000E+00 -0.74505805969E-08  0.93827000000E+00  0.93827000000E+00 0. -1.
     999902    2    1    2    0    0 -0.55909152893E-02  0.24475017240E-02 -0.22238262639E-01  0.10208694509E+01  0.10206089589E+01 0.  0.
     999903    2    3    3    0    0  0.88203404665E-01 -0.70846274637E-01 -0.64649121280E-01  0.13184299854E+00  0.20100551170E-01 0.  0.
         14    1    1    2    0    0  0.55909152893E-02 -0.24475017240E-02  0.22238262639E-01  0.23060549075E-01  0.00000000000E+00 0. -1.
     999901    1    3    3    0    0 -0.93794319955E-01  0.73293776361E-01  0.42410858641E-01  0.88902645238E+00  0.88000000000E+00 0.  1.
        -11    1    4    4    0    0  0.79202872108E-01 -0.69512566663E-01 -0.62345864981E-01  0.12244329249E+00  0.51100000000E-03 0. -1.
         11    1    4    4    0    0  0.90005325569E-02 -0.13337079734E-02 -0.23032562988E-02  0.93997060509E-02  0.51100000000E-03 0.  1.
</event>
<event>
 8    1  0.1054833E+005  0.1043930E+01  0.7957747E-01            NaN
         13   -1    0    0    0    0  0.00000000000E+00  0.00000000000E+00  0.74505805969E-08  0.10566000000E+00  0.10566000000E+00 0.  1.
     999900   -1    0    0    0    0 -0.00000000000E+00 -0.00000000000E+00 -0.74505805969E-08  0.93827000000E+00  0.93827000000E+00 0. -1.
     999902    2    1    2    0    0  0.16218130970E-01 -0.14086199603E-01 -0.92845350293E-02  0.10205280475E+01  0.10202596945E+01 0.  0.
     999903    2    3    3    0    0 -0.85162840707E-01  0.87216450819E-01  0.32925995105E-01  0.12793516309E+00  0.20588007909E-01 0.  0.
         14    1    1    2    0    0 -0.16218130970E-01  0.14086199603E-01  0.92845350293E-02  0.23401952528E-01  0.00000000000E+00 0.  1.
     999901    1    3    3    0    0  0.10138097168E+00 -0.10130265042E+00 -0.42210530134E-01  0.89259288439E+00  0.88000000000E+00 0.  1.
        -11    1    4    4    0    0 -0.56661993813E-01  0.70965775069E-01  0.24038603046E-01  0.93940610661E-01  0.51100000000E-03 0.  1.
         11    1    4    4    0    0 -0.28500846894E-01  0.16250675750E-01  0.88873920585E-02  0.33994552425E-01  0.51100000000E-03 0. -1.
</event>
<event>
 8    1  0.1054833E+005  0.1043930E+01  0.7957747E-01            NaN
         13   -1    0    0    0    0  0.00000000000E+00  0.00000000000E+00  0.74505805969E-08  0.10566000000E+00  0.10566000000E+00 0. -1.
     999900   -1    0    0    0    0 -0.00000000000E+00 -0.00000000000E+00 -0.74505805969E-08  0.93827000000E+00  0.93827000000E+00 0.  1.
     999902    2    1    2    0    0  0.10989563298E-02  0.22473798248E-01  0.97016119909E-02  0.10194269270E+01  0.10191324050E+01 0.  0.
     999903    2    3    3    0    0  0.17774135684E-01 -0.11502175566E+00 -0.44451645971E-01  0.12694966435E+00  0.24379177051E-01 0.  0.
         14    1    1    2    0    0 -0.10989563298E-02 -0.22473798248E-01 -0.97016119909E-02  0.24503073030E-01  0.00000000000E+00 0. -1.
     999901    1    3    3    0    0 -0.16675179354E-01  0.13749555391E+00  0.54153257962E-01  0.89247726262E+00  0.88000000000E+00 0. -1.
        -11    1    4    4    0    0  0.16316717547E-01 -0.96254933322E-01 -0.46256313388E-01  0.10803312043E+00  0.51100000000E-03 0.  1.
         11    1    4    4    0    0  0.14574181365E-02 -0.18766822338E-01  0.18046674170E-02  0.18916543918E-01  0.51100000000E-03 0. -1.
</event>
<event>
 8    1  0.1054833E+005  0.1043930E+01  0.7957747E-01            NaN
         13   -1    0    0    0    0  0.00000000000E+00  0.00000000000E+00  0.74505805969E-08  0.10566000000E+00  0.10566000000E+00 0. -1.
     999900   -1    0    0    0    0 -0.00000000000E+00 -0.00000000000E+00 -0.74505805969E-08  0.93827000000E+00  0.93827000000E+00 0. -1.
     999902    2    1    2    0    0 -0.15934078582E-01 -0.81685899136E-02 -0.16803534210E-01  0.10193743594E+01  0.10190785569E+01 0.  0.
     999903    2    3    3    0    0  0.14682360433E-01  0.12605592458E+00 -0.55350401746E-02  0.12859909845E+00  0.20035558951E-01 0.  0.
         14    1    1    2    0    0  0.15934078582E-01  0.81685899136E-02  0.16803534210E-01  0.24555640562E-01  0.00000000000E+00 0. -1.
     999901    1    3    3    0    0 -0.30616439016E-01 -0.13422451450E+00 -0.11268494036E-01  0.89077526099E+00  0.88000000000E+00 0. -1.
        -11    1    4    4    0    0  0.54075543686E-03  0.70410278552E-01  0.33753454766E-02  0.70495062382E-01  0.51100000000E-03 0.  1.
         11    1    4    4    0    0  0.14141604996E-01  0.55645646030E-01 -0.89103856512E-02  0.58104036068E-01  0.51100000000E-03 0. -1.
</event>
<event>
 8    1  0.1054833E+005  0.1043930E+01  0.7957747E-01            NaN
         13   -1    0    0    0    0  0.00000000000E+00  0.00000000000E+00  0.74505805969E-08  0.10566000000E+00  0.10566000000E+00 0.  1.
     999900   -1    0    0    0    0 -0.00000000000E+00 -0.00000000000E+00 -0.74505805969E-08  0.93827000000E+00  0.93827000000E+00 0.  1.
     999902    2    1    2    0    0  0.51330744365E-03 -0.22419250188E-01  0.64293956832E-02  0.10206014040E+01  0.10203347502E+01 0.  0.
     999903    2    3    3    0    0 -0.73535587643E-01 -0.16843383617E-01  0.10624608142E+00  0.13185076409E+00  0.20129877120E-01 0.  0.
         14    1    1    2    0    0 -0.51330744365E-03  0.22419250188E-01 -0.64293956832E-02  0.23328596022E-01  0.00000000000E+00 0. -1.
     999901    1    3    3    0    0  0.74048895087E-01 -0.55758665705E-02 -0.99816685733E-01  0.88875063989E+00  0.88000000000E+00 0.  1.
        -11    1    4    4    0    0 -0.55224245088E-01 -0.21316368576E-01  0.79131319463E-01  0.98823740345E-01  0.51100000000E-03 0. -1.
         11    1    4    4    0    0 -0.18311342556E-01  0.44729849590E-02  0.27114761953E-01  0.33027023744E-01  0.51100000000E-03 0.  1.
</event>
<event>
 8    1  0.1054833E+005  0.1043930E+01  0.7957747E-01            NaN
         13   -1    0    0    0    0  0.00000000000E+00  0.00000000000E+00  0.74505805969E-08  0.10566000000E+00  0.10566000000E+00 0.  1.
     999900   -1    0    0    0    0 -0.00000000000E+00 -0.00000000000E+00 -0.74505805969E-08  0.93827000000E+00  0.93827000000E+00 0.  1.
     999902    2    1    2    0    0 -0.18534626525E-01 -0.13998098370E-01  0.62373812935E-02  0.10198803833E+01  0.10195967890E+01 0.  0.
     999903    2    3    3    0    0 -0.70443670994E-01 -0.10198040575E+00  0.44348739500E-01  0.13315161364E+00  0.20005688656E-01 0.  0.
         14    1    1    2    0    0  0.18534626525E-01  0.13998098370E-01 -0.62373812935E-02  0.24049616708E-01  0.00000000000E+00 0. -1.
     999901    1    3    3    0    0  0.51909044468E-01  0.87982307381E-01 -0.38111358206E-01  0.88672876966E+00  0.88000000000E+00 0.  1.
        -11    1    4    4    0    0 -0.19077418634E-01 -0.44232694153E-01  0.14637037178E-01  0.50348615791E-01  0.51100000000E-03 0.  1.
         11    1    4    4    0    0 -0.51366252360E-01 -0.57747711599E-01  0.29711702321E-01  0.82802997845E-01  0.51100000000E-03 0. -1.
</event>
<event>
 8    1  0.1054833E+005  0.1043930E+01  0.7957747E-01            NaN
         13   -1    0    0    0    0  0.00000000000E+00  0.00000000000E+00  0.74505805969E-08  0.10566000000E+00  0.10566000000E+00 0. -1.
     999900   -1    0    0    0    0 -0.00000000000E+00 -0.00000000000E+00 -0.74505805969E-08  0.93827000000E+00  0.93827000000E+00 0. -1.
     999902    2    1    2    0    0  0.26568508827E-01  0.60555208219E-05 -0.39197219919E-03  0.10173585992E+01  0.10170115437E+01 0.  0.
     999903    2    3    3    0    0  0.23438534574E-02  0.11517038558E+00  0.51927577831E-01  0.12798410432E+00  0.20340753511E-01 0.  0.
         14    1    1    2    0    0 -0.26568508827E-01 -0.60555208219E-05  0.39197219919E-03  0.26571400794E-01  0.00000000000E+00 0. -1.
     999901    1    3    3    0    0  0.24224655370E-01 -0.11516433006E+00 -0.52319550030E-01  0.88937449489E+00  0.88000000000E+00 0. -1.
        -11    1    4    4    0    0 -0.70599788865E-02  0.73469328293E-01  0.27637478417E-01  0.78814191844E-01  0.51100000000E-03 0. -1.
         11    1    4    4    0    0  0.94038323439E-02  0.41701057291E-01  0.24290099414E-01  0.49169912472E-01  0.51100000000E-03 0.  1.
</event>
<event>
 8    1  0.1054833E+005  0.1043930E+01  0.7957747E-01            NaN
         13   -1    0    0    0    0  0.00000000000E+00  0.00000000000E+00  0.74505805969E-08  0.10566000000E+00  0.10566000000E+00 0. -1.
     999900   -1    0    0    0    0 -0.00000000000E+00 -0.00000000000E+00 -0.74505805969E-08  0.93827000000E+00  0.93827000000E+00 0.  1.
     999902    2    1    2    0    0  0.71211927684E-02 -0.60923348777E-02 -0.21785277238E-01  0.10202144727E+01  0.10199387943E+01 0.  0.
     999903    2    3    3    0    0 -0.88584978115E-01  0.29354506915E-01  0.85290346355E-01  0.12786849781E+00  0.19155263685E-01 0.  0.
         14    1    1    2    0    0 -0.71211927684E-02  0.60923348777E-02  0.21785277238E-01  0.23715527298E-01  0.00000000000E+00 0. -1.
     999901    1    3    3    0    0  0.95706170884E-01 -0.35446841792E-01 -0.10707562359E+00  0.89234597489E+00  0.88000000000E+00 0.  1.
        -11    1    4    4    0    0 -0.73296745619E-01  0.30528049267E-01  0.66205961357E-01  0.10338213168E+00  0.51100000000E-03 0.  1.
         11    1    4    4    0    0 -0.15288232496E-01 -0.11735423520E-02  0.19084384998E-01  0.24486366130E-01  0.51100000000E-03 0. -1.
</event>
<event>
 8    1  0.1054833E+005  0.1043930E+01  0.7957747E-01            NaN
         13   -1    0    0    0    0  0.00000000000E+00  0.00000000000E+00  0.74505805969E-08  0.10566000000E+00  0.10566000000E+00 0.  1.
     999900   -1    0    0    0    0 -0.00000000000E+00 -0.00000000000E+00 -0.74505805969E-08  0.93827000000E+00  0.93827000000E+00 0.  1.
     999902    2    1    2    0    0  0.13327081429E-01 -0.43679106954E-02  0.19353375552E-01  0.10200293120E+01  0.10197492605E+01 0.  0.
     999903    2    3    3    0    0 -0.16000250876E-02 -0.12853111916E+00 -0.12308972901E-01  0.13062399089E+00  0.19705519814E-01 0.  0.
         14    1    1    2    0    0 -0.13327081429E-01  0.43679106954E-02 -0.19353375552E-01  0.23900688034E-01  0.00000000000E+00 0.  1.
     999901    1    3    3    0    0  0.14927106517E-01  0.12416320846E+00  0.31662348453E-01  0.88940532107E+00  0.88000000000E+00 0.  1.
        -11    1    4    4    0    0  0.22046295520E-02 -0.10131972177E+00 -0.22809720126E-02  0.10137065831E+00  0.51100000000E-03 0.  1.
         11    1    4    4    0    0 -0.38046546395E-02 -0.27211397382E-01 -0.10028000888E-01  0.29253332583E-01  0.51100000000E-03 0. -1.
</event>
<event>
 8    1  0.1054833E+005  0.1043930E+01  0.7957747E-01            NaN
         13   -1    0    0    0    0  0.00000000000E+00  0.00000000000E+00  0.74505805969E-08  0.10566000000E+00  0.10566000000E+00 0.  1.
     999900   -1    0    0    0    0 -0.00000000000E+00 -0.00000000000E+00 -0.74505805969E-08  0.93827000000E+00  0.93827000000E+00 0.  1.
     999902    2    1    2    0    0 -0.13458402811E-01 -0.35128726118E-02 -0.18997726405E-01  0.10203846716E+01  0.10201129818E+01 0.  0.
     999903    2    3    3    0    0 -0.28843879136E-01 -0.12211612918E+00  0.31502704513E-01  0.13086022627E+00  0.19689084691E-01 0.  0.
         14    1    1    2    0    0  0.13458402811E-01  0.35128726118E-02  0.18997726405E-01  0.23545328385E-01  0.00000000000E+00 0.  1.
     999901    1    3    3    0    0  0.15385476325E-01  0.11860325657E+00 -0.50500430918E-01  0.88952444535E+00  0.88000000000E+00 0. -1.
        -11    1    4    4    0    0 -0.15464120985E-01 -0.85183498239E-01  0.13411515893E-01  0.87609915476E-01  0.51100000000E-03 0. -1.
         11    1    4    4    0    0 -0.13379758151E-01 -0.36932630945E-01  0.18091188619E-01  0.43250310789E-01  0.51100000000E-03 0.  1.
</event>
<event>
 8    1  0.1054833E+005  0.1043930E+01  0.7957747E-01            NaN
         13   -1    0    0    0    0  0.00000000000E+00  0.00000000000E+00  0.74505805969E-08  0.10566000000E+00  0.10566000000E+00 0.  1.
     999900   -1    0    0    0    0 -0.00000000000E+00 -0.00000000000E+00 -0.74505805969E-08  0.93827000000E+00  0.93827000000E+00 0. -1.
     999902    2    1    2    0    0 -0.27019778908E-02  0.72169589209E-02 -0.24045001387E-01  0.10186803015E+01  0.10183673254E+01 0.  0.
     999903    2    3    3    0    0  0.74644960415E-01 -0.17990208431E-01  0.98464661733E-01  0.12647709167E+00  0.20140689949E-01 0.  0.
         14    1    1    2    0    0  0.27019778908E-02 -0.72169589209E-02  0.24045001387E-01  0.25249698459E-01  0.00000000000E+00 0.  1.
     999901    1    3    3    0    0 -0.77346938306E-01  0.25207167352E-01 -0.12250966312E+00  0.89220320987E+00  0.88000000000E+00 0. -1.
        -11    1    4    4    0    0  0.84535248924E-02 -0.60725222637E-02  0.23827357197E-01  0.26006569973E-01  0.51100000000E-03 0. -1.
         11    1    4    4    0    0  0.66191435523E-01 -0.11917686168E-01  0.74637304535E-01  0.10047052169E+00  0.51100000000E-03 0.  1.
</event>
<event>
 8    1  0.1054833E+005  0.1043930E+01  0.7957747E-01            NaN
         13   -1    0    0    0    0  0.00000000000E+00  0.00000000000E+00  0.74505805969E-08  0.10566000000E+00  0.10566000000E+00 0.  1.
     999900   -1    0    0    0    0 -0.00000000000E+00 -0.00000000000E+00 -0.74505805969E-08  0.93827000000E+00  0.93827000000E+00 0. -1.
     999902    2    1    2    0    0  0.94114687892E-02  0.19109564263E-01  0.51194072982E-02  0.10220220215E+01  0.10217871857E+01 0.  0.
     999903    2    3    3    0    0 -0.10182074481E+00 -0.59983350720E-01 -0.50507121592E-01  0.12976499280E+00  0.17958774655E-01 0.  0.
         14    1    1    2    0    0 -0.94114687892E-02 -0.19109564263E-01 -0.51194072982E-02  0.21907978505E-01  0.00000000000E+00 0.  1.
     999901    1    3    3    0    0  0.11123221360E+00  0.79092914983E-01  0.55626528890E-01  0.89225702870E+00  0.88000000000E+00 0.  1.
        -11    1    4    4    0    0 -0.16165842279E-01 -0.65252966937E-02 -0.14117819715E-01  0.22438536228E-01  0.51100000000E-03 0. -1.
         11    1    4    4    0    0 -0.85654902531E-01 -0.53458054026E-01 -0.36389301877E-01  0.10732645657E+00  0.51100000000E-03 0.  1.
</event>
<event>
 8    1  0.1054833E+005  0.1043930E+01  0.7957747E-01            NaN
         13   -1    0    0    0    0  0.00000000000E+00  0.00000000000E+00  0.74505805969E-08  0.10566000000E+00  0.10566000000E+00 0.  1.
     999900   -1    0    0    0    0 -0.00000000000E+00 -0.00000000000E+00 -0.74505805969E-08  0.93827000000E+00  0.93827000000E+00 0.  1.
     999902    2    1    2    0    0 -0.14782822558E-01 -0.71629658313E-02  0.15873964810E-01  0.10210865615E+01  0.10208310063E+01 0.  0.
     999903    2    3    3    0    0 -0.19828259880E-01  0.11868177761E+00  0.48920510455E-01  0.13150551965E+00  0.20541692483E-01 0.  0.
         14    1    1    2    0    0  0.14782822558E-01  0.71629658313E-02 -0.15873964810E-01  0.22843438469E-01  0.00000000000E+00 0. -1.
     999901    1    3    3    0    0  0.50454373221E-02 -0.12584474344E+00 -0.33046545645E-01  0.88958104188E+00  0.88000000000E+00 0.  1.
        -11    1    4    4    0    0 -0.62104784537E-02  0.72949284861E-01  0.38262136522E-01  0.82610050336E-01  0.51100000000E-03 0. -1.
         11    1    4    4    0    0 -0.13617781426E-01  0.45732492748E-01  0.10658373932E-01  0.48895469317E-01  0.51100000000E-03 0.  1.
</event>
<event>
 8    1  0.1054833E+005  0.1043930E+01  0.7957747E-01            NaN
         13   -1    0    0    0    0  0.00000000000E+00  0.00000000000E+00  0.74505805969E-08  0.10566000000E+00  0.10566000000E+00 0.  1.
     999900   -1    0    0    0    0 -0.00000000000E+00 -0.00000000000E+00 -0.74505805969E-08  0.93827000000E+00  0.93827000000E+00 0. -1.
     999902    2    1    2    0    0 -0.66331861862E-02 -0.23636306482E-01 -0.69537312718E-02  0.10184147394E+01  0.10180950609E+01 0.  0.
     999903    2    3    3    0    0  0.37926791883E-01 -0.10665002716E+00  0.62194356370E-01  0.13068824581E+00  0.19965214536E-01 0.  0.
         14    1    1    2    0    0  0.66331861862E-02  0.23636306482E-01  0.69537312718E-02  0.25515260565E-01  0.00000000000E+00 0.  1.
     999901    1    3    3    0    0 -0.44559978069E-01  0.83013720680E-01 -0.69148087641E-01  0.88772649363E+00  0.88000000000E+00 0. -1.
        -11    1    4    4    0    0  0.23607080499E-01 -0.37890074909E-01  0.22156062555E-01  0.49840789071E-01  0.51100000000E-03 0. -1.
         11    1    4    4    0    0  0.14319711384E-01 -0.68759952253E-01  0.40038293814E-01  0.80847456735E-01  0.51100000000E-03 0.  1.
</event>
<event>
 8    1  0.1054833E+005  0.1043930E+01  0.7957747E-01            NaN
         13   -1    0    0    0    0  0.00000000000E+00  0.00000000000E+00  0.74505805969E-08  0.10566000000E+00  0.10566000000E+00 0. -1.
     999900   -1    0    0    0    0 -0.00000000000E+00 -0.00000000000E+00 -0.74505805969E-08  0.93827000000E+00  0.93827000000E+00 0. -1.
     999902    2    1    2    0    0 -0.25719766780E-02 -0.34626224842E-02  0.23145305181E-01  0.10203862116E+01  0.10201145577E+01 0.  0.
     999903    2    3    3    0    0  0.86379529803E-01  0.10597127970E-01  0.98758801964E-01  0.13256446828E+00  0.15694425580E-01 0.  0.
         14    1    1    2    0    0  0.25719766780E-02  0.34626224842E-02 -0.23145305181E-01  0.23543788362E-01  0.00000000000E+00 0.  1.
     999901    1    3    3    0    0 -0.88951506481E-01 -0.14059750455E-01 -0.75613496783E-01  0.88782174336E+00  0.88000000000E+00 0. -1.
        -11    1    4    4    0    0  0.16951187399E-01 -0.33086593261E-02  0.14960275298E-01  0.22855216883E-01  0.51100000000E-03 0.  1.
         11    1    4    4    0    0  0.69428342404E-01  0.13905787296E-01  0.83798526666E-01  0.10970925139E+00  0.51100000000E-03 0. -1.
</event>
<event>
 8    1  0.1054833E+005  0.1043930E+01  0.7957747E-01            NaN
         13   -1    0    0    0    0  0.00000000000E+00  0.00000000000E+00  0.74505805969E-08  0.10566000000E+00  0.10566000000E+00 0.  1.
     999900   -1    0    0    0    0 -0.00000000000E+00 -0.00000000000E+00 -0.74505805969E-08  0.93827000000E+00  0.93827000000E+00 0.  1.
     999902    2    1    2    0    0  0.23019967864E-01 -0.42272926628E-02 -0.38564836734E-02  0.10202095154E+01  0.10199337203E+01 0.  0.
     999903    2    3    3    0    0 -0.77748503032E-01  0.72143738696E-01 -0.69986361840E-01  0.12871639711E+00  0.20500519136E-01 0.  0.
         14    1    1    2    0    0 -0.23019967864E-01  0.42272926628E-02  0.38564836734E-02  0.23720484608E-01  0.00000000000E+00 0.  1.
     999901    1    3    3    0    0  0.10076847090E+00 -0.76371031359E-01  0.66129878166E-01  0.89149311828E+00  0.88000000000E+00 0.  1.
        -11    1    4    4    0    0 -0.32616596065E-01  0.35942087348E-01 -0.20924441404E-01  0.52856119332E-01  0.51100000000E-03 0.  1.
         11    1    4    4    0    0 -0.45131906966E-01  0.36201651348E-01 -0.49061920436E-01  0.75860277778E-01  0.51100000000E-03 0. -1.
</event>
<event>
 8    1  0.1054833E+005  0.1043930E+01  0.7957747E-01            NaN
         13   -1    0    0    0    0  0.00000000000E+00  0.00000000000E+00  0.74505805969E-08  0.10566000000E+00  0.10566000000E+00 0. -1.
     999900   -1    0    0    0    0 -0.00000000000E+00 -0.00000000000E+00 -0.74505805969E-08  0.93827000000E+00  0.93827000000E+00 0. -1.
     999902    2    1    2    0    0 -0.14645445082E-01 -0.15869091758E-01 -0.97009588150E-02  0.10202566872E+01  0.10199820009E+01 0.  0.
     999903    2    3    3    0    0 -0.58813067479E-03  0.11949999123E+00 -0.44633123589E-01  0.12910986834E+00  0.19916038223E-01 0.  0.
         14    1    1    2    0    0  0.14645445082E-01  0.15869091758E-01  0.97009588150E-02  0.23673312755E-01  0.00000000000E+00 0. -1.
     999901    1    3    3    0    0 -0.14057314407E-01 -0.13536908299E+00  0.34932164774E-01  0.89114681891E+00  0.88000000000E+00 0.  1.
        -11    1    4    4    0    0 -0.87091348758E-02  0.63973247859E-01 -0.18232460752E-01  0.67090306439E-01  0.51100000000E-03 0.  1.
         11    1    4    4    0    0  0.81210042010E-02  0.55526743371E-01 -0.26400662837E-01  0.62019561897E-01  0.51100000000E-03 0. -1.
</event>
<event>
 8    1  0.1054833E+005  0.1043930E+01  0.7957747E-01            NaN
         13   -1    0    0    0    0  0.00000000000E+00  0.00000000000E+00  0.74505805969E-08  0.10566000000E+00  0.10566000000E+00 0. -1.
     999900   -1    0    0    0    0 -0.00000000000E+00 -0.00000000000E+00 -0.74505805969E-08  0.93827000000E+00  0.93827000000E+00 0. -1.
     999902    2    1    2    0    0  0.86219825775E-03 -0.41192190920E-02 -0.23759505915E-01  0.10198006512E+01  0.10195151508E+01 0.  0.
     999903    2    3    3    0    0  0.37337779831E-01  0.39219058825E-01 -0.11961071847E+00  0.13278535859E+00  0.19823801488E-01 0.  0.
         14    1    1    2    0    0 -0.86219825775E-03  0.41192190920E-02  0.23759505915E-01  0.24129348791E-01  0.00000000000E+00 0. -1.
     999901    1    3    3    0    0 -0.36475581574E-01 -0.43338277917E-01  0.95851212558E-01  0.88701529261E+00  0.88000000000E+00 0.  1.
        -11    1    4    4    0    0  0.14860799041E-01  0.33544862170E-02 -0.35078417596E-01  0.38247253861E-01  0.51100000000E-03 0.  1.
         11    1    4    4    0    0  0.22476980790E-01  0.35864572608E-01 -0.84532300877E-01  0.94538104732E-01  0.51100000000E-03 0. -1.
</event>
<event>
 8    1  0.1054833E+005  0.1043930E+01  0.7957747E-01            NaN
         13   -1    0    0    0    0  0.00000000000E+00  0.00000000000E+00  0.74505805969E-08  0.10566000000E+00  0.10566000000E+00 0. -1.
     999900   -1    0    0    0    0 -0.00000000000E+00 -0.00000000000E+00 -0.74505805969E-08  0.93827000000E+00  0.93827000000E+00 0. -1.
     999902    2    1    2    0    0  0.21301775400E-01 -0.74458955558E-02 -0.67762047351E-02  0.10203689316E+01  0.10200968741E+01 0.  0.
     999903    2    3    3    0    0  0.10188516273E+00 -0.82340364956E-01  0.79832141856E-02  0.13339615615E+00  0.23880550252E-01 0.  0.
         14    1    1    2    0    0 -0.21301775400E-01  0.74458955558E-02  0.67762047351E-02  0.23561068448E-01  0.00000000000E+00 0. -1.
     999901    1    3    3    0    0 -0.80583387333E-01  0.74894469400E-01 -0.14759418921E-01  0.88697277540E+00  0.88000000000E+00 0.  1.
        -11    1    4    4    0    0  0.88127505381E-01 -0.63632432908E-01 -0.40226706165E-03  0.10870127259E+00  0.51100000000E-03 0. -1.
         11    1    4    4    0    0  0.13757657351E-01 -0.18707932047E-01  0.83854812473E-02  0.24694883560E-01  0.51100000000E-03 0.  1.
</event>
<event>
 8    1  0.1054833E+005  0.1043930E+01  0.7957747E-01            NaN
         13   -1    0    0    0    0  0.00000000000E+00  0.00000000000E+00  0.74505805969E-08  0.10566000000E+00  0.10566000000E+00 0. -1.
     999900   -1    0    0    0    0 -0.00000000000E+00 -0.00000000000E+00 -0.74505805969E-08  0.93827000000E+00  0.93827000000E+00 0. -1.
     999902    2    1    2    0    0 -0.21465247495E-01 -0.49426473981E-02  0.82374107043E-02  0.10204131646E+01  0.10201421396E+01 0.  0.
     999903    2    3    3    0    0 -0.12829534056E+00  0.77177959914E-02 -0.27969000284E-01  0.13312298667E+00  0.20498922346E-01 0.  0.
         14    1    1    2    0    0  0.21465247495E-01  0.49426473981E-02 -0.82374107043E-02  0.23516835425E-01  0.00000000000E+00 0. -1.
     999901    1    3    3    0    0  0.10683009307E+00 -0.12660443389E-01  0.36206410988E-01  0.88729017791E+00  0.88000000000E+00 0.  1.
        -11    1    4    4    0    0 -0.10388262247E+00  0.10330384333E-01 -0.15368099452E-01  0.10552135184E+00  0.51100000000E-03 0.  1.
         11    1    4    4    0    0 -0.24412718089E-01 -0.26125883417E-02 -0.12600900833E-01  0.27601634827E-01  0.51100000000E-03 0. -1.
</event>
<event>
 8    1  0.1054833E+005  0.1043930E+01  0.7957747E-01            NaN
         13   -1    0    0    0    0  0.00000000000E+00  0.00000000000E+00  0.74505805969E-08  0.10566000000E+00  0.10566000000E+00 0. -1.
     999900   -1    0    0    0    0 -0.00000000000E+00 -0.00000000000E+00 -0.74505805969E-08  0.93827000000E+00  0.93827000000E+00 0. -1.
     999902    2    1    2    0    0 -0.84594101345E-02 -0.94462840366E-02  0.18782343169E-01  0.10212679101E+01  0.10210164416E+01 0.  0.
     999903    2    3    3    0    0 -0.10834772810E+00  0.70845070770E-01  0.15889184577E-01  0.13198013439E+00  0.20199887386E-01 0.  0.
         14    1    1    2    0    0  0.84594101345E-02  0.94462840366E-02 -0.18782343169E-01  0.22662089861E-01  0.00000000000E+00 0.  1.
     999901    1    3    3    0    0  0.99888317970E-01 -0.80291354806E-01  0.28931585926E-02  0.88928777575E+00  0.88000000000E+00 0. -1.
        -11    1    4    4    0    0 -0.71904714143E-01  0.38115078949E-01  0.16263961070E-01  0.82992919638E-01  0.51100000000E-03 0.  1.
         11    1    4    4    0    0 -0.36443013961E-01  0.32729991821E-01 -0.37477649332E-03  0.48987214756E-01  0.51100000000E-03 0. -1.
</event>
<event>
 8    1  0.1054833E+005  0.1043930E+01  0.7957747E-01            NaN
         13   -1    0    0    0    0  0.00000000000E+00  0.00000000000E+00  0.74505805969E-08  0.10566000000E+00  0.10566000000E+00 0.  1.
     999900   -1    0    0    0    0 -0.00000000000E+00 -0.00000000000E+00 -0.74505805969E-08  0.93827000000E+00  0.93827000000E+00 0.  1.
     999902    2    1    2    0    0  0.14983539649E-01 -0.18796429376E-01 -0.19617412086E-02  0.10198123582E+01  0.10195271381E+01 0.  0.
     999903    2    3    3    0    0  0.52762169878E-01 -0.14293388522E-01 -0.11780527569E+00  0.13140522925E+00  0.20027575221E-01 0.  0.
         14    1    1    2    0    0 -0.14983539649E-01  0.18796429376E-01  0.19617412086E-02  0.24117641806E-01  0.00000000000E+00 0.  1.
     999901    1    3    3    0    0 -0.37778630228E-01 -0.45030408543E-02  0.11584353448E+00  0.88840712894E+00  0.88000000000E+00 0. -1.
        -11    1    4    4    0    0  0.18943241897E-01 -0.13639760688E-01 -0.60647791101E-01  0.64986961551E-01  0.51100000000E-03 0. -1.
         11    1    4    4    0    0  0.33818927981E-01 -0.65362783460E-03 -0.57157484584E-01  0.66418267698E-01  0.51100000000E-03 0.  1.
</event>
<event>
 8    1  0.1054833E+005  0.1043930E+01  0.7957747E-01            NaN
         13   -1    0    0    0    0  0.00000000000E+00  0.00000000000E+00  0.74505805969E-08  0.10566000000E+00  0.10566000000E+00 0.  1.
     999900   -1    0    0    0    0 -0.00000000000E+00 -0.00000000000E+00 -0.74505805969E-08  0.93827000000E+00  0.93827000000E+00 0.  1.
     999902    2    1    2    0    0  0.14218175214E-01  0.14396280714E-01 -0.12098850785E-01  0.10203547673E+01  0.10200823788E+01 0.  0.
     999903    2    3    3    0    0 -0.97210718564E-01 -0.54553120365E-01 -0.62334946746E-01  0.12923519982E+00  0.19751570590E-01 0.  0.
         14    1    1    2    0    0 -0.14218175214E-01 -0.14396280714E-01  0.12098850785E-01  0.23575232664E-01  0.00000000000E+00 0.  1.
     999901    1    3    3    0    0  0.11142889378E+00  0.68949401080E-01  0.50236095960E-01  0.89111956752E+00  0.88000000000E+00 0.  1.
        -11    1    4    4    0    0 -0.14538823245E-01 -0.63451552118E-02 -0.17487745404E-02  0.15967395198E-01  0.51100000000E-03 0.  1.
         11    1    4    4    0    0 -0.82671895318E-01 -0.48207965154E-01 -0.60586172205E-01  0.11326780462E+00  0.51100000000E-03 0. -1.
</event>
<event>
 8    1  0.1054833E+005  0.1043930E+01  0.7957747E-01            NaN
         13   -1    0    0    0    0  0.00000000000E+00  0.00000000000E+00  0.74505805969E-08  0.10566000000E+00  0.10566000000E+00 0. -1.
     999900   -1    0    0    0    0 -0.00000000000E+00 -0.00000000000E+00 -0.74505805969E-08  0.93827000000E+00  0.93827000000E+00 0.  1.
     999902    2    1    2    0    0 -0.62873087509E-03  0.12616359427E-01 -0.17046485171E-01  0.10227132499E+01  0.10224931496E+01 0.  0.
     999903    2    3    3    0    0 -0.63931534925E-01  0.68614821623E-01  0.90921209615E-01  0.13209543295E+00  0.19679993499E-01 0.  0.
         14    1    1    2    0    0  0.62873087509E-03 -0.12616359427E-01  0.17046485171E-01  0.21216750090E-01  0.00000000000E+00 0. -1.
     999901    1    3    3    0    0  0.63302804050E-01 -0.55998462196E-01 -0.10796769479E+00  0.89061781696E+00  0.88000000000E+00 0.  1.
        -11    1    4    4    0    0 -0.40353332993E-01  0.29631754712E-01  0.51820945747E-01  0.72056255176E-01  0.51100000000E-03 0. -1.
         11    1    4    4    0    0 -0.23578201933E-01  0.38983066912E-01  0.39100263869E-01  0.60039177774E-01  0.51100000000E-03 0.  1.
</event>
<event>
 8    1  0.1054833E+005  0.1043930E+01  0.7957747E-01            NaN
         13   -1    0    0    0    0  0.00000000000E+00  0.00000000000E+00  0.74505805969E-08  0.10566000000E+00  0.10566000000E+00 0. -1.
     999900   -1    0    0    0    0 -0.00000000000E+00 -0.00000000000E+00 -0.74505805969E-08  0.93827000000E+00  0.93827000000E+00 0. -1.
     999902    2    1    2    0    0  0.28160880094E-02 -0.21230774641E-01 -0.93475033110E-02  0.10205622453E+01  0.10202946851E+01 0.  0.
     999903    2    3    3    0    0 -0.99896110917E-01 -0.81334677370E-01  0.18957352087E-01  0.13210096880E+00  0.22287261825E-01 0.  0.
         14    1    1    2    0    0 -0.28160880094E-02  0.21230774641E-01  0.93475033110E-02  0.23367754742E-01  0.00000000000E+00 0. -1.
     999901    1    3    3    0    0  0.10271219893E+00  0.60103902729E-01 -0.28304855398E-01  0.88846127646E+00  0.88000000000E+00 0. -1.
        -11    1    4    4    0    0 -0.17858134814E-01 -0.66353723746E-02  0.77874845130E-02  0.20587549189E-01  0.51100000000E-03 0.  1.
         11    1    4    4    0    0 -0.82037976103E-01 -0.74699304996E-01  0.11169867574E-01  0.11151341961E+00  0.51100000000E-03 0. -1.
</event>
<event>
 8    1  0.1054833E+005  0.1043930E+01  0.7957747E-01            NaN
         13   -1    0    0    0    0  0.00000000000E+00  0.00000000000E+00  0.74505805969E-08  0.10566000000E+00  0.10566000000E+00 0. -1.
     999900   -1    0    0    0    0 -0.00000000000E+00 -0.00000000000E+00 -0.74505805969E-08  0.93827000000E+00  0.93827000000E+00 0. -1.
     999902    2    1    2    0    0 -0.19640191969E-01  0.81895541928E-02  0.10458663933E-01  0.10202194625E+01  0.10199439014E+01 0.  0.
     999903    2    3    3    0    0 -0.39837444633E-01 -0.13400497966E-01 -0.12133606968E+00  0.12991394684E+00  0.19712849569E-01 0.  0.
         14    1    1    2    0    0  0.19640191969E-01 -0.81895541928E-02 -0.10458663933E-01  0.23710537525E-01  0.00000000000E+00 0.  1.
     999901    1    3    3    0    0  0.20197252665E-01  0.21590052159E-01  0.13179473361E+00  0.89030551564E+00  0.88000000000E+00 0.  1.
        -11    1    4    4    0    0  0.17931346382E-02 -0.20577548138E-02 -0.13144204606E-01  0.13434318830E-01  0.51100000000E-03 0.  1.
         11    1    4    4    0    0 -0.41630579272E-01 -0.11342743152E-01 -0.10819186507E+00  0.11647962801E+00  0.51100000000E-03 0. -1.
</event>
<event>
 8    1  0.1054833E+005  0.1043930E+01  0.7957747E-01            NaN
         13   -1    0    0    0    0  0.00000000000E+00  0.00000000000E+00  0.74505805969E-08  0.10566000000E+00  0.10566000000E+00 0.  1.
     999900   -1    0    0    0    0 -0.00000000000E+00 -0.00000000000E+00 -0.74505805969E-08  0.93827000000E+00  0.93827000000E+00 0.  1.
     999902    2    1    2    0    0 -0.10870909457E-01  0.46852146148E-02 -0.20860258466E-01  0.10199450403E+01  0.10196629869E+01 0.  0.
     999903    2    3    3    0    0  0.13534152310E-01 -0.80927479531E-01 -0.10139660487E+00  0.13179457809E+00  0.18870853491E-01 0.  0.
         14    1    1    2    0    0  0.10870909457E-01 -0.46852146148E-02  0.20860258466E-01  0.23984959697E-01  0.00000000000E+00 0.  1.
     999901    1    3    3    0    0 -0.24405061767E-01  0.85612694146E-01  0.80536346408E-01  0.88815046221E+00  0.88000000000E+00 0. -1.
        -11    1    4    4    0    0  0.17946573089E-01 -0.57249142836E-01 -0.75251195829E-01  0.96242129215E-01  0.51100000000E-03 0. -1.
         11    1    4    4    0    0 -0.44124207787E-02 -0.23678336695E-01 -0.26145409045E-01  0.35552448874E-01  0.51100000000E-03 0.  1.
</event>
<event>
 8    1  0.1054833E+005  0.1043930E+01  0.7957747E-01            NaN
         13   -1    0    0    0    0  0.00000000000E+00  0.00000000000E+00  0.74505805969E-08  0.10566000000E+00  0.10566000000E+00 0. -1.
     999900   -1    0    0    0    0 -0.00000000000E+00 -0.00000000000E+00 -0.74505805969E-08  0.93827000000E+00  0.93827000000E+00 0.  1.
     999902    2    1    2    0    0 -0.15963595006E-01 -0.17041902046E-01  0.28429452660E-02  0.10204067109E+01  0.10201355354E+01 0.  0.
     999903    2    3    3    0    0 -0.83756760766E-01  0.97825515410E-01  0.16700904648E-02  0.13035513237E+00  0.20115787154E-01 0.  0.
         14    1    1    2    0    0  0.15963595006E-01  0.17041902046E-01 -0.28429452660E-02  0.23523289069E-01  0.00000000000E+00 0.  1.
     999901    1    3    3    0    0  0.67793165760E-01 -0.11486741746E+00  0.11728548012E-02  0.89005157856E+00  0.88000000000E+00 0. -1.
        -11    1    4    4    0    0 -0.57449749198E-01  0.79221252295E-01 -0.22919700215E-02  0.97887663909E-01  0.51100000000E-03 0.  1.
         11    1    4    4    0    0 -0.26307011568E-01  0.18604263115E-01  0.39620604863E-02  0.32467468457E-01  0.51100000000E-03 0. -1.
</event>
<event>
 7    1  0.1348072E+005  0.1043930E+01  0.7957747E-01            NaN
         13   -1    0    0    0    0  0.00000000000E+00  0.00000000000E+00  0.74505805969E-08  0.10566000000E+00  0.10566000000E+00 0. -1.
     999900   -1    0    0    0    0 -0.00000000000E+00 -0.00000000000E+00 -0.74505805969E-08  0.93827000000E+00  0.93827000000E+00 0.  1.
     999902    2    1    2    0    0  0.52559840671E-02  0.11299644993E-01 -0.21302066153E-01  0.10192503451E+01  0.10189515104E+01 0.  0.
         14    1    1    2    0    0 -0.52559840671E-02 -0.11299644993E-01  0.21302066153E-01  0.24679654938E-01  0.00000000000E+00 0. -1.
     999901    1    3    3    0    0  0.12370003824E+00 -0.27925080458E-01 -0.27014629320E-01  0.88950059009E+00  0.88000000000E+00 0. -1.
        -11    1    3    3    0    0 -0.67719919433E-01  0.11421156729E-01  0.17141094365E-01  0.70784945759E-01  0.51100000000E-03 0.  1.
         11    1    3    3    0    0 -0.50724134740E-01  0.27803568722E-01 -0.11428531198E-01  0.58964809210E-01  0.51100000000E-03 0. -1.
</event>
<event>
 8    1  0.1054833E+005  0.1043930E+01  0.7957747E-01            NaN
         13   -1    0    0    0    0  0.00000000000E+00  0.00000000000E+00  0.74505805969E-08  0.10566000000E+00  0.10566000000E+00 0. -1.
     999900   -1    0    0    0    0 -0.00000000000E+00 -0.00000000000E+00 -0.74505805969E-08  0.93827000000E+00  0.93827000000E+00 0.  1.
     999902    2    1    2    0    0 -0.10025394880E-01  0.30090550528E-02  0.21305989247E-01  0.10201916738E+01  0.10199154588E+01 0.  0.
     999903    2    3    3    0    0 -0.11427309496E-01 -0.63769774644E-01 -0.10591493028E+00  0.12853785090E+00  0.33269191400E-01 0.  0.
         14    1    1    2    0    0  0.10025394880E-01 -0.30090550528E-02 -0.21305989247E-01  0.23738326238E-01  0.00000000000E+00 0.  1.
     999901    1    3    3    0    0  0.14019146159E-02  0.66778829697E-01  0.12722091953E+00  0.89165382286E+00  0.88000000000E+00 0. -1.
        -11    1    4    4    0    0 -0.19429184504E-01 -0.42460778073E-01 -0.87788051509E-01  0.99435476535E-01  0.51100000000E-03 0.  1.
         11    1    4    4    0    0  0.80018750078E-02 -0.21308996572E-01 -0.18126878773E-01  0.29102374363E-01  0.51100000000E-03 0. -1.
</event>
<event>
 8    1  0.1054833E+005  0.1043930E+01  0.7957747E-01            NaN
         13   -1    0    0    0    0  0.00000000000E+00  0.00000000000E+00  0.74505805969E-08  0.10566000000E+00  0.10566000000E+00 0. -1.
     999900   -1    0    0    0    0 -0.00000000000E+00 -0.00000000000E+00 -0.74505805969E-08  0.93827000000E+00  0.93827000000E+00 0. -1.
     999902    2    1    2    0    0 -0.22038462940E-01 -0.11495984087E-01 -0.47539729362E-03  0.10190688355E+01  0.10187655343E+01 0.  0.
     999903    2    3    3    0    0  0.77255091532E-01  0.33995437799E-01  0.93286285984E-01  0.12737385810E+00  0.19943159638E-01 0.  0.
         14    1    1    2    0    0  0.22038462940E-01  0.11495984087E-01  0.47539729362E-03  0.24861164523E-01  0.00000000000E+00 0.  1.
     999901    1    3    3    0    0 -0.99293554472E-01 -0.45491421885E-01 -0.93761683277E-01  0.89169497737E+00  0.88000000000E+00 0. -1.
        -11    1    4    4    0    0  0.50369621355E-01  0.16506764677E-01  0.45713043173E-01  0.69996539005E-01  0.51100000000E-03 0. -1.
         11    1    4    4    0    0  0.26885470177E-01  0.17488673122E-01  0.47573242811E-01  0.57377319096E-01  0.51100000000E-03 0.  1.
</event>
<event>
 8    1  0.1054833E+005  0.1043930E+01  0.7957747E-01            NaN
         13   -1    0    0    0    0  0.00000000000E+00  0.00000000000E+00  0.74505805969E-08  0.10566000000E+00  0.10566000000E+00 0.  1.
     999900   -1    0    0    0    0 -0.00000000000E+00 -0.00000000000E+00 -0.74505805969E-08  0.93827000000E+00  0.93827000000E+00 0.  1.
     999902    2    1    2    0    0 -0.10039480304E-01  0.19918034085E-01 -0.97547984994E-02  0.10195850757E+01  0.10192943889E+01 0.  0.
     999903    2    3    3    0    0  0.32168742466E-01  0.10521363766E+00 -0.70185489286E-01  0.13239358426E+00  0.22300688441E-01 0.  0.
         14    1    1    2    0    0  0.10039480304E-01 -0.19918034085E-01  0.97547984994E-02  0.24344924324E-01  0.00000000000E+00 0. -1.
     999901    1    3    3    0    0 -0.42208222769E-01 -0.85295603573E-01  0.60430690787E-01  0.88719149142E+00  0.88000000000E+00 0. -1.
        -11    1    4    4    0    0  0.26200072475E-01  0.61432185960E-01 -0.51846602809E-01  0.84549917879E-01  0.51100000000E-03 0.  1.
         11    1    4    4    0    0  0.59686699906E-02  0.43781451698E-01 -0.18338886477E-01  0.47843666377E-01  0.51100000000E-03 0. -1.
</event>
<event>
 8    1  0.1054833E+005  0.1043930E+01  0.7957747E-01            NaN
         13   -1    0    0    0    0  0.00000000000E+00  0.00000000000E+00  0.74505805969E-08  0.10566000000E+00  0.10566000000E+00 0.  1.
     999900   -1    0    0    0    0 -0.00000000000E+00 -0.00000000000E+00 -0.74505805969E-08  0.93827000000E+00  0.93827000000E+00 0. -1.
     999902    2    1    2    0    0  0.79648076779E-02 -0.12556653024E-01 -0.19459452862E-01  0.10194396345E+01  0.10191454216E+01 0.  0.
     999903    2    3    3    0    0 -0.79173659863E-01 -0.97716551127E-01  0.25748801833E-01  0.12989530898E+00  0.19819125105E-01 0.  0.
         14    1    1    2    0    0 -0.79648076779E-02  0.12556653024E-01  0.19459452862E-01  0.24490365497E-01  0.00000000000E+00 0.  1.
     999901    1    3    3    0    0  0.87138467541E-01  0.85159898103E-01 -0.45208254695E-01  0.88954432552E+00  0.88000000000E+00 0. -1.
        -11    1    4    4    0    0 -0.47550068911E-01 -0.69456803586E-01  0.10519572546E-01  0.84830296153E-01  0.51100000000E-03 0. -1.
         11    1    4    4    0    0 -0.31623590952E-01 -0.28259747541E-01  0.15229229287E-01  0.45065012831E-01  0.51100000000E-03 0.  1.
</event>
<event>
 8    1  0.1054833E+005  0.1043930E+01  0.7957747E-01            NaN
         13   -1    0    0    0    0  0.00000000000E+00  0.00000000000E+00  0.74505805969E-08  0.10566000000E+00  0.10566000000E+00 0.  1.
     999900   -1    0    0    0    0 -0.00000000000E+00 -0.00000000000E+00 -0.74505805969E-08  0.93827000000E+00  0.93827000000E+00 0.  1.
     999902    2    1    2    0    0  0.92745754774E-03 -0.14479904820E-01 -0.17014060659E-01  0.10215691842E+01  0.10213244304E+01 0.  0.
     999903    2    3    3    0    0  0.38813654588E-02 -0.13133563854E+00  0.11151384593E-01  0.13339280515E+00  0.20128888152E-01 0.  0.
         14    1    1    2    0    0 -0.92745754774E-03  0.14479904820E-01  0.17014060659E-01  0.22360815755E-01  0.00000000000E+00 0. -1.
     999901    1    3    3    0    0 -0.29539079110E-02  0.11685573372E+00 -0.28165445252E-01  0.88817637909E+00  0.88000000000E+00 0.  1.
        -11    1    4    4    0    0  0.82929086415E-02 -0.63374771683E-01  0.13158153311E-01  0.65257429762E-01  0.51100000000E-03 0.  1.
         11    1    4    4    0    0 -0.44115431827E-02 -0.67960866860E-01 -0.20067687182E-02  0.68135375388E-01  0.51100000000E-03 0. -1.
</event>
<event>
 8    1  0.1054833E+005  0.1043930E+01  0.7957747E-01            NaN
         13   -1    0    0    0    0  0.00000000000E+00  0.00000000000E+00  0.74505805969E-08  0.10566000000E+00  0.10566000000E+00 0. -1.
     999900   -1    0    0    0    0 -0.00000000000E+00 -0.00000000000E+00 -0.74505805969E-08  0.93827000000E+00  0.93827000000E+00 0. -1.
     999902    2    1    2    0    0 -0.68203966349E-02 -0.71266516291E-02 -0.21040991877E-01  0.10206914477E+01  0.10204268720E+01 0.  0.
     999903    2    3    3    0    0  0.11761882379E+00  0.48587873255E-01 -0.18690831398E-01  0.13018892041E+00  0.20120603391E-01 0.  0.
         14    1    1    2    0    0  0.68203966349E-02  0.71266516291E-02  0.21040991877E-01  0.23238552298E-01  0.00000000000E+00 0. -1.
     999901    1    3    3    0    0 -0.12443922043E+00 -0.55714524884E-01 -0.23501604797E-02  0.89050252729E+00  0.88000000000E+00 0. -1.
        -11    1    4    4    0    0  0.37574008173E-01  0.14591634079E-01 -0.15423765682E-01  0.43161041971E-01  0.51100000000E-03 0.  1.
         11    1    4    4    0    0  0.80044815620E-01  0.33996239177E-01 -0.32670657157E-02  0.87027878437E-01  0.51100000000E-03 0. -1.
</event>
<event>
 8    1  0.1054833E+005  0.1043930E+01  0.7957747E-01            NaN
         13   -1    0    0    0    0  0.00000000000E+00  0.00000000000E+00  0.74505805969E-08  0.10566000000E+00  0.10566000000E+00 0.  1.
     999900   -1    0    0    0    0 -0.00000000000E+00 -0.00000000000E+00 -0.74505805969E-08  0.93827000000E+00  0.93827000000E+00 0.  1.
     999902    2    1    2    0    0 -0.16544691800E-02  0.16787149430E-01  0.16005698330E-01  0.10206764404E+01  0.10204115189E+01 0.  0.
     999903    2    3    3    0    0 -0.13353877833E-02  0.12113366730E+00 -0.48512169112E-01  0.13216597181E+00  0.20958648318E-01 0.  0.
         14    1    1    2    0    0  0.16544691800E-02 -0.16787149430E-01 -0.16005698330E-01  0.23253559583E-01  0.00000000000E+00 0.  1.
     999901    1    3    3    0    0 -0.31908139671E-03 -0.10434651787E+00  0.64517867442E-01  0.88851046861E+00  0.88000000000E+00 0.  1.
        -11    1    4    4    0    0 -0.53601008035E-02  0.10550082484E+00 -0.47934663490E-01  0.11600494734E+00  0.51100000000E-03 0.  1.
         11    1    4    4    0    0  0.40247130202E-02  0.15632842460E-01 -0.57750562230E-03  0.16161024473E-01  0.51100000000E-03 0. -1.
</event>
<event>
 8    1  0.1054833E+005  0.1043930E+01  0.7957747E-01            NaN
         13   -1    0    0    0    0  0.00000000000E+00  0.00000000000E+00  0.74505805969E-08  0.10566000000E+00  0.10566000000E+00 0. -1.
     999900   -1    0    0    0    0 -0.00000000000E+00 -0.00000000000E+00 -0.74505805969E-08  0.93827000000E+00  0.93827000000E+00 0.  1.
     999902    2    1    2    0    0 -0.23886509895E-01 -0.27369272555E-01 -0.76388814792E-02  0.10068086457E+01  0.10061240749E+01 0.  0.
     999903    2    3    3    0    0  0.14349014304E-01 -0.41192152603E-02 -0.11668367572E+00  0.11894982380E+00  0.17638544589E-01 0.  0.
         14    1    1    2    0    0  0.23886509895E-01  0.27369272555E-01  0.76388814792E-02  0.37121354305E-01  0.00000000000E+00 0.  1.
     999901    1    3    3    0    0 -0.38235524199E-01 -0.23250057295E-01  0.10904479424E+00  0.88785882190E+00  0.88000000000E+00 0. -1.
        -11    1    4    4    0    0  0.60385528318E-02  0.25260816500E-02 -0.89691944697E-01  0.89931925773E-01  0.51100000000E-03 0. -1.
         11    1    4    4    0    0  0.83104614724E-02 -0.66452969103E-02 -0.26991731025E-01  0.29017898022E-01  0.51100000000E-03 0.  1.
</event>
<event>
 8    1  0.1054833E+005  0.1043930E+01  0.7957747E-01            NaN
         13   -1    0    0    0    0  0.00000000000E+00  0.00000000000E+00  0.74505805969E-08  0.10566000000E+00  0.10566000000E+00 0.  1.
     999900   -1    0    0    0    0 -0.00000000000E+00 -0.00000000000E+00 -0.74505805969E-08  0.93827000000E+00  0.93827000000E+00 0. -1.
     999902    2    1    2    0    0  0.13332906734E-01 -0.10090128207E-01 -0.17027176379E-01  0.10200657626E+01  0.10197865749E+01 0.  0.
     999903    2    3    3    0    0  0.82914603851E-01  0.83221503041E-01  0.51566182083E-01  0.12975473726E+00  0.19405427215E-01 0.  0.
         14    1    1    2    0    0 -0.13332906734E-01  0.10090128207E-01  0.17027176379E-01  0.23864237357E-01  0.00000000000E+00 0.  1.
     999901    1    3    3    0    0 -0.69581697118E-01 -0.93311631249E-01 -0.68593358462E-01  0.89031102539E+00  0.88000000000E+00 0. -1.
        -11    1    4    4    0    0  0.47169692421E-01  0.46002351937E-01  0.18403718701E-01  0.68411652880E-01  0.51100000000E-03 0.  1.
         11    1    4    4    0    0  0.35744911431E-01  0.37219151104E-01  0.33162463382E-01  0.61343084375E-01  0.51100000000E-03 0. -1.
</event>
<event>
 8    1  0.1054833E+005  0.1043930E+01  0.7957747E-01            NaN
         13   -1    0    0    0    0  0.00000000000E+00  0.00000000000E+00  0.74505805969E-08  0.10566000000E+00  0.10566000000E+00 0. -1.
     999900   -1    0    0    0    0 -0.00000000000E+00 -0.00000000000E+00 -0.74505805969E-08  0.93827000000E+00  0.93827000000E+00 0. -1.
     999902    2    1    2    0    0 -0.35241991224E-02  0.11207140518E-01 -0.20996560985E-01  0.10198701673E+01  0.10195863291E+01 0.  0.
     999903    2    3    3    0    0 -0.51295769388E-01 -0.22075713775E-01 -0.11856436188E+00  0.13256562705E+00  0.19938517290E-01 0.  0.
         14    1    1    2    0    0  0.35241991224E-02 -0.11207140518E-01  0.20996560985E-01  0.24059832735E-01  0.00000000000E+00 0. -1.
     999901    1    3    3    0    0  0.47771570266E-01  0.33282854293E-01  0.97567800893E-01  0.88730454022E+00  0.88000000000E+00 0. -1.
        -11    1    4    4    0    0 -0.81688410572E-02  0.28573952625E-02 -0.26564640499E-01  0.27943441408E-01  0.51100000000E-03 0. -1.
         11    1    4    4    0    0 -0.43126928331E-01 -0.24933109038E-01 -0.91999721379E-01  0.10462218564E+00  0.51100000000E-03 0.  1.
</event>
<event>
 8    1  0.1054833E+005  0.1043930E+01  0.7957747E-01            NaN
         13   -1    0    0    0    0  0.00000000000E+00  0.00000000000E+00  0.74505805969E-08  0.10566000000E+00  0.10566000000E+00 0. -1.
     999900   -1    0    0    0    0 -0.00000000000E+00 -0.00000000000E+00 -0.74505805969E-08  0.93827000000E+00  0.93827000000E+00 0.  1.
     999902    2    1    2    0    0 -0.10894714217E-01  0.17748775384E-01 -0.12776968366E-01  0.10194971380E+01  0.10192043218E+01 0.  0.
     999903    2    3    3    0    0  0.53660790906E-01  0.69445523121E-01  0.92930319083E-01  0.12932075233E+00  0.19638014541E-01 0.  0.
         14    1    1    2    0    0  0.10894714217E-01 -0.17748775384E-01  0.12776968366E-01  0.24432862013E-01  0.00000000000E+00 0. -1.
     999901    1    3    3    0    0 -0.64555505124E-01 -0.51696747737E-01 -0.10570728745E+00  0.89017638566E+00  0.88000000000E+00 0.  1.
        -11    1    4    4    0    0  0.46713320121E-01  0.49752197524E-01  0.78014239206E-01  0.10365277649E+00  0.51100000000E-03 0.  1.
         11    1    4    4    0    0  0.69474707855E-02  0.19693325597E-01  0.14916079877E-01  0.25667975831E-01  0.51100000000E-03 0. -1.
</event>
<event>
 8    1  0.1054833E+005  0.1043930E+01  0.7957747E-01            NaN
         13   -1    0    0    0    0  0.00000000000E+00  0.00000000000E+00  0.74505805969E-08  0.10566000000E+00  0.10566000000E+00 0.  1.
     999900   -1    0    0    0    0 -0.00000000000E+00 -0.00000000000E+00 -0.74505805969E-08  0.93827000000E+00  0.93827000000E+00 0. -1.
     999902    2    1    2    0    0 -0.11969478857E-01  0.59396490965E-02  0.19494272952E-01  0.10202958185E+01  0.10200220501E+01 0.  0.
     999903    2    3    3    0    0 -0.39655544547E-01 -0.40120087174E-01  0.11884303739E+00  0.13307645754E+00  0.20087120402E-01 0.  0.
         14    1    1    2    0    0  0.11969478857E-01 -0.59396490965E-02 -0.19494272952E-01  0.23634181463E-01  0.00000000000E+00 0. -1.
     999901    1    3    3    0    0  0.27686065690E-01  0.46059736271E-01 -0.99348764439E-01  0.88721936100E+00  0.88000000000E+00 0. -1.
        -11    1    4    4    0    0 -0.20943418954E-01 -0.33560441385E-01  0.70877702743E-01  0.81171669261E-01  0.51100000000E-03 0.  1.
         11    1    4    4    0    0 -0.18712125593E-01 -0.65596457892E-02  0.47965334648E-01  0.51904788276E-01  0.51100000000E-03 0. -1.
</event>
<event>
 8    1  0.1054833E+005  0.1043930E+01  0.7957747E-01            NaN
         13   -1    0    0    0    0  0.00000000000E+00  0.00000000000E+00  0.74505805969E-08  0.10566000000E+00  0.10566000000E+00 0.  1.
     999900   -1    0    0    0    0 -0.00000000000E+00 -0.00000000000E+00 -0.74505805969E-08  0.93827000000E+00  0.93827000000E+00 0.  1.
     999902    2    1    2    0    0 -0.20934876685E-01  0.92281374688E-02 -0.90516051539E-02  0.10193259528E+01  0.10190289686E+01 0.  0.
     999903    2    3    3    0    0 -0.57547200206E-01 -0.18902581691E-01 -0.11522786660E+00  0.13174204235E+00  0.20236517359E-01 0.  0.
         14    1    1    2    0    0  0.20934876685E-01 -0.92281374688E-02  0.90516051539E-02  0.24604047204E-01  0.00000000000E+00 0.  1.
     999901    1    3    3    0    0  0.36612323521E-01  0.28130719160E-01  0.10617626144E+00  0.88758391045E+00  0.88000000000E+00 0. -1.
        -11    1    4    4    0    0 -0.53235980150E-01 -0.19326096193E-01 -0.91456578510E-01  0.10757385579E+00  0.51100000000E-03 0. -1.
         11    1    4    4    0    0 -0.43112200563E-02  0.42351450146E-03 -0.23771288088E-01  0.24168186553E-01  0.51100000000E-03 0.  1.
</event>
<event>
 8    1  0.1054833E+005  0.1043930E+01  0.7957747E-01            NaN
         13   -1    0    0    0    0  0.00000000000E+00  0.00000000000E+00  0.74505805969E-08  0.10566000000E+00  0.10566000000E+00 0. -1.
     999900   -1    0    0    0    0 -0.00000000000E+00 -0.00000000000E+00 -0.74505805969E-08  0.93827000000E+00  0.93827000000E+00 0. -1.
     999902    2    1    2    0    0  0.19354255795E-01 -0.75200442865E-02  0.47048973278E-04  0.10231660770E+01  0.10229553659E+01 0.  0.
     999903    2    3    3    0    0 -0.12771223144E+00 -0.16358906783E-01 -0.13059869072E-01  0.13082171051E+00  0.19124117505E-01 0.  0.
         14    1    1    2    0    0 -0.19354255795E-01  0.75200442865E-02 -0.47048973278E-04  0.20763922969E-01  0.00000000000E+00 0. -1.
     999901    1    3    3    0    0  0.14706648724E+00  0.88388624967E-02  0.13106918045E-01  0.89234436652E+00  0.88000000000E+00 0. -1.
        -11    1    4    4    0    0 -0.11327373707E+00 -0.16174324054E-01 -0.17390849494E-01  0.11573785481E+00  0.51100000000E-03 0.  1.
         11    1    4    4    0    0 -0.14438494366E-01 -0.18458272884E-03  0.43309804221E-02  0.15083855699E-01  0.51100000000E-03 0. -1.
</event>
<event>
 8    1  0.1054833E+005  0.1043930E+01  0.7957747E-01            NaN
         13   -1    0    0    0    0  0.00000000000E+00  0.00000000000E+00  0.74505805969E-08  0.10566000000E+00  0.10566000000E+00 0.  1.
     999900   -1    0    0    0    0 -0.00000000000E+00 -0.00000000000E+00 -0.74505805969E-08  0.93827000000E+00  0.93827000000E+00 0.  1.
     999902    2    1    2    0    0 -0.74591530660E-02 -0.22893066063E-01 -0.17694874934E-03  0.10198517370E+01  0.10195674586E+01 0.  0.
     999903    2    3    3    0    0  0.60844624253E-01  0.83871886959E-01  0.72101568786E-01  0.12783809064E+00  0.20183643755E-01 0.  0.
         14    1    1    2    0    0  0.74591530660E-02  0.22893066063E-01  0.17694874934E-03  0.24078263000E-01  0.00000000000E+00 0.  1.
     999901    1    3    3    0    0 -0.68303777319E-01 -0.10676495302E+00 -0.72278517536E-01  0.89201364636E+00  0.88000000000E+00 0.  1.
        -11    1    4    4    0    0  0.53427850781E-01  0.58972116365E-01  0.54681880507E-01  0.96553689336E-01  0.51100000000E-03 0.  1.
         11    1    4    4    0    0  0.74167734721E-02  0.24899770594E-01  0.17419688280E-01  0.31284401307E-01  0.51100000000E-03 0. -1.
</event>
<event>
 8    1  0.1054833E+005  0.1043930E+01  0.7957747E-01            NaN
         13   -1    0    0    0    0  0.00000000000E+00  0.00000000000E+00  0.74505805969E-08  0.10566000000E+00  0.10566000000E+00 0.  1.
     999900   -1    0    0    0    0 -0.00000000000E+00 -0.00000000000E+00 -0.74505805969E-08  0.93827000000E+00  0.93827000000E+00 0.  1.
     999902    2    1    2    0    0  0.18478145954E-01 -0.11845632511E-01  0.79787339358E-02  0.10205757481E+01  0.10203085006E+01 0.  0.
     999903    2    3    3    0    0  0.10344408692E+00  0.77834140622E-01  0.13321503321E-01  0.13193058942E+00  0.21665304257E-01 0.  0.
         14    1    1    2    0    0 -0.18478145954E-01  0.11845632511E-01 -0.79787339358E-02  0.23354251919E-01  0.00000000000E+00 0. -1.
     999901    1    3    3    0    0 -0.84965940963E-01 -0.89679773133E-01 -0.53427693849E-02  0.88864515866E+00  0.88000000000E+00 0.  1.
        -11    1    4    4    0    0  0.50879313346E-01  0.28593380857E-01 -0.15394449052E-02  0.58385931242E-01  0.51100000000E-03 0.  1.
         11    1    4    4    0    0  0.52564773572E-01  0.49240759765E-01  0.14860948226E-01  0.73544658175E-01  0.51100000000E-03 0. -1.
</event>
<event>
 8    1  0.1054833E+005  0.1043930E+01  0.7957747E-01            NaN
         13   -1    0    0    0    0  0.00000000000E+00  0.00000000000E+00  0.74505805969E-08  0.10566000000E+00  0.10566000000E+00 0. -1.
     999900   -1    0    0    0    0 -0.00000000000E+00 -0.00000000000E+00 -0.74505805969E-08  0.93827000000E+00  0.93827000000E+00 0.  1.
     999902    2    1    2    0    0  0.92635608114E-02 -0.18801752145E-02 -0.21869680654E-01  0.10201049806E+01  0.10198267205E+01 0.  0.
     999903    2    3    3    0    0 -0.27713048559E-01 -0.81820077243E-01 -0.98136276395E-01  0.13242584307E+00  0.21055570922E-01 0.  0.
         14    1    1    2    0    0 -0.92635608114E-02  0.18801752145E-02  0.21869680654E-01  0.23825019405E-01  0.00000000000E+00 0. -1.
     999901    1    3    3    0    0  0.36976609370E-01  0.79939902028E-01  0.76266595741E-01  0.88767913753E+00  0.88000000000E+00 0.  1.
        -11    1    4    4    0    0 -0.26682785592E-02 -0.34311283055E-01 -0.29931381723E-01  0.45612855514E-01  0.51100000000E-03 0. -1.
         11    1    4    4    0    0 -0.25044769999E-01 -0.47508794188E-01 -0.68204894672E-01  0.86812987552E-01  0.51100000000E-03 0.  1.
</event>
<event>
 8    1  0.1054833E+005  0.1043930E+01  0.7957747E-01            NaN
         13   -1    0    0    0    0  0.00000000000E+00  0.00000000000E+00  0.74505805969E-08  0.10566000000E+00  0.10566000000E+00 0.  1.
     999900   -1    0    0    0    0 -0.00000000000E+00 -0.00000000000E+00 -0.74505805969E-08  0.93827000000E+00  0.93827000000E+00 0. -1.
     999902    2    1    2    0    0 -0.97580077677E-03 -0.20690316919E-01 -0.11855827257E-01  0.10200636630E+01  0.10197844255E+01 0.  0.
     999903    2    3    3    0    0  0.15672668603E-02  0.74471975030E-01 -0.10467537156E+00  0.13007613680E+00  0.20355258868E-01 0.  0.
         14    1    1    2    0    0  0.97580077677E-03  0.20690316919E-01  0.11855827257E-01  0.23866336990E-01  0.00000000000E+00 0.  1.
     999901    1    3    3    0    0 -0.25430676371E-02 -0.95162291949E-01  0.92819544304E-01  0.88998752621E+00  0.88000000000E+00 0.  1.
        -11    1    4    4    0    0  0.97848779382E-02  0.29753068344E-01 -0.36110562724E-01  0.47804003738E-01  0.51100000000E-03 0.  1.
         11    1    4    4    0    0 -0.82176110779E-02  0.44718906686E-01 -0.68564808837E-01  0.82272133064E-01  0.51100000000E-03 0. -1.
</event>
<event>
 8    1  0.1054833E+005  0.1043930E+01  0.7957747E-01            NaN
         13   -1    0    0    0    0  0.00000000000E+00  0.00000000000E+00  0.74505805969E-08  0.10566000000E+00  0.10566000000E+00 0.  1.
     999900   -1    0    0    0    0 -0.00000000000E+00 -0.00000000000E+00 -0.74505805969E-08  0.93827000000E+00  0.93827000000E+00 0.  1.
     999902    2    1    2    0    0  0.21372119892E-01  0.14262429114E-01  0.12539242115E-01  0.10153394948E+01  0.10149368812E+01 0.  0.
     999903    2    3    3    0    0  0.70507306693E-01  0.10619224988E+00 -0.11599387883E-02  0.12908161696E+00  0.20313644388E-01 0.  0.
         14    1    1    2    0    0 -0.21372119892E-01 -0.14262429114E-01 -0.12539242115E-01  0.28590505167E-01  0.00000000000E+00 0.  1.
     999901    1    3    3    0    0 -0.49135186802E-01 -0.91929820765E-01  0.13699180904E-01  0.88625787787E+00  0.88000000000E+00 0. -1.
        -11    1    4    4    0    0  0.16706688475E-01  0.40850172548E-01  0.37527216924E-02  0.44296659898E-01  0.51100000000E-03 0. -1.
         11    1    4    4    0    0  0.53800618218E-01  0.65342077332E-01 -0.49126604807E-02  0.84784957066E-01  0.51100000000E-03 0.  1.
</event>
<event>
 8    1  0.1054833E+005  0.1043930E+01  0.7957747E-01            NaN
         13   -1    0    0    0    0  0.00000000000E+00  0.00000000000E+00  0.74505805969E-08  0.10566000000E+00  0.10566000000E+00 0.  1.
     999900   -1    0    0    0    0 -0.00000000000E+00 -0.00000000000E+00 -0.74505805969E-08  0.93827000000E+00  0.93827000000E+00 0.  1.
     999902    2    1    2    0    0 -0.78234291080E-02 -0.11744466297E-01  0.19390257828E-01  0.10199483272E+01  0.10196663521E+01 0.  0.
     999903    2    3    3    0    0 -0.10082244819E+00  0.60938178118E-01  0.54752047020E-01  0.13136403717E+00  0.19496050847E-01 0.  0.
         14    1    1    2    0    0  0.78234291080E-02  0.11744466297E-01 -0.19390257828E-01  0.23981672799E-01  0.00000000000E+00 0. -1.
     999901    1    3    3    0    0  0.92999019080E-01 -0.72682644414E-01 -0.35361789192E-01  0.88858429003E+00  0.88000000000E+00 0.  1.
        -11    1    4    4    0    0 -0.58726366074E-01  0.37002844946E-01  0.42569956851E-01  0.81427630161E-01  0.51100000000E-03 0. -1.
         11    1    4    4    0    0 -0.42096082114E-01  0.23935333171E-01  0.12182090169E-01  0.49936407012E-01  0.51100000000E-03 0.  1.
</event>
<event>
 8    1  0.1054833E+005  0.1043930E+01  0.7957747E-01            NaN
         13   -1    0    0    0    0  0.00000000000E+00  0.00000000000E+00  0.74505805969E-08  0.10566000000E+00  0.10566000000E+00 0.  1.
     999900   -1    0    0    0    0 -0.00000000000E+00 -0.00000000000E+00 -0.74505805969E-08  0.93827000000E+00  0.93827000000E+00 0. -1.
     999902    2    1    2    0    0  0.99762763257E-02 -0.17031622099E-01  0.13897479600E-01  0.10197899466E+01  0.10195041898E+01 0.  0.
     999903    2    3    3    0    0 -0.57996944279E-01 -0.69401259404E-01  0.94315137080E-01  0.13196680130E+00  0.18431256345E-01 0.  0.
         14    1    1    2    0    0 -0.99762763257E-02  0.17031622099E-01 -0.13897479600E-01  0.24140053436E-01  0.00000000000E+00 0. -1.
     999901    1    3    3    0    0  0.67973220605E-01  0.52369637305E-01 -0.80417657481E-01  0.88782314526E+00  0.88000000000E+00 0. -1.
        -11    1    4    4    0    0 -0.32210552861E-01 -0.38985834908E-01  0.39451777922E-01  0.64141398031E-01  0.51100000000E-03 0. -1.
         11    1    4    4    0    0 -0.25786391418E-01 -0.30415424496E-01  0.54863359158E-01  0.67825403270E-01  0.51100000000E-03 0.  1.
</event>
<event>
 8    1  0.1054833E+005  0.1043930E+01  0.7957747E-01            NaN
         13   -1    0    0    0    0  0.00000000000E+00  0.00000000000E+00  0.74505805969E-08  0.10566000000E+00  0.10566000000E+00 0. -1.
     999900   -1    0    0    0    0 -0.00000000000E+00 -0.00000000000E+00 -0.74505805969E-08  0.93827000000E+00  0.93827000000E+00 0. -1.
     999902    2    1    2    0    0  0.16402580027E-01 -0.60721118288E-02 -0.16311197157E-01  0.10200140989E+01  0.10197336866E+01 0.  0.
     999903    2    3    3    0    0 -0.56941507782E-01  0.93760496008E-01  0.63021510914E-01  0.12780359492E+00  0.18129592301E-01 0.  0.
         14    1    1    2    0    0 -0.16402580027E-01  0.60721118288E-02  0.16311197157E-01  0.23915901119E-01  0.00000000000E+00 0. -1.
     999901    1    3    3    0    0  0.73344087810E-01 -0.99832607837E-01 -0.79332708072E-01  0.89221050396E+00  0.88000000000E+00 0. -1.
        -11    1    4    4    0    0 -0.22160348186E-01  0.50913231582E-01  0.37451101986E-01  0.66978237830E-01  0.51100000000E-03 0.  1.
         11    1    4    4    0    0 -0.34781159597E-01  0.42847264426E-01  0.25570408928E-01  0.60825357093E-01  0.51100000000E-03 0. -1.
</event>
<event>
 8    1  0.1054833E+005  0.1043930E+01  0.7957747E-01            NaN
         13   -1    0    0    0    0  0.00000000000E+00  0.00000000000E+00  0.74505805969E-08  0.10566000000E+00  0.10566000000E+00 0. -1.
     999900   -1    0    0    0    0 -0.00000000000E+00 -0.00000000000E+00 -0.74505805969E-08  0.93827000000E+00  0.93827000000E+00 0. -1.
     999902    2    1    2    0    0  0.16627038476E-02 -0.23137245712E-01  0.31706817029E-02  0.10205173977E+01  0.10202487976E+01 0.  0.
     999903    2    3    3    0    0 -0.70357230774E-01  0.10485130937E+00 -0.88665231934E-02  0.12826584377E+00  0.20726177802E-01 0.  0.
         14    1    1    2    0    0 -0.16627038476E-02  0.23137245712E-01 -0.31706817029E-02  0.23412602283E-01  0.00000000000E+00 0. -1.
     999901    1    3    3    0    0  0.72019934621E-01 -0.12798855508E+00  0.12037204896E-01  0.89225155394E+00  0.88000000000E+00 0.  1.
        -11    1    4    4    0    0 -0.40845739924E-01  0.43856987859E-01 -0.82767863139E-02  0.60502695532E-01  0.51100000000E-03 0. -1.
         11    1    4    4    0    0 -0.29511490850E-01  0.60994321512E-01 -0.58973687941E-03  0.67763148240E-01  0.51100000000E-03 0.  1.
</event>
<event>
 8    1  0.1054833E+005  0.1043930E+01  0.7957747E-01            NaN
         13   -1    0    0    0    0  0.00000000000E+00  0.00000000000E+00  0.74505805969E-08  0.10566000000E+00  0.10566000000E+00 0. -1.
     999900   -1    0    0    0    0 -0.00000000000E+00 -0.00000000000E+00 -0.74505805969E-08  0.93827000000E+00  0.93827000000E+00 0.  1.
     999902    2    1    2    0    0  0.11574532316E-01 -0.13221048896E-01 -0.17682668792E-01  0.10190012474E+01  0.10186962744E+01 0.  0.
     999903    2    3    3    0    0 -0.70935903864E-01 -0.26899739502E-01  0.99927855209E-01  0.12724606010E+00  0.21224634809E-01 0.  0.
         14    1    1    2    0    0 -0.11574532316E-01  0.13221048896E-01  0.17682668792E-01  0.24928752634E-01  0.00000000000E+00 0. -1.
     999901    1    3    3    0    0  0.82510436181E-01  0.13678690606E-01 -0.11761052400E+00  0.89175518726E+00  0.88000000000E+00 0.  1.
        -11    1    4    4    0    0 -0.31040759617E-01 -0.20856611093E-01  0.58334123698E-01  0.69293997521E-01  0.51100000000E-03 0. -1.
         11    1    4    4    0    0 -0.39895144247E-01 -0.60431284093E-02  0.41593731511E-01  0.57952062581E-01  0.51100000000E-03 0.  1.
</event>
<event>
 8    1  0.1054833E+005  0.1043930E+01  0.7957747E-01            NaN
         13   -1    0    0    0    0  0.00000000000E+00  0.00000000000E+00  0.74505805969E-08  0.10566000000E+00  0.10566000000E+00 0.  1.
     999900   -1    0    0    0    0 -0.00000000000E+00 -0.00000000000E+00 -0.74505805969E-08  0.93827000000E+00  0.93827000000E+00 0.  1.
     999902    2    1    2    0    0  0.88490642511E-02  0.10009983258E-01  0.20577102057E-01  0.10193958843E+01  0.10191006065E+01 0.  0.
     999903    2    3    3    0    0  0.12609737526E-01 -0.11198276643E+00 -0.56612930536E-01  0.12762535623E+00  0.19597504758E-01 0.  0.
         14    1    1    2    0    0 -0.88490642511E-02 -0.10009983258E-01 -0.20577102057E-01  0.24534115676E-01  0.00000000000E+00 0. -1.
     999901    1    3    3    0    0 -0.37606732747E-02  0.12199274968E+00  0.77190032593E-01  0.89177052809E+00  0.88000000000E+00 0. -1.
        -11    1    4    4    0    0  0.67245621660E-02 -0.91197620036E-01 -0.37713618921E-01  0.98918167238E-01  0.51100000000E-03 0.  1.
         11    1    4    4    0    0  0.58851753597E-02 -0.20785146391E-01 -0.18899311615E-01  0.28707188995E-01  0.51100000000E-03 0. -1.
</event>
<event>
 8    1  0.1054833E+005  0.1043930E+01  0.7957747E-01            NaN
         13   -1    0    0    0    0  0.00000000000E+00  0.00000000000E+00  0.74505805969E-08  0.10566000000E+00  0.10566000000E+00 0. -1.
     999900   -1    0    0    0    0 -0.00000000000E+00 -0.00000000000E+00 -0.74505805969E-08  0.93827000000E+00  0.93827000000E+00 0.  1.
     999902    2    1    2    0    0  0.19604821095E-01  0.10635346689E-01 -0.11336633355E-01  0.10189104304E+01  0.10186032035E+01 0.  0.
     999903    2    3    3    0    0 -0.12039618622E+00 -0.32422717337E-01 -0.12557452514E-01  0.12680294282E+00  0.19360331509E-01 0.  0.
         14    1    1    2    0    0 -0.19604821095E-01 -0.10635346689E-01  0.11336633355E-01  0.25019569644E-01  0.00000000000E+00 0. -1.
     999901    1    3    3    0    0  0.14000100732E+00  0.43058064025E-01  0.12208191587E-02  0.89210748754E+00  0.88000000000E+00 0.  1.
        -11    1    4    4    0    0 -0.40137566808E-01 -0.11739162636E-01 -0.13398978631E-01  0.43916124123E-01  0.51100000000E-03 0.  1.
         11    1    4    4    0    0 -0.80258619416E-01 -0.20683554701E-01  0.84152611765E-03  0.82886818692E-01  0.51100000000E-03 0. -1.
</event>
<event>
 8    1  0.1054833E+005  0.1043930E+01  0.7957747E-01            NaN
         13   -1    0    0    0    0  0.00000000000E+00  0.00000000000E+00  0.74505805969E-08  0.10566000000E+00  0.10566000000E+00 0. -1.
     999900   -1    0    0    0    0 -0.00000000000E+00 -0.00000000000E+00 -0.74505805969E-08  0.93827000000E+00  0.93827000000E+00 0.  1.
     999902    2    1    2    0    0 -0.10020261638E-01  0.18890998330E-01 -0.91753404874E-02  0.10206606568E+01  0.10203953714E+01 0.  0.
     999903    2    3    3    0    0 -0.95733888401E-01  0.55801822494E-01  0.69207767819E-01  0.13226145235E+00  0.20604753547E-01 0.  0.
         14    1    1    2    0    0  0.10020261638E-01 -0.18890998330E-01  0.91753404874E-02  0.23269343228E-01  0.00000000000E+00 0. -1.
     999901    1    3    3    0    0  0.85713626762E-01 -0.36910824164E-01 -0.78383108306E-01  0.88839920442E+00  0.88000000000E+00 0.  1.
        -11    1    4    4    0    0 -0.54377094394E-01  0.41579024861E-01  0.35977587277E-01  0.77332603799E-01  0.51100000000E-03 0. -1.
         11    1    4    4    0    0 -0.41356794007E-01  0.14222797633E-01  0.33230180542E-01  0.54928848549E-01  0.51100000000E-03 0.  1.
</event>
<event>
 8    1  0.1054833E+005  0.1043930E+01  0.7957747E-01            NaN
         13   -1    0    0    0    0  0.00000000000E+00  0.00000000000E+00  0.74505805969E-08  0.10566000000E+00  0.10566000000E+00 0.  1.
     999900   -1    0    0    0    0 -0.00000000000E+00 -0.00000000000E+00 -0.74505805969E-08  0.93827000000E+00  0.93827000000E+00 0. -1.
     999902    2    1    2    0    0 -0.20888842427E-01 -0.13352238010E-01  0.33753404528E-02  0.10189096299E+01  0.10186023831E+01 0.  0.
     999903    2    3    3    0    0 -0.91631230581E-02  0.10108992617E+00  0.76330282523E-01  0.12842834147E+00  0.19089024709E-01 0.  0.
         14    1    1    2    0    0  0.20888842427E-01  0.13352238010E-01 -0.33753404528E-02  0.25020370121E-01  0.00000000000E+00 0.  1.
     999901    1    3    3    0    0 -0.11725719369E-01 -0.11444216418E+00 -0.72954942070E-01  0.89048128841E+00  0.88000000000E+00 0.  1.
        -11    1    4    4    0    0 -0.94002248160E-02  0.19175824615E-01  0.15247847245E-01  0.26245655695E-01  0.51100000000E-03 0. -1.
         11    1    4    4    0    0  0.23710175784E-03  0.81914101557E-01  0.61082435279E-01  0.10218268577E+00  0.51100000000E-03 0.  1.
</event>
<event>
 8    1  0.1054833E+005  0.1043930E+01  0.7957747E-01            NaN
         13   -1    0    0    0    0  0.00000000000E+00  0.00000000000E+00  0.74505805969E-08  0.10566000000E+00  0.10566000000E+00 0.  1.
     999900   -1    0    0    0    0 -0.00000000000E+00 -0.00000000000E+00 -0.74505805969E-08  0.93827000000E+00  0.93827000000E+00 0. -1.
     999902    2    1    2    0    0  0.18307799635E-01  0.11687424133E-01 -0.68233506674E-02  0.10211631486E+01  0.10209093233E+01 0.  0.
     999903    2    3    3    0    0 -0.10814507925E+00 -0.65322982476E-01 -0.14614851856E-01  0.12876097420E+00  0.20083435363E-01 0.  0.
         14    1    1    2    0    0 -0.18307799635E-01 -0.11687424133E-01  0.68233506674E-02  0.22766851444E-01  0.00000000000E+00 0.  1.
     999901    1    3    3    0    0  0.12645287889E+00  0.77010406609E-01  0.77915011883E-02  0.89240217436E+00  0.88000000000E+00 0. -1.
        -11    1    4    4    0    0 -0.38821147554E-01 -0.25548300596E-01  0.41526101387E-02  0.46661573620E-01  0.51100000000E-03 0. -1.
         11    1    4    4    0    0 -0.69323931698E-01 -0.39774681880E-01 -0.18767461994E-01  0.82099400579E-01  0.51100000000E-03 0.  1.
</event>
<event>
 8    1  0.1054833E+005  0.1043930E+01  0.7957747E-01            NaN
         13   -1    0    0    0    0  0.00000000000E+00  0.00000000000E+00  0.74505805969E-08  0.10566000000E+00  0.10566000000E+00 0. -1.
     999900   -1    0    0    0    0 -0.00000000000E+00 -0.00000000000E+00 -0.74505805969E-08  0.93827000000E+00  0.93827000000E+00 0.  1.
     999902    2    1    2    0    0  0.15404178777E-01  0.90486908730E-02 -0.17814715710E-01  0.10187004216E+01  0.10183879503E+01 0.  0.
     999903    2    3    3    0    0 -0.85030350995E-01 -0.91732636559E-01 -0.86249105388E-02  0.12722500228E+00  0.21604974520E-01 0.  0.
         14    1    1    2    0    0 -0.15404178777E-01 -0.90486908730E-02  0.17814715710E-01  0.25229578398E-01  0.00000000000E+00 0. -1.
     999901    1    3    3    0    0  0.10043452977E+00  0.10078132743E+00 -0.91898051712E-02  0.89147541932E+00  0.88000000000E+00 0.  1.
        -11    1    4    4    0    0 -0.40171389603E-01 -0.35074304423E-01 -0.12766261310E-01  0.54837814711E-01  0.51100000000E-03 0. -1.
         11    1    4    4    0    0 -0.44858961391E-01 -0.56658332136E-01  0.41413507712E-02  0.72387187573E-01  0.51100000000E-03 0.  1.
</event>
<event>
 8    1  0.1054833E+005  0.1043930E+01  0.7957747E-01            NaN
         13   -1    0    0    0    0  0.00000000000E+00  0.00000000000E+00  0.74505805969E-08  0.10566000000E+00  0.10566000000E+00 0.  1.
     999900   -1    0    0    0    0 -0.00000000000E+00 -0.00000000000E+00 -0.74505805969E-08  0.93827000000E+00  0.93827000000E+00 0. -1.
     999902    2    1    2    0    0 -0.17273816850E-01  0.95342911044E-02  0.12562609456E-01  0.10205396898E+01  0.10202716069E+01 0.  0.
     999903    2    3    3    0    0 -0.10836653056E+00 -0.57583367765E-01  0.46486775668E-01  0.13264695321E+00  0.19366070661E-01 0.  0.
         14    1    1    2    0    0  0.17273816850E-01 -0.95342911044E-02 -0.12562609456E-01  0.23390310211E-01  0.00000000000E+00 0. -1.
     999901    1    3    3    0    0  0.91092713715E-01  0.67117658870E-01 -0.33924166212E-01  0.88789273658E+00  0.88000000000E+00 0.  1.
        -11    1    4    4    0    0 -0.73063003506E-01 -0.48345018750E-01  0.30059094526E-01  0.92624260343E-01  0.51100000000E-03 0.  1.
         11    1    4    4    0    0 -0.35303527059E-01 -0.92383490154E-02  0.16427681142E-01  0.40022692863E-01  0.51100000000E-03 0. -1.
</event>
<event>
 8    1  0.1054833E+005  0.1043930E+01  0.7957747E-01            NaN
         13   -1    0    0    0    0  0.00000000000E+00  0.00000000000E+00  0.74505805969E-08  0.10566000000E+00  0.10566000000E+00 0.  1.
     999900   -1    0    0    0    0 -0.00000000000E+00 -0.00000000000E+00 -0.74505805969E-08  0.93827000000E+00  0.93827000000E+00 0. -1.
     999902    2    1    2    0    0  0.75672558054E-02  0.48331819350E-02  0.21600283610E-01  0.10205377949E+01  0.10202696680E+01 0.  0.
     999903    2    3    3    0    0  0.10829992735E+00  0.72601527866E-01 -0.28125184902E-03  0.13193303380E+00  0.20159121842E-01 0.  0.
         14    1    1    2    0    0 -0.75672558054E-02 -0.48331819350E-02 -0.21600283610E-01  0.23392205113E-01  0.00000000000E+00 0. -1.
     999901    1    3    3    0    0 -0.10073267154E+00 -0.67768345931E-01  0.21881535459E-01  0.88860476108E+00  0.88000000000E+00 0.  1.
        -11    1    4    4    0    0  0.94509021595E-02  0.13841756485E-02 -0.31364948633E-02  0.10066489700E-01  0.51100000000E-03 0.  1.
         11    1    4    4    0    0  0.98849025190E-01  0.71217352218E-01  0.28552430143E-02  0.12186654410E+00  0.51100000000E-03 0. -1.
</event>
<event>
 8    1  0.1054833E+005  0.1043930E+01  0.7957747E-01            NaN
         13   -1    0    0    0    0  0.00000000000E+00  0.00000000000E+00  0.74505805969E-08  0.10566000000E+00  0.10566000000E+00 0.  1.
     999900   -1    0    0    0    0 -0.00000000000E+00 -0.00000000000E+00 -0.74505805969E-08  0.93827000000E+00  0.93827000000E+00 0.  1.
     999902    2    1    2    0    0  0.17242402798E-01 -0.11498740024E-01 -0.58017112011E-02  0.10224083521E+01  0.10221818121E+01 0.  0.
     999903    2    3    3    0    0  0.11948696526E+00 -0.11638971115E-01  0.56697896479E-01  0.13428664241E+00  0.20140763364E-01 0.  0.
         14    1    1    2    0    0 -0.17242402798E-01  0.11498740024E-01  0.58017112011E-02  0.21521647921E-01  0.00000000000E+00 0.  1.
     999901    1    3    3    0    0 -0.10224456247E+00  0.14023109116E-03 -0.62499607680E-01  0.88812170967E+00  0.88000000000E+00 0.  1.
        -11    1    4    4    0    0  0.86440588130E-01  0.45079168508E-03  0.42678615584E-01  0.96404895304E-01  0.51100000000E-03 0. -1.
         11    1    4    4    0    0  0.33046377134E-01 -0.12089762800E-01  0.14019280895E-01  0.37881747110E-01  0.51100000000E-03 0.  1.
</event>
<event>
 8    1  0.1054833E+005  0.1043930E+01  0.7957747E-01            NaN
         13   -1    0    0    0    0  0.00000000000E+00  0.00000000000E+00  0.74505805969E-08  0.10566000000E+00  0.10566000000E+00 0.  1.
     999900   -1    0    0    0    0 -0.00000000000E+00 -0.00000000000E+00 -0.74505805969E-08  0.93827000000E+00  0.93827000000E+00 0.  1.
     999902    2    1    2    0    0  0.41356066741E-02 -0.13698874934E-01 -0.18774834970E-01  0.10203237117E+01  0.10200505967E+01 0.  0.
     999903    2    3    3    0    0  0.93787366351E-01 -0.90570485025E-01 -0.10625470830E-01  0.13239742281E+00  0.20422881555E-01 0.  0.
         14    1    1    2    0    0 -0.41356066741E-02  0.13698874934E-01  0.18774834970E-01  0.23606288255E-01  0.00000000000E+00 0.  1.
     999901    1    3    3    0    0 -0.89651759676E-01  0.76871610091E-01 -0.81493641395E-02  0.88792628894E+00  0.88000000000E+00 0.  1.
        -11    1    4    4    0    0  0.25285364488E-01 -0.36492120746E-01 -0.77693851844E-02  0.45073817244E-01  0.51100000000E-03 0.  1.
         11    1    4    4    0    0  0.68502001863E-01 -0.54078364279E-01 -0.28560856459E-02  0.87323605563E-01  0.51100000000E-03 0. -1.
</event>
<event>
 8    1  0.1054833E+005  0.1043930E+01  0.7957747E-01            NaN
         13   -1    0    0    0    0  0.00000000000E+00  0.00000000000E+00  0.74505805969E-08  0.10566000000E+00  0.10566000000E+00 0. -1.
     999900   -1    0    0    0    0 -0.00000000000E+00 -0.00000000000E+00 -0.74505805969E-08  0.93827000000E+00  0.93827000000E+00 0. -1.
     999902    2    1    2    0    0 -0.61059370077E-02 -0.56707462375E-02 -0.20875721161E-01  0.10214525543E+01  0.10212052121E+01 0.  0.
     999903    2    3    3    0    0  0.11208679833E+00 -0.50268021324E-02  0.62684606285E-01  0.12962731043E+00  0.16886700233E-01 0.  0.
         14    1    1    2    0    0  0.61059370077E-02  0.56707462375E-02  0.20875721161E-01  0.22477445665E-01  0.00000000000E+00 0. -1.
     999901    1    3    3    0    0 -0.11819273533E+00 -0.64394410503E-03 -0.83560327446E-01  0.89182524391E+00  0.88000000000E+00 0. -1.
        -11    1    4    4    0    0  0.50308337463E-01 -0.14411891489E-02  0.18653052339E-01  0.53676841627E-01  0.51100000000E-03 0. -1.
         11    1    4    4    0    0  0.61778460862E-01 -0.35856129835E-02  0.44031553946E-01  0.75950468799E-01  0.51100000000E-03 0.  1.
</event>
<event>
 8    1  0.1054833E+005  0.1043930E+01  0.7957747E-01            NaN
         13   -1    0    0    0    0  0.00000000000E+00  0.00000000000E+00  0.74505805969E-08  0.10566000000E+00  0.10566000000E+00 0. -1.
     999900   -1    0    0    0    0 -0.00000000000E+00 -0.00000000000E+00 -0.74505805969E-08  0.93827000000E+00  0.93827000000E+00 0. -1.
     999902    2    1    2    0    0 -0.10804891229E-01  0.20803768732E-01 -0.53240967164E-02  0.10198906890E+01  0.10196073406E+01 0.  0.
     999903    2    3    3    0    0  0.75442928246E-01 -0.79852340924E-01 -0.62008029116E-01  0.12816012040E+00  0.22627174186E-01 0.  0.
         14    1    1    2    0    0  0.10804891229E-01 -0.20803768732E-01  0.53240967164E-02  0.24039311009E-01  0.00000000000E+00 0.  1.
     999901    1    3    3    0    0 -0.86247819474E-01  0.10065610966E+00  0.56683932399E-01  0.89173056860E+00  0.88000000000E+00 0. -1.
        -11    1    4    4    0    0  0.44634909406E-01 -0.51792537120E-01 -0.50267641076E-01  0.84863648869E-01  0.51100000000E-03 0.  1.
         11    1    4    4    0    0  0.30808018839E-01 -0.28059803804E-01 -0.11740388040E-01  0.43296471527E-01  0.51100000000E-03 0. -1.
</event>
<event>
 8    1  0.1054833E+005  0.1043930E+01  0.7957747E-01            NaN
         13   -1    0    0    0    0  0.00000000000E+00  0.00000000000E+00  0.74505805969E-08  0.10566000000E+00  0.10566000000E+00 0. -1.
     999900   -1    0    0    0    0 -0.00000000000E+00 -0.00000000000E+00 -0.74505805969E-08  0.93827000000E+00  0.93827000000E+00 0.  1.
     999902    2    1    2    0    0 -0.64189145681E-02  0.22350838223E-01 -0.29441616755E-02  0.10204900657E+01  0.10202208308E+01 0.  0.
     999903    2    3    3    0    0  0.80226157611E-01 -0.91220314667E-01 -0.36369383224E-01  0.12834488649E+00  0.19806455469E-01 0.  0.
         14    1    1    2    0    0  0.64189145681E-02 -0.22350838223E-01  0.29441616755E-02  0.23439934331E-01  0.00000000000E+00 0. -1.
     999901    1    3    3    0    0 -0.86645072179E-01  0.11357115289E+00  0.33425221548E-01  0.89214517918E+00  0.88000000000E+00 0. -1.
        -11    1    4    4    0    0  0.73449045467E-01 -0.89976287406E-01 -0.33724337984E-01  0.12094662736E+00  0.51100000000E-03 0. -1.
         11    1    4    4    0    0  0.67771121446E-02 -0.12440272609E-02 -0.26450452392E-02  0.73982591307E-02  0.51100000000E-03 0.  1.
</event>
<event>
 8    1  0.1054833E+005  0.1043930E+01  0.7957747E-01            NaN
         13   -1    0    0    0    0  0.00000000000E+00  0.00000000000E+00  0.74505805969E-08  0.10566000000E+00  0.10566000000E+00 0.  1.
     999900   -1    0    0    0    0 -0.00000000000E+00 -0.00000000000E+00 -0.74505805969E-08  0.93827000000E+00  0.93827000000E+00 0. -1.
     999902    2    1    2    0    0  0.82470961147E-02  0.68273291295E-02  0.22072591979E-01  0.10193978510E+01  0.10191026211E+01 0.  0.
     999903    2    3    3    0    0  0.66621313273E-01  0.10796504534E+00  0.29115354014E-01  0.13165577847E+00  0.19765873779E-01 0.  0.
         14    1    1    2    0    0 -0.82470961147E-02 -0.68273291295E-02 -0.22072591979E-01  0.24532148989E-01  0.00000000000E+00 0. -1.
     999901    1    3    3    0    0 -0.58374217158E-01 -0.10113771621E+00 -0.70427620354E-02  0.88774207254E+00  0.88000000000E+00 0.  1.
        -11    1    4    4    0    0  0.42774314493E-01  0.84101826648E-01  0.17448880291E-01  0.95955634386E-01  0.51100000000E-03 0.  1.
         11    1    4    4    0    0  0.23846998780E-01  0.23863218693E-01  0.11666473723E-01  0.35700144080E-01  0.51100000000E-03 0. -1.
</event>
<event>
 8    1  0.1054833E+005  0.1043930E+01  0.7957747E-01            NaN
         13   -1    0    0    0    0  0.00000000000E+00  0.00000000000E+00  0.74505805969E-08  0.10566000000E+00  0.10566000000E+00 0.  1.
     999900   -1    0    0    0    0 -0.00000000000E+00 -0.00000000000E+00 -0.74505805969E-08  0.93827000000E+00  0.93827000000E+00 0.  1.
     999902    2    1    2    0    0 -0.16886893453E-01  0.13817685084E-01  0.18643428410E-03  0.10221095887E+01  0.10218766466E+01 0.  0.
     999903    2    3    3    0    0  0.21404351190E-01  0.35967360759E-01 -0.12391289813E+00  0.13230204105E+00  0.19940573022E-01 0.  0.
         14    1    1    2    0    0  0.16886893453E-01 -0.13817685084E-01 -0.18643428410E-03  0.21820411301E-01  0.00000000000E+00 0.  1.
     999901    1    3    3    0    0 -0.38291244643E-01 -0.22149675675E-01  0.12409933242E+00  0.88980754765E+00  0.88000000000E+00 0. -1.
        -11    1    4    4    0    0  0.24819687176E-01  0.26835836008E-01 -0.95439162620E-01  0.10220114407E+00  0.51100000000E-03 0. -1.
         11    1    4    4    0    0 -0.34153359865E-02  0.91315247518E-02 -0.28473735513E-01  0.30100896984E-01  0.51100000000E-03 0.  1.
</event>
<event>
 8    1  0.1054833E+005  0.1043930E+01  0.7957747E-01            NaN
         13   -1    0    0    0    0  0.00000000000E+00  0.00000000000E+00  0.74505805969E-08  0.10566000000E+00  0.10566000000E+00 0. -1.
     999900   -1    0    0    0    0 -0.00000000000E+00 -0.00000000000E+00 -0.74505805969E-08  0.93827000000E+00  0.93827000000E+00 0.  1.
     999902    2    1    2    0    0 -0.72570810903E-02  0.73941644459E-02  0.20827411456E-01  0.10206680147E+01  0.10204028990E+01 0.  0.
     999903    2    3    3    0    0  0.19579473217E-01  0.53372088236E-01  0.11926399062E+00  0.13358068512E+00  0.19696812031E-01 0.  0.
         14    1    1    2    0    0  0.72570810903E-02 -0.73941644459E-02 -0.20827411456E-01  0.23261985336E-01  0.00000000000E+00 0.  1.
     999901    1    3    3    0    0 -0.26836554307E-01 -0.45977923790E-01 -0.98436579163E-01  0.88708732955E+00  0.88000000000E+00 0.  1.
        -11    1    4    4    0    0  0.97013055253E-03  0.20062112979E-01  0.58237648192E-01  0.61606122410E-01  0.51100000000E-03 0.  1.
         11    1    4    4    0    0  0.18609342664E-01  0.33309975257E-01  0.61026342427E-01  0.71974562708E-01  0.51100000000E-03 0. -1.
</event>
<event>
 8    1  0.1054833E+005  0.1043930E+01  0.7957747E-01            NaN
         13   -1    0    0    0    0  0.00000000000E+00  0.00000000000E+00  0.74505805969E-08  0.10566000000E+00  0.10566000000E+00 0.  1.
     999900   -1    0    0    0    0 -0.00000000000E+00 -0.00000000000E+00 -0.74505805969E-08  0.93827000000E+00  0.93827000000E+00 0.  1.
     999902    2    1    2    0    0 -0.25709909646E-02 -0.19016122125E-02 -0.21650062471E-01  0.10220450433E+01  0.10218107062E+01 0.  0.
     999903    2    3    3    0    0  0.10343136419E+00  0.49476795464E-01 -0.64724223398E-01  0.13315156073E+00  0.19852270427E-01 0.  0.
         14    1    1    2    0    0  0.25709909646E-02  0.19016122125E-02  0.21650062471E-01  0.21884956672E-01  0.00000000000E+00 0.  1.
     999901    1    3    3    0    0 -0.10600235516E+00 -0.51378407677E-01  0.43074160927E-01  0.88889348260E+00  0.88000000000E+00 0. -1.
        -11    1    4    4    0    0  0.87372301462E-01  0.38733598459E-01 -0.45360818304E-01  0.10579260688E+00  0.51100000000E-03 0.  1.
         11    1    4    4    0    0  0.16059062730E-01  0.10743197005E-01 -0.19363405094E-01  0.27358953844E-01  0.51100000000E-03 0. -1.
</event>
<event>
 8    1  0.1054833E+005  0.1043930E+01  0.7957747E-01            NaN
         13   -1    0    0    0    0  0.00000000000E+00  0.00000000000E+00  0.74505805969E-08  0.10566000000E+00  0.10566000000E+00 0. -1.
     999900   -1    0    0    0    0 -0.00000000000E+00 -0.00000000000E+00 -0.74505805969E-08  0.93827000000E+00  0.93827000000E+00 0. -1.
     999902    2    1    2    0    0 -0.14124763299E-01  0.66824641418E-03  0.18066743213E-01  0.10209874042E+01  0.10207296003E+01 0.  0.
     999903    2    3    3    0    0 -0.47118110963E-01 -0.20063660096E-01  0.12209571268E+00  0.13400352643E+00  0.20661926425E-01 0.  0.
         14    1    1    2    0    0  0.14124763299E-01 -0.66824641418E-03 -0.18066743213E-01  0.22942595796E-01  0.00000000000E+00 0.  1.
     999901    1    3    3    0    0  0.32993347665E-01  0.20731906511E-01 -0.10402896947E+00  0.88698387777E+00  0.88000000000E+00 0. -1.
        -11    1    4    4    0    0 -0.44547528704E-01 -0.21412058386E-01  0.98318145858E-01  0.11004397977E+00  0.51100000000E-03 0.  1.
         11    1    4    4    0    0 -0.25705822593E-02  0.13483982894E-02  0.23777566825E-01  0.23959546661E-01  0.51100000000E-03 0. -1.
</event>
<event>
 8    1  0.1054833E+005  0.1043930E+01  0.7957747E-01            NaN
         13   -1    0    0    0    0  0.00000000000E+00  0.00000000000E+00  0.74505805969E-08  0.10566000000E+00  0.10566000000E+00 0. -1.
     999900   -1    0    0    0    0 -0.00000000000E+00 -0.00000000000E+00 -0.74505805969E-08  0.93827000000E+00  0.93827000000E+00 0. -1.
     999902    2    1    2    0    0 -0.21529829482E-01 -0.75459672852E-02  0.36559862249E-02  0.10208249916E+01  0.10205634826E+01 0.  0.
     999903    2    3    3    0    0 -0.94177165611E-01  0.19745047019E-01  0.89673228094E-01  0.13323195373E+00  0.21219336766E-01 0.  0.
         14    1    1    2    0    0  0.21529829482E-01  0.75459672852E-02 -0.36559862249E-02  0.23105008442E-01  0.00000000000E+00 0. -1.
     999901    1    3    3    0    0  0.72647336129E-01 -0.27291014304E-01 -0.86017241869E-01  0.88759303783E+00  0.88000000000E+00 0. -1.
        -11    1    4    4    0    0 -0.56478371203E-01  0.24957918591E-02  0.58541340221E-01  0.81384181673E-01  0.51100000000E-03 0.  1.
         11    1    4    4    0    0 -0.37698794408E-01  0.17249255160E-01  0.31131887873E-01  0.51847772054E-01  0.51100000000E-03 0. -1.
</event>
<event>
 8    1  0.1054833E+005  0.1043930E+01  0.7957747E-01            NaN
         13   -1    0    0    0    0  0.00000000000E+00  0.00000000000E+00  0.74505805969E-08  0.10566000000E+00  0.10566000000E+00 0. -1.
     999900   -1    0    0    0    0 -0.00000000000E+00 -0.00000000000E+00 -0.74505805969E-08  0.93827000000E+00  0.93827000000E+00 0.  1.
     999902    2    1    2    0    0  0.88391380846E-02 -0.17402802853E-01  0.14506959039E-01  0.10196104653E+01  0.10193203918E+01 0.  0.
     999903    2    3    3    0    0 -0.32764608881E-01  0.37180613100E-01 -0.11577690504E+00  0.12737501075E+00  0.19083606464E-01 0.  0.
         14    1    1    2    0    0 -0.88391380846E-02  0.17402802853E-01 -0.14506959039E-01  0.24319534736E-01  0.00000000000E+00 0.  1.
     999901    1    3    3    0    0  0.41603746966E-01 -0.54583415953E-01  0.13028386408E+00  0.89223545452E+00  0.88000000000E+00 0. -1.
        -11    1    4    4    0    0 -0.14510482630E-01  0.83553731301E-02 -0.22491094711E-01  0.28044194205E-01  0.51100000000E-03 0. -1.
         11    1    4    4    0    0 -0.18254126251E-01  0.28825239970E-01 -0.93285810332E-01  0.99330816541E-01  0.51100000000E-03 0.  1.
</event>
<event>
 8    1  0.1054833E+005  0.1043930E+01  0.7957747E-01            NaN
         13   -1    0    0    0    0  0.00000000000E+00  0.00000000000E+00  0.74505805969E-08  0.10566000000E+00  0.10566000000E+00 0.  1.
     999900   -1    0    0    0    0 -0.00000000000E+00 -0.00000000000E+00 -0.74505805969E-08  0.93827000000E+00  0.93827000000E+00 0. -1.
     999902    2    1    2    0    0  0.23249688700E-01  0.12974988499E-02 -0.21199649352E-02  0.10205478320E+01  0.10202799379E+01 0.  0.
     999903    2    3    3    0    0 -0.65010367767E-01  0.21554597277E-01  0.10742211065E+00  0.12914463822E+00  0.21163155300E-01 0.  0.
         14    1    1    2    0    0 -0.23249688700E-01 -0.12974988499E-02  0.21199649352E-02  0.23382167975E-01  0.00000000000E+00 0.  1.
     999901    1    3    3    0    0  0.88260056467E-01 -0.20257098427E-01 -0.10954207559E+00  0.89140319381E+00  0.88000000000E+00 0. -1.
        -11    1    4    4    0    0 -0.44419042892E-01  0.13594092537E-01  0.88967902708E-01  0.10036632681E+00  0.51100000000E-03 0.  1.
         11    1    4    4    0    0 -0.20591324875E-01  0.79605047402E-02  0.18454207946E-01  0.28778311412E-01  0.51100000000E-03 0. -1.
</event>
<event>
 8    1  0.1054833E+005  0.1043930E+01  0.7957747E-01            NaN
         13   -1    0    0    0    0  0.00000000000E+00  0.00000000000E+00  0.74505805969E-08  0.10566000000E+00  0.10566000000E+00 0.  1.
     999900   -1    0    0    0    0 -0.00000000000E+00 -0.00000000000E+00 -0.74505805969E-08  0.93827000000E+00  0.93827000000E+00 0. -1.
     999902    2    1    2    0    0 -0.91691119672E-02 -0.11234045856E-01 -0.18838491658E-01  0.10201567973E+01  0.10198797605E+01 0.  0.
     999903    2    3    3    0    0  0.59720718697E-01  0.36380529215E-01 -0.10981463129E+00  0.13151197816E+00  0.18602150624E-01 0.  0.
         14    1    1    2    0    0  0.91691119672E-02  0.11234045856E-01  0.18838491658E-01  0.23773202740E-01  0.00000000000E+00 0.  1.
     999901    1    3    3    0    0 -0.68889830664E-01 -0.47614575070E-01  0.90976139629E-01  0.88864481910E+00  0.88000000000E+00 0.  1.
        -11    1    4    4    0    0  0.35066041161E-01  0.26823353210E-01 -0.54029199236E-01  0.69774888113E-01  0.51100000000E-03 0. -1.
         11    1    4    4    0    0  0.24654677536E-01  0.95571760043E-02 -0.55785432051E-01  0.61737090049E-01  0.51100000000E-03 0.  1.
</event>
<event>
 8    1  0.1054833E+005  0.1043930E+01  0.7957747E-01            NaN
         13   -1    0    0    0    0  0.00000000000E+00  0.00000000000E+00  0.74505805969E-08  0.10566000000E+00  0.10566000000E+00 0. -1.
     999900   -1    0    0    0    0 -0.00000000000E+00 -0.00000000000E+00 -0.74505805969E-08  0.93827000000E+00  0.93827000000E+00 0.  1.
     999902    2    1    2    0    0 -0.42916713621E-02 -0.21357789705E-01 -0.92797845064E-02  0.10202511482E+01  0.10199763317E+01 0.  0.
     999903    2    3    3    0    0  0.15390180254E-01  0.86066713451E-01 -0.93351379842E-01  0.12952367451E+00  0.20434415288E-01 0.  0.
         14    1    1    2    0    0  0.42916713621E-02  0.21357789705E-01  0.92797845064E-02  0.23678851844E-01  0.00000000000E+00 0. -1.
     999901    1    3    3    0    0 -0.19681851616E-01 -0.10742450316E+00  0.84071595336E-01  0.89072747364E+00  0.88000000000E+00 0. -1.
        -11    1    4    4    0    0  0.16588902974E-01  0.82031139424E-01 -0.81026891444E-01  0.11648999011E+00  0.51100000000E-03 0.  1.
         11    1    4    4    0    0 -0.11987227204E-02  0.40355740273E-02 -0.12324488399E-01  0.13033684405E-01  0.51100000000E-03 0. -1.
</event>
<event>
 8    1  0.1054833E+005  0.1043930E+01  0.7957747E-01            NaN
         13   -1    0    0    0    0  0.00000000000E+00  0.00000000000E+00  0.74505805969E-08  0.10566000000E+00  0.10566000000E+00 0. -1.
     999900   -1    0    0    0    0 -0.00000000000E+00 -0.00000000000E+00 -0.74505805969E-08  0.93827000000E+00  0.93827000000E+00 0.  1.
     999902    2    1    2    0    0  0.17182308586E-02  0.19979042877E-01  0.93411924408E-02  0.10218082381E+01  0.10215687462E+01 0.  0.
     999903    2    3    3    0    0 -0.33428158311E-01 -0.12148733013E+00  0.24175609796E-01  0.12969386021E+00  0.18958484043E-01 0.  0.
         14    1    1    2    0    0 -0.17182308586E-02 -0.19979042877E-01 -0.93411924408E-02  0.22121761860E-01  0.00000000000E+00 0.  1.
     999901    1    3    3    0    0  0.35146389170E-01  0.14146637301E+00 -0.14834417355E-01  0.89211437793E+00  0.88000000000E+00 0.  1.
        -11    1    4    4    0    0 -0.92241170299E-02 -0.34485273214E-01  0.15662904172E-01  0.38985973012E-01  0.51100000000E-03 0. -1.
         11    1    4    4    0    0 -0.24204041282E-01 -0.87002056919E-01  0.85127056239E-02  0.90707887202E-01  0.51100000000E-03 0.  1.
</event>
<event>
 8    1  0.1054833E+005  0.1043930E+01  0.7957747E-01            NaN
         13   -1    0    0    0    0  0.00000000000E+00  0.00000000000E+00  0.74505805969E-08  0.10566000000E+00  0.10566000000E+00 0.  1.
     999900   -1    0    0    0    0 -0.00000000000E+00 -0.00000000000E+00 -0.74505805969E-08  0.93827000000E+00  0.93827000000E+00 0. -1.
     999902    2    1    2    0    0 -0.14082548504E-01  0.17409802489E-01 -0.10048436850E-01  0.10193863556E+01  0.10190908456E+01 0.  0.
     999903    2    3    3    0    0 -0.93848779934E-01  0.87504209132E-01 -0.24274295619E-01  0.13288861026E+00  0.24608153069E-01 0.  0.
         14    1    1    2    0    0  0.14082548504E-01 -0.17409802489E-01  0.10048436850E-01  0.24543644355E-01  0.00000000000E+00 0. -1.
     999901    1    3    3    0    0  0.79766231430E-01 -0.70094406642E-01  0.14225858769E-01  0.88649774539E+00  0.88000000000E+00 0.  1.
        -11    1    4    4    0    0 -0.40761718084E-01  0.52732102788E-01 -0.64121440355E-02  0.66959458164E-01  0.51100000000E-03 0. -1.
         11    1    4    4    0    0 -0.53087061851E-01  0.34772106344E-01 -0.17862151583E-01  0.65929152093E-01  0.51100000000E-03 0.  1.
</event>
<event>
 8    1  0.1054833E+005  0.1043930E+01  0.7957747E-01            NaN
         13   -1    0    0    0    0  0.00000000000E+00  0.00000000000E+00  0.74505805969E-08  0.10566000000E+00  0.10566000000E+00 0. -1.
     999900   -1    0    0    0    0 -0.00000000000E+00 -0.00000000000E+00 -0.74505805969E-08  0.93827000000E+00  0.93827000000E+00 0. -1.
     999902    2    1    2    0    0 -0.90248385856E-03 -0.14062087309E-01  0.19317020759E-01  0.10200196661E+01  0.10197393859E+01 0.  0.
     999903    2    3    3    0    0 -0.48048403648E-01  0.68135380551E-01  0.99702907176E-01  0.13128964398E+00  0.18580143698E-01 0.  0.
         14    1    1    2    0    0  0.90248385856E-03  0.14062087309E-01 -0.19317020759E-01  0.23910333908E-01  0.00000000000E+00 0.  1.
     999901    1    3    3    0    0  0.47145919790E-01 -0.82197467861E-01 -0.80385886418E-01  0.88873002212E+00  0.88000000000E+00 0. -1.
        -11    1    4    4    0    0 -0.11181201498E-01  0.27377225211E-01  0.26211909693E-01  0.39520337270E-01  0.51100000000E-03 0. -1.
         11    1    4    4    0    0 -0.36867202150E-01  0.40758155340E-01  0.73490997483E-01  0.91769306705E-01  0.51100000000E-03 0.  1.
</event>
<event>
 8    1  0.1054833E+005  0.1043930E+01  0.7957747E-01            NaN
         13   -1    0    0    0    0  0.00000000000E+00  0.00000000000E+00  0.74505805969E-08  0.10566000000E+00  0.10566000000E+00 0. -1.
     999900   -1    0    0    0    0 -0.00000000000E+00 -0.00000000000E+00 -0.74505805969E-08  0.93827000000E+00  0.93827000000E+00 0.  1.
     999902    2    1    2    0    0 -0.39198021389E-02 -0.19189638138E-01  0.13209238098E-01  0.10203060496E+01  0.10200325210E+01 0.  0.
     999903    2    3    3    0    0  0.93742656301E-01  0.18517990446E-01  0.87299570573E-01  0.13100902476E+00  0.20286645038E-01 0.  0.
         14    1    1    2    0    0  0.39198021389E-02  0.19189638138E-01 -0.13209238098E-01  0.23623950385E-01  0.00000000000E+00 0.  1.
     999901    1    3    3    0    0 -0.97662458440E-01 -0.37707628584E-01 -0.74090332474E-01  0.88929702485E+00  0.88000000000E+00 0.  1.
        -11    1    4    4    0    0  0.47777291401E-01  0.39932128066E-02  0.31990359536E-01  0.57639045328E-01  0.51100000000E-03 0.  1.
         11    1    4    4    0    0  0.45965364900E-01  0.14524777640E-01  0.55309211036E-01  0.73369979436E-01  0.51100000000E-03 0. -1.
</event>
<event>
 8    1  0.1054833E+005  0.1043930E+01  0.7957747E-01            NaN
         13   -1    0    0    0    0  0.00000000000E+00  0.00000000000E+00  0.74505805969E-08  0.10566000000E+00  0.10566000000E+00 0. -1.
     999900   -1    0    0    0    0 -0.00000000000E+00 -0.00000000000E+00 -0.74505805969E-08  0.93827000000E+00  0.93827000000E+00 0. -1.
     999902    2    1    2    0    0 -0.89795752076E-03 -0.14505887982E-01 -0.19124771861E-01  0.10199095085E+01  0.10196266089E+01 0.  0.
     999903    2    3    3    0    0  0.10336304987E+00 -0.74479074973E-01 -0.25708263870E-01  0.13170317931E+00  0.21301641304E-01 0.  0.
         14    1    1    2    0    0  0.89795752076E-03  0.14505887982E-01  0.19124771861E-01  0.24020491514E-01  0.00000000000E+00 0. -1.
     999901    1    3    3    0    0 -0.10426100739E+00  0.59973186991E-01  0.65834920090E-02  0.88820632918E+00  0.88000000000E+00 0. -1.
        -11    1    4    4    0    0  0.81572121167E-01 -0.68088297840E-01 -0.23944792507E-01  0.10892034458E+00  0.51100000000E-03 0. -1.
         11    1    4    4    0    0  0.21790928702E-01 -0.63907771325E-02 -0.17634713627E-02  0.22782834729E-01  0.51100000000E-03 0.  1.
</event>
<event>
 8    1  0.1054833E+005  0.1043930E+01  0.7957747E-01            NaN
         13   -1    0    0    0    0  0.00000000000E+00  0.00000000000E+00  0.74505805969E-08  0.10566000000E+00  0.10566000000E+00 0.  1.
     999900   -1    0    0    0    0 -0.00000000000E+00 -0.00000000000E+00 -0.74505805969E-08  0.93827000000E+00  0.93827000000E+00 0. -1.
     999902    2    1    2    0    0 -0.13032374361E-01 -0.14585146806E-01 -0.13804502600E-01  0.10199897915E+01  0.10197088022E+01 0.  0.
     999903    2    3    3    0    0 -0.64047488269E-01 -0.28967923213E-01 -0.11117201022E+00  0.13303441632E+00  0.19942886924E-01 0.  0.
         14    1    1    2    0    0  0.13032374361E-01  0.14585146806E-01  0.13804502600E-01  0.23940208455E-01  0.00000000000E+00 0.  1.
     999901    1    3    3    0    0  0.51015113909E-01  0.14382776407E-01  0.97367507624E-01  0.88695537523E+00  0.88000000000E+00 0.  1.
        -11    1    4    4    0    0 -0.44649709267E-01 -0.20533420761E-01 -0.92808050187E-01  0.10501815656E+00  0.51100000000E-03 0. -1.
         11    1    4    4    0    0 -0.19397779002E-01 -0.84345024518E-02 -0.18363960037E-01  0.28016259762E-01  0.51100000000E-03 0.  1.
</event>
<event>
 8    1  0.1054833E+005  0.1043930E+01  0.7957747E-01            NaN
         13   -1    0    0    0    0  0.00000000000E+00  0.00000000000E+00  0.74505805969E-08  0.10566000000E+00  0.10566000000E+00 0.  1.
     999900   -1    0    0    0    0 -0.00000000000E+00 -0.00000000000E+00 -0.74505805969E-08  0.93827000000E+00  0.93827000000E+00 0.  1.
     999902    2    1    2    0    0  0.16911466734E-01 -0.11841429067E-01 -0.11127741667E-01  0.10204769877E+01  0.10202074489E+01 0.  0.
     999903    2    3    3    0    0 -0.18595478567E-01 -0.79917626522E-01 -0.10223675486E+00  0.13244772915E+00  0.18905767958E-01 0.  0.
         14    1    1    2    0    0 -0.16911466734E-01  0.11841429067E-01  0.11127741667E-01  0.23453012259E-01  0.00000000000E+00 0. -1.
     999901    1    3    3    0    0  0.35506945300E-01  0.68076197455E-01  0.91109013189E-01  0.88802925859E+00  0.88000000000E+00 0. -1.
        -11    1    4    4    0    0 -0.20879226364E-01 -0.78810942865E-01 -0.10001528701E+00  0.12903652803E+00  0.51100000000E-03 0. -1.
         11    1    4    4    0    0  0.22837477978E-02 -0.11066836569E-02 -0.22214678482E-02  0.34112011258E-02  0.51100000000E-03 0.  1.
</event>
<event>
 8    1  0.1054833E+005  0.1043930E+01  0.7957747E-01            NaN
         13   -1    0    0    0    0  0.00000000000E+00  0.00000000000E+00  0.74505805969E-08  0.10566000000E+00  0.10566000000E+00 0.  1.
     999900   -1    0    0    0    0 -0.00000000000E+00 -0.00000000000E+00 -0.74505805969E-08  0.93827000000E+00  0.93827000000E+00 0. -1.
     999902    2    1    2    0    0 -0.16343060041E-01 -0.47714685397E-02 -0.15671771538E-01  0.10207898413E+01  0.10205275269E+01 0.  0.
     999903    2    3    3    0    0 -0.77671606664E-01 -0.70587706022E-01  0.76360451371E-01  0.13142889215E+00  0.20667182545E-01 0.  0.
         14    1    1    2    0    0  0.16343060041E-01  0.47714685397E-02  0.15671771538E-01  0.23140158743E-01  0.00000000000E+00 0.  1.
     999901    1    3    3    0    0  0.61328546624E-01  0.65816237482E-01 -0.92032222909E-01  0.88936094911E+00  0.88000000000E+00 0. -1.
        -11    1    4    4    0    0 -0.61293415392E-02 -0.15486662611E-01  0.12290683135E-01  0.20705737356E-01  0.51100000000E-03 0. -1.
         11    1    4    4    0    0 -0.71542265125E-01 -0.55101043411E-01  0.64069768236E-01  0.11072315479E+00  0.51100000000E-03 0.  1.
</event>
<event>
 8    1  0.1054833E+005  0.1043930E+01  0.7957747E-01            NaN
         13   -1    0    0    0    0  0.00000000000E+00  0.00000000000E+00  0.74505805969E-08  0.10566000000E+00  0.10566000000E+00 0. -1.
     999900   -1    0    0    0    0 -0.00000000000E+00 -0.00000000000E+00 -0.74505805969E-08  0.93827000000E+00  0.93827000000E+00 0.  1.
     999902    2    1    2    0    0 -0.19251893953E-01  0.42317447843E-02 -0.12404222067E-01  0.10206403497E+01  0.10203745958E+01 0.  0.
     999903    2    3    3    0    0 -0.11749781652E+00 -0.23688602931E-01  0.53026832385E-01  0.13232000773E+00  0.18161847281E-01 0.  0.
         14    1    1    2    0    0  0.19251893953E-01 -0.42317447843E-02  0.12404222067E-01  0.23289650272E-01  0.00000000000E+00 0. -1.
     999901    1    3    3    0    0  0.98245922571E-01  0.27920347715E-01 -0.65431054452E-01  0.88832034200E+00  0.88000000000E+00 0.  1.
        -11    1    4    4    0    0 -0.45513956082E-01 -0.72163176561E-02  0.29907847955E-01  0.54939384134E-01  0.51100000000E-03 0.  1.
         11    1    4    4    0    0 -0.71983860442E-01 -0.16472285275E-01  0.23118984430E-01  0.77380623597E-01  0.51100000000E-03 0. -1.
</event>
<event>
 8    1  0.1054833E+005  0.1043930E+01  0.7957747E-01            NaN
         13   -1    0    0    0    0  0.00000000000E+00  0.00000000000E+00  0.74505805969E-08  0.10566000000E+00  0.10566000000E+00 0.  1.
     999900   -1    0    0    0    0 -0.00000000000E+00 -0.00000000000E+00 -0.74505805969E-08  0.93827000000E+00  0.93827000000E+00 0. -1.
     999902    2    1    2    0    0  0.12762165924E-02  0.15751877259E-01 -0.18245418097E-01  0.10197919461E+01  0.10195062372E+01 0.  0.
     999903    2    3    3    0    0  0.26330953103E-01  0.12764063744E+00 -0.99340407363E-02  0.13231467117E+00  0.20567829816E-01 0.  0.
         14    1    1    2    0    0 -0.12762165924E-02 -0.15751877259E-01  0.18245418097E-01  0.24138053930E-01  0.00000000000E+00 0.  1.
     999901    1    3    3    0    0 -0.25054736510E-01 -0.11188876018E+00 -0.83113773606E-02  0.88747727490E+00  0.88000000000E+00 0.  1.
        -11    1    4    4    0    0  0.12447455599E-01  0.49638006966E-01 -0.13750780755E-01  0.52992603057E-01  0.51100000000E-03 0.  1.
         11    1    4    4    0    0  0.13883497504E-01  0.78002630474E-01  0.38167400187E-02  0.79322068110E-01  0.51100000000E-03 0. -1.
</event>
<event>
 8    1  0.1054833E+005  0.1043930E+01  0.7957747E-01            NaN
         13   -1    0    0    0    0  0.00000000000E+00  0.00000000000E+00  0.74505805969E-08  0.10566000000E+00  0.10566000000E+00 0. -1.
     999900   -1    0    0    0    0 -0.00000000000E+00 -0.00000000000E+00 -0.74505805969E-08  0.93827000000E+00  0.93827000000E+00 0. -1.
     999902    2    1    2    0    0 -0.14616606116E-01 -0.89454105476E-02  0.14941334629E-01  0.10211943666E+01  0.10209412448E+01 0.  0.
     999903    2    3    3    0    0  0.23749805780E-01  0.17785245504E-01 -0.12390794572E+00  0.12908135126E+00  0.20698985458E-01 0.  0.
         14    1    1    2    0    0  0.14616606116E-01  0.89454105476E-02 -0.14941334629E-01  0.22735633370E-01  0.00000000000E+00 0.  1.
     999901    1    3    3    0    0 -0.38366411896E-01 -0.26730656051E-01  0.13884928035E+00  0.89211301537E+00  0.88000000000E+00 0.  1.
        -11    1    4    4    0    0  0.73535095353E-02  0.12675612812E-01 -0.88710408649E-01  0.89914086696E-01  0.51100000000E-03 0.  1.
         11    1    4    4    0    0  0.16396296245E-01  0.51096326919E-02 -0.35197537071E-01  0.39167264567E-01  0.51100000000E-03 0. -1.
</event>
<event>
 8    1  0.1054833E+005  0.1043930E+01  0.7957747E-01            NaN
         13   -1    0    0    0    0  0.00000000000E+00  0.00000000000E+00  0.74505805969E-08  0.10566000000E+00  0.10566000000E+00 0. -1.
     999900   -1    0    0    0    0 -0.00000000000E+00 -0.00000000000E+00 -0.74505805969E-08  0.93827000000E+00  0.93827000000E+00 0.  1.
     999902    2    1    2    0    0 -0.23466869647E-01 -0.31864575760E-02 -0.56061542027E-02  0.10195932696E+01  0.10193027808E+01 0.  0.
     999903    2    3    3    0    0 -0.48190528094E-02  0.12709016931E+00  0.14566461074E-01  0.12957828375E+00  0.20080224760E-01 0.  0.
         14    1    1    2    0    0  0.23466869647E-01  0.31864575760E-02  0.56061542027E-02  0.24336730427E-01  0.00000000000E+00 0. -1.
     999901    1    3    3    0    0 -0.18647816838E-01 -0.13027662688E+00 -0.20172615276E-01  0.89001498582E+00  0.88000000000E+00 0.  1.
        -11    1    4    4    0    0 -0.10574013311E-01  0.38016819398E-01  0.31115783873E-02  0.39585746876E-01  0.51100000000E-03 0. -1.
         11    1    4    4    0    0  0.57549605014E-02  0.89073349910E-01  0.11454882686E-01  0.89992536873E-01  0.51100000000E-03 0.  1.
</event>
<event>
 8    1  0.1054833E+005  0.1043930E+01  0.7957747E-01            NaN
         13   -1    0    0    0    0  0.00000000000E+00  0.00000000000E+00  0.74505805969E-08  0.10566000000E+00  0.10566000000E+00 0.  1.
     999900   -1    0    0    0    0 -0.00000000000E+00 -0.00000000000E+00 -0.74505805969E-08  0.93827000000E+00  0.93827000000E+00 0.  1.
     999902    2    1    2    0    0  0.12592402012E-01  0.18805159264E-01  0.33085284937E-02  0.10210575501E+01  0.10208013380E+01 0.  0.
     999903    2    3    3    0    0  0.38161760449E-01  0.98031464646E-02 -0.12373074972E+00  0.13152182483E+00  0.20887085505E-01 0.  0.
         14    1    1    2    0    0 -0.12592402012E-01 -0.18805159264E-01 -0.33085284937E-02  0.22872449894E-01  0.00000000000E+00 0.  1.
     999901    1    3    3    0    0 -0.25569358437E-01  0.90020127990E-02  0.12703927821E+00  0.88953572527E+00  0.88000000000E+00 0. -1.
        -11    1    4    4    0    0  0.12970397760E-01  0.11555833686E-02 -0.16467747306E-01  0.21000343171E-01  0.51100000000E-03 0.  1.
         11    1    4    4    0    0  0.25191362689E-01  0.86475630960E-02 -0.10726300241E+00  0.11052148166E+00  0.51100000000E-03 0. -1.
</event>
<event>
 7    1  0.1054833E+005  0.1043930E+01  0.7957747E-01            NaN
         13   -1    0    0    0    0  0.00000000000E+00  0.00000000000E+00  0.74505805969E-08  0.10566000000E+00  0.10566000000E+00 0.  1.
     999900   -1    0    0    0    0 -0.00000000000E+00 -0.00000000000E+00 -0.74505805969E-08  0.93827000000E+00  0.93827000000E+00 0.  1.
     999902    2    1    2    0    0 -0.21859991389E-01  0.92295852321E-02  0.14666993763E-02  0.10201561557E+01  0.10198791038E+01 0.  0.
         14    1    1    2    0    0  0.21859991389E-01 -0.92295852321E-02 -0.14666993763E-02  0.23773844328E-01  0.00000000000E+00 0. -1.
     999901    1    3    3    0    0  0.83904996656E-01 -0.45526912312E-01  0.14731879071E-01  0.88528513851E+00  0.88000000000E+00 0. -1.
        -11    1    3    3    0    0 -0.42021983949E-01  0.56462320274E-01 -0.48824214234E-02  0.70554517259E-01  0.51100000000E-03 0.  1.
         11    1    3    3    0    0 -0.63743004096E-01 -0.17058227299E-02 -0.83827582711E-02  0.64316499901E-01  0.51100000000E-03 0. -1.
</event>
<event>
 8    1  0.1054833E+005  0.1043930E+01  0.7957747E-01            NaN
         13   -1    0    0    0    0  0.00000000000E+00  0.00000000000E+00  0.74505805969E-08  0.10566000000E+00  0.10566000000E+00 0.  1.
     999900   -1    0    0    0    0 -0.00000000000E+00 -0.00000000000E+00 -0.74505805969E-08  0.93827000000E+00  0.93827000000E+00 0. -1.
     999902    2    1    2    0    0  0.18469289191E-01 -0.12368820715E-01  0.73532067869E-02  0.10205169263E+01  0.10202483153E+01 0.  0.
     999903    2    3    3    0    0 -0.11299703663E-03  0.51782779451E-03  0.13064168672E+00  0.13163481020E+00  0.16130469136E-01 0.  0.
         14    1    1    2    0    0 -0.18469289191E-01  0.12368820715E-01 -0.73532067869E-02  0.23413073680E-01  0.00000000000E+00 0. -1.
     999901    1    3    3    0    0  0.18582286228E-01 -0.12886648509E-01 -0.12328847993E+00  0.88888211612E+00  0.88000000000E+00 0. -1.
        -11    1    4    4    0    0 -0.32612575022E-02  0.62912935053E-02  0.32298917812E-01  0.33071095950E-01  0.51100000000E-03 0. -1.
         11    1    4    4    0    0  0.31482604656E-02 -0.57734657108E-02  0.98342768905E-01  0.98563714252E-01  0.51100000000E-03 0.  1.
</event>
<event>
 8    1  0.1054833E+005  0.1043930E+01  0.7957747E-01            NaN
         13   -1    0    0    0    0  0.00000000000E+00  0.00000000000E+00  0.74505805969E-08  0.10566000000E+00  0.10566000000E+00 0.  1.
     999900   -1    0    0    0    0 -0.00000000000E+00 -0.00000000000E+00 -0.74505805969E-08  0.93827000000E+00  0.93827000000E+00 0.  1.
     999902    2    1    2    0    0 -0.41712994746E-03 -0.20851509073E-02  0.23755763230E-01  0.10200792529E+01  0.10198003844E+01 0.  0.
     999903    2    3    3    0    0  0.67666931935E-01 -0.10408325502E+00  0.38103031625E-01  0.13145959474E+00  0.20436398339E-01 0.  0.
         14    1    1    2    0    0  0.41712994746E-03  0.20851509073E-02 -0.23755763230E-01  0.23850747123E-01  0.00000000000E+00 0. -1.
     999901    1    3    3    0    0 -0.68084061883E-01  0.10199810411E+00 -0.14347268395E-01  0.88861965814E+00  0.88000000000E+00 0.  1.
        -11    1    4    4    0    0  0.59051095468E-01 -0.90861089386E-01  0.25674731921E-01  0.11136526577E+00  0.51100000000E-03 0. -1.
         11    1    4    4    0    0  0.86158364671E-02 -0.13222165629E-01  0.12428299704E-01  0.20094328963E-01  0.51100000000E-03 0.  1.
</event>
<event>
 8    1  0.1054833E+005  0.1043930E+01  0.7957747E-01            NaN
         13   -1    0    0    0    0  0.00000000000E+00  0.00000000000E+00  0.74505805969E-08  0.10566000000E+00  0.10566000000E+00 0. -1.
     999900   -1    0    0    0    0 -0.00000000000E+00 -0.00000000000E+00 -0.74505805969E-08  0.93827000000E+00  0.93827000000E+00 0.  1.
     999902    2    1    2    0    0 -0.19037804457E-01  0.12333060410E-01 -0.76605306777E-02  0.10199878592E+01  0.10197068239E+01 0.  0.
     999903    2    3    3    0    0  0.39878721516E-01  0.11467712427E+00 -0.44845319455E-01  0.13132134525E+00  0.22204454036E-01 0.  0.
         14    1    1    2    0    0  0.19037804457E-01 -0.12333060410E-01  0.76605306777E-02  0.23942140837E-01  0.00000000000E+00 0. -1.
     999901    1    3    3    0    0 -0.58916525973E-01 -0.10234406386E+00  0.37184788777E-01  0.88866651392E+00  0.88000000000E+00 0. -1.
        -11    1    4    4    0    0  0.25021226984E-01  0.41891331272E-01 -0.13033773703E-01  0.50508274703E-01  0.51100000000E-03 0. -1.
         11    1    4    4    0    0  0.14857494532E-01  0.72785793000E-01 -0.31811545752E-01  0.80813070543E-01  0.51100000000E-03 0.  1.
</event>
<event>
 8    1  0.1054833E+005  0.1043930E+01  0.7957747E-01            NaN
         13   -1    0    0    0    0  0.00000000000E+00  0.00000000000E+00  0.74505805969E-08  0.10566000000E+00  0.10566000000E+00 0. -1.
     999900   -1    0    0    0    0 -0.00000000000E+00 -0.00000000000E+00 -0.74505805969E-08  0.93827000000E+00  0.93827000000E+00 0.  1.
     999902    2    1    2    0    0 -0.13554467639E-01 -0.16648459425E-01  0.12304635221E-01  0.10191853270E+01  0.10188848963E+01 0.  0.
     999903    2    3    3    0    0 -0.11060911704E+00 -0.68614365127E-01 -0.10943662846E-01  0.13202099966E+00  0.19169578023E-01 0.  0.
         14    1    1    2    0    0  0.13554467639E-01  0.16648459425E-01 -0.12304635221E-01  0.24744673004E-01  0.00000000000E+00 0.  1.
     999901    1    3    3    0    0  0.97054649402E-01  0.51965905703E-01  0.23248298067E-01  0.88716432733E+00  0.88000000000E+00 0. -1.
        -11    1    4    4    0    0 -0.13363543284E-01 -0.29400328407E-02 -0.48167391323E-02  0.14515170652E-01  0.51100000000E-03 0. -1.
         11    1    4    4    0    0 -0.97245573757E-01 -0.65674332286E-01 -0.61269237137E-02  0.11750582901E+00  0.51100000000E-03 0.  1.
</event>
<event>
 8    1  0.1054833E+005  0.1043930E+01  0.7957747E-01            NaN
         13   -1    0    0    0    0  0.00000000000E+00  0.00000000000E+00  0.74505805969E-08  0.10566000000E+00  0.10566000000E+00 0. -1.
     999900   -1    0    0    0    0 -0.00000000000E+00 -0.00000000000E+00 -0.74505805969E-08  0.93827000000E+00  0.93827000000E+00 0.  1.
     999902    2    1    2    0    0  0.17134322534E-01 -0.59246643921E-02 -0.15666409334E-01  0.10199691353E+01  0.10196876551E+01 0.  0.
     999903    2    3    3    0    0  0.13189580652E-01  0.87357486497E-01 -0.95275250508E-01  0.13145650832E+00  0.19953564503E-01 0.  0.
         14    1    1    2    0    0 -0.17134322534E-01  0.59246643921E-02  0.15666409334E-01  0.23960864723E-01  0.00000000000E+00 0. -1.
     999901    1    3    3    0    0  0.39447418816E-02 -0.93282150889E-01  0.79608841174E-01  0.88851262695E+00  0.88000000000E+00 0. -1.
        -11    1    4    4    0    0 -0.19843404564E-02  0.38376179993E-01 -0.49896722916E-01  0.62981051728E-01  0.51100000000E-03 0.  1.
         11    1    4    4    0    0  0.15173921109E-01  0.48981306504E-01 -0.45378527592E-01  0.68475456596E-01  0.51100000000E-03 0. -1.
</event>
<event>
 8    1  0.1054833E+005  0.1043930E+01  0.7957747E-01            NaN
         13   -1    0    0    0    0  0.00000000000E+00  0.00000000000E+00  0.74505805969E-08  0.10566000000E+00  0.10566000000E+00 0. -1.
     999900   -1    0    0    0    0 -0.00000000000E+00 -0.00000000000E+00 -0.74505805969E-08  0.93827000000E+00  0.93827000000E+00 0.  1.
     999902    2    1    2    0    0 -0.22863647311E-03  0.60361337601E-02  0.24144107527E-01  0.10190417475E+01  0.10187377769E+01 0.  0.
     999903    2    3    3    0    0  0.49190502973E-01 -0.10980720485E+00  0.44423531268E-01  0.12984368997E+00  0.20214001942E-01 0.  0.
         14    1    1    2    0    0  0.22863647311E-03 -0.60361337601E-02 -0.24144107527E-01  0.24888252524E-01  0.00000000000E+00 0.  1.
     999901    1    3    3    0    0 -0.49419139446E-01  0.11584333861E+00 -0.20279423741E-01  0.88919805751E+00  0.88000000000E+00 0. -1.
        -11    1    4    4    0    0  0.66909115677E-02 -0.27865451316E-01  0.17929414294E-01  0.33807938307E-01  0.51100000000E-03 0.  1.
         11    1    4    4    0    0  0.42499591405E-01 -0.81941753537E-01  0.26494116974E-01  0.96035751663E-01  0.51100000000E-03 0. -1.
</event>
<event>
 8    1  0.1054833E+005  0.1043930E+01  0.7957747E-01            NaN
         13   -1    0    0    0    0  0.00000000000E+00  0.00000000000E+00  0.74505805969E-08  0.10566000000E+00  0.10566000000E+00 0. -1.
     999900   -1    0    0    0    0 -0.00000000000E+00 -0.00000000000E+00 -0.74505805969E-08  0.93827000000E+00  0.93827000000E+00 0. -1.
     999902    2    1    2    0    0 -0.42890751838E-02  0.11934004442E-01 -0.20310771701E-01  0.10199853957E+01  0.10197043019E+01 0.  0.
     999903    2    3    3    0    0  0.78086838076E-01  0.91802966591E-01  0.44776247772E-01  0.13015329788E+00  0.20239309032E-01 0.  0.
         14    1    1    2    0    0  0.42890751838E-02 -0.11934004442E-01  0.20310771701E-01  0.23944604299E-01  0.00000000000E+00 0. -1.
     999901    1    3    3    0    0 -0.82375913260E-01 -0.79868962149E-01 -0.65087019473E-01  0.88983209782E+00  0.88000000000E+00 0. -1.
        -11    1    4    4    0    0  0.66571624113E-01  0.69162101720E-01  0.41324105081E-01  0.10451373227E+00  0.51100000000E-03 0.  1.
         11    1    4    4    0    0  0.11515213963E-01  0.22640864871E-01  0.34521426908E-02  0.25639565614E-01  0.51100000000E-03 0. -1.
</event>
<event>
 8    1  0.1054833E+005  0.1043930E+01  0.7957747E-01            NaN
         13   -1    0    0    0    0  0.00000000000E+00  0.00000000000E+00  0.74505805969E-08  0.10566000000E+00  0.10566000000E+00 0. -1.
     999900   -1    0    0    0    0 -0.00000000000E+00 -0.00000000000E+00 -0.74505805969E-08  0.93827000000E+00  0.93827000000E+00 0.  1.
     999902    2    1    2    0    0 -0.11749401260E-01  0.20576937168E-01  0.79854964627E-02  0.10189254619E+01  0.10186186087E+01 0.  0.
     999903    2    3    3    0    0  0.11551323774E+00 -0.47427857415E-01  0.16607089999E-01  0.12713245716E+00  0.17150990462E-01 0.  0.
         14    1    1    2    0    0  0.11749401260E-01 -0.20576937168E-01 -0.79854964627E-02  0.25004538127E-01  0.00000000000E+00 0.  1.
     999901    1    3    3    0    0 -0.12726263900E+00  0.68004794583E-01 -0.86215935366E-02  0.89179300471E+00  0.88000000000E+00 0.  1.
        -11    1    4    4    0    0  0.10311513352E+00 -0.47364123559E-01  0.16868209188E-01  0.11472091598E+00  0.51100000000E-03 0. -1.
         11    1    4    4    0    0  0.12398104223E-01 -0.63733855450E-04 -0.26111918919E-03  0.12411541183E-01  0.51100000000E-03 0.  1.
</event>
<event>
 8    1  0.1054833E+005  0.1043930E+01  0.7957747E-01            NaN
         13   -1    0    0    0    0  0.00000000000E+00  0.00000000000E+00  0.74505805969E-08  0.10566000000E+00  0.10566000000E+00 0.  1.
     999900   -1    0    0    0    0 -0.00000000000E+00 -0.00000000000E+00 -0.74505805969E-08  0.93827000000E+00  0.93827000000E+00 0.  1.
     999902    2    1    2    0    0  0.71126294240E-02 -0.33052990400E-02 -0.22667708485E-01  0.10199437642E+01  0.10196616805E+01 0.  0.
     999903    2    3    3    0    0 -0.10895537786E-01  0.58480179572E-01  0.11099458012E+00  0.12752718725E+00  0.20118213738E-01 0.  0.
         14    1    1    2    0    0 -0.71126294240E-02  0.33052990400E-02  0.22667708485E-01  0.23986235783E-01  0.00000000000E+00 0.  1.
     999901    1    3    3    0    0  0.18008167210E-01 -0.61785478612E-01 -0.13366228861E+00  0.89241657697E+00  0.88000000000E+00 0.  1.
        -11    1    4    4    0    0 -0.12843125466E-01  0.21804547353E-01  0.35835354800E-01  0.43872747026E-01  0.51100000000E-03 0.  1.
         11    1    4    4    0    0  0.19475876799E-02  0.36675632219E-01  0.75159225325E-01  0.83654440222E-01  0.51100000000E-03 0. -1.
</event>
<event>
 8    1  0.1054833E+005  0.1043930E+01  0.7957747E-01            NaN
         13   -1    0    0    0    0  0.00000000000E+00  0.00000000000E+00  0.74505805969E-08  0.10566000000E+00  0.10566000000E+00 0. -1.
     999900   -1    0    0    0    0 -0.00000000000E+00 -0.00000000000E+00 -0.74505805969E-08  0.93827000000E+00  0.93827000000E+00 0. -1.
     999902    2    1    2    0    0 -0.23124707009E-01 -0.86473565633E-03 -0.22798569918E-02  0.10206770950E+01  0.10204121886E+01 0.  0.
     999903    2    3    3    0    0 -0.52065382199E-01 -0.10625347605E+00  0.55196754249E-01  0.13205574139E+00  0.19784639465E-01 0.  0.
         14    1    1    2    0    0  0.23124707009E-01  0.86473565633E-03  0.22798569918E-02  0.23252904978E-01  0.00000000000E+00 0. -1.
     999901    1    3    3    0    0  0.28940675190E-01  0.10538874040E+00 -0.57476611241E-01  0.88862135363E+00  0.88000000000E+00 0. -1.
        -11    1    4    4    0    0 -0.47937024652E-02 -0.26874563555E-01  0.89166806759E-02  0.28722640284E-01  0.51100000000E-03 0.  1.
         11    1    4    4    0    0 -0.47271679734E-01 -0.79378912498E-01  0.46280073574E-01  0.10333310111E+00  0.51100000000E-03 0. -1.
</event>
<event>
 8    1  0.1054833E+005  0.1043930E+01  0.7957747E-01            NaN
         13   -1    0    0    0    0  0.00000000000E+00  0.00000000000E+00  0.74505805969E-08  0.10566000000E+00  0.10566000000E+00 0.  1.
     999900   -1    0    0    0    0 -0.00000000000E+00 -0.00000000000E+00 -0.74505805969E-08  0.93827000000E+00  0.93827000000E+00 0.  1.
     999902    2    1    2    0    0  0.65837875508E-02 -0.16613632755E-02  0.22401400428E-01  0.10205221140E+01  0.10202536234E+01 0.  0.
     999903    2    3    3    0    0 -0.89367198730E-01  0.65751865333E-01 -0.62048163844E-01  0.12873578080E+00  0.20325418014E-01 0.  0.
         14    1    1    2    0    0 -0.65837875508E-02  0.16613632755E-02 -0.22401400428E-01  0.23407886012E-01  0.00000000000E+00 0. -1.
     999901    1    3    3    0    0  0.95950986281E-01 -0.67413228608E-01  0.84449564272E-01  0.89178633319E+00  0.88000000000E+00 0. -1.
        -11    1    4    4    0    0 -0.25750080633E-01  0.29078774123E-01 -0.15684232715E-01  0.41891503123E-01  0.51100000000E-03 0. -1.
         11    1    4    4    0    0 -0.63617118097E-01  0.36673091210E-01 -0.46363931130E-01  0.86844277674E-01  0.51100000000E-03 0.  1.
</event>
<event>
 8    1  0.1054833E+005  0.1043930E+01  0.7957747E-01            NaN
         13   -1    0    0    0    0  0.00000000000E+00  0.00000000000E+00  0.74505805969E-08  0.10566000000E+00  0.10566000000E+00 0.  1.
     999900   -1    0    0    0    0 -0.00000000000E+00 -0.00000000000E+00 -0.74505805969E-08  0.93827000000E+00  0.93827000000E+00 0.  1.
     999902    2    1    2    0    0 -0.17865881019E-01 -0.74791836910E-02 -0.14258864205E-01  0.10198791559E+01  0.10195955323E+01 0.  0.
     999903    2    3    3    0    0  0.95006577045E-01  0.81703463076E-01 -0.18157003928E-01  0.12819034709E+00  0.20034538548E-01 0.  0.
         14    1    1    2    0    0  0.17865881019E-01  0.74791836910E-02  0.14258864205E-01  0.24050844095E-01  0.00000000000E+00 0.  1.
     999901    1    3    3    0    0 -0.11287245806E+00 -0.89182646767E-01  0.38981397230E-02  0.89168880882E+00  0.88000000000E+00 0. -1.
        -11    1    4    4    0    0  0.70845459866E-01  0.66844247451E-01 -0.21118575147E-01  0.99666884862E-01  0.51100000000E-03 0.  1.
         11    1    4    4    0    0  0.24161117180E-01  0.14859215625E-01  0.29615712193E-02  0.28523462228E-01  0.51100000000E-03 0. -1.
</event>
<event>
 8    1  0.1054833E+005  0.1043930E+01  0.7957747E-01            NaN
         13   -1    0    0    0    0  0.00000000000E+00  0.00000000000E+00  0.74505805969E-08  0.10566000000E+00  0.10566000000E+00 0. -1.
     999900   -1    0    0    0    0 -0.00000000000E+00 -0.00000000000E+00 -0.74505805969E-08  0.93827000000E+00  0.93827000000E+00 0. -1.
     999902    2    1    2    0    0 -0.52393372025E-02  0.34112107330E-02 -0.21871366502E-01  0.10211826115E+01  0.10209292249E+01 0.  0.
     999903    2    3    3    0    0 -0.76018804267E-01 -0.37910950611E-01 -0.10141257078E+00  0.13380216477E+00  0.20060184608E-01 0.  0.
         14    1    1    2    0    0  0.52393372025E-02 -0.34112107330E-02  0.21871366502E-01  0.22747388546E-01  0.00000000000E+00 0. -1.
     999901    1    3    3    0    0  0.70779467065E-01  0.41322161344E-01  0.79541204280E-01  0.88738044668E+00  0.88000000000E+00 0.  1.
        -11    1    4    4    0    0 -0.21922109631E-01 -0.57604811210E-02 -0.16176422528E-01  0.27851387761E-01  0.51100000000E-03 0. -1.
         11    1    4    4    0    0 -0.54096694637E-01 -0.32150469490E-01 -0.85236148253E-01  0.10595077701E+00  0.51100000000E-03 0.  1.
</event>
<event>
 8    1  0.1054833E+005  0.1043930E+01  0.7957747E-01            NaN
         13   -1    0    0    0    0  0.00000000000E+00  0.00000000000E+00  0.74505805969E-08  0.10566000000E+00  0.10566000000E+00 0. -1.
     999900   -1    0    0    0    0 -0.00000000000E+00 -0.00000000000E+00 -0.74505805969E-08  0.93827000000E+00  0.93827000000E+00 0. -1.
     999902    2    1    2    0    0 -0.45206689924E-02  0.68569112628E-02  0.22111987067E-01  0.10203420019E+01  0.10200693149E+01 0.  0.
     999903    2    3    3    0    0 -0.11354572951E+00  0.36390774006E-01 -0.48127445037E-01  0.13034633303E+00  0.21377428401E-01 0.  0.
         14    1    1    2    0    0  0.45206689924E-02 -0.68569112628E-02 -0.22111987067E-01  0.23587998055E-01  0.00000000000E+00 0.  1.
     999901    1    3    3    0    0  0.10902506052E+00 -0.29533862743E-01  0.70239432104E-01  0.88999566892E+00  0.88000000000E+00 0.  1.
        -11    1    4    4    0    0 -0.75083828001E-01  0.34060341409E-01 -0.29750235216E-01  0.87652870464E-01  0.51100000000E-03 0.  1.
         11    1    4    4    0    0 -0.38461901510E-01  0.23304325965E-02 -0.18377209821E-01  0.42693462564E-01  0.51100000000E-03 0. -1.
</event>
<event>
 8    1  0.1054833E+005  0.1043930E+01  0.7957747E-01            NaN
         13   -1    0    0    0    0  0.00000000000E+00  0.00000000000E+00  0.74505805969E-08  0.10566000000E+00  0.10566000000E+00 0.  1.
     999900   -1    0    0    0    0 -0.00000000000E+00 -0.00000000000E+00 -0.74505805969E-08  0.93827000000E+00  0.93827000000E+00 0. -1.
     999902    2    1    2    0    0  0.14753627952E-01  0.13208812140E-01  0.13130551444E-01  0.10201696625E+01  0.10198929290E+01 0.  0.
     999903    2    3    3    0    0 -0.21693042143E-01 -0.12396413256E+00  0.18725170858E-01  0.12877969383E+00  0.19896815825E-01 0.  0.
         14    1    1    2    0    0 -0.14753627952E-01 -0.13208812140E-01 -0.13130551444E-01  0.23760337479E-01  0.00000000000E+00 0. -1.
     999901    1    3    3    0    0  0.36446670095E-01  0.13717294470E+00 -0.55946194141E-02  0.89138996869E+00  0.88000000000E+00 0.  1.
        -11    1    4    4    0    0  0.10153136240E-02 -0.40357008032E-01  0.12209952347E-02  0.40391470751E-01  0.51100000000E-03 0. -1.
         11    1    4    4    0    0 -0.22708355767E-01 -0.83607124528E-01  0.17504175623E-01  0.88388223077E-01  0.51100000000E-03 0.  1.
</event>
<event>
 8    1  0.1054833E+005  0.1043930E+01  0.7957747E-01            NaN
         13   -1    0    0    0    0  0.00000000000E+00  0.00000000000E+00  0.74505805969E-08  0.10566000000E+00  0.10566000000E+00 0. -1.
     999900   -1    0    0    0    0 -0.00000000000E+00 -0.00000000000E+00 -0.74505805969E-08  0.93827000000E+00  0.93827000000E+00 0. -1.
     999902    2    1    2    0    0  0.49716637949E-03 -0.15822395697E-01 -0.16748867171E-01  0.10208839606E+01  0.10206238000E+01 0.  0.
     999903    2    3    3    0    0  0.75722445649E-01  0.40001457802E-01  0.94303307923E-01  0.12897155973E+00  0.20162934595E-01 0.  0.
         14    1    1    2    0    0 -0.49716637949E-03  0.15822395697E-01  0.16748867171E-01  0.23046039389E-01  0.00000000000E+00 0. -1.
     999901    1    3    3    0    0 -0.75225279269E-01 -0.55823853499E-01 -0.11105217509E+00  0.89191240089E+00  0.88000000000E+00 0. -1.
        -11    1    4    4    0    0  0.44806126580E-01  0.33909631228E-01  0.65199707516E-01  0.86073892966E-01  0.51100000000E-03 0. -1.
         11    1    4    4    0    0  0.30916319069E-01  0.60918265742E-02  0.29103600407E-01  0.42897666759E-01  0.51100000000E-03 0.  1.
</event>
<event>
 8    1  0.1054833E+005  0.1043930E+01  0.7957747E-01            NaN
         13   -1    0    0    0    0  0.00000000000E+00  0.00000000000E+00  0.74505805969E-08  0.10566000000E+00  0.10566000000E+00 0. -1.
     999900   -1    0    0    0    0 -0.00000000000E+00 -0.00000000000E+00 -0.74505805969E-08  0.93827000000E+00  0.93827000000E+00 0.  1.
     999902    2    1    2    0    0  0.24284147263E-01 -0.35216550423E-02  0.40457286734E-02  0.10190605452E+01  0.10187570392E+01 0.  0.
     999903    2    3    3    0    0  0.11461154415E+00  0.19497366357E-01 -0.59018249543E-01  0.13189315437E+00  0.19917254891E-01 0.  0.
         14    1    1    2    0    0 -0.24284147263E-01  0.35216550423E-02 -0.40457286734E-02  0.24869454820E-01  0.00000000000E+00 0.  1.
     999901    1    3    3    0    0 -0.90327396887E-01 -0.23019021400E-01  0.63063978216E-01  0.88716739081E+00  0.88000000000E+00 0. -1.
        -11    1    4    4    0    0  0.75232603013E-01  0.43820493630E-02 -0.32530354079E-01  0.82083079683E-01  0.51100000000E-03 0.  1.
         11    1    4    4    0    0  0.39378941137E-01  0.15115316994E-01 -0.26487895463E-01  0.49810074684E-01  0.51100000000E-03 0. -1.
</event>
<event>
 8    1  0.1054833E+005  0.1043930E+01  0.7957747E-01            NaN
         13   -1    0    0    0    0  0.00000000000E+00  0.00000000000E+00  0.74505805969E-08  0.10566000000E+00  0.10566000000E+00 0. -1.
     999900   -1    0    0    0    0 -0.00000000000E+00 -0.00000000000E+00 -0.74505805969E-08  0.93827000000E+00  0.93827000000E+00 0.  1.
     999902    2    1    2    0    0  0.22307993828E-01  0.33671851149E-02  0.71572884350E-02  0.10202612167E+01  0.10199866367E+01 0.  0.
     999903    2    3    3    0    0  0.55491903548E-01 -0.90753438706E-01  0.75614780051E-01  0.13197843976E+00  0.19625891104E-01 0.  0.
         14    1    1    2    0    0 -0.22307993828E-01 -0.33671851149E-02 -0.71572884350E-02  0.23668783281E-01  0.00000000000E+00 0.  1.
     999901    1    3    3    0    0 -0.33183909720E-01  0.94120623821E-01 -0.68457491616E-01  0.88828277696E+00  0.88000000000E+00 0.  1.
        -11    1    4    4    0    0  0.92570948339E-02 -0.32017601827E-01  0.25761747038E-01  0.42127774246E-01  0.51100000000E-03 0. -1.
         11    1    4    4    0    0  0.46234808714E-01 -0.58735836879E-01  0.49853033013E-01  0.89850665509E-01  0.51100000000E-03 0.  1.
</event>
<event>
 8    1  0.1054833E+005  0.1043930E+01  0.7957747E-01            NaN
         13   -1    0    0    0    0  0.00000000000E+00  0.00000000000E+00  0.74505805969E-08  0.10566000000E+00  0.10566000000E+00 0.  1.
     999900   -1    0    0    0    0 -0.00000000000E+00 -0.00000000000E+00 -0.74505805969E-08  0.93827000000E+00  0.93827000000E+00 0. -1.
     999902    2    1    2    0    0 -0.40658591262E-02 -0.91029336255E-02 -0.21395856096E-01  0.10203253973E+01  0.10200523217E+01 0.  0.
     999903    2    3    3    0    0 -0.29924062665E-01 -0.12684042058E+00 -0.43796078319E-02  0.13194467078E+00  0.20156223979E-01 0.  0.
         14    1    1    2    0    0  0.40658591262E-02  0.91029336255E-02  0.21395856096E-01  0.23604602710E-01  0.00000000000E+00 0.  1.
     999901    1    3    3    0    0  0.25858203539E-01  0.11773748695E+00 -0.17016248264E-01  0.88838072651E+00  0.88000000000E+00 0.  1.
        -11    1    4    4    0    0 -0.15446792877E-01 -0.77918167576E-01 -0.12064881259E-01  0.80347163792E-01  0.51100000000E-03 0.  1.
         11    1    4    4    0    0 -0.14477269788E-01 -0.48922253000E-01  0.76852734269E-02  0.51597506992E-01  0.51100000000E-03 0. -1.
</event>
<event>
 8    1  0.1054833E+005  0.1043930E+01  0.7957747E-01            NaN
         13   -1    0    0    0    0  0.00000000000E+00  0.00000000000E+00  0.74505805969E-08  0.10566000000E+00  0.10566000000E+00 0. -1.
     999900   -1    0    0    0    0 -0.00000000000E+00 -0.00000000000E+00 -0.74505805969E-08  0.93827000000E+00  0.93827000000E+00 0.  1.
     999902    2    1    2    0    0 -0.13801565790E-01 -0.49322049120E-02 -0.17203750138E-01  0.10213295823E+01  0.10210794958E+01 0.  0.
     999903    2    3    3    0    0  0.41953850553E-01  0.86034691743E-01 -0.88640995710E-01  0.13201134743E+00  0.20190987334E-01 0.  0.
         14    1    1    2    0    0  0.13801565790E-01  0.49322049120E-02  0.17203750138E-01  0.22600417747E-01  0.00000000000E+00 0. -1.
     999901    1    3    3    0    0 -0.55755416343E-01 -0.90966896655E-01  0.71437245572E-01  0.88931823483E+00  0.88000000000E+00 0. -1.
        -11    1    4    4    0    0  0.33585859889E-01  0.56789565779E-01 -0.70643468630E-01  0.96663465420E-01  0.51100000000E-03 0.  1.
         11    1    4    4    0    0  0.83679906636E-02  0.29245125965E-01 -0.17997527080E-01  0.35347882007E-01  0.51100000000E-03 0. -1.
</event>
<event>
 7    1  0.1054833E+005  0.1043930E+01  0.7957747E-01            NaN
         13   -1    0    0    0    0  0.00000000000E+00  0.00000000000E+00  0.74505805969E-08  0.10566000000E+00  0.10566000000E+00 0.  1.
     999900   -1    0    0    0    0 -0.00000000000E+00 -0.00000000000E+00 -0.74505805969E-08  0.93827000000E+00  0.93827000000E+00 0. -1.
     999903    2    1    2    0    0 -0.28761190069E-01 -0.62526893234E-01 -0.27012948665E-02  0.72290688983E-01  0.21950587418E-01 0.  0.
         14    1    1    2    0    0  0.55232576580E-01  0.58571917773E-01 -0.40607008351E-01  0.90167822390E-01  0.00000000000E+00 0. -1.
     999901    1    1    2    0    0 -0.26471386511E-01  0.39549754616E-02  0.43308303218E-01  0.88147148863E+00  0.88000000000E+00 0.  1.
        -11    1    3    3    0    0 -0.10953569018E-01 -0.21940984704E-01  0.95228640457E-02  0.26312231845E-01  0.51100000000E-03 0.  1.
         11    1    3    3    0    0 -0.17807621051E-01 -0.40585908531E-01 -0.12224158912E-01  0.45978457139E-01  0.51100000000E-03 0. -1.
</event>
<event>
 8    1  0.1054833E+005  0.1043930E+01  0.7957747E-01            NaN
         13   -1    0    0    0    0  0.00000000000E+00  0.00000000000E+00  0.74505805969E-08  0.10566000000E+00  0.10566000000E+00 0. -1.
     999900   -1    0    0    0    0 -0.00000000000E+00 -0.00000000000E+00 -0.74505805969E-08  0.93827000000E+00  0.93827000000E+00 0.  1.
     999902    2    1    2    0    0 -0.38335672887E-02 -0.11064615342E-01 -0.21047248533E-01  0.10198445558E+01  0.10195601058E+01 0.  0.
     999903    2    3    3    0    0 -0.57691187898E-01  0.86313677129E-01  0.72070445866E-01  0.12796223165E+00  0.20046434631E-01 0.  0.
         14    1    1    2    0    0  0.38335672887E-02  0.11064615342E-01  0.21047248533E-01  0.24085444186E-01  0.00000000000E+00 0. -1.
     999901    1    3    3    0    0  0.53857620609E-01 -0.97378292472E-01 -0.93117694399E-01  0.89188232416E+00  0.88000000000E+00 0.  1.
        -11    1    4    4    0    0 -0.23101020496E-01  0.48404837365E-01  0.29071305688E-01  0.61008912166E-01  0.51100000000E-03 0.  1.
         11    1    4    4    0    0 -0.34590167401E-01  0.37908839765E-01  0.42999140178E-01  0.66953319486E-01  0.51100000000E-03 0. -1.
</event>
<event>
 8    1  0.1054833E+005  0.1043930E+01  0.7957747E-01            NaN
         13   -1    0    0    0    0  0.00000000000E+00  0.00000000000E+00  0.74505805969E-08  0.10566000000E+00  0.10566000000E+00 0.  1.
     999900   -1    0    0    0    0 -0.00000000000E+00 -0.00000000000E+00 -0.74505805969E-08  0.93827000000E+00  0.93827000000E+00 0.  1.
     999902    2    1    2    0    0  0.10207185959E-01  0.74755698822E-02 -0.20469065653E-01  0.10198664708E+01  0.10195825444E+01 0.  0.
     999903    2    3    3    0    0 -0.11673537378E+00 -0.32069973811E-01  0.36759569961E-01  0.12804060199E+00  0.19684995829E-01 0.  0.
         14    1    1    2    0    0 -0.10207185959E-01 -0.74755698822E-02  0.20469065653E-01  0.24063529229E-01  0.00000000000E+00 0.  1.
     999901    1    3    3    0    0  0.12694255974E+00  0.39545543693E-01 -0.57228635614E-01  0.89182586878E+00  0.88000000000E+00 0.  1.
        -11    1    4    4    0    0 -0.12401627484E-01  0.26440366758E-02  0.36192947614E-02  0.13196655249E-01  0.51100000000E-03 0.  1.
         11    1    4    4    0    0 -0.10433374630E+00 -0.34714010487E-01  0.33140275200E-01  0.11484394674E+00  0.51100000000E-03 0. -1.
</event>
<event>
 8    1  0.1054833E+005  0.1043930E+01  0.7957747E-01            NaN
         13   -1    0    0    0    0  0.00000000000E+00  0.00000000000E+00  0.74505805969E-08  0.10566000000E+00  0.10566000000E+00 0.  1.
     999900   -1    0    0    0    0 -0.00000000000E+00 -0.00000000000E+00 -0.74505805969E-08  0.93827000000E+00  0.93827000000E+00 0. -1.
     999902    2    1    2    0    0  0.17866018108E-01  0.14576725510E-01  0.20661343253E-02  0.10207795261E+01  0.10205169751E+01 0.  0.
     999903    2    3    3    0    0  0.31487890135E-01  0.11322701600E+00  0.59693816990E-01  0.13328959096E+00  0.19771668952E-01 0.  0.
         14    1    1    2    0    0 -0.17866018108E-01 -0.14576725510E-01 -0.20661343253E-02  0.23150473876E-01  0.00000000000E+00 0.  1.
     999901    1    3    3    0    0 -0.13621872027E-01 -0.98650290492E-01 -0.57627682665E-01  0.88748993517E+00  0.88000000000E+00 0.  1.
        -11    1    4    4    0    0  0.28110375687E-01  0.72433676665E-01  0.45043094694E-01  0.89810757913E-01  0.51100000000E-03 0. -1.
         11    1    4    4    0    0  0.33775144481E-02  0.40793339337E-01  0.14650722297E-01  0.43478833045E-01  0.51100000000E-03 0.  1.
</event>
<event>
 8    1  0.1054833E+005  0.1043930E+01  0.7957747E-01            NaN
         13   -1    0    0    0    0  0.00000000000E+00  0.00000000000E+00  0.74505805969E-08  0.10566000000E+00  0.10566000000E+00 0. -1.
     999900   -1    0    0    0    0 -0.00000000000E+00 -0.00000000000E+00 -0.74505805969E-08  0.93827000000E+00  0.93827000000E+00 0. -1.
     999902    2    1    2    0    0 -0.13412387454E-02 -0.10734446362E-01  0.21667103329E-01  0.10197124314E+01  0.10194248144E+01 0.  0.
     999903    2    3    3    0    0  0.32815208000E-03 -0.34008670398E-01 -0.12148709020E+00  0.12783934659E+00  0.20666110018E-01 0.  0.
         14    1    1    2    0    0  0.13412387454E-02  0.10734446362E-01 -0.21667103329E-01  0.24217568555E-01  0.00000000000E+00 0.  1.
     999901    1    3    3    0    0 -0.16693908254E-02  0.23274224036E-01  0.14315419353E+00  0.89187308486E+00  0.88000000000E+00 0.  1.
        -11    1    4    4    0    0 -0.82299063021E-02 -0.27488417984E-01 -0.95185210883E-01  0.99417453060E-01  0.51100000000E-03 0.  1.
         11    1    4    4    0    0  0.85580583821E-02 -0.65202524140E-02 -0.26301879321E-01  0.28421893526E-01  0.51100000000E-03 0. -1.
</event>
<event>
 8    1  0.1054833E+005  0.1043930E+01  0.7957747E-01            NaN
         13   -1    0    0    0    0  0.00000000000E+00  0.00000000000E+00  0.74505805969E-08  0.10566000000E+00  0.10566000000E+00 0. -1.
     999900   -1    0    0    0    0 -0.00000000000E+00 -0.00000000000E+00 -0.74505805969E-08  0.93827000000E+00  0.93827000000E+00 0. -1.
     999902    2    1    2    0    0 -0.22225271918E-01  0.85126955433E-02 -0.45870732633E-03  0.10201258174E+01  0.10198480496E+01 0.  0.
     999903    2    3    3    0    0 -0.11024819576E+00 -0.56634603619E-01  0.41701855385E-01  0.13233658635E+00  0.20292470245E-01 0.  0.
         14    1    1    2    0    0  0.22225271918E-01 -0.85126955433E-02  0.45870732633E-03  0.23804182608E-01  0.00000000000E+00 0.  1.
     999901    1    3    3    0    0  0.88022923841E-01  0.65147299162E-01 -0.42160562711E-01  0.88778923104E+00  0.88000000000E+00 0. -1.
        -11    1    4    4    0    0 -0.69535610880E-01 -0.27406267001E-01  0.31902385654E-01  0.81267016574E-01  0.51100000000E-03 0.  1.
         11    1    4    4    0    0 -0.40712584879E-01 -0.29228336617E-01  0.97994697308E-02  0.51069569774E-01  0.51100000000E-03 0. -1.
</event>
<event>
 8    1  0.1087002E+005  0.1043930E+01  0.7957747E-01            NaN
         13   -1    0    0    0    0  0.00000000000E+00  0.00000000000E+00  0.74505805969E-08  0.10566000000E+00  0.10566000000E+00 0. -1.
     999900   -1    0    0    0    0 -0.00000000000E+00 -0.00000000000E+00 -0.74505805969E-08  0.93827000000E+00  0.93827000000E+00 0. -1.
     999902    2    1    2    0    0  0.16344117852E-01  0.14804919021E-01  0.17253106623E-02  0.10218100427E+01  0.10215705902E+01 0.  0.
     999903    2    3    3    0    0  0.71778795301E-01  0.85270075463E-01 -0.71996805931E-01  0.13418777379E+00  0.19990931568E-01 0.  0.
         14    1    1    2    0    0 -0.16344117852E-01 -0.14804919021E-01 -0.17253106623E-02  0.22119957334E-01  0.00000000000E+00 0.  1.
     999901    1    3    3    0    0 -0.55434677449E-01 -0.70465156442E-01  0.73722116594E-01  0.88762226888E+00  0.88000000000E+00 0. -1.
        -11    1    4    4    0    0  0.34378342168E-01  0.25851776157E-01 -0.26486750458E-01  0.50517262510E-01  0.51100000000E-03 0.  1.
         11    1    4    4    0    0  0.37400453133E-01  0.59418299307E-01 -0.45510055473E-01  0.83670511276E-01  0.51100000000E-03 0. -1.
</event>
<event>
 8    1  0.1054833E+005  0.1043930E+01  0.7957747E-01            NaN
         13   -1    0    0    0    0  0.00000000000E+00  0.00000000000E+00  0.74505805969E-08  0.10566000000E+00  0.10566000000E+00 0. -1.
     999900   -1    0    0    0    0 -0.00000000000E+00 -0.00000000000E+00 -0.74505805969E-08  0.93827000000E+00  0.93827000000E+00 0.  1.
     999902    2    1    2    0    0  0.21129032734E-01  0.12356814700E-02  0.10363006567E-01  0.10203640322E+01  0.10200918603E+01 0.  0.
     999903    2    3    3    0    0 -0.76732487517E-01  0.56068061389E-02 -0.10039928695E+00  0.12802762169E+00  0.19792528378E-01 0.  0.
         14    1    1    2    0    0 -0.21129032734E-01 -0.12356814700E-02 -0.10363006567E-01  0.23565967794E-01  0.00000000000E+00 0.  1.
     999901    1    3    3    0    0  0.97861520251E-01 -0.43711246689E-02  0.11076229351E+00  0.89233641052E+00  0.88000000000E+00 0. -1.
        -11    1    4    4    0    0 -0.16192986382E-01 -0.50614807225E-02 -0.30795354017E-01  0.35163139011E-01  0.51100000000E-03 0.  1.
         11    1    4    4    0    0 -0.60539501135E-01  0.10668286861E-01 -0.69603932928E-01  0.92864482674E-01  0.51100000000E-03 0. -1.
</event>
<event>
 8    1  0.1054833E+005  0.1043930E+01  0.7957747E-01            NaN
         13   -1    0    0    0    0  0.00000000000E+00  0.00000000000E+00  0.74505805969E-08  0.10566000000E+00  0.10566000000E+00 0. -1.
     999900   -1    0    0    0    0 -0.00000000000E+00 -0.00000000000E+00 -0.74505805969E-08  0.93827000000E+00  0.93827000000E+00 0. -1.
     999902    2    1    2    0    0  0.11937782525E-02  0.94405239337E-02 -0.22293415305E-01  0.10196906732E+01  0.10194025329E+01 0.  0.
     999903    2    3    3    0    0 -0.12894985421E-01  0.11909026327E+00  0.46348161596E-01  0.13012155013E+00  0.20849323041E-01 0.  0.
         14    1    1    2    0    0 -0.11937782525E-02 -0.94405239337E-02  0.22293415305E-01  0.24239326819E-01  0.00000000000E+00 0. -1.
     999901    1    3    3    0    0  0.14088763674E-01 -0.10964973934E+00 -0.68641576902E-01  0.88956912305E+00  0.88000000000E+00 0.  1.
        -11    1    4    4    0    0 -0.15292734379E-01  0.71343991722E-01  0.20594082345E-01  0.75816952117E-01  0.51100000000E-03 0.  1.
         11    1    4    4    0    0  0.23977489577E-02  0.47746271548E-01  0.25754079251E-01  0.54304598017E-01  0.51100000000E-03 0. -1.
</event>
<event>
 8    1  0.1054833E+005  0.1043930E+01  0.7957747E-01            NaN
         13   -1    0    0    0    0  0.00000000000E+00  0.00000000000E+00  0.74505805969E-08  0.10566000000E+00  0.10566000000E+00 0.  1.
     999900   -1    0    0    0    0 -0.00000000000E+00 -0.00000000000E+00 -0.74505805969E-08  0.93827000000E+00  0.93827000000E+00 0.  1.
     999902    2    1    2    0    0 -0.17792605875E-01 -0.16043843155E-01 -0.11878501964E-01  0.10171890102E+01  0.10168374511E+01 0.  0.
     999903    2    3    3    0    0 -0.59594201341E-01  0.10739448198E+00 -0.28405997903E-01  0.12743761142E+00  0.18665489392E-01 0.  0.
         14    1    1    2    0    0  0.17792605875E-01  0.16043843155E-01  0.11878501964E-01  0.26740989808E-01  0.00000000000E+00 0.  1.
     999901    1    3    3    0    0  0.41801595466E-01 -0.12343832513E+00  0.16527495939E-01  0.88975139877E+00  0.88000000000E+00 0.  1.
        -11    1    4    4    0    0 -0.13237950766E-01  0.25979568033E-01  0.11867827218E-02  0.29186484370E-01  0.51100000000E-03 0. -1.
         11    1    4    4    0    0 -0.46356250575E-01  0.81414913947E-01 -0.29592780625E-01  0.98251127050E-01  0.51100000000E-03 0.  1.
</event>
<event>
 8    1  0.1054833E+005  0.1043930E+01  0.7957747E-01            NaN
         13   -1    0    0    0    0  0.00000000000E+00  0.00000000000E+00  0.74505805969E-08  0.10566000000E+00  0.10566000000E+00 0.  1.
     999900   -1    0    0    0    0 -0.00000000000E+00 -0.00000000000E+00 -0.74505805969E-08  0.93827000000E+00  0.93827000000E+00 0.  1.
     999902    2    1    2    0    0  0.14377035329E-01 -0.13423619249E-01  0.11644630780E-01  0.10210719571E+01  0.10208160713E+01 0.  0.
     999903    2    3    3    0    0 -0.61726905823E-01  0.75420793066E-01  0.84195370951E-01  0.13037068881E+00  0.20227433893E-01 0.  0.
         14    1    1    2    0    0 -0.14377035329E-01  0.13423619249E-01 -0.11644630780E-01  0.22858042887E-01  0.00000000000E+00 0. -1.
     999901    1    3    3    0    0  0.76103941152E-01 -0.88844412315E-01 -0.72550740171E-01  0.89070126830E+00  0.88000000000E+00 0.  1.
        -11    1    4    4    0    0 -0.27277214065E-01  0.20038898131E-01  0.22934501416E-01  0.40888339678E-01  0.51100000000E-03 0. -1.
         11    1    4    4    0    0 -0.34449691758E-01  0.55381894935E-01  0.61260869535E-01  0.89482349131E-01  0.51100000000E-03 0.  1.
</event>
<event>
 8    1  0.1054833E+005  0.1043930E+01  0.7957747E-01            NaN
         13   -1    0    0    0    0  0.00000000000E+00  0.00000000000E+00  0.74505805969E-08  0.10566000000E+00  0.10566000000E+00 0. -1.
     999900   -1    0    0    0    0 -0.00000000000E+00 -0.00000000000E+00 -0.74505805969E-08  0.93827000000E+00  0.93827000000E+00 0. -1.
     999902    2    1    2    0    0 -0.17873975640E-02 -0.22393436103E-01  0.46130399250E-02  0.10209965984E+01  0.10207390034E+01 0.  0.
     999903    2    3    3    0    0  0.95133094943E-01  0.81628716586E-01 -0.24029940004E-01  0.12912518930E+00  0.19553091043E-01 0.  0.
         14    1    1    2    0    0  0.17873975640E-02  0.22393436103E-01 -0.46130399250E-02  0.22933401578E-01  0.00000000000E+00 0. -1.
     999901    1    3    3    0    0 -0.96920492507E-01 -0.10402215269E+00  0.28642979929E-01  0.89187140913E+00  0.88000000000E+00 0.  1.
        -11    1    4    4    0    0  0.48873676976E-01  0.46884252256E-01 -0.22079751317E-01  0.71235847366E-01  0.51100000000E-03 0.  1.
         11    1    4    4    0    0  0.46259417966E-01  0.34744464330E-01 -0.19501886875E-02  0.57889341930E-01  0.51100000000E-03 0. -1.
</event>
<event>
 8    1  0.1054833E+005  0.1043930E+01  0.7957747E-01            NaN
         13   -1    0    0    0    0  0.00000000000E+00  0.00000000000E+00  0.74505805969E-08  0.10566000000E+00  0.10566000000E+00 0.  1.
     999900   -1    0    0    0    0 -0.00000000000E+00 -0.00000000000E+00 -0.74505805969E-08  0.93827000000E+00  0.93827000000E+00 0.  1.
     999902    2    1    2    0    0  0.28497972926E-02  0.23362349850E-01 -0.35828869873E-03  0.10203917523E+01  0.10201202277E+01 0.  0.
     999903    2    3    3    0    0 -0.19028292872E-01  0.50685154264E-01  0.11834222715E+00  0.13173265063E+00  0.20433984549E-01 0.  0.
         14    1    1    2    0    0 -0.28497972926E-02 -0.23362349850E-01  0.35828869873E-03  0.23538247724E-01  0.00000000000E+00 0. -1.
     999901    1    3    3    0    0  0.21878090164E-01 -0.27322804413E-01 -0.11870051585E+00  0.88865910164E+00  0.88000000000E+00 0.  1.
        -11    1    4    4    0    0 -0.18070877783E-01  0.28854257236E-01  0.87829540519E-01  0.94198800912E-01  0.51100000000E-03 0.  1.
         11    1    4    4    0    0 -0.95741508872E-03  0.21830897027E-01  0.30512686628E-01  0.37533849721E-01  0.51100000000E-03 0. -1.
</event>
<event>
 8    1  0.1054833E+005  0.1043930E+01  0.7957747E-01            NaN
         13   -1    0    0    0    0  0.00000000000E+00  0.00000000000E+00  0.74505805969E-08  0.10566000000E+00  0.10566000000E+00 0. -1.
     999900   -1    0    0    0    0 -0.00000000000E+00 -0.00000000000E+00 -0.74505805969E-08  0.93827000000E+00  0.93827000000E+00 0. -1.
     999902    2    1    2    0    0  0.19923771890E-01 -0.81154528999E-02 -0.10227487878E-01  0.10201094465E+01  0.10198312919E+01 0.  0.
     999903    2    3    3    0    0 -0.16044685452E-01 -0.72476021442E-01  0.10433342049E+00  0.12962631107E+00  0.20181978987E-01 0.  0.
         14    1    1    2    0    0 -0.19923771890E-01  0.81154528999E-02  0.10227487878E-01  0.23820553528E-01  0.00000000000E+00 0. -1.
     999901    1    3    3    0    0  0.35968457343E-01  0.64360568542E-01 -0.11456090837E+00  0.89048313540E+00  0.88000000000E+00 0. -1.
        -11    1    4    4    0    0  0.11088949152E-02 -0.16774691214E-01  0.12903697907E-01  0.21198737083E-01  0.51100000000E-03 0.  1.
         11    1    4    4    0    0 -0.17153580368E-01 -0.55701330228E-01  0.91429722582E-01  0.10842757399E+00  0.51100000000E-03 0. -1.
</event>
<event>
 8    1  0.1054833E+005  0.1043930E+01  0.7957747E-01            NaN
         13   -1    0    0    0    0  0.00000000000E+00  0.00000000000E+00  0.74505805969E-08  0.10566000000E+00  0.10566000000E+00 0.  1.
     999900   -1    0    0    0    0 -0.00000000000E+00 -0.00000000000E+00 -0.74505805969E-08  0.93827000000E+00  0.93827000000E+00 0.  1.
     999902    2    1    2    0    0 -0.15839683046E-01 -0.17475562599E-01  0.61851536482E-02  0.10195466661E+01  0.10192550502E+01 0.  0.
     999903    2    3    3    0    0 -0.18174806283E-01 -0.12266609683E+00 -0.40494549920E-01  0.13205047115E+00  0.20499352780E-01 0.  0.
         14    1    1    2    0    0  0.15839683046E-01  0.17475562599E-01 -0.61851536482E-02  0.24383333915E-01  0.00000000000E+00 0.  1.
     999901    1    3    3    0    0  0.23351232377E-02  0.10519053423E+00  0.46679703568E-01  0.88749619493E+00  0.88000000000E+00 0. -1.
        -11    1    4    4    0    0 -0.44903338775E-02 -0.89693070983E-01 -0.25782333260E-01  0.93434468533E-01  0.51100000000E-03 0.  1.
         11    1    4    4    0    0 -0.13684472406E-01 -0.32973025845E-01 -0.14712216660E-01  0.38616002621E-01  0.51100000000E-03 0. -1.
</event>
<event>
 8    1  0.1054833E+005  0.1043930E+01  0.7957747E-01            NaN
         13   -1    0    0    0    0  0.00000000000E+00  0.00000000000E+00  0.74505805969E-08  0.10566000000E+00  0.10566000000E+00 0. -1.
     999900   -1    0    0    0    0 -0.00000000000E+00 -0.00000000000E+00 -0.74505805969E-08  0.93827000000E+00  0.93827000000E+00 0. -1.
     999902    2    1    2    0    0  0.47978658915E-02  0.16111145440E-01  0.16673905735E-01  0.10202528453E+01  0.10199780687E+01 0.  0.
     999903    2    3    3    0    0 -0.13092782788E-02  0.88628117473E-01  0.97717121764E-01  0.13353755199E+00  0.20663602995E-01 0.  0.
         14    1    1    2    0    0 -0.47978658915E-02 -0.16111145440E-01 -0.16673905735E-01  0.23677154748E-01  0.00000000000E+00 0. -1.
     999901    1    3    3    0    0  0.61071441703E-02 -0.72516972033E-01 -0.81043216029E-01  0.88671529326E+00  0.88000000000E+00 0. -1.
        -11    1    4    4    0    0  0.65891453783E-02  0.70758143181E-01  0.81574257251E-01  0.10818850323E+00  0.51100000000E-03 0. -1.
         11    1    4    4    0    0 -0.78984236570E-02  0.17869974292E-01  0.16142864513E-01  0.25349048762E-01  0.51100000000E-03 0.  1.
</event>
<event>
 8    1  0.1054833E+005  0.1043930E+01  0.7957747E-01            NaN
         13   -1    0    0    0    0  0.00000000000E+00  0.00000000000E+00  0.74505805969E-08  0.10566000000E+00  0.10566000000E+00 0.  1.
     999900   -1    0    0    0    0 -0.00000000000E+00 -0.00000000000E+00 -0.74505805969E-08  0.93827000000E+00  0.93827000000E+00 0.  1.
     999902    2    1    2    0    0 -0.20854044677E-01 -0.65438290562E-02 -0.54463928845E-02  0.10214049900E+01  0.10211565882E+01 0.  0.
     999903    2    3    3    0    0 -0.99232468483E-01 -0.41523875229E-01  0.76392201336E-01  0.13344984678E+00  0.20044404820E-01 0.  0.
         14    1    1    2    0    0  0.20854044677E-01  0.65438290562E-02  0.54463928845E-02  0.22525009957E-01  0.00000000000E+00 0.  1.
     999901    1    3    3    0    0  0.78378423806E-01  0.34980046173E-01 -0.81838594221E-01  0.88795514327E+00  0.88000000000E+00 0.  1.
        -11    1    4    4    0    0 -0.58974775371E-01 -0.20678913650E-01  0.55283141002E-01  0.83439369603E-01  0.51100000000E-03 0. -1.
         11    1    4    4    0    0 -0.40257693112E-01 -0.20844961579E-01  0.21109060335E-01  0.50010477174E-01  0.51100000000E-03 0.  1.
</event>
<event>
 8    1  0.1054833E+005  0.1043930E+01  0.7957747E-01            NaN
         13   -1    0    0    0    0  0.00000000000E+00  0.00000000000E+00  0.74505805969E-08  0.10566000000E+00  0.10566000000E+00 0. -1.
     999900   -1    0    0    0    0 -0.00000000000E+00 -0.00000000000E+00 -0.74505805969E-08  0.93827000000E+00  0.93827000000E+00 0. -1.
     999902    2    1    2    0    0 -0.15455049350E-01 -0.89089635954E-02 -0.16915262919E-01  0.10193463814E+01  0.10190498962E+01 0.  0.
     999903    2    3    3    0    0  0.26956675273E-01  0.66954384962E-01 -0.10693273702E+00  0.13049479219E+00  0.19614498091E-01 0.  0.
         14    1    1    2    0    0  0.15455049350E-01  0.89089635954E-02  0.16915262919E-01  0.24583618578E-01  0.00000000000E+00 0.  1.
     999901    1    3    3    0    0 -0.42411724623E-01 -0.75863348557E-01  0.90017474097E-01  0.88885158923E+00  0.88000000000E+00 0.  1.
        -11    1    4    4    0    0  0.53985564852E-02  0.22351240056E-01 -0.20205230078E-01  0.30614290580E-01  0.51100000000E-03 0. -1.
         11    1    4    4    0    0  0.21558118788E-01  0.44603144905E-01 -0.86727506937E-01  0.99880501609E-01  0.51100000000E-03 0.  1.
</event>
<event>
 8    1  0.1054833E+005  0.1043930E+01  0.7957747E-01            NaN
         13   -1    0    0    0    0  0.00000000000E+00  0.00000000000E+00  0.74505805969E-08  0.10566000000E+00  0.10566000000E+00 0. -1.
     999900   -1    0    0    0    0 -0.00000000000E+00 -0.00000000000E+00 -0.74505805969E-08  0.93827000000E+00  0.93827000000E+00 0.  1.
     999902    2    1    2    0    0 -0.22026439341E-01 -0.22553384182E-02  0.96265125312E-02  0.10197862570E+01  0.10195004118E+01 0.  0.
     999903    2    3    3    0    0  0.16939456696E-01  0.97469502254E-01  0.81680620024E-01  0.13037342863E+00  0.23200391001E-01 0.  0.
         14    1    1    2    0    0  0.22026439341E-01  0.22553384182E-02 -0.96265125312E-02  0.24143742977E-01  0.00000000000E+00 0.  1.
     999901    1    3    3    0    0 -0.38965896037E-01 -0.99724840672E-01 -0.72054107493E-01  0.88941282839E+00  0.88000000000E+00 0. -1.
        -11    1    4    4    0    0  0.66168285055E-03  0.52992382606E-01  0.53256583172E-01  0.75134247921E-01  0.51100000000E-03 0.  1.
         11    1    4    4    0    0  0.16277773845E-01  0.44477119648E-01  0.28424036853E-01  0.55239180710E-01  0.51100000000E-03 0. -1.
</event>
<event>
 8    1  0.1054833E+005  0.1043930E+01  0.7957747E-01            NaN
         13   -1    0    0    0    0  0.00000000000E+00  0.00000000000E+00  0.74505805969E-08  0.10566000000E+00  0.10566000000E+00 0. -1.
     999900   -1    0    0    0    0 -0.00000000000E+00 -0.00000000000E+00 -0.74505805969E-08  0.93827000000E+00  0.93827000000E+00 0.  1.
     999902    2    1    2    0    0  0.99083536211E-03  0.10784918236E-01 -0.21062079157E-01  0.10202465164E+01  0.10199715912E+01 0.  0.
     999903    2    3    3    0    0 -0.30344214714E-01  0.10723954903E+00 -0.70090100794E-01  0.13306607927E+00  0.19309763832E-01 0.  0.
         14    1    1    2    0    0 -0.99083536211E-03 -0.10784918236E-01  0.21062079157E-01  0.23683483580E-01  0.00000000000E+00 0. -1.
     999901    1    3    3    0    0  0.31335050076E-01 -0.96454630793E-01  0.49028021637E-01  0.88718043715E+00  0.88000000000E+00 0. -1.
        -11    1    4    4    0    0 -0.29280932619E-01  0.96373168059E-01 -0.68977986907E-01  0.12207941815E+00  0.51100000000E-03 0.  1.
         11    1    4    4    0    0 -0.10632820951E-02  0.10866380970E-01 -0.11121138866E-02  0.10986661117E-01  0.51100000000E-03 0. -1.
</event>
<event>
 8    1  0.1054833E+005  0.1043930E+01  0.7957747E-01            NaN
         13   -1    0    0    0    0  0.00000000000E+00  0.00000000000E+00  0.74505805969E-08  0.10566000000E+00  0.10566000000E+00 0.  1.
     999900   -1    0    0    0    0 -0.00000000000E+00 -0.00000000000E+00 -0.74505805969E-08  0.93827000000E+00  0.93827000000E+00 0. -1.
     999902    2    1    2    0    0 -0.15537138559E-01  0.10849262432E-01  0.13263086129E-01  0.10207995304E+01  0.10205374381E+01 0.  0.
     999903    2    3    3    0    0  0.84231527824E-01 -0.95184069274E-01  0.68817869558E-02  0.12881434264E+00  0.19769131337E-01 0.  0.
         14    1    1    2    0    0  0.15537138559E-01 -0.10849262432E-01 -0.13263086129E-01  0.23130469593E-01  0.00000000000E+00 0.  1.
     999901    1    3    3    0    0 -0.99768666383E-01  0.10603333171E+00  0.63812991729E-02  0.89198518777E+00  0.88000000000E+00 0. -1.
        -11    1    4    4    0    0  0.52109060598E-01 -0.54128693037E-01  0.13248542929E-01  0.76295836171E-01  0.51100000000E-03 0. -1.
         11    1    4    4    0    0  0.32122467227E-01 -0.41055376237E-01 -0.63667559731E-02  0.52518506465E-01  0.51100000000E-03 0.  1.
</event>
<event>
 8    1  0.1054833E+005  0.1043930E+01  0.7957747E-01            NaN
         13   -1    0    0    0    0  0.00000000000E+00  0.00000000000E+00  0.74505805969E-08  0.10566000000E+00  0.10566000000E+00 0. -1.
     999900   -1    0    0    0    0 -0.00000000000E+00 -0.00000000000E+00 -0.74505805969E-08  0.93827000000E+00  0.93827000000E+00 0.  1.
     999902    2    1    2    0    0 -0.14040730583E-01 -0.94316423667E-02  0.17779253029E-01  0.10193902398E+01  0.10190948244E+01 0.  0.
     999903    2    3    3    0    0 -0.27513815604E-01  0.44705781172E-01  0.11922746111E+00  0.13180693464E+00  0.20056510626E-01 0.  0.
         14    1    1    2    0    0  0.14040730583E-01  0.94316423667E-02 -0.17779253029E-01  0.24539760213E-01  0.00000000000E+00 0. -1.
     999901    1    3    3    0    0  0.13473085021E-01 -0.54137423539E-01 -0.10144820808E+00  0.88758330514E+00  0.88000000000E+00 0.  1.
        -11    1    4    4    0    0 -0.17277357529E-01  0.10444913801E-01  0.37345659591E-01  0.42456598060E-01  0.51100000000E-03 0.  1.
         11    1    4    4    0    0 -0.10236458074E-01  0.34260867371E-01  0.81881801517E-01  0.89350336584E-01  0.51100000000E-03 0. -1.
</event>
<event>
 8    1  0.1054833E+005  0.1043930E+01  0.7957747E-01            NaN
         13   -1    0    0    0    0  0.00000000000E+00  0.00000000000E+00  0.74505805969E-08  0.10566000000E+00  0.10566000000E+00 0.  1.
     999900   -1    0    0    0    0 -0.00000000000E+00 -0.00000000000E+00 -0.74505805969E-08  0.93827000000E+00  0.93827000000E+00 0.  1.
     999902    2    1    2    0    0 -0.10608507256E-01  0.43462803843E-02 -0.20367303817E-01  0.10205578447E+01  0.10202901826E+01 0.  0.
     999903    2    3    3    0    0 -0.89606512161E-01  0.88089188845E-01 -0.38447300346E-01  0.13287521797E+00  0.19712849445E-01 0.  0.
         14    1    1    2    0    0  0.10608507256E-01 -0.43462803843E-02  0.20367303817E-01  0.23372155317E-01  0.00000000000E+00 0. -1.
     999901    1    3    3    0    0  0.78998004904E-01 -0.83742908461E-01  0.18079996529E-01  0.88768262671E+00  0.88000000000E+00 0. -1.
        -11    1    4    4    0    0 -0.36497972247E-01  0.35698325437E-01 -0.56038035448E-02  0.51362789569E-01  0.51100000000E-03 0. -1.
         11    1    4    4    0    0 -0.53108539914E-01  0.52390863408E-01 -0.32843496802E-01  0.81512428399E-01  0.51100000000E-03 0.  1.
</event>
<event>
 8    1  0.1054833E+005  0.1043930E+01  0.7957747E-01            NaN
         13   -1    0    0    0    0  0.00000000000E+00  0.00000000000E+00  0.74505805969E-08  0.10566000000E+00  0.10566000000E+00 0.  1.
     999900   -1    0    0    0    0 -0.00000000000E+00 -0.00000000000E+00 -0.74505805969E-08  0.93827000000E+00  0.93827000000E+00 0.  1.
     999902    2    1    2    0    0 -0.95995964689E-02  0.19938296920E-01 -0.84544989234E-02  0.10202410471E+01  0.10199659934E+01 0.  0.
     999903    2    3    3    0    0  0.46286997068E-01  0.11780592886E+00  0.33401421243E-01  0.13206690723E+00  0.17472551973E-01 0.  0.
         14    1    1    2    0    0  0.95995964689E-02 -0.19938296920E-01  0.84544989234E-02  0.23688952879E-01  0.00000000000E+00 0.  1.
     999901    1    3    3    0    0 -0.55886593537E-01 -0.97867631939E-01 -0.41855920167E-01  0.88817413989E+00  0.88000000000E+00 0.  1.
        -11    1    4    4    0    0  0.27445580870E-01  0.90541808817E-01  0.23796468759E-01  0.97558249777E-01  0.51100000000E-03 0.  1.
         11    1    4    4    0    0  0.18841416198E-01  0.27264120042E-01  0.96049524837E-02  0.34508657454E-01  0.51100000000E-03 0. -1.
</event>
<event>
 8    1  0.1054833E+005  0.1043930E+01  0.7957747E-01            NaN
         13   -1    0    0    0    0  0.00000000000E+00  0.00000000000E+00  0.74505805969E-08  0.10566000000E+00  0.10566000000E+00 0. -1.
     999900   -1    0    0    0    0 -0.00000000000E+00 -0.00000000000E+00 -0.74505805969E-08  0.93827000000E+00  0.93827000000E+00 0. -1.
     999902    2    1    2    0    0 -0.77916705956E-02 -0.22562620253E-01  0.23976907685E-02  0.10199397752E+01  0.10196575966E+01 0.  0.
     999903    2    3    3    0    0  0.10769161254E+00  0.65451261731E-01 -0.76830040144E-02  0.12798436575E+00  0.20967075400E-01 0.  0.
         14    1    1    2    0    0  0.77916705956E-02  0.22562620253E-01 -0.23976907685E-02  0.23990224767E-01  0.00000000000E+00 0.  1.
     999901    1    3    3    0    0 -0.11548328314E+00 -0.88013881985E-01  0.10080694783E-01  0.89195540949E+00  0.88000000000E+00 0.  1.
        -11    1    4    4    0    0  0.28833778520E-01  0.21828975326E-01  0.65202142088E-02  0.36751398094E-01  0.51100000000E-03 0. -1.
         11    1    4    4    0    0  0.78857834021E-01  0.43622286405E-01 -0.14203218223E-01  0.91232967652E-01  0.51100000000E-03 0.  1.
</event>
<event>
 8    1  0.1054833E+005  0.1043930E+01  0.7957747E-01            NaN
         13   -1    0    0    0    0  0.00000000000E+00  0.00000000000E+00  0.74505805969E-08  0.10566000000E+00  0.10566000000E+00 0.  1.
     999900   -1    0    0    0    0 -0.00000000000E+00 -0.00000000000E+00 -0.74505805969E-08  0.93827000000E+00  0.93827000000E+00 0. -1.
     999902    2    1    2    0    0 -0.33145426218E-02 -0.57473059880E-02 -0.22907272896E-01  0.10200812921E+01  0.10198024718E+01 0.  0.
     999903    2    3    3    0    0  0.10274267921E+00  0.65251438593E-01 -0.43334815504E-01  0.13063975911E+00  0.19365744406E-01 0.  0.
         14    1    1    2    0    0  0.33145426218E-02  0.57473059880E-02  0.22907272896E-01  0.23848707941E-01  0.00000000000E+00 0.  1.
     999901    1    3    3    0    0 -0.10605722183E+00 -0.70998744580E-01  0.20427542608E-01  0.88944153295E+00  0.88000000000E+00 0.  1.
        -11    1    4    4    0    0  0.77261015391E-01  0.46004061554E-01 -0.40358905588E-01  0.98563383465E-01  0.51100000000E-03 0. -1.
         11    1    4    4    0    0  0.25481663819E-01  0.19247377038E-01 -0.29759099161E-02  0.32076375647E-01  0.51100000000E-03 0.  1.
</event>
<event>
 8    1  0.1054833E+005  0.1043930E+01  0.7957747E-01            NaN
         13   -1    0    0    0    0  0.00000000000E+00  0.00000000000E+00  0.74505805969E-08  0.10566000000E+00  0.10566000000E+00 0.  1.
     999900   -1    0    0    0    0 -0.00000000000E+00 -0.00000000000E+00 -0.74505805969E-08  0.93827000000E+00  0.93827000000E+00 0. -1.
     999902    2    1    2    0    0  0.15270824732E-01 -0.19504316449E-01 -0.41964441907E-02  0.10188057768E+01  0.10184959422E+01 0.  0.
     999903    2    3    3    0    0 -0.57925515931E-01  0.35206439552E-02 -0.11310216267E+00  0.12877863754E+00  0.20593153091E-01 0.  0.
         14    1    1    2    0    0 -0.15270824732E-01  0.19504316449E-01  0.41964441907E-02  0.25124223212E-01  0.00000000000E+00 0.  1.
     999901    1    3    3    0    0  0.73196340664E-01 -0.23024960404E-01  0.10890571848E+00  0.89002713925E+00  0.88000000000E+00 0. -1.
        -11    1    4    4    0    0  0.72629203678E-03 -0.41964538524E-03 -0.10366615930E-01  0.10413042265E-01  0.51100000000E-03 0. -1.
         11    1    4    4    0    0 -0.58651807968E-01  0.39402893404E-02 -0.10273554674E+00  0.11836559527E+00  0.51100000000E-03 0.  1.
</event>
<event>
 8    1  0.1054833E+005  0.1043930E+01  0.7957747E-01            NaN
         13   -1    0    0    0    0  0.00000000000E+00  0.00000000000E+00  0.74505805969E-08  0.10566000000E+00  0.10566000000E+00 0.  1.
     999900   -1    0    0    0    0 -0.00000000000E+00 -0.00000000000E+00 -0.74505805969E-08  0.93827000000E+00  0.93827000000E+00 0.  1.
     999902    2    1    2    0    0  0.34417369410E-02 -0.18490127502E-01  0.12768148239E-01  0.10211977327E+01  0.10209446867E+01 0.  0.
     999903    2    3    3    0    0  0.43698966937E-01 -0.11625788658E+00 -0.43501345057E-01  0.13308431922E+00  0.19838676797E-01 0.  0.
         14    1    1    2    0    0 -0.34417369410E-02  0.18490127502E-01 -0.12768148239E-01  0.22732267323E-01  0.00000000000E+00 0. -1.
     999901    1    3    3    0    0 -0.40257229996E-01  0.97767759081E-01  0.56269493296E-01  0.88811341345E+00  0.88000000000E+00 0. -1.
        -11    1    4    4    0    0  0.41090227609E-01 -0.88143062590E-01 -0.29934548518E-01  0.10175433457E+00  0.51100000000E-03 0.  1.
         11    1    4    4    0    0  0.26087393282E-02 -0.28114823992E-01 -0.13566796538E-01  0.31329984652E-01  0.51100000000E-03 0. -1.
</event>
<event>
 8    1  0.1054833E+005  0.1043930E+01  0.7957747E-01            NaN
         13   -1    0    0    0    0  0.00000000000E+00  0.00000000000E+00  0.74505805969E-08  0.10566000000E+00  0.10566000000E+00 0.  1.
     999900   -1    0    0    0    0 -0.00000000000E+00 -0.00000000000E+00 -0.74505805969E-08  0.93827000000E+00  0.93827000000E+00 0. -1.
     999902    2    1    2    0    0 -0.19883222744E-01 -0.36618618988E-02 -0.10311975675E-01  0.10212344361E+01  0.10209822157E+01 0.  0.
     999903    2    3    3    0    0 -0.92697235153E-01  0.46697351518E-01 -0.82068603492E-01  0.13388617051E+00  0.20416437754E-01 0.  0.
         14    1    1    2    0    0  0.19883222744E-01  0.36618618988E-02  0.10311975675E-01  0.22695563918E-01  0.00000000000E+00 0. -1.
     999901    1    3    3    0    0  0.72814012409E-01 -0.50359213417E-01  0.71756627817E-01  0.88734826557E+00  0.88000000000E+00 0.  1.
        -11    1    4    4    0    0 -0.62556622691E-01  0.26580535802E-01 -0.42192782533E-01  0.80002174627E-01  0.51100000000E-03 0.  1.
         11    1    4    4    0    0 -0.30140612462E-01  0.20116815716E-01 -0.39875820959E-01  0.53883995882E-01  0.51100000000E-03 0. -1.
</event>
<event>
 8    1  0.1054833E+005  0.1043930E+01  0.7957747E-01            NaN
         13   -1    0    0    0    0  0.00000000000E+00  0.00000000000E+00  0.74505805969E-08  0.10566000000E+00  0.10566000000E+00 0.  1.
     999900   -1    0    0    0    0 -0.00000000000E+00 -0.00000000000E+00 -0.74505805969E-08  0.93827000000E+00  0.93827000000E+00 0.  1.
     999902    2    1    2    0    0  0.28764151293E-02  0.21322327072E-01  0.10044934721E-01  0.10201851877E+01  0.10199088200E+01 0.  0.
     999903    2    3    3    0    0 -0.90426269238E-01 -0.28719140222E-01  0.86927024979E-01  0.13051086802E+00  0.21796325774E-01 0.  0.
         14    1    1    2    0    0 -0.28764151293E-02 -0.21322327072E-01 -0.10044934721E-01  0.23744812261E-01  0.00000000000E+00 0. -1.
     999901    1    3    3    0    0  0.93302684367E-01  0.50041467293E-01 -0.76882090258E-01  0.88967431972E+00  0.88000000000E+00 0.  1.
        -11    1    4    4    0    0 -0.15682278049E-01 -0.13425291636E-01  0.13849192598E-01  0.24864302865E-01  0.51100000000E-03 0. -1.
         11    1    4    4    0    0 -0.74743991189E-01 -0.15293848585E-01  0.73077832381E-01  0.10564656516E+00  0.51100000000E-03 0.  1.
</event>
<event>
 7    1  0.1054833E+005  0.1043930E+01  0.7957747E-01            NaN
         13   -1    0    0    0    0  0.00000000000E+00  0.00000000000E+00  0.74505805969E-08  0.10566000000E+00  0.10566000000E+00 0.  1.
     999900   -1    0    0    0    0 -0.00000000000E+00 -0.00000000000E+00 -0.74505805969E-08  0.93827000000E+00  0.93827000000E+00 0. -1.
     999902    2    1    2    0    0  0.19434877270E-02 -0.20781497842E-01  0.10193308761E-01  0.10207017555E+01  0.10204374172E+01 0.  0.
         14    1    1    2    0    0 -0.19434877270E-02  0.20781497842E-01 -0.10193308761E-01  0.23228244458E-01  0.00000000000E+00 0.  1.
     999901    1    3    3    0    0  0.14872064133E-01 -0.78658392277E-01 -0.41848274636E-01  0.88462398739E+00  0.88000000000E+00 0. -1.
        -11    1    3    3    0    0  0.18697369056E-01  0.65880613187E-01 -0.67740488150E-02  0.68818570617E-01  0.51100000000E-03 0. -1.
         11    1    3    3    0    0 -0.31625945462E-01 -0.80037187518E-02  0.58815632212E-01  0.67259197540E-01  0.51100000000E-03 0.  1.
</event>
<event>
 8    1  0.1224289E+005  0.1043930E+01  0.7957747E-01            NaN
         13   -1    0    0    0    0  0.00000000000E+00  0.00000000000E+00  0.74505805969E-08  0.10566000000E+00  0.10566000000E+00 0. -1.
     999900   -1    0    0    0    0 -0.00000000000E+00 -0.00000000000E+00 -0.74505805969E-08  0.93827000000E+00  0.93827000000E+00 0. -1.
     999902    2    1    2    0    0  0.14528000837E-01  0.17446397920E-01  0.66609514602E-02  0.10202697404E+01  0.10199953605E+01 0.  0.
     999903    2    3    3    0    0 -0.94254800481E-01  0.80276571455E-01 -0.35686043490E-01  0.13034019459E+00  0.19666654214E-01 0.  0.
         14    1    1    2    0    0 -0.14528000837E-01 -0.17446397920E-01 -0.66609514602E-02  0.23660259573E-01  0.00000000000E+00 0. -1.
     999901    1    3    3    0    0  0.10878280132E+00 -0.62830173536E-01  0.42346994950E-01  0.88992954584E+00  0.88000000000E+00 0.  1.
        -11    1    4    4    0    0 -0.33487011070E-01  0.40749947407E-01 -0.17844325284E-01  0.55683203840E-01  0.51100000000E-03 0. -1.
         11    1    4    4    0    0 -0.60767789412E-01  0.39526624048E-01 -0.17841718206E-01  0.74656990752E-01  0.51100000000E-03 0.  1.
</event>
<event>
 8    1  0.1054833E+005  0.1043930E+01  0.7957747E-01            NaN
         13   -1    0    0    0    0  0.00000000000E+00  0.00000000000E+00  0.74505805969E-08  0.10566000000E+00  0.10566000000E+00 0. -1.
     999900   -1    0    0    0    0 -0.00000000000E+00 -0.00000000000E+00 -0.74505805969E-08  0.93827000000E+00  0.93827000000E+00 0. -1.
     999902    2    1    2    0    0  0.13821935706E-01  0.20001557505E-01 -0.12010623674E-02  0.10195876345E+01  0.10192970095E+01 0.  0.
     999903    2    3    3    0    0  0.11267973772E+00 -0.49521742629E-01  0.39076847440E-01  0.13041461176E+00  0.18216604173E-01 0.  0.
         14    1    1    2    0    0 -0.13821935706E-01 -0.20001557505E-01  0.12010623674E-02  0.24342365540E-01  0.00000000000E+00 0.  1.
     999901    1    3    3    0    0 -0.98857802019E-01  0.69523300135E-01 -0.40277909807E-01  0.88917302270E+00  0.88000000000E+00 0. -1.
        -11    1    4    4    0    0  0.68434847087E-01 -0.39470751985E-01  0.23144764231E-01  0.82323810592E-01  0.51100000000E-03 0. -1.
         11    1    4    4    0    0  0.44244890638E-01 -0.10050990644E-01  0.15932083209E-01  0.48090801167E-01  0.51100000000E-03 0.  1.
</event>
<event>
 8    1  0.1054833E+005  0.1043930E+01  0.7957747E-01            NaN
         13   -1    0    0    0    0  0.00000000000E+00  0.00000000000E+00  0.74505805969E-08  0.10566000000E+00  0.10566000000E+00 0.  1.
     999900   -1    0    0    0    0 -0.00000000000E+00 -0.00000000000E+00 -0.74505805969E-08  0.93827000000E+00  0.93827000000E+00 0.  1.
     999902    2    1    2    0    0  0.92167036849E-02  0.96617508440E-02  0.19392998244E-01  0.10203846090E+01  0.10201129177E+01 0.  0.
     999903    2    3    3    0    0  0.64979975802E-01  0.83252542578E-01 -0.74215938100E-01  0.13061622335E+00  0.19980221063E-01 0.  0.
         14    1    1    2    0    0 -0.92167036849E-02 -0.96617508440E-02 -0.19392998244E-01  0.23545390994E-01  0.00000000000E+00 0. -1.
     999901    1    3    3    0    0 -0.55763272117E-01 -0.73590791734E-01  0.93608936344E-01  0.88976838565E+00  0.88000000000E+00 0. -1.
        -11    1    4    4    0    0  0.18951407275E-01  0.25409523653E-01 -0.33897962725E-01  0.46412635433E-01  0.51100000000E-03 0. -1.
         11    1    4    4    0    0  0.46028568527E-01  0.57843018925E-01 -0.40317975375E-01  0.84203587919E-01  0.51100000000E-03 0.  1.
</event>
<event>
 8    1  0.1054833E+005  0.1043930E+01  0.7957747E-01            NaN
         13   -1    0    0    0    0  0.00000000000E+00  0.00000000000E+00  0.74505805969E-08  0.10566000000E+00  0.10566000000E+00 0. -1.
     999900   -1    0    0    0    0 -0.00000000000E+00 -0.00000000000E+00 -0.74505805969E-08  0.93827000000E+00  0.93827000000E+00 0. -1.
     999902    2    1    2    0    0 -0.77476024510E-03  0.23822300370E-02 -0.24354179380E-01  0.10194473260E+01  0.10191533001E+01 0.  0.
     999903    2    3    3    0    0 -0.58297589421E-01 -0.29863186853E-01  0.10718026540E+00  0.12723101088E+00  0.20241096226E-01 0.  0.
         14    1    1    2    0    0  0.77476024510E-03 -0.23822300370E-02  0.24354179380E-01  0.24482674010E-01  0.00000000000E+00 0. -1.
     999901    1    3    3    0    0  0.57522829176E-01  0.32245416890E-01 -0.13153444478E+00  0.89221631511E+00  0.88000000000E+00 0. -1.
        -11    1    4    4    0    0 -0.20946027403E-01 -0.76919149743E-02  0.54870920356E-01  0.59236649481E-01  0.51100000000E-03 0.  1.
         11    1    4    4    0    0 -0.37351562018E-01 -0.22171271879E-01  0.52309345045E-01  0.67994361398E-01  0.51100000000E-03 0. -1.
</event>
<event>
 8    1  0.1054833E+005  0.1043930E+01  0.7957747E-01            NaN
         13   -1    0    0    0    0  0.00000000000E+00  0.00000000000E+00  0.74505805969E-08  0.10566000000E+00  0.10566000000E+00 0.  1.
     999900   -1    0    0    0    0 -0.00000000000E+00 -0.00000000000E+00 -0.74505805969E-08  0.93827000000E+00  0.93827000000E+00 0. -1.
     999902    2    1    2    0    0  0.14362645905E-01 -0.20475753922E-01 -0.79590844716E-02  0.10176833027E+01  0.10173447869E+01 0.  0.
     999903    2    3    3    0    0  0.89656030244E-04 -0.46338027032E-01 -0.11991629668E+00  0.13009838121E+00  0.19961207269E-01 0.  0.
         14    1    1    2    0    0 -0.14362645905E-01  0.20475753922E-01  0.79590844716E-02  0.26246697349E-01  0.00000000000E+00 0.  1.
     999901    1    3    3    0    0  0.14272989875E-01  0.25862273110E-01  0.11195721221E+00  0.88758492144E+00  0.88000000000E+00 0.  1.
        -11    1    4    4    0    0  0.77878407730E-02 -0.38406898043E-01 -0.88470570628E-01  0.96762819665E-01  0.51100000000E-03 0.  1.
         11    1    4    4    0    0 -0.76981847427E-02 -0.79311289890E-02 -0.31445726052E-01  0.33335561542E-01  0.51100000000E-03 0. -1.
</event>
<event>
 7    1  0.1054833E+005  0.1043930E+01  0.7957747E-01            NaN
         13   -1    0    0    0    0  0.00000000000E+00  0.00000000000E+00  0.74505805969E-08  0.10566000000E+00  0.10566000000E+00 0.  1.
     999900   -1    0    0    0    0 -0.00000000000E+00 -0.00000000000E+00 -0.74505805969E-08  0.93827000000E+00  0.93827000000E+00 0.  1.
     999903    2    1    2    0    0  0.65734781408E-01 -0.44008719188E-01 -0.33888111491E-01  0.89066927433E-01  0.22949610250E-01 0.  0.
         14    1    1    2    0    0 -0.29851509620E-02  0.67752269698E-01 -0.19883340677E-01  0.70672685049E-01  0.00000000000E+00 0.  1.
     999901    1    1    2    0    0 -0.62749630446E-01 -0.23743550510E-01  0.53771452168E-01  0.88419038752E+00  0.88000000000E+00 0. -1.
        -11    1    3    3    0    0  0.46709283079E-01 -0.34769347013E-01 -0.13694939280E-01  0.59820373623E-01  0.51100000000E-03 0. -1.
         11    1    3    3    0    0  0.19025498328E-01 -0.92393721751E-02 -0.20193172211E-01  0.29246553810E-01  0.51100000000E-03 0.  1.
</event>
<event>
 8    1  0.1054833E+005  0.1043930E+01  0.7957747E-01            NaN
         13   -1    0    0    0    0  0.00000000000E+00  0.00000000000E+00  0.74505805969E-08  0.10566000000E+00  0.10566000000E+00 0. -1.
     999900   -1    0    0    0    0 -0.00000000000E+00 -0.00000000000E+00 -0.74505805969E-08  0.93827000000E+00  0.93827000000E+00 0.  1.
     999902    2    1    2    0    0 -0.13471488817E-01 -0.25654680383E-02  0.19111739342E-01  0.10204072192E+01  0.10201360555E+01 0.  0.
     999903    2    3    3    0    0 -0.11466049845E+00 -0.31474163453E-01 -0.51763974539E-01  0.13130750870E+00  0.20603395611E-01 0.  0.
         14    1    1    2    0    0  0.13471488817E-01  0.25654680383E-02 -0.19111739342E-01  0.23522780828E-01  0.00000000000E+00 0.  1.
     999901    1    3    3    0    0  0.10118900964E+00  0.28908695415E-01  0.70875713881E-01  0.88909971047E+00  0.88000000000E+00 0. -1.
        -11    1    4    4    0    0 -0.10037547671E+00 -0.31818920574E-01 -0.50971291472E-01  0.11698723737E+00  0.51100000000E-03 0.  1.
         11    1    4    4    0    0 -0.14285021740E-01  0.34475712150E-03 -0.79268306673E-03  0.14320271332E-01  0.51100000000E-03 0. -1.
</event>
<event>
 8    1  0.1054833E+005  0.1043930E+01  0.7957747E-01            NaN
         13   -1    0    0    0    0  0.00000000000E+00  0.00000000000E+00  0.74505805969E-08  0.10566000000E+00  0.10566000000E+00 0. -1.
     999900   -1    0    0    0    0 -0.00000000000E+00 -0.00000000000E+00 -0.74505805969E-08  0.93827000000E+00  0.93827000000E+00 0. -1.
     999902    2    1    2    0    0  0.20062906722E-01  0.49184615786E-02  0.11648142256E-01  0.10202152217E+01  0.10199395609E+01 0.  0.
     999903    2    3    3    0    0  0.34425416951E-01 -0.88977582050E-01  0.88185145042E-01  0.13180053167E+00  0.22195515397E-01 0.  0.
         14    1    1    2    0    0 -0.20062906722E-01 -0.49184615786E-02 -0.11648142256E-01  0.23714778271E-01  0.00000000000E+00 0.  1.
     999901    1    3    3    0    0 -0.14362510229E-01  0.93896043629E-01 -0.76537002786E-01  0.88841469005E+00  0.88000000000E+00 0.  1.
        -11    1    4    4    0    0  0.65070078167E-02 -0.45353518621E-01  0.46861808653E-01  0.65540621245E-01  0.51100000000E-03 0. -1.
         11    1    4    4    0    0  0.27918409134E-01 -0.43624063429E-01  0.41323336390E-01  0.66259910429E-01  0.51100000000E-03 0.  1.
</event>
<event>
 8    1  0.1054833E+005  0.1043930E+01  0.7957747E-01            NaN
         13   -1    0    0    0    0  0.00000000000E+00  0.00000000000E+00  0.74505805969E-08  0.10566000000E+00  0.10566000000E+00 0.  1.
     999900   -1    0    0    0    0 -0.00000000000E+00 -0.00000000000E+00 -0.74505805969E-08  0.93827000000E+00  0.93827000000E+00 0. -1.
     999902    2    1    2    0    0 -0.30686468259E-02 -0.14022105721E-01  0.19389119294E-01  0.10198058629E+01  0.10195204873E+01 0.  0.
     999903    2    3    3    0    0  0.10670966577E+00  0.19859961788E-01  0.70308684042E-01  0.13087837743E+00  0.20111384225E-01 0.  0.
         14    1    1    2    0    0  0.30686468259E-02  0.14022105721E-01 -0.19389119294E-01  0.24124137066E-01  0.00000000000E+00 0. -1.
     999901    1    3    3    0    0 -0.10977831260E+00 -0.33882067508E-01 -0.50919564748E-01  0.88892748551E+00  0.88000000000E+00 0. -1.
        -11    1    4    4    0    0  0.85686508102E-01  0.23659222545E-01  0.59100178408E-01  0.10674749969E+00  0.51100000000E-03 0. -1.
         11    1    4    4    0    0  0.21023157667E-01 -0.37992607575E-02  0.11208505634E-01  0.24130877733E-01  0.51100000000E-03 0.  1.
</event>
<event>
 8    1  0.1054833E+005  0.1043930E+01  0.7957747E-01            NaN
         13   -1    0    0    0    0  0.00000000000E+00  0.00000000000E+00  0.74505805969E-08  0.10566000000E+00  0.10566000000E+00 0.  1.
     999900   -1    0    0    0    0 -0.00000000000E+00 -0.00000000000E+00 -0.74505805969E-08  0.93827000000E+00  0.93827000000E+00 0. -1.
     999902    2    1    2    0    0  0.97393971303E-02 -0.18780721899E-01  0.11123899452E-01  0.10200278555E+01  0.10197477696E+01 0.  0.
     999903    2    3    3    0    0 -0.72977733508E-01  0.84878916587E-01 -0.57441614827E-01  0.12745367144E+00  0.20364655157E-01 0.  0.
         14    1    1    2    0    0 -0.97393971303E-02  0.18780721899E-01 -0.11123899452E-01  0.23902144476E-01  0.00000000000E+00 0. -1.
     999901    1    3    3    0    0  0.82717130638E-01 -0.10365963849E+00  0.68565514280E-01  0.89257418409E+00  0.88000000000E+00 0.  1.
        -11    1    4    4    0    0 -0.35591575912E-01  0.55803941469E-01 -0.37386742933E-01  0.76018878100E-01  0.51100000000E-03 0.  1.
         11    1    4    4    0    0 -0.37386157595E-01  0.29074975118E-01 -0.20054871894E-01  0.51434793337E-01  0.51100000000E-03 0. -1.
</event>
<event>
 8    1  0.1054833E+005  0.1043930E+01  0.7957747E-01            NaN
         13   -1    0    0    0    0  0.00000000000E+00  0.00000000000E+00  0.74505805969E-08  0.10566000000E+00  0.10566000000E+00 0.  1.
     999900   -1    0    0    0    0 -0.00000000000E+00 -0.00000000000E+00 -0.74505805969E-08  0.93827000000E+00  0.93827000000E+00 0. -1.
     999902    2    1    2    0    0 -0.10737700057E-01  0.39784757541E-02  0.20285478743E-01  0.10206356419E+01  0.10203697792E+01 0.  0.
     999903    2    3    3    0    0  0.36037297012E-01 -0.78375011676E-01 -0.92919865524E-01  0.12834339873E+00  0.19914752235E-01 0.  0.
         14    1    1    2    0    0  0.10737700057E-01 -0.39784757541E-02 -0.20285478743E-01  0.23294358108E-01  0.00000000000E+00 0. -1.
     999901    1    3    3    0    0 -0.46774997069E-01  0.82353487430E-01  0.11320534427E+00  0.89229224317E+00  0.88000000000E+00 0.  1.
        -11    1    4    4    0    0  0.37306361685E-01 -0.67735382457E-01 -0.76857946799E-01  0.10902867405E+00  0.51100000000E-03 0.  1.
         11    1    4    4    0    0 -0.12690646730E-02 -0.10639629218E-01 -0.16061918725E-01  0.19314724672E-01  0.51100000000E-03 0. -1.
</event>
<event>
 8    1  0.1054833E+005  0.1043930E+01  0.7957747E-01            NaN
         13   -1    0    0    0    0  0.00000000000E+00  0.00000000000E+00  0.74505805969E-08  0.10566000000E+00  0.10566000000E+00 0. -1.
     999900   -1    0    0    0    0 -0.00000000000E+00 -0.00000000000E+00 -0.74505805969E-08  0.93827000000E+00  0.93827000000E+00 0.  1.
     999902    2    1    2    0    0 -0.22669357728E-01 -0.37256250158E-02  0.24848108700E-01  0.10100890696E+01  0.10095220255E+01 0.  0.
     999903    2    3    3    0    0 -0.85884578776E-01  0.66884997472E-01  0.56793727905E-01  0.12442403885E+00  0.20150686243E-01 0.  0.
         14    1    1    2    0    0  0.22669357728E-01  0.37256250158E-02 -0.24848108700E-01  0.33840930358E-01  0.00000000000E+00 0.  1.
     999901    1    3    3    0    0  0.63215221048E-01 -0.70610622488E-01 -0.31945619205E-01  0.88566503079E+00  0.88000000000E+00 0. -1.
        -11    1    4    4    0    0 -0.23474633136E-01  0.29168110770E-01  0.23925234604E-01  0.44435515735E-01  0.51100000000E-03 0.  1.
         11    1    4    4    0    0 -0.62409945641E-01  0.37716886702E-01  0.32868493301E-01  0.79988523116E-01  0.51100000000E-03 0. -1.
</event>
<event>
 8    1  0.1054833E+005  0.1043930E+01  0.7957747E-01            NaN
         13   -1    0    0    0    0  0.00000000000E+00  0.00000000000E+00  0.74505805969E-08  0.10566000000E+00  0.10566000000E+00 0. -1.
     999900   -1    0    0    0    0 -0.00000000000E+00 -0.00000000000E+00 -0.74505805969E-08  0.93827000000E+00  0.93827000000E+00 0.  1.
     999902    2    1    2    0    0  0.76419525639E-02 -0.13652741308E-01  0.17827933893E-01  0.10202101347E+01  0.10199343542E+01 0.  0.
     999903    2    3    3    0    0 -0.10811365379E+00 -0.56829135753E-01 -0.38797565155E-01  0.12977765066E+00  0.20466429692E-01 0.  0.
         14    1    1    2    0    0 -0.76419525639E-02  0.13652741308E-01 -0.17827933893E-01  0.23719865327E-01  0.00000000000E+00 0.  1.
     999901    1    3    3    0    0  0.11575560635E+00  0.43176394445E-01  0.56625499048E-01  0.89043248401E+00  0.88000000000E+00 0. -1.
        -11    1    4    4    0    0 -0.74116600558E-01 -0.36464832278E-01 -0.35814256749E-01  0.90032641741E-01  0.51100000000E-03 0.  1.
         11    1    4    4    0    0 -0.33997053227E-01 -0.20364303475E-01 -0.29833084058E-02  0.39745008922E-01  0.51100000000E-03 0. -1.
</event>
<event>
 8    1  0.1054833E+005  0.1043930E+01  0.7957747E-01            NaN
         13   -1    0    0    0    0  0.00000000000E+00  0.00000000000E+00  0.74505805969E-08  0.10566000000E+00  0.10566000000E+00 0.  1.
     999900   -1    0    0    0    0 -0.00000000000E+00 -0.00000000000E+00 -0.74505805969E-08  0.93827000000E+00  0.93827000000E+00 0.  1.
     999902    2    1    2    0    0 -0.18730087766E-01 -0.13531371785E-01  0.44341014876E-02  0.10204018155E+01  0.10201305258E+01 0.  0.
     999903    2    3    3    0    0 -0.33764115308E-01  0.10293045518E+00  0.68740852281E-01  0.13027556753E+00  0.22621331442E-01 0.  0.
         14    1    1    2    0    0  0.18730087766E-01  0.13531371785E-01 -0.44341014876E-02  0.23528184506E-01  0.00000000000E+00 0. -1.
     999901    1    3    3    0    0  0.15034027542E-01 -0.11646182696E+00 -0.64306750794E-01  0.89012624797E+00  0.88000000000E+00 0.  1.
        -11    1    4    4    0    0 -0.29166189557E-01  0.58955366178E-01  0.48037483851E-01  0.81450983973E-01  0.51100000000E-03 0.  1.
         11    1    4    4    0    0 -0.45979257513E-02  0.43975089000E-01  0.20703368430E-01  0.48824583553E-01  0.51100000000E-03 0. -1.
</event>
<event>
 8    1  0.1054833E+005  0.1043930E+01  0.7957747E-01            NaN
         13   -1    0    0    0    0  0.00000000000E+00  0.00000000000E+00  0.74505805969E-08  0.10566000000E+00  0.10566000000E+00 0.  1.
     999900   -1    0    0    0    0 -0.00000000000E+00 -0.00000000000E+00 -0.74505805969E-08  0.93827000000E+00  0.93827000000E+00 0. -1.
     999902    2    1    2    0    0 -0.10563268355E-02 -0.56312642444E-02 -0.23347300450E-01  0.10198899625E+01  0.10196065968E+01 0.  0.
     999903    2    3    3    0    0 -0.26205781570E-02 -0.12933519160E+00  0.13695018967E-02  0.13089275846E+00  0.19914303044E-01 0.  0.
         14    1    1    2    0    0  0.10563268355E-02  0.56312642444E-02  0.23347300450E-01  0.24040037472E-01  0.00000000000E+00 0.  1.
     999901    1    3    3    0    0  0.15642513215E-02  0.12370392735E+00 -0.24716802346E-01  0.88899720407E+00  0.88000000000E+00 0. -1.
        -11    1    4    4    0    0  0.80012111070E-02 -0.66258838828E-01  0.41006946698E-02  0.66868003707E-01  0.51100000000E-03 0. -1.
         11    1    4    4    0    0 -0.10621789264E-01 -0.63076352771E-01 -0.27311927731E-02  0.64024754751E-01  0.51100000000E-03 0.  1.
</event>
<event>
 8    1  0.1054833E+005  0.1043930E+01  0.7957747E-01            NaN
         13   -1    0    0    0    0  0.00000000000E+00  0.00000000000E+00  0.74505805969E-08  0.10566000000E+00  0.10566000000E+00 0. -1.
     999900   -1    0    0    0    0 -0.00000000000E+00 -0.00000000000E+00 -0.74505805969E-08  0.93827000000E+00  0.93827000000E+00 0.  1.
     999902    2    1    2    0    0  0.27302168495E-01  0.17810076035E-02  0.78538529290E-02  0.10154648740E+01  0.10150658338E+01 0.  0.
     999903    2    3    3    0    0  0.12722681923E+00 -0.12055845177E-01  0.95104772442E-02  0.12970015426E+00  0.19991845917E-01 0.  0.
         14    1    1    2    0    0 -0.27302168495E-01 -0.17810076035E-02 -0.78538529290E-02  0.28465126004E-01  0.00000000000E+00 0.  1.
     999901    1    3    3    0    0 -0.99924650738E-01  0.13836852780E-01 -0.16566243152E-02  0.88576471973E+00  0.88000000000E+00 0.  1.
        -11    1    4    4    0    0  0.10613009858E+00 -0.68812933122E-02  0.14688301230E-01  0.10736366860E+00  0.51100000000E-03 0. -1.
         11    1    4    4    0    0  0.21096720656E-01 -0.51745518644E-02 -0.51778239854E-02  0.22336485660E-01  0.51100000000E-03 0.  1.
</event>
<event>
 7    1  0.1054833E+005  0.1043930E+01  0.7957747E-01            NaN
         13   -1    0    0    0    0  0.00000000000E+00  0.00000000000E+00  0.74505805969E-08  0.10566000000E+00  0.10566000000E+00 0.  1.
     999900   -1    0    0    0    0 -0.00000000000E+00 -0.00000000000E+00 -0.74505805969E-08  0.93827000000E+00  0.93827000000E+00 0.  1.
     999902    2    1    2    0    0  0.13255579565E-01  0.20385491774E-01  0.65753742429E-02  0.10187404345E+01  0.10184289659E+01 0.  0.
         14    1    1    2    0    0 -0.13255579565E-01 -0.20385491774E-01 -0.65753742429E-02  0.25189565516E-01  0.00000000000E+00 0. -1.
     999901    1    3    3    0    0 -0.53344263064E-01  0.10026238025E+00 -0.57726075793E-01  0.88917402972E+00  0.88000000000E+00 0.  1.
        -11    1    3    3    0    0  0.26512873425E-01 -0.47512521233E-02  0.10950977483E-01  0.29080782018E-01  0.51100000000E-03 0.  1.
         11    1    3    3    0    0  0.40086969204E-01 -0.75125636349E-01  0.53350472553E-01  0.10048562275E+00  0.51100000000E-03 0. -1.
</event>
<event>
 8    1  0.1054833E+005  0.1043930E+01  0.7957747E-01            NaN
         13   -1    0    0    0    0  0.00000000000E+00  0.00000000000E+00  0.74505805969E-08  0.10566000000E+00  0.10566000000E+00 0. -1.
     999900   -1    0    0    0    0 -0.00000000000E+00 -0.00000000000E+00 -0.74505805969E-08  0.93827000000E+00  0.93827000000E+00 0.  1.
     999902    2    1    2    0    0 -0.17294659213E-01 -0.12168539410E-01  0.11133198144E-01  0.10200317430E+01  0.10197517492E+01 0.  0.
     999903    2    3    3    0    0 -0.23347602358E-01  0.27180164780E-01 -0.12233416847E+00  0.12907804237E+00  0.20288429047E-01 0.  0.
         14    1    1    2    0    0  0.17294659213E-01  0.12168539410E-01 -0.11133198144E-01  0.23898257041E-01  0.00000000000E+00 0.  1.
     999901    1    3    3    0    0  0.60529431456E-02 -0.39348704190E-01  0.13346736662E+00  0.89095370059E+00  0.88000000000E+00 0. -1.
        -11    1    4    4    0    0 -0.23311347884E-01  0.27347867070E-01 -0.92459528737E-01  0.99198540053E-01  0.51100000000E-03 0. -1.
         11    1    4    4    0    0 -0.36254474528E-04 -0.16770228988E-03 -0.29874639735E-01  0.29879502317E-01  0.51100000000E-03 0.  1.
</event>
<event>
 8    1  0.1054833E+005  0.1043930E+01  0.7957747E-01            NaN
         13   -1    0    0    0    0  0.00000000000E+00  0.00000000000E+00  0.74505805969E-08  0.10566000000E+00  0.10566000000E+00 0.  1.
     999900   -1    0    0    0    0 -0.00000000000E+00 -0.00000000000E+00 -0.74505805969E-08  0.93827000000E+00  0.93827000000E+00 0.  1.
     999902    2    1    2    0    0  0.10098952595E-01  0.22337015981E-01 -0.69744100996E-03  0.10194061840E+01  0.10191111571E+01 0.  0.
     999903    2    3    3    0    0 -0.51868562308E-01 -0.37589057624E-01 -0.10963135217E+00  0.12850904955E+00  0.19805489873E-01 0.  0.
         14    1    1    2    0    0 -0.10098952595E-01 -0.22337015981E-01  0.69744100996E-03  0.24523815984E-01  0.00000000000E+00 0. -1.
     999901    1    3    3    0    0  0.61967514903E-01  0.59926073605E-01  0.10893391116E+00  0.89089713447E+00  0.88000000000E+00 0. -1.
        -11    1    4    4    0    0 -0.14994333393E-01 -0.10968135463E-01 -0.16446461519E-01  0.24816874237E-01  0.51100000000E-03 0. -1.
         11    1    4    4    0    0 -0.36874228915E-01 -0.26620922161E-01 -0.93184890648E-01  0.10369217531E+00  0.51100000000E-03 0.  1.
</event>
<event>
 8    1  0.1054833E+005  0.1043930E+01  0.7957747E-01            NaN
         13   -1    0    0    0    0  0.00000000000E+00  0.00000000000E+00  0.74505805969E-08  0.10566000000E+00  0.10566000000E+00 0. -1.
     999900   -1    0    0    0    0 -0.00000000000E+00 -0.00000000000E+00 -0.74505805969E-08  0.93827000000E+00  0.93827000000E+00 0. -1.
     999902    2    1    2    0    0 -0.13428416798E-01 -0.18869379525E-01 -0.43910643991E-02  0.10203576156E+01  0.10200852937E+01 0.  0.
     999903    2    3    3    0    0  0.21225753714E-01  0.12348896858E+00 -0.18493407064E-01  0.12813248317E+00  0.19387345291E-01 0.  0.
         14    1    1    2    0    0  0.13428416798E-01  0.18869379525E-01  0.43910643991E-02  0.23572384434E-01  0.00000000000E+00 0. -1.
     999901    1    3    3    0    0 -0.34654170511E-01 -0.14235834810E+00  0.14102342665E-01  0.89222513239E+00  0.88000000000E+00 0.  1.
        -11    1    4    4    0    0  0.78912369703E-02  0.11252968138E-01 -0.14883138012E-02  0.13833911660E-01  0.51100000000E-03 0. -1.
         11    1    4    4    0    0  0.13334516743E-01  0.11223600044E+00 -0.17005093263E-01  0.11429857151E+00  0.51100000000E-03 0.  1.
</event>
<event>
 8    1  0.1054833E+005  0.1043930E+01  0.7957747E-01            NaN
         13   -1    0    0    0    0  0.00000000000E+00  0.00000000000E+00  0.74505805969E-08  0.10566000000E+00  0.10566000000E+00 0. -1.
     999900   -1    0    0    0    0 -0.00000000000E+00 -0.00000000000E+00 -0.74505805969E-08  0.93827000000E+00  0.93827000000E+00 0. -1.
     999902    2    1    2    0    0  0.16534570853E-01  0.18399960314E-01 -0.25359107427E-02  0.10190627240E+01  0.10187592719E+01 0.  0.
     999903    2    3    3    0    0 -0.68926454551E-01  0.10209214716E+00  0.36898694609E-01  0.13009531339E+00  0.19738648750E-01 0.  0.
         14    1    1    2    0    0 -0.16534570853E-01 -0.18399960314E-01  0.25359107427E-02  0.24867276010E-01  0.00000000000E+00 0.  1.
     999901    1    3    3    0    0  0.85461025403E-01 -0.83692186847E-01 -0.39434605351E-01  0.88896741060E+00  0.88000000000E+00 0. -1.
        -11    1    4    4    0    0 -0.53022399605E-01  0.62619715402E-01  0.27203595068E-01  0.86445938728E-01  0.51100000000E-03 0.  1.
         11    1    4    4    0    0 -0.15904054946E-01  0.39472431759E-01  0.96950995411E-02  0.43649374667E-01  0.51100000000E-03 0. -1.
</event>
<event>
 8    1  0.1054833E+005  0.1043930E+01  0.7957747E-01            NaN
         13   -1    0    0    0    0  0.00000000000E+00  0.00000000000E+00  0.74505805969E-08  0.10566000000E+00  0.10566000000E+00 0.  1.
     999900   -1    0    0    0    0 -0.00000000000E+00 -0.00000000000E+00 -0.74505805969E-08  0.93827000000E+00  0.93827000000E+00 0. -1.
     999902    2    1    2    0    0  0.17587314309E-01 -0.12083868709E-01  0.57482165577E-02  0.10218307805E+01  0.10215917817E+01 0.  0.
     999903    2    3    3    0    0 -0.43174002922E-01 -0.57897880370E-01 -0.10775971562E+00  0.13128324558E+00  0.20173625847E-01 0.  0.
         14    1    1    2    0    0 -0.17587314309E-01  0.12083868709E-01 -0.57482165577E-02  0.22099219470E-01  0.00000000000E+00 0.  1.
     999901    1    3    3    0    0  0.60761317231E-01  0.45814011661E-01  0.11350793218E+00  0.89054753495E+00  0.88000000000E+00 0.  1.
        -11    1    4    4    0    0 -0.41003860099E-01 -0.43034676868E-01 -0.79389633222E-01  0.99177996251E-01  0.51100000000E-03 0. -1.
         11    1    4    4    0    0 -0.21701428230E-02 -0.14863203502E-01 -0.28370082399E-01  0.32105249330E-01  0.51100000000E-03 0.  1.
</event>
<event>
 8    1  0.1054833E+005  0.1043930E+01  0.7957747E-01            NaN
         13   -1    0    0    0    0  0.00000000000E+00  0.00000000000E+00  0.74505805969E-08  0.10566000000E+00  0.10566000000E+00 0. -1.
     999900   -1    0    0    0    0 -0.00000000000E+00 -0.00000000000E+00 -0.74505805969E-08  0.93827000000E+00  0.93827000000E+00 0.  1.
     999902    2    1    2    0    0  0.24222691873E-04  0.11705777696E-01  0.20712038010E-01  0.10201389442E+01  0.10198614862E+01 0.  0.
     999903    2    3    3    0    0 -0.12055110730E+00 -0.18631619312E-01  0.43623210870E-01  0.13110368634E+00  0.20136666425E-01 0.  0.
         14    1    1    2    0    0 -0.24222691873E-04 -0.11705777696E-01 -0.20712038010E-01  0.23791055813E-01  0.00000000000E+00 0.  1.
     999901    1    3    3    0    0  0.12057532999E+00  0.30337397008E-01 -0.22911172860E-01  0.88903525785E+00  0.88000000000E+00 0. -1.
        -11    1    4    4    0    0 -0.70180024233E-01 -0.63864032798E-02  0.15616350595E-01  0.72181392859E-01  0.51100000000E-03 0.  1.
         11    1    4    4    0    0 -0.50371083067E-01 -0.12245216032E-01  0.28006860275E-01  0.58922293477E-01  0.51100000000E-03 0. -1.
</event>
<event>
 8    1  0.1054833E+005  0.1043930E+01  0.7957747E-01            NaN
         13   -1    0    0    0    0  0.00000000000E+00  0.00000000000E+00  0.74505805969E-08  0.10566000000E+00  0.10566000000E+00 0.  1.
     999900   -1    0    0    0    0 -0.00000000000E+00 -0.00000000000E+00 -0.74505805969E-08  0.93827000000E+00  0.93827000000E+00 0. -1.
     999902    2    1    2    0    0 -0.12887219753E-01 -0.13520886376E-01  0.14808073899E-01  0.10200936023E+01  0.10198150733E+01 0.  0.
     999903    2    3    3    0    0  0.44914565447E-01  0.29485915226E-01 -0.11429425633E+00  0.12776068070E+00  0.19310026341E-01 0.  0.
         14    1    1    2    0    0  0.12887219753E-01  0.13520886376E-01 -0.14808073899E-01  0.23836397672E-01  0.00000000000E+00 0.  1.
     999901    1    3    3    0    0 -0.57801785200E-01 -0.43006801602E-01  0.12910233022E+00  0.89233292163E+00  0.88000000000E+00 0.  1.
        -11    1    4    4    0    0  0.17916211841E-01  0.21852945054E-01 -0.67793420135E-01  0.73448967242E-01  0.51100000000E-03 0.  1.
         11    1    4    4    0    0  0.26998353606E-01  0.76329701719E-02 -0.46500836190E-01  0.54311713456E-01  0.51100000000E-03 0. -1.
</event>
<event>
 8    1  0.1054833E+005  0.1043930E+01  0.7957747E-01            NaN
         13   -1    0    0    0    0  0.00000000000E+00  0.00000000000E+00  0.74505805969E-08  0.10566000000E+00  0.10566000000E+00 0. -1.
     999900   -1    0    0    0    0 -0.00000000000E+00 -0.00000000000E+00 -0.74505805969E-08  0.93827000000E+00  0.93827000000E+00 0.  1.
     999902    2    1    2    0    0  0.82295997734E-02  0.61871522136E-02  0.26533909072E-01  0.10154685261E+01  0.10150695898E+01 0.  0.
     999903    2    3    3    0    0  0.11840448298E+00  0.17679905374E-01  0.41581725374E-01  0.12839636161E+00  0.20600610346E-01 0.  0.
         14    1    1    2    0    0 -0.82295997734E-02 -0.61871522136E-02 -0.26533909072E-01  0.28461473883E-01  0.00000000000E+00 0.  1.
     999901    1    3    3    0    0 -0.11017488321E+00 -0.11492753160E-01 -0.15047816302E-01  0.88707216451E+00  0.88000000000E+00 0. -1.
        -11    1    4    4    0    0  0.93381113312E-01  0.62308611855E-02  0.27899250012E-01  0.97660049287E-01  0.51100000000E-03 0.  1.
         11    1    4    4    0    0  0.25023369666E-01  0.11449044188E-01  0.13682475362E-01  0.30736312325E-01  0.51100000000E-03 0. -1.
</event>
<event>
 8    1  0.1054833E+005  0.1043930E+01  0.7957747E-01            NaN
         13   -1    0    0    0    0  0.00000000000E+00  0.00000000000E+00  0.74505805969E-08  0.10566000000E+00  0.10566000000E+00 0. -1.
     999900   -1    0    0    0    0 -0.00000000000E+00 -0.00000000000E+00 -0.74505805969E-08  0.93827000000E+00  0.93827000000E+00 0. -1.
     999902    2    1    2    0    0  0.21770338960E-01 -0.12851171865E-01 -0.23096800536E-02  0.10185442777E+01  0.10182278776E+01 0.  0.
     999903    2    3    3    0    0 -0.83701165595E-01 -0.84824298156E-01 -0.43589456644E-01  0.12837104220E+00  0.19443175267E-01 0.  0.
         14    1    1    2    0    0 -0.21770338960E-01  0.12851171865E-01  0.23096800536E-02  0.25385722340E-01  0.00000000000E+00 0. -1.
     999901    1    3    3    0    0  0.10547150456E+00  0.71973126291E-01  0.41279776591E-01  0.89017323546E+00  0.88000000000E+00 0.  1.
        -11    1    4    4    0    0 -0.34568346289E-01 -0.22021695698E-01 -0.15721116451E-01  0.43901483688E-01  0.51100000000E-03 0.  1.
         11    1    4    4    0    0 -0.49132819306E-01 -0.62802602458E-01 -0.27868340194E-01  0.84469558509E-01  0.51100000000E-03 0. -1.
</event>
<event>
 8    1  0.1054833E+005  0.1043930E+01  0.7957747E-01            NaN
         13   -1    0    0    0    0  0.00000000000E+00  0.00000000000E+00  0.74505805969E-08  0.10566000000E+00  0.10566000000E+00 0. -1.
     999900   -1    0    0    0    0 -0.00000000000E+00 -0.00000000000E+00 -0.74505805969E-08  0.93827000000E+00  0.93827000000E+00 0.  1.
     999902    2    1    2    0    0 -0.10401302345E-01  0.18188869214E-01 -0.11123740970E-01  0.10202074439E+01  0.10199316001E+01 0.  0.
     999903    2    3    3    0    0 -0.75718769048E-02 -0.10667817981E-01 -0.12956440010E+00  0.13179937114E+00  0.20322519535E-01 0.  0.
         14    1    1    2    0    0  0.10401302345E-01 -0.18188869214E-01  0.11123740970E-01  0.23722556079E-01  0.00000000000E+00 0.  1.
     999901    1    3    3    0    0 -0.28294254401E-02  0.28856687195E-01  0.11844065913E+00  0.88840807278E+00  0.88000000000E+00 0. -1.
        -11    1    4    4    0    0  0.63559335273E-02 -0.66724628870E-02 -0.38685081255E-01  0.39770796883E-01  0.51100000000E-03 0. -1.
         11    1    4    4    0    0 -0.13927810432E-01 -0.39953550940E-02 -0.90879318843E-01  0.92028574259E-01  0.51100000000E-03 0.  1.
</event>
<event>
 8    1  0.1054833E+005  0.1043930E+01  0.7957747E-01            NaN
         13   -1    0    0    0    0  0.00000000000E+00  0.00000000000E+00  0.74505805969E-08  0.10566000000E+00  0.10566000000E+00 0. -1.
     999900   -1    0    0    0    0 -0.00000000000E+00 -0.00000000000E+00 -0.74505805969E-08  0.93827000000E+00  0.93827000000E+00 0. -1.
     999902    2    1    2    0    0 -0.23315467368E-01 -0.69073651916E-02  0.18517602430E-02  0.10195424678E+01  0.10192507502E+01 0.  0.
     999903    2    3    3    0    0  0.29933072328E-01 -0.91805839642E-01  0.84766953163E-01  0.12998185310E+00  0.19635294143E-01 0.  0.
         14    1    1    2    0    0  0.23315467368E-01  0.69073651916E-02 -0.18517602430E-02  0.24387532234E-01  0.00000000000E+00 0. -1.
     999901    1    3    3    0    0 -0.53248539696E-01  0.84898474450E-01 -0.82915192920E-01  0.88956061466E+00  0.88000000000E+00 0. -1.
        -11    1    4    4    0    0  0.23225100673E-01 -0.41644292732E-01  0.45681473346E-01  0.66035676316E-01  0.51100000000E-03 0.  1.
         11    1    4    4    0    0  0.67079716550E-02 -0.50161546909E-01  0.39085479817E-01  0.63946176786E-01  0.51100000000E-03 0. -1.
</event>
<event>
 8    1  0.1054833E+005  0.1043930E+01  0.7957747E-01            NaN
         13   -1    0    0    0    0  0.00000000000E+00  0.00000000000E+00  0.74505805969E-08  0.10566000000E+00  0.10566000000E+00 0. -1.
     999900   -1    0    0    0    0 -0.00000000000E+00 -0.00000000000E+00 -0.74505805969E-08  0.93827000000E+00  0.93827000000E+00 0.  1.
     999902    2    1    2    0    0  0.10598169251E-01 -0.37400993650E-03  0.21502231083E-01  0.10199548667E+01  0.10196730472E+01 0.  0.
     999903    2    3    3    0    0 -0.68696542643E-01 -0.10519529731E+00 -0.21466162960E-01  0.12915666481E+00  0.20865818067E-01 0.  0.
         14    1    1    2    0    0 -0.10598169251E-01  0.37400993650E-03 -0.21502231083E-01  0.23975133294E-01  0.00000000000E+00 0.  1.
     999901    1    3    3    0    0  0.79294711894E-01  0.10482128738E+00  0.42968394043E-01  0.89079820190E+00  0.88000000000E+00 0.  1.
        -11    1    4    4    0    0 -0.17033358261E-01 -0.41896790372E-01 -0.26282864929E-02  0.45306129255E-01  0.51100000000E-03 0.  1.
         11    1    4    4    0    0 -0.51663184382E-01 -0.63298506942E-01 -0.18837876467E-01  0.83850535552E-01  0.51100000000E-03 0. -1.
</event>
<event>
 8    1  0.1054833E+005  0.1043930E+01  0.7957747E-01            NaN
         13   -1    0    0    0    0  0.00000000000E+00  0.00000000000E+00  0.74505805969E-08  0.10566000000E+00  0.10566000000E+00 0. -1.
     999900   -1    0    0    0    0 -0.00000000000E+00 -0.00000000000E+00 -0.74505805969E-08  0.93827000000E+00  0.93827000000E+00 0. -1.
     999902    2    1    2    0    0 -0.11792626876E-01 -0.15594420413E-01  0.83867977759E-02  0.10226558285E+01  0.10224345227E+01 0.  0.
     999903    2    3    3    0    0 -0.68410094744E-01  0.18892819660E-02  0.11399071386E+00  0.13436341908E+00  0.19394202532E-01 0.  0.
         14    1    1    2    0    0  0.11792626876E-01  0.15594420413E-01 -0.83867977759E-02  0.21274171514E-01  0.00000000000E+00 0.  1.
     999901    1    3    3    0    0  0.56617467869E-01 -0.17483702380E-01 -0.10560391608E+00  0.88829240941E+00  0.88000000000E+00 0. -1.
        -11    1    4    4    0    0 -0.51015627229E-01 -0.55340498490E-02  0.73173145144E-01  0.89374438295E-01  0.51100000000E-03 0. -1.
         11    1    4    4    0    0 -0.17394467515E-01  0.74233318151E-02  0.40817568714E-01  0.44988980785E-01  0.51100000000E-03 0.  1.
</event>
<event>
 8    1  0.1054833E+005  0.1043930E+01  0.7957747E-01            NaN
         13   -1    0    0    0    0  0.00000000000E+00  0.00000000000E+00  0.74505805969E-08  0.10566000000E+00  0.10566000000E+00 0. -1.
     999900   -1    0    0    0    0 -0.00000000000E+00 -0.00000000000E+00 -0.74505805969E-08  0.93827000000E+00  0.93827000000E+00 0.  1.
     999902    2    1    2    0    0 -0.90373761789E-02 -0.92199799938E-02 -0.19850369076E-01  0.10202504867E+01  0.10199756547E+01 0.  0.
     999903    2    3    3    0    0  0.37624372365E-01  0.62423767731E-01 -0.10814017880E+00  0.13170941510E+00  0.18459457745E-01 0.  0.
         14    1    1    2    0    0  0.90373761789E-02  0.92199799938E-02  0.19850369076E-01  0.23679513334E-01  0.00000000000E+00 0. -1.
     999901    1    3    3    0    0 -0.46661748544E-01 -0.71643747725E-01  0.88289809724E-01  0.88854107157E+00  0.88000000000E+00 0. -1.
        -11    1    4    4    0    0  0.15873066356E-01  0.22215799132E-01 -0.56410953324E-01  0.62673381451E-01  0.51100000000E-03 0. -1.
         11    1    4    4    0    0  0.21751306009E-01  0.40207968599E-01 -0.51729225477E-01  0.69036033645E-01  0.51100000000E-03 0.  1.
</event>
<event>
 8    1  0.1054833E+005  0.1043930E+01  0.7957747E-01            NaN
         13   -1    0    0    0    0  0.00000000000E+00  0.00000000000E+00  0.74505805969E-08  0.10566000000E+00  0.10566000000E+00 0.  1.
     999900   -1    0    0    0    0 -0.00000000000E+00 -0.00000000000E+00 -0.74505805969E-08  0.93827000000E+00  0.93827000000E+00 0. -1.
     999902    2    1    2    0    0  0.17394684098E-02  0.49950011049E-02 -0.23393338336E-01  0.10199461708E+01  0.10196641443E+01 0.  0.
     999903    2    3    3    0    0  0.27919345432E-01 -0.54959714142E-01 -0.11589092845E+00  0.13268309928E+00  0.19340049358E-01 0.  0.
         14    1    1    2    0    0 -0.17394684098E-02 -0.49950011049E-02  0.23393338336E-01  0.23983829238E-01  0.00000000000E+00 0.  1.
     999901    1    3    3    0    0 -0.26179877022E-01  0.59954715247E-01  0.92497590114E-01  0.88726307148E+00  0.88000000000E+00 0.  1.
        -11    1    4    4    0    0  0.20467967367E-01 -0.30349742366E-01 -0.50155781414E-01  0.62095958645E-01  0.51100000000E-03 0.  1.
         11    1    4    4    0    0  0.74513780648E-02 -0.24609971775E-01 -0.65735147037E-01  0.70587140634E-01  0.51100000000E-03 0. -1.
</event>
<event>
 8    1  0.1054833E+005  0.1043930E+01  0.7957747E-01            NaN
         13   -1    0    0    0    0  0.00000000000E+00  0.00000000000E+00  0.74505805969E-08  0.10566000000E+00  0.10566000000E+00 0.  1.
     999900   -1    0    0    0    0 -0.00000000000E+00 -0.00000000000E+00 -0.74505805969E-08  0.93827000000E+00  0.93827000000E+00 0.  1.
     999902    2    1    2    0    0 -0.13988284265E-01 -0.66304562227E-02 -0.18243166241E-01  0.10200041111E+01  0.10197234618E+01 0.  0.
     999903    2    3    3    0    0 -0.12456040466E+00  0.11314302295E-01 -0.39464634737E-01  0.13264930104E+00  0.19876413779E-01 0.  0.
         14    1    1    2    0    0  0.13988284265E-01  0.66304562227E-02  0.18243166241E-01  0.23925888926E-01  0.00000000000E+00 0.  1.
     999901    1    3    3    0    0  0.11057212040E+00 -0.17944758518E-01  0.21221468496E-01  0.88735481004E+00  0.88000000000E+00 0.  1.
        -11    1    4    4    0    0 -0.56567327497E-01  0.11910102423E-02 -0.27349915119E-01  0.62845525087E-01  0.51100000000E-03 0.  1.
         11    1    4    4    0    0 -0.67993077167E-01  0.10123292053E-01 -0.12114719618E-01  0.69803775951E-01  0.51100000000E-03 0. -1.
</event>
<event>
 8    1  0.1054833E+005  0.1043930E+01  0.7957747E-01            NaN
         13   -1    0    0    0    0  0.00000000000E+00  0.00000000000E+00  0.74505805969E-08  0.10566000000E+00  0.10566000000E+00 0. -1.
     999900   -1    0    0    0    0 -0.00000000000E+00 -0.00000000000E+00 -0.74505805969E-08  0.93827000000E+00  0.93827000000E+00 0.  1.
     999902    2    1    2    0    0  0.12290851805E-01 -0.17183131884E-01  0.98656487384E-03  0.10227805705E+01  0.10225618793E+01 0.  0.
     999903    2    3    3    0    0  0.12604161047E-01  0.10184211907E+00  0.79326874355E-01  0.13131867413E+00  0.20522160887E-01 0.  0.
         14    1    1    2    0    0 -0.12290851805E-01  0.17183131884E-01 -0.98656487384E-03  0.21149429536E-01  0.00000000000E+00 0. -1.
     999901    1    3    3    0    0 -0.31330924180E-03 -0.11902525096E+00 -0.78340309481E-01  0.89146189634E+00  0.88000000000E+00 0. -1.
        -11    1    4    4    0    0  0.24568031407E-02  0.78274939477E-01  0.53070823339E-01  0.94603252812E-01  0.51100000000E-03 0.  1.
         11    1    4    4    0    0  0.10147357906E-01  0.23567179594E-01  0.26256051017E-01  0.36715421317E-01  0.51100000000E-03 0. -1.
</event>
<event>
 8    1  0.1054833E+005  0.1043930E+01  0.7957747E-01            NaN
         13   -1    0    0    0    0  0.00000000000E+00  0.00000000000E+00  0.74505805969E-08  0.10566000000E+00  0.10566000000E+00 0.  1.
     999900   -1    0    0    0    0 -0.00000000000E+00 -0.00000000000E+00 -0.74505805969E-08  0.93827000000E+00  0.93827000000E+00 0.  1.
     999902    2    1    2    0    0 -0.18269088356E-01  0.13743082865E-01  0.71527423410E-02  0.10199760100E+01  0.10196946932E+01 0.  0.
     999903    2    3    3    0    0  0.10043740939E+00 -0.46953151974E-01 -0.58735870387E-01  0.12749823723E+00  0.22663325865E-01 0.  0.
         14    1    1    2    0    0  0.18269088356E-01 -0.13743082865E-01 -0.71527423410E-02  0.23953990044E-01  0.00000000000E+00 0. -1.
     999901    1    3    3    0    0 -0.11870649775E+00  0.60696234839E-01  0.65888612728E-01  0.89247777273E+00  0.88000000000E+00 0. -1.
        -11    1    4    4    0    0  0.76474574268E-01 -0.38380707560E-01 -0.34216140554E-01  0.92154460650E-01  0.51100000000E-03 0.  1.
         11    1    4    4    0    0  0.23962835126E-01 -0.85724444141E-02 -0.24519729832E-01  0.35343776575E-01  0.51100000000E-03 0. -1.
</event>
<event>
 8    1  0.1054833E+005  0.1043930E+01  0.7957747E-01            NaN
         13   -1    0    0    0    0  0.00000000000E+00  0.00000000000E+00  0.74505805969E-08  0.10566000000E+00  0.10566000000E+00 0.  1.
     999900   -1    0    0    0    0 -0.00000000000E+00 -0.00000000000E+00 -0.74505805969E-08  0.93827000000E+00  0.93827000000E+00 0.  1.
     999902    2    1    2    0    0 -0.21321141279E-01 -0.85427909023E-02 -0.58438285916E-02  0.10202293529E+01  0.10199540243E+01 0.  0.
     999903    2    3    3    0    0  0.68490053524E-01 -0.10743908234E+00  0.14858229961E-01  0.12990632026E+00  0.20514414410E-01 0.  0.
         14    1    1    2    0    0  0.21321141279E-01  0.85427909023E-02  0.58438285916E-02  0.23700647131E-01  0.00000000000E+00 0.  1.
     999901    1    3    3    0    0 -0.89811194803E-01  0.98896291440E-01 -0.20702058553E-01  0.89032303261E+00  0.88000000000E+00 0. -1.
        -11    1    4    4    0    0  0.38961279221E-01 -0.44240826307E-01  0.20988737407E-02  0.58990663523E-01  0.51100000000E-03 0.  1.
         11    1    4    4    0    0  0.29528774302E-01 -0.63198256035E-01  0.12759356221E-01  0.70915656733E-01  0.51100000000E-03 0. -1.
</event>
<event>
 8    1  0.1054833E+005  0.1043930E+01  0.7957747E-01            NaN
         13   -1    0    0    0    0  0.00000000000E+00  0.00000000000E+00  0.74505805969E-08  0.10566000000E+00  0.10566000000E+00 0.  1.
     999900   -1    0    0    0    0 -0.00000000000E+00 -0.00000000000E+00 -0.74505805969E-08  0.93827000000E+00  0.93827000000E+00 0.  1.
     999902    2    1    2    0    0 -0.21927573096E-01  0.46106576781E-02 -0.82756132360E-02  0.10200435519E+01  0.10197638381E+01 0.  0.
     999903    2    3    3    0    0  0.43476592519E-01  0.96147860774E-01 -0.73979521655E-01  0.13045164101E+00  0.20249340452E-01 0.  0.
         14    1    1    2    0    0  0.21927573096E-01 -0.46106576781E-02  0.82756132360E-02  0.23886448051E-01  0.00000000000E+00 0.  1.
     999901    1    3    3    0    0 -0.65404165614E-01 -0.91537203096E-01  0.65703908419E-01  0.88959191094E+00  0.88000000000E+00 0. -1.
        -11    1    4    4    0    0  0.12713509332E-01  0.23355039721E-01 -0.29685578557E-01  0.39857068321E-01  0.51100000000E-03 0. -1.
         11    1    4    4    0    0  0.30763083187E-01  0.72792821053E-01 -0.44293943098E-01  0.90594572686E-01  0.51100000000E-03 0.  1.
</event>
<event>
 8    1  0.1054833E+005  0.1043930E+01  0.7957747E-01            NaN
         13   -1    0    0    0    0  0.00000000000E+00  0.00000000000E+00  0.74505805969E-08  0.10566000000E+00  0.10566000000E+00 0. -1.
     999900   -1    0    0    0    0 -0.00000000000E+00 -0.00000000000E+00 -0.74505805969E-08  0.93827000000E+00  0.93827000000E+00 0. -1.
     999902    2    1    2    0    0  0.84120043289E-02 -0.21850765312E-01  0.32135919875E-02  0.10202964447E+01  0.10200226910E+01 0.  0.
     999903    2    3    3    0    0 -0.57380559871E-01  0.11102456668E+00 -0.16415085829E-01  0.12767681669E+00  0.20320714039E-01 0.  0.
         14    1    1    2    0    0 -0.84120043289E-02  0.21850765312E-01 -0.32135919875E-02  0.23633555276E-01  0.00000000000E+00 0.  1.
     999901    1    3    3    0    0  0.65792564200E-01 -0.13287533200E+00  0.19628677816E-01  0.89261962803E+00  0.88000000000E+00 0.  1.
        -11    1    4    4    0    0 -0.44215583084E-01  0.65387146199E-01 -0.13547388664E-01  0.80089259805E-01  0.51100000000E-03 0. -1.
         11    1    4    4    0    0 -0.13164976787E-01  0.45637420485E-01 -0.28676971641E-02  0.47587556886E-01  0.51100000000E-03 0.  1.
</event>
<event>
 8    1  0.1054833E+005  0.1043930E+01  0.7957747E-01            NaN
         13   -1    0    0    0    0  0.00000000000E+00  0.00000000000E+00  0.74505805969E-08  0.10566000000E+00  0.10566000000E+00 0. -1.
     999900   -1    0    0    0    0 -0.00000000000E+00 -0.00000000000E+00 -0.74505805969E-08  0.93827000000E+00  0.93827000000E+00 0. -1.
     999902    2    1    2    0    0  0.10027005347E-01 -0.23989103745E-02  0.25618366208E-01  0.10163148539E+01  0.10159396074E+01 0.  0.
     999903    2    3    3    0    0  0.36242992444E-01  0.54242640634E-01  0.11080029391E+00  0.13000141945E+00  0.19179295177E-01 0.  0.
         14    1    1    2    0    0 -0.10027005347E-01  0.23989103745E-02 -0.25618366208E-01  0.27615146105E-01  0.00000000000E+00 0.  1.
     999901    1    3    3    0    0 -0.26215987097E-01 -0.56641551009E-01 -0.85181927700E-01  0.88631343445E+00  0.88000000000E+00 0. -1.
        -11    1    4    4    0    0  0.99955132253E-02  0.20751337383E-01  0.56474355632E-01  0.60992968881E-01  0.51100000000E-03 0. -1.
         11    1    4    4    0    0  0.26247479219E-01  0.33491303251E-01  0.54325938276E-01  0.69008450565E-01  0.51100000000E-03 0.  1.
</event>
<event>
 8    1  0.1054833E+005  0.1043930E+01  0.7957747E-01            NaN
         13   -1    0    0    0    0  0.00000000000E+00  0.00000000000E+00  0.74505805969E-08  0.10566000000E+00  0.10566000000E+00 0. -1.
     999900   -1    0    0    0    0 -0.00000000000E+00 -0.00000000000E+00 -0.74505805969E-08  0.93827000000E+00  0.93827000000E+00 0.  1.
     999902    2    1    2    0    0  0.45681770644E-03 -0.19369379823E-01  0.75771919657E-02  0.10231262649E+01  0.10229147367E+01 0.  0.
     999903    2    3    3    0    0  0.11629632008E+00  0.32605195342E-01 -0.49675861318E-01  0.13217280992E+00  0.20347669575E-01 0.  0.
         14    1    1    2    0    0 -0.45681770644E-03  0.19369379823E-01 -0.75771919657E-02  0.20803735126E-01  0.00000000000E+00 0.  1.
     999901    1    3    3    0    0 -0.11583950238E+00 -0.51974575165E-01  0.57253053284E-01  0.89095345495E+00  0.88000000000E+00 0.  1.
        -11    1    4    4    0    0  0.66185202887E-01  0.95568716579E-02 -0.21576777161E-01  0.70268295203E-01  0.51100000000E-03 0.  1.
         11    1    4    4    0    0  0.50111117198E-01  0.23048323684E-01 -0.28099084157E-01  0.61904514722E-01  0.51100000000E-03 0. -1.
</event>
<event>
 8    1  0.1054833E+005  0.1043930E+01  0.7957747E-01            NaN
         13   -1    0    0    0    0  0.00000000000E+00  0.00000000000E+00  0.74505805969E-08  0.10566000000E+00  0.10566000000E+00 0. -1.
     999900   -1    0    0    0    0 -0.00000000000E+00 -0.00000000000E+00 -0.74505805969E-08  0.93827000000E+00  0.93827000000E+00 0. -1.
     999902    2    1    2    0    0 -0.15933918151E-01  0.14523932999E-01  0.79650906197E-02  0.10209457218E+01  0.10206869695E+01 0.  0.
     999903    2    3    3    0    0  0.42348113855E-01  0.10512114986E+00  0.65632837454E-01  0.13250314063E+00  0.20139365143E-01 0.  0.
         14    1    1    2    0    0  0.15933918151E-01 -0.14523932999E-01 -0.79650906197E-02  0.22984278235E-01  0.00000000000E+00 0.  1.
     999901    1    3    3    0    0 -0.58282032006E-01 -0.90597216860E-01 -0.57667746834E-01  0.88844258114E+00  0.88000000000E+00 0. -1.
        -11    1    4    4    0    0  0.30859083124E-01  0.91393534855E-01  0.49610829368E-01  0.10847376059E+00  0.51100000000E-03 0. -1.
         11    1    4    4    0    0  0.11489030731E-01  0.13727615004E-01  0.16022008086E-01  0.24029380037E-01  0.51100000000E-03 0.  1.
</event>
<event>
 8    1  0.1054833E+005  0.1043930E+01  0.7957747E-01            NaN
         13   -1    0    0    0    0  0.00000000000E+00  0.00000000000E+00  0.74505805969E-08  0.10566000000E+00  0.10566000000E+00 0. -1.
     999900   -1    0    0    0    0 -0.00000000000E+00 -0.00000000000E+00 -0.74505805969E-08  0.93827000000E+00  0.93827000000E+00 0.  1.
     999902    2    1    2    0    0 -0.17505322949E-01  0.88546374877E-02 -0.10043858596E-01  0.10218909430E+01  0.10216532579E+01 0.  0.
     999903    2    3    3    0    0  0.10718874156E+00  0.23200177714E-01 -0.68847235422E-01  0.13104177433E+00  0.20107964388E-01 0.  0.
         14    1    1    2    0    0  0.17505322949E-01 -0.88546374877E-02  0.10043858596E-01  0.22039056970E-01  0.00000000000E+00 0. -1.
     999901    1    3    3    0    0 -0.12469406451E+00 -0.14345540226E-01  0.58803376826E-01  0.89084916870E+00  0.88000000000E+00 0.  1.
        -11    1    4    4    0    0  0.92004191715E-01  0.26196668317E-01 -0.62707395605E-01  0.11438319504E+00  0.51100000000E-03 0.  1.
         11    1    4    4    0    0  0.15184549842E-01 -0.29964906032E-02 -0.61398398175E-02  0.16658579286E-01  0.51100000000E-03 0. -1.
</event>
<event>
 8    1  0.1054833E+005  0.1043930E+01  0.7957747E-01            NaN
         13   -1    0    0    0    0  0.00000000000E+00  0.00000000000E+00  0.74505805969E-08  0.10566000000E+00  0.10566000000E+00 0.  1.
     999900   -1    0    0    0    0 -0.00000000000E+00 -0.00000000000E+00 -0.74505805969E-08  0.93827000000E+00  0.93827000000E+00 0. -1.
     999902    2    1    2    0    0 -0.33614200552E-02  0.20567218832E-01  0.10506064055E-01  0.10205914693E+01  0.10203245857E+01 0.  0.
     999903    2    3    3    0    0  0.30721374729E-01 -0.11865378080E+00 -0.30658889306E-01  0.12804529285E+00  0.20811222079E-01 0.  0.
         14    1    1    2    0    0  0.33614200552E-02 -0.20567218832E-01 -0.10506064055E-01  0.23338530742E-01  0.00000000000E+00 0.  1.
     999901    1    3    3    0    0 -0.34082794785E-01  0.13922099963E+00  0.41164953361E-01  0.89254617641E+00  0.88000000000E+00 0. -1.
        -11    1    4    4    0    0  0.15336715417E-01 -0.73825847560E-01 -0.28463943037E-01  0.80597318702E-01  0.51100000000E-03 0.  1.
         11    1    4    4    0    0  0.15384659312E-01 -0.44827933237E-01 -0.21949462695E-02  0.47447974147E-01  0.51100000000E-03 0. -1.
</event>
<event>
 8    1  0.1054833E+005  0.1043930E+01  0.7957747E-01            NaN
         13   -1    0    0    0    0  0.00000000000E+00  0.00000000000E+00  0.74505805969E-08  0.10566000000E+00  0.10566000000E+00 0. -1.
     999900   -1    0    0    0    0 -0.00000000000E+00 -0.00000000000E+00 -0.74505805969E-08  0.93827000000E+00  0.93827000000E+00 0.  1.
     999902    2    1    2    0    0 -0.20049322937E-01  0.11186404509E-01 -0.87510909854E-02  0.10193598435E+01  0.10190636869E+01 0.  0.
     999903    2    3    3    0    0  0.11379234364E+00 -0.27949950335E-01 -0.47523288074E-01  0.12753669443E+00  0.16650775452E-01 0.  0.
         14    1    1    2    0    0  0.20049322937E-01 -0.11186404509E-01  0.87510909854E-02  0.24570156481E-01  0.00000000000E+00 0. -1.
     999901    1    3    3    0    0 -0.13384166657E+00  0.39136354845E-01  0.38772197088E-01  0.89182314909E+00  0.88000000000E+00 0. -1.
        -11    1    4    4    0    0  0.69762298969E-01 -0.18268188402E-01 -0.37771885801E-01  0.81409345550E-01  0.51100000000E-03 0.  1.
         11    1    4    4    0    0  0.44030044667E-01 -0.96817619339E-02 -0.97514022729E-02  0.46127348881E-01  0.51100000000E-03 0. -1.
</event>
<event>
 8    1  0.1054833E+005  0.1043930E+01  0.7957747E-01            NaN
         13   -1    0    0    0    0  0.00000000000E+00  0.00000000000E+00  0.74505805969E-08  0.10566000000E+00  0.10566000000E+00 0.  1.
     999900   -1    0    0    0    0 -0.00000000000E+00 -0.00000000000E+00 -0.74505805969E-08  0.93827000000E+00  0.93827000000E+00 0.  1.
     999902    2    1    2    0    0 -0.32991330122E-02 -0.23076639633E-01 -0.66333562104E-02  0.10196933131E+01  0.10194052363E+01 0.  0.
     999903    2    3    3    0    0  0.42275135010E-01 -0.69161256512E-01 -0.10231681096E+00  0.13213704488E+00  0.20518342540E-01 0.  0.
         14    1    1    2    0    0  0.32991330122E-02  0.23076639633E-01  0.66333562104E-02  0.24236686861E-01  0.00000000000E+00 0. -1.
     999901    1    3    3    0    0 -0.45574268022E-01  0.46084616879E-01  0.95683454752E-01  0.88755626826E+00  0.88000000000E+00 0. -1.
        -11    1    4    4    0    0  0.24648784282E-01 -0.23380385174E-01 -0.49622487114E-01  0.60140313650E-01  0.51100000000E-03 0. -1.
         11    1    4    4    0    0  0.17626350728E-01 -0.45780871338E-01 -0.52694323848E-01  0.71996731227E-01  0.51100000000E-03 0.  1.
</event>
<event>
 8    1  0.1054833E+005  0.1043930E+01  0.7957747E-01            NaN
         13   -1    0    0    0    0  0.00000000000E+00  0.00000000000E+00  0.74505805969E-08  0.10566000000E+00  0.10566000000E+00 0. -1.
     999900   -1    0    0    0    0 -0.00000000000E+00 -0.00000000000E+00 -0.74505805969E-08  0.93827000000E+00  0.93827000000E+00 0.  1.
     999902    2    1    2    0    0  0.17438405632E-01  0.68916729933E-02 -0.14637809960E-01  0.10201422168E+01  0.10198648361E+01 0.  0.
     999903    2    3    3    0    0  0.11211934089E+00  0.15019036713E-01  0.63990501806E-01  0.13154053725E+00  0.20293115891E-01 0.  0.
         14    1    1    2    0    0 -0.17438405632E-01 -0.68916729933E-02  0.14637809960E-01  0.23787783168E-01  0.00000000000E+00 0. -1.
     999901    1    3    3    0    0 -0.94680935262E-01 -0.81273637193E-02 -0.78628311766E-01  0.88860167958E+00  0.88000000000E+00 0.  1.
        -11    1    4    4    0    0  0.10372186144E-01 -0.41817096397E-02  0.85614168737E-02  0.14093541812E-01  0.51100000000E-03 0. -1.
         11    1    4    4    0    0  0.10174715475E+00  0.19200746352E-01  0.55429084933E-01  0.11744699544E+00  0.51100000000E-03 0.  1.
</event>
<event>
 8    1  0.1054833E+005  0.1043930E+01  0.7957747E-01            NaN
         13   -1    0    0    0    0  0.00000000000E+00  0.00000000000E+00  0.74505805969E-08  0.10566000000E+00  0.10566000000E+00 0.  1.
     999900   -1    0    0    0    0 -0.00000000000E+00 -0.00000000000E+00 -0.74505805969E-08  0.93827000000E+00  0.93827000000E+00 0. -1.
     999902    2    1    2    0    0 -0.10704982989E-01  0.21279434644E-01  0.10044820811E-03  0.10201093978E+01  0.10198312421E+01 0.  0.
     999903    2    3    3    0    0 -0.67553209035E-01  0.11210375684E+00  0.16843264021E-01  0.13345213583E+00  0.19876837452E-01 0.  0.
         14    1    1    2    0    0  0.10704982989E-01 -0.21279434644E-01 -0.10044820811E-03  0.23820602205E-01  0.00000000000E+00 0.  1.
     999901    1    3    3    0    0  0.56848226046E-01 -0.90824322197E-01 -0.16742815813E-01  0.88665726196E+00  0.88000000000E+00 0. -1.
        -11    1    4    4    0    0 -0.29438983887E-01  0.45988603330E-01  0.16811992588E-01  0.57135887359E-01  0.51100000000E-03 0.  1.
         11    1    4    4    0    0 -0.38114225148E-01  0.66115153511E-01  0.31271433137E-04  0.76316248475E-01  0.51100000000E-03 0. -1.
</event>
<event>
 8    1  0.1054833E+005  0.1043930E+01  0.7957747E-01            NaN
         13   -1    0    0    0    0  0.00000000000E+00  0.00000000000E+00  0.74505805969E-08  0.10566000000E+00  0.10566000000E+00 0.  1.
     999900   -1    0    0    0    0 -0.00000000000E+00 -0.00000000000E+00 -0.74505805969E-08  0.93827000000E+00  0.93827000000E+00 0.  1.
     999902    2    1    2    0    0 -0.22484741011E-02 -0.23368758755E-01  0.28933803456E-03  0.10204515367E+01  0.10201814057E+01 0.  0.
     999903    2    3    3    0    0  0.86432122602E-01  0.92588692728E-01  0.10293898754E-01  0.12836943847E+00  0.18154077843E-01 0.  0.
         14    1    1    2    0    0  0.22484741011E-02  0.23368758755E-01 -0.28933803456E-03  0.23478463281E-01  0.00000000000E+00 0.  1.
     999901    1    3    3    0    0 -0.88680596703E-01 -0.11595745148E+00 -0.10004560719E-01  0.89208209825E+00  0.88000000000E+00 0. -1.
        -11    1    4    4    0    0  0.12811613681E-01  0.99548232977E-02 -0.41574727695E-02  0.16756540599E-01  0.51100000000E-03 0. -1.
         11    1    4    4    0    0  0.73620508920E-01  0.82633869430E-01  0.14451371523E-01  0.11161289787E+00  0.51100000000E-03 0.  1.
</event>
<event>
 8    1  0.1054833E+005  0.1043930E+01  0.7957747E-01            NaN
         13   -1    0    0    0    0  0.00000000000E+00  0.00000000000E+00  0.74505805969E-08  0.10566000000E+00  0.10566000000E+00 0. -1.
     999900   -1    0    0    0    0 -0.00000000000E+00 -0.00000000000E+00 -0.74505805969E-08  0.93827000000E+00  0.93827000000E+00 0.  1.
     999902    2    1    2    0    0  0.22007855138E-01  0.95512776504E-02  0.14523966899E-01  0.10158850681E+01  0.10154978844E+01 0.  0.
     999903    2    3    3    0    0  0.11049004058E+00 -0.40934972133E-01 -0.45737337522E-01  0.12796086896E+00  0.19958931087E-01 0.  0.
         14    1    1    2    0    0 -0.22007855138E-01 -0.95512776504E-02 -0.14523966899E-01  0.28044931931E-01  0.00000000000E+00 0.  1.
     999901    1    3    3    0    0 -0.88482185440E-01  0.50486249783E-01  0.60261304420E-01  0.88792419911E+00  0.88000000000E+00 0. -1.
        -11    1    4    4    0    0  0.38192390905E-01 -0.82036488469E-02 -0.71573934606E-02  0.39717099335E-01  0.51100000000E-03 0. -1.
         11    1    4    4    0    0  0.72297649674E-01 -0.32731323286E-01 -0.38579944061E-01  0.88243769623E-01  0.51100000000E-03 0.  1.
</event>
<event>
 8    1  0.1054833E+005  0.1043930E+01  0.7957747E-01            NaN
         13   -1    0    0    0    0  0.00000000000E+00  0.00000000000E+00  0.74505805969E-08  0.10566000000E+00  0.10566000000E+00 0.  1.
     999900   -1    0    0    0    0 -0.00000000000E+00 -0.00000000000E+00 -0.74505805969E-08  0.93827000000E+00  0.93827000000E+00 0. -1.
     999902    2    1    2    0    0 -0.21748548424E-01  0.33952834977E-02 -0.78690512126E-02  0.10205537455E+01  0.10202859884E+01 0.  0.
     999903    2    3    3    0    0  0.70698786491E-01  0.66645969804E-01  0.82382906919E-01  0.12887410850E+00  0.19534297708E-01 0.  0.
         14    1    1    2    0    0  0.21748548424E-01 -0.33952834977E-02  0.78690512126E-02  0.23376254524E-01  0.00000000000E+00 0. -1.
     999901    1    3    3    0    0 -0.92447334915E-01 -0.63250686306E-01 -0.90251958131E-01  0.89167963698E+00  0.88000000000E+00 0. -1.
        -11    1    4    4    0    0  0.50473546933E-01  0.34770451261E-01  0.48848098173E-01  0.78377044069E-01  0.51100000000E-03 0. -1.
         11    1    4    4    0    0  0.20225239558E-01  0.31875518543E-01  0.33534808746E-01  0.50497064431E-01  0.51100000000E-03 0.  1.
</event>
<event>
 8    1  0.1054833E+005  0.1043930E+01  0.7957747E-01            NaN
         13   -1    0    0    0    0  0.00000000000E+00  0.00000000000E+00  0.74505805969E-08  0.10566000000E+00  0.10566000000E+00 0.  1.
     999900   -1    0    0    0    0 -0.00000000000E+00 -0.00000000000E+00 -0.74505805969E-08  0.93827000000E+00  0.93827000000E+00 0. -1.
     999902    2    1    2    0    0 -0.12598914852E-02  0.19070320797E-01  0.13939963862E-01  0.10202744075E+01  0.10200001371E+01 0.  0.
     999903    2    3    3    0    0 -0.91339033623E-01 -0.85447516085E-01 -0.23101837121E-01  0.12875305329E+00  0.19988916554E-01 0.  0.
         14    1    1    2    0    0  0.12598914852E-02 -0.19070320797E-01 -0.13939963862E-01  0.23655592453E-01  0.00000000000E+00 0. -1.
     999901    1    3    3    0    0  0.90079142138E-01  0.10451783688E+00  0.37041800983E-01  0.89152135426E+00  0.88000000000E+00 0.  1.
        -11    1    4    4    0    0 -0.66292770346E-01 -0.51952914805E-01 -0.21347556306E-01  0.86889677397E-01  0.51100000000E-03 0.  1.
         11    1    4    4    0    0 -0.25046263277E-01 -0.33494601280E-01 -0.17542808147E-02  0.41863375894E-01  0.51100000000E-03 0. -1.
</event>
<event>
 8    1  0.1054833E+005  0.1043930E+01  0.7957747E-01            NaN
         13   -1    0    0    0    0  0.00000000000E+00  0.00000000000E+00  0.74505805969E-08  0.10566000000E+00  0.10566000000E+00 0.  1.
     999900   -1    0    0    0    0 -0.00000000000E+00 -0.00000000000E+00 -0.74505805969E-08  0.93827000000E+00  0.93827000000E+00 0. -1.
     999902    2    1    2    0    0  0.23105231776E-01 -0.44727171227E-02  0.29386391243E-02  0.10202130750E+01  0.10199373636E+01 0.  0.
     999903    2    3    3    0    0 -0.89066454379E-01  0.23751683112E-01 -0.86700645674E-01  0.12812882707E+00  0.20075323629E-01 0.  0.
         14    1    1    2    0    0 -0.23105231776E-01  0.44727171227E-02 -0.29386391243E-02  0.23716925050E-01  0.00000000000E+00 0.  1.
     999901    1    3    3    0    0  0.11217168616E+00 -0.28224400235E-01  0.89639284799E-01  0.89208424788E+00  0.88000000000E+00 0.  1.
        -11    1    4    4    0    0 -0.27177906690E-01  0.37864783456E-02 -0.14799114374E-01  0.31180938690E-01  0.51100000000E-03 0.  1.
         11    1    4    4    0    0 -0.61888547688E-01  0.19965204767E-01 -0.71901531300E-01  0.96947888376E-01  0.51100000000E-03 0. -1.
</event>
<event>
 8    1  0.1054833E+005  0.1043930E+01  0.7957747E-01            NaN
         13   -1    0    0    0    0  0.00000000000E+00  0.00000000000E+00  0.74505805969E-08  0.10566000000E+00  0.10566000000E+00 0. -1.
     999900   -1    0    0    0    0 -0.00000000000E+00 -0.00000000000E+00 -0.74505805969E-08  0.93827000000E+00  0.93827000000E+00 0.  1.
     999902    2    1    2    0    0  0.10415194436E-01 -0.63775111081E-02  0.20428193917E-01  0.10201295792E+01  0.10198519002E+01 0.  0.
     999903    2    3    3    0    0 -0.45779947836E-01  0.21055530763E-01  0.12007399269E+00  0.13230090710E+00  0.23380062023E-01 0.  0.
         14    1    1    2    0    0 -0.10415194436E-01  0.63775111081E-02 -0.20428193917E-01  0.23800420790E-01  0.00000000000E+00 0.  1.
     999901    1    3    3    0    0  0.56195142271E-01 -0.27433041872E-01 -0.99645798773E-01  0.88782867211E+00  0.88000000000E+00 0.  1.
        -11    1    4    4    0    0 -0.23974936098E-01 -0.96636043071E-03  0.43299661186E-01  0.49506092486E-01  0.51100000000E-03 0. -1.
         11    1    4    4    0    0 -0.21805011738E-01  0.22021891194E-01  0.76774331504E-01  0.82794814618E-01  0.51100000000E-03 0.  1.
</event>
<event>
 8    1  0.1054833E+005  0.1043930E+01  0.7957747E-01            NaN
         13   -1    0    0    0    0  0.00000000000E+00  0.00000000000E+00  0.74505805969E-08  0.10566000000E+00  0.10566000000E+00 0. -1.
     999900   -1    0    0    0    0 -0.00000000000E+00 -0.00000000000E+00 -0.74505805969E-08  0.93827000000E+00  0.93827000000E+00 0. -1.
     999902    2    1    2    0    0  0.12574745835E-01 -0.99327399461E-02 -0.17722662347E-01  0.10200369818E+01  0.10197571123E+01 0.  0.
     999903    2    3    3    0    0  0.64455762509E-01  0.61531196559E-01  0.90970719346E-01  0.12896291908E+00  0.20374720841E-01 0.  0.
         14    1    1    2    0    0 -0.12574745835E-01  0.99327399461E-02  0.17722662347E-01  0.23893018150E-01  0.00000000000E+00 0. -1.
     999901    1    3    3    0    0 -0.51881016674E-01 -0.71463936505E-01 -0.10869338169E+00  0.89107406277E+00  0.88000000000E+00 0. -1.
        -11    1    4    4    0    0  0.32648583549E-01  0.44370245193E-01  0.50993807587E-01  0.75068490057E-01  0.51100000000E-03 0. -1.
         11    1    4    4    0    0  0.31807178960E-01  0.17160951366E-01  0.39976911759E-01  0.53894429026E-01  0.51100000000E-03 0.  1.
</event>
<event>
 8    1  0.1054833E+005  0.1043930E+01  0.7957747E-01            NaN
         13   -1    0    0    0    0  0.00000000000E+00  0.00000000000E+00  0.74505805969E-08  0.10566000000E+00  0.10566000000E+00 0. -1.
     999900   -1    0    0    0    0 -0.00000000000E+00 -0.00000000000E+00 -0.74505805969E-08  0.93827000000E+00  0.93827000000E+00 0. -1.
     999902    2    1    2    0    0 -0.12556623352E-01 -0.16461993831E-01 -0.12162126055E-01  0.10199178501E+01  0.10196351493E+01 0.  0.
     999903    2    3    3    0    0  0.11507049705E+00 -0.56058807565E-01 -0.70674336962E-02  0.12981530244E+00  0.20451281911E-01 0.  0.
         14    1    1    2    0    0  0.12556623352E-01  0.16461993831E-01  0.12162126055E-01  0.24012149863E-01  0.00000000000E+00 0.  1.
     999901    1    3    3    0    0 -0.12762712040E+00  0.39596813734E-01 -0.50946923587E-02  0.89010254769E+00  0.88000000000E+00 0.  1.
        -11    1    4    4    0    0  0.69899418784E-01 -0.38537135263E-01  0.46834444677E-02  0.79957709533E-01  0.51100000000E-03 0. -1.
         11    1    4    4    0    0  0.45171078268E-01 -0.17521672302E-01 -0.11750878164E-01  0.49857592910E-01  0.51100000000E-03 0.  1.
</event>
<event>
 8    1  0.1054833E+005  0.1043930E+01  0.7957747E-01            NaN
         13   -1    0    0    0    0  0.00000000000E+00  0.00000000000E+00  0.74505805969E-08  0.10566000000E+00  0.10566000000E+00 0.  1.
     999900   -1    0    0    0    0 -0.00000000000E+00 -0.00000000000E+00 -0.74505805969E-08  0.93827000000E+00  0.93827000000E+00 0. -1.
     999902    2    1    2    0    0 -0.54900453333E-02  0.22185203798E-01  0.18101996879E-02  0.10210040172E+01  0.10207465907E+01 0.  0.
     999903    2    3    3    0    0 -0.74741087166E-02 -0.75355879536E-01 -0.10296975642E+00  0.12943403190E+00  0.20396739831E-01 0.  0.
         14    1    1    2    0    0  0.54900453333E-02 -0.22185203798E-01 -0.18101996879E-02  0.22925982819E-01  0.00000000000E+00 0. -1.
     999901    1    3    3    0    0  0.19840633833E-02  0.97541083334E-01  0.10477995611E+00  0.89156998528E+00  0.88000000000E+00 0.  1.
        -11    1    4    4    0    0 -0.81556114977E-02 -0.55620430885E-01 -0.60455604968E-01  0.82554755307E-01  0.51100000000E-03 0. -1.
         11    1    4    4    0    0  0.68150278108E-03 -0.19735448651E-01 -0.42514151453E-01  0.46879276597E-01  0.51100000000E-03 0.  1.
</event>
<event>
 8    1  0.1054833E+005  0.1043930E+01  0.7957747E-01            NaN
         13   -1    0    0    0    0  0.00000000000E+00  0.00000000000E+00  0.74505805969E-08  0.10566000000E+00  0.10566000000E+00 0. -1.
     999900   -1    0    0    0    0 -0.00000000000E+00 -0.00000000000E+00 -0.74505805969E-08  0.93827000000E+00  0.93827000000E+00 0.  1.
     999902    2    1    2    0    0  0.15330906429E-01 -0.16666970868E-01  0.69809858627E-02  0.10202327687E+01  0.10199575204E+01 0.  0.
     999903    2    3    3    0    0  0.37217181004E-01 -0.99443212537E-01 -0.76181224811E-01  0.13217484910E+00  0.19812638370E-01 0.  0.
         14    1    1    2    0    0 -0.15330906429E-01  0.16666970868E-01 -0.69809858627E-02  0.23697231346E-01  0.00000000000E+00 0. -1.
     999901    1    3    3    0    0 -0.21886274575E-01  0.82776241668E-01  0.83162210674E-01  0.88805791955E+00  0.88000000000E+00 0. -1.
        -11    1    4    4    0    0  0.18726635790E-01 -0.25476143172E-01 -0.25489475360E-01  0.40616440440E-01  0.51100000000E-03 0.  1.
         11    1    4    4    0    0  0.18490545214E-01 -0.73967069365E-01 -0.50691749451E-01  0.91558408659E-01  0.51100000000E-03 0. -1.
</event>
<event>
 8    1  0.1054833E+005  0.1043930E+01  0.7957747E-01            NaN
         13   -1    0    0    0    0  0.00000000000E+00  0.00000000000E+00  0.74505805969E-08  0.10566000000E+00  0.10566000000E+00 0.  1.
     999900   -1    0    0    0    0 -0.00000000000E+00 -0.00000000000E+00 -0.74505805969E-08  0.93827000000E+00  0.93827000000E+00 0.  1.
     999902    2    1    2    0    0  0.45273760115E-02  0.57019782604E-02 -0.22054265717E-01  0.10207050064E+01  0.10204407429E+01 0.  0.
     999903    2    3    3    0    0 -0.29192624482E-01 -0.10932658842E+00  0.58106012230E-01  0.12896834141E+00  0.21260577838E-01 0.  0.
         14    1    1    2    0    0 -0.45273760115E-02 -0.57019782604E-02  0.22054265717E-01  0.23224993562E-01  0.00000000000E+00 0. -1.
     999901    1    3    3    0    0  0.33720000493E-01  0.11502856668E+00 -0.80160277948E-01  0.89173666502E+00  0.88000000000E+00 0.  1.
        -11    1    4    4    0    0 -0.26310315414E-01 -0.64984243929E-01  0.29153490839E-01  0.75930045472E-01  0.51100000000E-03 0. -1.
         11    1    4    4    0    0 -0.28823090673E-02 -0.44342344492E-01  0.28952521391E-01  0.53038295942E-01  0.51100000000E-03 0.  1.
</event>
<event>
 8    1  0.1054833E+005  0.1043930E+01  0.7957747E-01            NaN
         13   -1    0    0    0    0  0.00000000000E+00  0.00000000000E+00  0.74505805969E-08  0.10566000000E+00  0.10566000000E+00 0.  1.
     999900   -1    0    0    0    0 -0.00000000000E+00 -0.00000000000E+00 -0.74505805969E-08  0.93827000000E+00  0.93827000000E+00 0. -1.
     999902    2    1    2    0    0 -0.61841179818E-02 -0.22895884007E-01 -0.61271787363E-02  0.10194349568E+01  0.10191406302E+01 0.  0.
     999903    2    3    3    0    0 -0.44738997707E-01 -0.47157093864E-01  0.11126080906E+00  0.13047206407E+00  0.20460265211E-01 0.  0.
         14    1    1    2    0    0  0.61841179818E-02  0.22895884007E-01  0.61271787363E-02  0.24495043150E-01  0.00000000000E+00 0.  1.
     999901    1    3    3    0    0  0.38554879725E-01  0.24261209857E-01 -0.11738798780E+00  0.88896289278E+00  0.88000000000E+00 0. -1.
        -11    1    4    4    0    0 -0.22832068536E-01 -0.35540061535E-01  0.58356327088E-01  0.72042496901E-01  0.51100000000E-03 0.  1.
         11    1    4    4    0    0 -0.21906929170E-01 -0.11617032329E-01  0.52904481975E-01  0.58429567172E-01  0.51100000000E-03 0. -1.
</event>
<event>
 8    1  0.1054833E+005  0.1043930E+01  0.7957747E-01            NaN
         13   -1    0    0    0    0  0.00000000000E+00  0.00000000000E+00  0.74505805969E-08  0.10566000000E+00  0.10566000000E+00 0.  1.
     999900   -1    0    0    0    0 -0.00000000000E+00 -0.00000000000E+00 -0.74505805969E-08  0.93827000000E+00  0.93827000000E+00 0.  1.
     999902    2    1    2    0    0 -0.12759989403E-01  0.12976808458E-01 -0.14901178678E-01  0.10204085202E+01  0.10201373868E+01 0.  0.
     999903    2    3    3    0    0  0.62778469711E-02  0.13020809095E+00 -0.12266935946E-01  0.13242622753E+00  0.19815895373E-01 0.  0.
         14    1    1    2    0    0  0.12759989403E-01 -0.12976808458E-01  0.14901178678E-01  0.23521479828E-01  0.00000000000E+00 0.  1.
     999901    1    3    3    0    0 -0.19037836374E-01 -0.11723128249E+00 -0.26342427319E-02  0.88798229264E+00  0.88000000000E+00 0. -1.
        -11    1    4    4    0    0  0.12607351063E-01  0.61617160919E-01 -0.81123906486E-02  0.63416810260E-01  0.51100000000E-03 0. -1.
         11    1    4    4    0    0 -0.63295040919E-02  0.68590930031E-01 -0.41545452972E-02  0.69009417272E-01  0.51100000000E-03 0.  1.
</event>
<event>
 8    1  0.1054833E+005  0.1043930E+01  0.7957747E-01            NaN
         13   -1    0    0    0    0  0.00000000000E+00  0.00000000000E+00  0.74505805969E-08  0.10566000000E+00  0.10566000000E+00 0.  1.
     999900   -1    0    0    0    0 -0.00000000000E+00 -0.00000000000E+00 -0.74505805969E-08  0.93827000000E+00  0.93827000000E+00 0.  1.
     999902    2    1    2    0    0  0.18342610949E-01 -0.52597545126E-02 -0.14165026867E-01  0.10201652282E+01  0.10198883902E+01 0.  0.
     999903    2    3    3    0    0 -0.18639430863E-01  0.94497957654E-01 -0.86236963245E-01  0.13083197423E+00  0.20072350820E-01 0.  0.
         14    1    1    2    0    0 -0.18342610949E-01  0.52597545126E-02  0.14165026867E-01  0.23764771829E-01  0.00000000000E+00 0.  1.
     999901    1    3    3    0    0  0.36982041811E-01 -0.99757712166E-01  0.72071936379E-01  0.88933325394E+00  0.88000000000E+00 0. -1.
        -11    1    4    4    0    0  0.24107278031E-02  0.31859146795E-01 -0.33388582987E-01  0.46215532432E-01  0.51100000000E-03 0. -1.
         11    1    4    4    0    0 -0.21050158666E-01  0.62638810858E-01 -0.52848380258E-01  0.84616441798E-01  0.51100000000E-03 0.  1.
</event>
<event>
 8    1  0.1054833E+005  0.1043930E+01  0.7957747E-01            NaN
         13   -1    0    0    0    0  0.00000000000E+00  0.00000000000E+00  0.74505805969E-08  0.10566000000E+00  0.10566000000E+00 0. -1.
     999900   -1    0    0    0    0 -0.00000000000E+00 -0.00000000000E+00 -0.74505805969E-08  0.93827000000E+00  0.93827000000E+00 0.  1.
     999902    2    1    2    0    0 -0.92585931683E-02 -0.20753962067E-01 -0.21131142861E-02  0.10211064652E+01  0.10208513602E+01 0.  0.
     999903    2    3    3    0    0 -0.40160303339E-01 -0.12515721271E+00  0.18616111526E-01  0.13415401143E+00  0.19327734431E-01 0.  0.
         14    1    1    2    0    0  0.92585931683E-02  0.20753962067E-01  0.21131142861E-02  0.22823534803E-01  0.00000000000E+00 0.  1.
     999901    1    3    3    0    0  0.30901710170E-01  0.10440325064E+00 -0.20729225812E-01  0.88695245376E+00  0.88000000000E+00 0.  1.
        -11    1    4    4    0    0 -0.37395278266E-01 -0.10109410292E+00  0.92734994813E-02  0.10818818510E+00  0.51100000000E-03 0. -1.
         11    1    4    4    0    0 -0.27650250726E-02 -0.24063109790E-01  0.93426120443E-02  0.25965826335E-01  0.51100000000E-03 0.  1.
</event>
<event>
 8    1  0.1054833E+005  0.1043930E+01  0.7957747E-01            NaN
         13   -1    0    0    0    0  0.00000000000E+00  0.00000000000E+00  0.74505805969E-08  0.10566000000E+00  0.10566000000E+00 0.  1.
     999900   -1    0    0    0    0 -0.00000000000E+00 -0.00000000000E+00 -0.74505805969E-08  0.93827000000E+00  0.93827000000E+00 0. -1.
     999902    2    1    2    0    0 -0.20154826579E-01 -0.10382295740E-01  0.78278377886E-02  0.10199449183E+01  0.10196628620E+01 0.  0.
     999903    2    3    3    0    0 -0.93033403510E-01 -0.54373358089E-01 -0.73789527659E-01  0.13207787033E+00  0.19697543014E-01 0.  0.
         14    1    1    2    0    0  0.20154826579E-01  0.10382295740E-01 -0.78278377886E-02  0.23985081690E-01  0.00000000000E+00 0.  1.
     999901    1    3    3    0    0  0.72878576932E-01  0.43991062348E-01  0.81617365447E-01  0.88786704798E+00  0.88000000000E+00 0.  1.
        -11    1    4    4    0    0 -0.41717448538E-01 -0.33551869911E-01 -0.43310848739E-01  0.68863373621E-01  0.51100000000E-03 0. -1.
         11    1    4    4    0    0 -0.51315954972E-01 -0.20821488178E-01 -0.30478678920E-01  0.63214496711E-01  0.51100000000E-03 0.  1.
</event>
<event>
 8    1  0.1054833E+005  0.1043930E+01  0.7957747E-01            NaN
         13   -1    0    0    0    0  0.00000000000E+00  0.00000000000E+00  0.74505805969E-08  0.10566000000E+00  0.10566000000E+00 0.  1.
     999900   -1    0    0    0    0 -0.00000000000E+00 -0.00000000000E+00 -0.74505805969E-08  0.93827000000E+00  0.93827000000E+00 0.  1.
     999902    2    1    2    0    0  0.19329246592E-01 -0.23675354528E-01  0.10502426725E-01  0.10116121543E+01  0.10110957954E+01 0.  0.
     999903    2    3    3    0    0 -0.68082969109E-01 -0.49187681904E-01 -0.85696197034E-01  0.12169870369E+00  0.20298215685E-01 0.  0.
         14    1    1    2    0    0 -0.19329246592E-01  0.23675354528E-01 -0.10502426725E-01  0.32317845735E-01  0.00000000000E+00 0.  1.
     999901    1    3    3    0    0  0.87412215701E-01  0.25512327376E-01  0.96198623758E-01  0.88991345058E+00  0.88000000000E+00 0. -1.
        -11    1    4    4    0    0 -0.60840250524E-01 -0.38060785663E-01 -0.63481547748E-01  0.95814025668E-01  0.51100000000E-03 0.  1.
         11    1    4    4    0    0 -0.72427185856E-02 -0.11126896241E-01 -0.22214649285E-01  0.25884678022E-01  0.51100000000E-03 0. -1.
</event>
<event>
 8    1  0.1054833E+005  0.1043930E+01  0.7957747E-01            NaN
         13   -1    0    0    0    0  0.00000000000E+00  0.00000000000E+00  0.74505805969E-08  0.10566000000E+00  0.10566000000E+00 0. -1.
     999900   -1    0    0    0    0 -0.00000000000E+00 -0.00000000000E+00 -0.74505805969E-08  0.93827000000E+00  0.93827000000E+00 0. -1.
     999902    2    1    2    0    0 -0.12496636538E-01  0.18581834707E-01 -0.11838518895E-02  0.10215056380E+01  0.10212594756E+01 0.  0.
     999903    2    3    3    0    0  0.74574919617E-01 -0.10095452381E+00 -0.21422629250E-01  0.12893631016E+00  0.20307843759E-01 0.  0.
         14    1    1    2    0    0  0.12496636538E-01 -0.18581834707E-01  0.11838518895E-02  0.22424362000E-01  0.00000000000E+00 0.  1.
     999901    1    3    3    0    0 -0.87071556155E-01  0.11953635852E+00  0.20238777360E-01  0.89256932784E+00  0.88000000000E+00 0.  1.
        -11    1    4    4    0    0  0.64739897374E-01 -0.74725213632E-01 -0.20066588170E-01  0.10088627729E+00  0.51100000000E-03 0. -1.
         11    1    4    4    0    0  0.98350222428E-02 -0.26229310182E-01 -0.13560410791E-02  0.28050032862E-01  0.51100000000E-03 0.  1.
</event>
<event>
 8    1  0.1054833E+005  0.1043930E+01  0.7957747E-01            NaN
         13   -1    0    0    0    0  0.00000000000E+00  0.00000000000E+00  0.74505805969E-08  0.10566000000E+00  0.10566000000E+00 0. -1.
     999900   -1    0    0    0    0 -0.00000000000E+00 -0.00000000000E+00 -0.74505805969E-08  0.93827000000E+00  0.93827000000E+00 0. -1.
     999902    2    1    2    0    0  0.19863498994E-01  0.16338947378E-02  0.12965145257E-01  0.10201534738E+01  0.10198763587E+01 0.  0.
     999903    2    3    3    0    0  0.10324917420E+00  0.66592424151E-01 -0.43414075332E-01  0.13203670344E+00  0.21306482328E-01 0.  0.
         14    1    1    2    0    0 -0.19863498994E-01 -0.16338947378E-02 -0.12965145257E-01  0.23776526152E-01  0.00000000000E+00 0.  1.
     999901    1    3    3    0    0 -0.83385675209E-01 -0.64958529413E-01  0.56379220589E-01  0.88811677041E+00  0.88000000000E+00 0. -1.
        -11    1    4    4    0    0  0.86579612329E-01  0.52169666220E-01 -0.43351424224E-01  0.10998777408E+00  0.51100000000E-03 0. -1.
         11    1    4    4    0    0  0.16669561874E-01  0.14422757931E-01 -0.62651108167E-04  0.22048929352E-01  0.51100000000E-03 0.  1.
</event>
<event>
 8    1  0.1054833E+005  0.1043930E+01  0.7957747E-01            NaN
         13   -1    0    0    0    0  0.00000000000E+00  0.00000000000E+00  0.74505805969E-08  0.10566000000E+00  0.10566000000E+00 0. -1.
     999900   -1    0    0    0    0 -0.00000000000E+00 -0.00000000000E+00 -0.74505805969E-08  0.93827000000E+00  0.93827000000E+00 0. -1.
     999902    2    1    2    0    0 -0.14855880133E-01 -0.69164049140E-02 -0.17786920806E-01  0.10197451208E+01  0.10194582890E+01 0.  0.
     999903    2    3    3    0    0 -0.19666857925E-01  0.12219318076E+00 -0.34052249005E-01  0.13016263920E+00  0.21559180299E-01 0.  0.
         14    1    1    2    0    0  0.14855880133E-01  0.69164049140E-02  0.17786920806E-01  0.24184879227E-01  0.00000000000E+00 0. -1.
     999901    1    3    3    0    0  0.48109777916E-02 -0.12910958568E+00  0.16265328198E-01  0.88958248157E+00  0.88000000000E+00 0.  1.
        -11    1    4    4    0    0 -0.61976532737E-02  0.14641042366E-01 -0.11014094066E-01  0.19347930555E-01  0.51100000000E-03 0. -1.
         11    1    4    4    0    0 -0.13469204651E-01  0.10755213840E+00 -0.23038154938E-01  0.11081470864E+00  0.51100000000E-03 0.  1.
</event>
<event>
 8    1  0.1054833E+005  0.1043930E+01  0.7957747E-01            NaN
         13   -1    0    0    0    0  0.00000000000E+00  0.00000000000E+00  0.74505805969E-08  0.10566000000E+00  0.10566000000E+00 0. -1.
     999900   -1    0    0    0    0 -0.00000000000E+00 -0.00000000000E+00 -0.74505805969E-08  0.93827000000E+00  0.93827000000E+00 0. -1.
     999902    2    1    2    0    0 -0.14370956123E-01  0.59414056992E-02  0.17197331040E-01  0.10207443821E+01  0.10204810242E+01 0.  0.
     999903    2    3    3    0    0 -0.48593545482E-01  0.61540311174E-01 -0.10128005149E+00  0.13040775248E+00  0.24494703781E-01 0.  0.
         14    1    1    2    0    0  0.14370956123E-01 -0.59414056992E-02 -0.17197331040E-01  0.23185617880E-01  0.00000000000E+00 0.  1.
     999901    1    3    3    0    0  0.34222589360E-01 -0.55598905475E-01  0.11847738253E+00  0.89033662964E+00  0.88000000000E+00 0.  1.
        -11    1    4    4    0    0 -0.28911696395E-01  0.53197618056E-01 -0.70548668552E-01  0.92969072872E-01  0.51100000000E-03 0.  1.
         11    1    4    4    0    0 -0.19681849087E-01  0.83426931184E-02 -0.30731382943E-01  0.37438679605E-01  0.51100000000E-03 0. -1.
</event>
<event>
 8    1  0.1054833E+005  0.1043930E+01  0.7957747E-01            NaN
         13   -1    0    0    0    0  0.00000000000E+00  0.00000000000E+00  0.74505805969E-08  0.10566000000E+00  0.10566000000E+00 0. -1.
     999900   -1    0    0    0    0 -0.00000000000E+00 -0.00000000000E+00 -0.74505805969E-08  0.93827000000E+00  0.93827000000E+00 0.  1.
     999902    2    1    2    0    0 -0.15915428615E-01  0.10132119174E-01 -0.15779397550E-01  0.10193342668E+01  0.10190374857E+01 0.  0.
     999903    2    3    3    0    0  0.18078319578E-01 -0.88830931858E-01 -0.89352996118E-01  0.13008608160E+00  0.26845309052E-01 0.  0.
         14    1    1    2    0    0  0.15915428615E-01 -0.10132119174E-01  0.15779397550E-01  0.24595733247E-01  0.00000000000E+00 0. -1.
     999901    1    3    3    0    0 -0.33993748193E-01  0.98963051032E-01  0.73573598568E-01  0.88924818515E+00  0.88000000000E+00 0. -1.
        -11    1    4    4    0    0  0.24202139481E-01 -0.55291062352E-01 -0.54395000817E-01  0.81252214532E-01  0.51100000000E-03 0.  1.
         11    1    4    4    0    0 -0.61238199023E-02 -0.33539869505E-01 -0.34957995301E-01  0.48833867071E-01  0.51100000000E-03 0. -1.
</event>
<event>
 8    1  0.1054833E+005  0.1043930E+01  0.7957747E-01            NaN
         13   -1    0    0    0    0  0.00000000000E+00  0.00000000000E+00  0.74505805969E-08  0.10566000000E+00  0.10566000000E+00 0. -1.
     999900   -1    0    0    0    0 -0.00000000000E+00 -0.00000000000E+00 -0.74505805969E-08  0.93827000000E+00  0.93827000000E+00 0.  1.
     999902    2    1    2    0    0 -0.20834700211E-01  0.57399263602E-02  0.87220131981E-02  0.10206253867E+01  0.10203592872E+01 0.  0.
     999903    2    3    3    0    0 -0.54772149366E-01  0.10952792798E+00 -0.45928896860E-01  0.13219394774E+00  0.19220325151E-01 0.  0.
         14    1    1    2    0    0  0.20834700211E-01 -0.57399263602E-02 -0.87220131981E-02  0.23304613314E-01  0.00000000000E+00 0.  1.
     999901    1    3    3    0    0  0.33937449155E-01 -0.10378800162E+00  0.54650910059E-01  0.88843143894E+00  0.88000000000E+00 0.  1.
        -11    1    4    4    0    0 -0.15417571224E-01  0.51942811960E-01 -0.21359201817E-01  0.58242886605E-01  0.51100000000E-03 0. -1.
         11    1    4    4    0    0 -0.39354578142E-01  0.57585116019E-01 -0.24569695043E-01  0.73951061136E-01  0.51100000000E-03 0.  1.
</event>
<event>
 8    1  0.1054833E+005  0.1043930E+01  0.7957747E-01            NaN
         13   -1    0    0    0    0  0.00000000000E+00  0.00000000000E+00  0.74505805969E-08  0.10566000000E+00  0.10566000000E+00 0.  1.
     999900   -1    0    0    0    0 -0.00000000000E+00 -0.00000000000E+00 -0.74505805969E-08  0.93827000000E+00  0.93827000000E+00 0.  1.
     999902    2    1    2    0    0  0.16677238167E-01  0.16129946884E-01 -0.58126427515E-02  0.10200115495E+01  0.10197310767E+01 0.  0.
     999903    2    3    3    0    0  0.21326841889E-02 -0.19605380870E-01 -0.12784195037E+00  0.13075359500E+00  0.19079282698E-01 0.  0.
         14    1    1    2    0    0 -0.16677238167E-01 -0.16129946884E-01  0.58126427515E-02  0.23918450517E-01  0.00000000000E+00 0.  1.
     999901    1    3    3    0    0  0.14544553978E-01  0.35735327755E-01  0.12202930762E+00  0.88925795449E+00  0.88000000000E+00 0. -1.
        -11    1    4    4    0    0  0.58232198075E-02 -0.19897821089E-01 -0.76050625740E-01  0.78827609183E-01  0.51100000000E-03 0. -1.
         11    1    4    4    0    0 -0.36905356186E-02  0.29244021868E-03 -0.51791324633E-01  0.51925985813E-01  0.51100000000E-03 0.  1.
</event>
<event>
 8    1  0.1054833E+005  0.1043930E+01  0.7957747E-01            NaN
         13   -1    0    0    0    0  0.00000000000E+00  0.00000000000E+00  0.74505805969E-08  0.10566000000E+00  0.10566000000E+00 0. -1.
     999900   -1    0    0    0    0 -0.00000000000E+00 -0.00000000000E+00 -0.74505805969E-08  0.93827000000E+00  0.93827000000E+00 0.  1.
     999902    2    1    2    0    0  0.19810085334E-01  0.67806818256E-02 -0.16035257923E-01  0.10175567821E+01  0.10172149518E+01 0.  0.
     999903    2    3    3    0    0  0.30654325334E-01  0.12119451519E+00 -0.28965328865E-01  0.12998970881E+00  0.20749360149E-01 0.  0.
         14    1    1    2    0    0 -0.19810085334E-01 -0.67806818256E-02  0.16035257923E-01  0.26373217923E-01  0.00000000000E+00 0. -1.
     999901    1    3    3    0    0 -0.10844240001E-01 -0.11441383337E+00  0.12930070941E-01  0.88756707326E+00  0.88000000000E+00 0. -1.
        -11    1    4    4    0    0  0.27132781472E-01  0.11981504430E+00 -0.28738387994E-01  0.12616651195E+00  0.51100000000E-03 0.  1.
         11    1    4    4    0    0  0.35215438624E-02  0.13794708902E-02 -0.22694087051E-03  0.38231968652E-02  0.51100000000E-03 0. -1.
</event>
<event>
 8    1  0.1054833E+005  0.1043930E+01  0.7957747E-01            NaN
         13   -1    0    0    0    0  0.00000000000E+00  0.00000000000E+00  0.74505805969E-08  0.10566000000E+00  0.10566000000E+00 0. -1.
     999900   -1    0    0    0    0 -0.00000000000E+00 -0.00000000000E+00 -0.74505805969E-08  0.93827000000E+00  0.93827000000E+00 0.  1.
     999902    2    1    2    0    0  0.15380091242E-01 -0.18296868996E-01 -0.33319302434E-02  0.10197965299E+01  0.10195109308E+01 0.  0.
     999903    2    3    3    0    0 -0.32884063414E-01  0.74191885967E-01  0.96884381750E-01  0.12798550302E+00  0.20196732038E-01 0.  0.
         14    1    1    2    0    0 -0.15380091242E-01  0.18296868996E-01  0.33319302434E-02  0.24133470136E-01  0.00000000000E+00 0. -1.
     999901    1    3    3    0    0  0.48264154656E-01 -0.92488754963E-01 -0.10021631199E+00  0.89181102685E+00  0.88000000000E+00 0.  1.
        -11    1    4    4    0    0 -0.15961516844E-01  0.17455092512E-01  0.20239230445E-01  0.31134190926E-01  0.51100000000E-03 0. -1.
         11    1    4    4    0    0 -0.16922546569E-01  0.56736793455E-01  0.76645151305E-01  0.96851312090E-01  0.51100000000E-03 0.  1.
</event>
<event>
 8    1  0.1054833E+005  0.1043930E+01  0.7957747E-01            NaN
         13   -1    0    0    0    0  0.00000000000E+00  0.00000000000E+00  0.74505805969E-08  0.10566000000E+00  0.10566000000E+00 0. -1.
     999900   -1    0    0    0    0 -0.00000000000E+00 -0.00000000000E+00 -0.74505805969E-08  0.93827000000E+00  0.93827000000E+00 0.  1.
     999902    2    1    2    0    0  0.19648638573E-01  0.18284318863E-02  0.13971624179E-01  0.10197511158E+01  0.10194644278E+01 0.  0.
     999903    2    3    3    0    0 -0.10121931084E+00  0.53475081120E-01 -0.52861139178E-01  0.12748262711E+00  0.18777299913E-01 0.  0.
         14    1    1    2    0    0 -0.19648638573E-01 -0.18284318863E-02 -0.13971624179E-01  0.24178884241E-01  0.00000000000E+00 0.  1.
     999901    1    3    3    0    0  0.12086794942E+00 -0.51646649234E-01  0.66832763357E-01  0.89226848865E+00  0.88000000000E+00 0. -1.
        -11    1    4    4    0    0 -0.65179970648E-01  0.36321636049E-01 -0.24580685141E-01  0.78563102166E-01  0.51100000000E-03 0. -1.
         11    1    4    4    0    0 -0.36039340195E-01  0.17153445072E-01 -0.28280454036E-01  0.48919524947E-01  0.51100000000E-03 0.  1.
</event>
<event>
 8    1  0.1054833E+005  0.1043930E+01  0.7957747E-01            NaN
         13   -1    0    0    0    0  0.00000000000E+00  0.00000000000E+00  0.74505805969E-08  0.10566000000E+00  0.10566000000E+00 0. -1.
     999900   -1    0    0    0    0 -0.00000000000E+00 -0.00000000000E+00 -0.74505805969E-08  0.93827000000E+00  0.93827000000E+00 0. -1.
     999902    2    1    2    0    0 -0.67256780404E-03  0.89647183357E-03  0.24454990782E-01  0.10194493427E+01  0.10191553658E+01 0.  0.
     999903    2    3    3    0    0 -0.92899870903E-01 -0.86625429487E-01  0.22876583043E-01  0.13031018032E+00  0.17973702910E-01 0.  0.
         14    1    1    2    0    0  0.67256780404E-03 -0.89647183357E-03 -0.24454990782E-01  0.24480657331E-01  0.00000000000E+00 0.  1.
     999901    1    3    3    0    0  0.92227303099E-01  0.87521901321E-01  0.15784077395E-02  0.88913916235E+00  0.88000000000E+00 0.  1.
        -11    1    4    4    0    0 -0.58517903029E-01 -0.42451851075E-01  0.12058000911E-01  0.73295028082E-01  0.51100000000E-03 0.  1.
         11    1    4    4    0    0 -0.34381967874E-01 -0.44173578412E-01  0.10818582132E-01  0.57015152240E-01  0.51100000000E-03 0. -1.
</event>
<event>
 8    1  0.1054833E+005  0.1043930E+01  0.7957747E-01            NaN
         13   -1    0    0    0    0  0.00000000000E+00  0.00000000000E+00  0.74505805969E-08  0.10566000000E+00  0.10566000000E+00 0.  1.
     999900   -1    0    0    0    0 -0.00000000000E+00 -0.00000000000E+00 -0.74505805969E-08  0.93827000000E+00  0.93827000000E+00 0. -1.
     999902    2    1    2    0    0 -0.10821152729E-01  0.20928640063E-01 -0.22411709218E-03  0.10203682609E+01  0.10200961878E+01 0.  0.
     999903    2    3    3    0    0 -0.10536262433E+00  0.45763189954E-02 -0.76550262121E-01  0.13186886941E+00  0.20179960053E-01 0.  0.
         14    1    1    2    0    0  0.10821152729E-01 -0.20928640063E-01  0.22411709218E-03  0.23561739107E-01  0.00000000000E+00 0.  1.
     999901    1    3    3    0    0  0.94541471596E-01  0.16352321067E-01  0.76326145028E-01  0.88849939149E+00  0.88000000000E+00 0.  1.
        -11    1    4    4    0    0 -0.10285735866E-01  0.64200368908E-02 -0.10905901237E-01  0.16316036246E-01  0.51100000000E-03 0.  1.
         11    1    4    4    0    0 -0.95076888460E-01 -0.18437178954E-02 -0.65644360883E-01  0.11555283316E+00  0.51100000000E-03 0. -1.
</event>
<event>
 7    1  0.1352135E+005  0.1043930E+01  0.7957747E-01            NaN
         13   -1    0    0    0    0  0.00000000000E+00  0.00000000000E+00  0.74505805969E-08  0.10566000000E+00  0.10566000000E+00 0. -1.
     999900   -1    0    0    0    0 -0.00000000000E+00 -0.00000000000E+00 -0.74505805969E-08  0.93827000000E+00  0.93827000000E+00 0.  1.
     999903    2    1    2    0    0  0.68151489239E-01 -0.44884319105E-01  0.49782296132E-01  0.96164793250E-01  0.10495849916E-01 0.  0.
         14    1    1    2    0    0  0.46188361079E-01  0.27169440645E-01  0.20588947962E-01  0.57405992565E-01  0.00000000000E+00 0. -1.
     999901    1    1    2    0    0 -0.11433985032E+00  0.17714878460E-01 -0.70371244094E-01  0.89035921419E+00  0.88000000000E+00 0.  1.
        -11    1    3    3    0    0  0.21151613248E-01 -0.19860926658E-01  0.16899475220E-01  0.33581252722E-01  0.51100000000E-03 0.  1.
         11    1    3    3    0    0  0.46999875991E-01 -0.25023392448E-01  0.32882820912E-01  0.62583540527E-01  0.51100000000E-03 0. -1.
</event>
<event>
 8    1  0.1054833E+005  0.1043930E+01  0.7957747E-01            NaN
         13   -1    0    0    0    0  0.00000000000E+00  0.00000000000E+00  0.74505805969E-08  0.10566000000E+00  0.10566000000E+00 0. -1.
     999900   -1    0    0    0    0 -0.00000000000E+00 -0.00000000000E+00 -0.74505805969E-08  0.93827000000E+00  0.93827000000E+00 0.  1.
     999902    2    1    2    0    0 -0.22042597816E-01  0.18002578166E-02 -0.53931278406E-02  0.10211659302E+01  0.10209121677E+01 0.  0.
     999903    2    3    3    0    0 -0.12305593768E+00 -0.46848649862E-01 -0.14709419329E-01  0.13400348489E+00  0.20075038118E-01 0.  0.
         14    1    1    2    0    0  0.22042597816E-01 -0.18002578166E-02  0.53931278406E-02  0.22764069816E-01  0.00000000000E+00 0. -1.
     999901    1    3    3    0    0  0.10101333986E+00  0.48648907678E-01  0.93162914881E-02  0.88716244529E+00  0.88000000000E+00 0. -1.
        -11    1    4    4    0    0 -0.30757479264E-01 -0.17981578159E-01  0.27251447089E-02  0.35735797437E-01  0.51100000000E-03 0. -1.
         11    1    4    4    0    0 -0.92298458411E-01 -0.28867071703E-01 -0.17434564038E-01  0.98267687456E-01  0.51100000000E-03 0.  1.
</event>
<event>
 8    1  0.1054833E+005  0.1043930E+01  0.7957747E-01            NaN
         13   -1    0    0    0    0  0.00000000000E+00  0.00000000000E+00  0.74505805969E-08  0.10566000000E+00  0.10566000000E+00 0. -1.
     999900   -1    0    0    0    0 -0.00000000000E+00 -0.00000000000E+00 -0.74505805969E-08  0.93827000000E+00  0.93827000000E+00 0.  1.
     999902    2    1    2    0    0 -0.48378198538E-02 -0.12660398995E-01  0.19704480509E-01  0.10200143826E+01  0.10197339770E+01 0.  0.
     999903    2    3    3    0    0 -0.96882816707E-01 -0.85164865087E-01 -0.16605075745E-01  0.13150576535E+00  0.19460302178E-01 0.  0.
         14    1    1    2    0    0  0.48378198538E-02  0.12660398995E-01 -0.19704480509E-01  0.23915617403E-01  0.00000000000E+00 0. -1.
     999901    1    3    3    0    0  0.92044996854E-01  0.72504466092E-01  0.36309556254E-01  0.88850861725E+00  0.88000000000E+00 0.  1.
        -11    1    4    4    0    0 -0.15632004773E-01 -0.23371570803E-01 -0.69625562554E-02  0.28971161620E-01  0.51100000000E-03 0. -1.
         11    1    4    4    0    0 -0.81250811935E-01 -0.61793294284E-01 -0.96425194894E-02  0.10253460373E+00  0.51100000000E-03 0.  1.
</event>
<event>
 8    1  0.1054833E+005  0.1043930E+01  0.7957747E-01            NaN
         13   -1    0    0    0    0  0.00000000000E+00  0.00000000000E+00  0.74505805969E-08  0.10566000000E+00  0.10566000000E+00 0. -1.
     999900   -1    0    0    0    0 -0.00000000000E+00 -0.00000000000E+00 -0.74505805969E-08  0.93827000000E+00  0.93827000000E+00 0. -1.
     999902    2    1    2    0    0  0.77327521570E-02  0.83657725373E-02  0.21893622118E-01  0.10192497995E+01  0.10189509515E+01 0.  0.
     999903    2    3    3    0    0  0.12759551282E+00  0.83357080304E-02  0.20916841678E-01  0.13112366186E+00  0.20144515713E-01 0.  0.
         14    1    1    2    0    0 -0.77327521570E-02 -0.83657725373E-02 -0.21893622118E-01  0.24680200475E-01  0.00000000000E+00 0. -1.
     999901    1    3    3    0    0 -0.11986276067E+00  0.30064506894E-04  0.97678043978E-03  0.88812613766E+00  0.88000000000E+00 0. -1.
        -11    1    4    4    0    0  0.63928098477E-01  0.95612242088E-02  0.19149147055E-01  0.67417874019E-01  0.51100000000E-03 0. -1.
         11    1    4    4    0    0  0.63667414347E-01 -0.12255161784E-02  0.17676946228E-02  0.63705787844E-01  0.51100000000E-03 0.  1.
</event>
<event>
 8    1  0.1054833E+005  0.1043930E+01  0.7957747E-01            NaN
         13   -1    0    0    0    0  0.00000000000E+00  0.00000000000E+00  0.74505805969E-08  0.10566000000E+00  0.10566000000E+00 0. -1.
     999900   -1    0    0    0    0 -0.00000000000E+00 -0.00000000000E+00 -0.74505805969E-08  0.93827000000E+00  0.93827000000E+00 0. -1.
     999902    2    1    2    0    0  0.96324665773E-02  0.17632218288E-01  0.16525524579E-01  0.10179151485E+01  0.10175826635E+01 0.  0.
     999903    2    3    3    0    0 -0.60103346936E-01 -0.82350918238E-01  0.74085373426E-01  0.12764954352E+00  0.20289833844E-01 0.  0.
         14    1    1    2    0    0 -0.96324665773E-02 -0.17632218288E-01 -0.16525524579E-01  0.26014851465E-01  0.00000000000E+00 0.  1.
     999901    1    3    3    0    0  0.69735813514E-01  0.99983136526E-01 -0.57559848847E-01  0.89026560502E+00  0.88000000000E+00 0. -1.
        -11    1    4    4    0    0 -0.50441190417E-01 -0.78946697971E-01  0.66321021657E-01  0.11478516387E+00  0.51100000000E-03 0. -1.
         11    1    4    4    0    0 -0.96621565197E-02 -0.34042202667E-02  0.77643517694E-02  0.12864379644E-01  0.51100000000E-03 0.  1.
</event>
<event>
 8    1  0.1054833E+005  0.1043930E+01  0.7957747E-01            NaN
         13   -1    0    0    0    0  0.00000000000E+00  0.00000000000E+00  0.74505805969E-08  0.10566000000E+00  0.10566000000E+00 0.  1.
     999900   -1    0    0    0    0 -0.00000000000E+00 -0.00000000000E+00 -0.74505805969E-08  0.93827000000E+00  0.93827000000E+00 0.  1.
     999902    2    1    2    0    0  0.12840180229E-01  0.17404028531E-01  0.10075689051E-01  0.10200702023E+01  0.10197911196E+01 0.  0.
     999903    2    3    3    0    0  0.10060629560E+00 -0.21550543491E-01  0.80343170487E-01  0.13206239340E+00  0.19984945979E-01 0.  0.
         14    1    1    2    0    0 -0.12840180229E-01 -0.17404028531E-01 -0.10075689051E-01  0.23859797721E-01  0.00000000000E+00 0.  1.
     999901    1    3    3    0    0 -0.87766115375E-01  0.38954572022E-01 -0.70267481436E-01  0.88800780888E+00  0.88000000000E+00 0. -1.
        -11    1    4    4    0    0  0.42861788705E-01 -0.33140788667E-02  0.23453392625E-01  0.48973858296E-01  0.51100000000E-03 0.  1.
         11    1    4    4    0    0  0.57744506899E-01 -0.18236464625E-01  0.56889777862E-01  0.83088535101E-01  0.51100000000E-03 0. -1.
</event>
<event>
 8    1  0.1054833E+005  0.1043930E+01  0.7957747E-01            NaN
         13   -1    0    0    0    0  0.00000000000E+00  0.00000000000E+00  0.74505805969E-08  0.10566000000E+00  0.10566000000E+00 0. -1.
     999900   -1    0    0    0    0 -0.00000000000E+00 -0.00000000000E+00 -0.74505805969E-08  0.93827000000E+00  0.93827000000E+00 0. -1.
     999902    2    1    2    0    0 -0.13455511147E-01  0.15595764028E-01  0.99582638201E-02  0.10210510653E+01  0.10207947062E+01 0.  0.
     999903    2    3    3    0    0 -0.48413805353E-01  0.98395942952E-01 -0.71999912380E-01  0.13268453359E+00  0.19888185798E-01 0.  0.
         14    1    1    2    0    0  0.13455511147E-01 -0.15595764028E-01 -0.99582638201E-02  0.22878934725E-01  0.00000000000E+00 0.  1.
     999901    1    3    3    0    0  0.34958294207E-01 -0.82800178923E-01  0.81958176200E-01  0.88836653168E+00  0.88000000000E+00 0.  1.
        -11    1    4    4    0    0 -0.33112316125E-01  0.60982806889E-01 -0.34299448059E-01  0.77408277810E-01  0.51100000000E-03 0. -1.
         11    1    4    4    0    0 -0.15301489228E-01  0.37413136062E-01 -0.37700464320E-01  0.55276255785E-01  0.51100000000E-03 0.  1.
</event>
<event>
 8    1  0.1054833E+005  0.1043930E+01  0.7957747E-01            NaN
         13   -1    0    0    0    0  0.00000000000E+00  0.00000000000E+00  0.74505805969E-08  0.10566000000E+00  0.10566000000E+00 0.  1.
     999900   -1    0    0    0    0 -0.00000000000E+00 -0.00000000000E+00 -0.74505805969E-08  0.93827000000E+00  0.93827000000E+00 0.  1.
     999902    2    1    2    0    0  0.15042658000E-01  0.35087820508E-02  0.16623243367E-01  0.10212380338E+01  0.10209858943E+01 0.  0.
     999903    2    3    3    0    0  0.12502187063E+00 -0.39709913404E-01  0.10796613134E-01  0.13332067700E+00  0.21224766195E-01 0.  0.
         14    1    1    2    0    0 -0.15042658000E-01 -0.35087820508E-02 -0.16623243367E-01  0.22691966226E-01  0.00000000000E+00 0. -1.
     999901    1    3    3    0    0 -0.10997921263E+00  0.43218695455E-01  0.58266302332E-02  0.88791735678E+00  0.88000000000E+00 0.  1.
        -11    1    4    4    0    0  0.36103952470E-01 -0.23542951125E-02 -0.69628125779E-03  0.36190938342E-01  0.51100000000E-03 0. -1.
         11    1    4    4    0    0  0.88917918163E-01 -0.37355618292E-01  0.11492894392E-01  0.97129738654E-01  0.51100000000E-03 0.  1.
</event>
<event>
 8    1  0.1054833E+005  0.1043930E+01  0.7957747E-01            NaN
         13   -1    0    0    0    0  0.00000000000E+00  0.00000000000E+00  0.74505805969E-08  0.10566000000E+00  0.10566000000E+00 0. -1.
     999900   -1    0    0    0    0 -0.00000000000E+00 -0.00000000000E+00 -0.74505805969E-08  0.93827000000E+00  0.93827000000E+00 0. -1.
     999902    2    1    2    0    0 -0.79846388529E-02 -0.60309286596E-02 -0.21717212867E-01  0.10200184151E+01  0.10197381052E+01 0.  0.
     999903    2    3    3    0    0  0.12324813418E+00 -0.34367919053E-01  0.18384666287E-02  0.12952422882E+00  0.20047180715E-01 0.  0.
         14    1    1    2    0    0  0.79846388529E-02  0.60309286596E-02  0.21717212867E-01  0.23911584908E-01  0.00000000000E+00 0. -1.
     999901    1    3    3    0    0 -0.13123277303E+00  0.28336990393E-01 -0.23555679495E-01  0.89049418627E+00  0.88000000000E+00 0.  1.
        -11    1    4    4    0    0  0.87872603396E-01 -0.22323969261E-01 -0.75828586641E-02  0.90981948197E-01  0.51100000000E-03 0. -1.
         11    1    4    4    0    0  0.35375530781E-01 -0.12043949792E-01  0.94213252928E-02  0.38542280627E-01  0.51100000000E-03 0.  1.
</event>
<event>
 8    1  0.1054833E+005  0.1043930E+01  0.7957747E-01            NaN
         13   -1    0    0    0    0  0.00000000000E+00  0.00000000000E+00  0.74505805969E-08  0.10566000000E+00  0.10566000000E+00 0.  1.
     999900   -1    0    0    0    0 -0.00000000000E+00 -0.00000000000E+00 -0.74505805969E-08  0.93827000000E+00  0.93827000000E+00 0.  1.
     999902    2    1    2    0    0  0.17933474019E-01 -0.32754755996E-02 -0.14201169991E-01  0.10208213120E+01  0.10205597188E+01 0.  0.
     999903    2    3    3    0    0  0.29789718396E-01  0.11995542266E+00 -0.31060657074E-01  0.13199586959E+00  0.34371709647E-01 0.  0.
         14    1    1    2    0    0 -0.17933474019E-01  0.32754755996E-02  0.14201169991E-01  0.23108687974E-01  0.00000000000E+00 0.  1.
     999901    1    3    3    0    0 -0.11856244377E-01 -0.12323089826E+00  0.16859487083E-01  0.88882544244E+00  0.88000000000E+00 0.  1.
        -11    1    4    4    0    0  0.90645565792E-03  0.55544736253E-01 -0.18111494513E-02  0.55583997432E-01  0.51100000000E-03 0.  1.
         11    1    4    4    0    0  0.28883262738E-01  0.64410686404E-01 -0.29249507623E-01  0.76411872158E-01  0.51100000000E-03 0. -1.
</event>
<event>
 8    1  0.1054833E+005  0.1043930E+01  0.7957747E-01            NaN
         13   -1    0    0    0    0  0.00000000000E+00  0.00000000000E+00  0.74505805969E-08  0.10566000000E+00  0.10566000000E+00 0. -1.
     999900   -1    0    0    0    0 -0.00000000000E+00 -0.00000000000E+00 -0.74505805969E-08  0.93827000000E+00  0.93827000000E+00 0. -1.
     999902    2    1    2    0    0 -0.16513220667E-01  0.68497445499E-02  0.14292303632E-01  0.10210416755E+01  0.10207851035E+01 0.  0.
     999903    2    3    3    0    0  0.93035223837E-01  0.23802661245E-01  0.86369466490E-01  0.13116338014E+00  0.22847931870E-01 0.  0.
         14    1    1    2    0    0  0.16513220667E-01 -0.68497445499E-02 -0.14292303632E-01  0.22888324541E-01  0.00000000000E+00 0.  1.
     999901    1    3    3    0    0 -0.10954844450E+00 -0.16952916695E-01 -0.72077162857E-01  0.88987829532E+00  0.88000000000E+00 0. -1.
        -11    1    4    4    0    0  0.38140526743E-01  0.17910869155E-02  0.44825575829E-01  0.58885491778E-01  0.51100000000E-03 0.  1.
         11    1    4    4    0    0  0.54894697094E-01  0.22011574329E-01  0.41543890661E-01  0.72277888360E-01  0.51100000000E-03 0. -1.
</event>
<event>
 8    1  0.1054833E+005  0.1043930E+01  0.7957747E-01            NaN
         13   -1    0    0    0    0  0.00000000000E+00  0.00000000000E+00  0.74505805969E-08  0.10566000000E+00  0.10566000000E+00 0.  1.
     999900   -1    0    0    0    0 -0.00000000000E+00 -0.00000000000E+00 -0.74505805969E-08  0.93827000000E+00  0.93827000000E+00 0.  1.
     999902    2    1    2    0    0  0.67331433715E-02  0.20753705436E-01 -0.80771056285E-02  0.10206643355E+01  0.10203991350E+01 0.  0.
     999903    2    3    3    0    0 -0.34413891845E-01  0.12605202025E+00  0.38030264143E-02  0.13335269288E+00  0.26363799531E-01 0.  0.
         14    1    1    2    0    0 -0.67331433715E-02 -0.20753705436E-01  0.80771056285E-02  0.23265664494E-01  0.00000000000E+00 0.  1.
     999901    1    3    3    0    0  0.41147035216E-01 -0.10529831482E+00 -0.11880132043E-01  0.88731164263E+00  0.88000000000E+00 0.  1.
        -11    1    4    4    0    0 -0.19121993937E-01  0.32272244461E-01  0.75138791394E-02  0.38260526858E-01  0.51100000000E-03 0. -1.
         11    1    4    4    0    0 -0.15291897907E-01  0.93779775792E-01 -0.37108527251E-02  0.95092166018E-01  0.51100000000E-03 0.  1.
</event>
<event>
 8    1  0.1054833E+005  0.1043930E+01  0.7957747E-01            NaN
         13   -1    0    0    0    0  0.00000000000E+00  0.00000000000E+00  0.74505805969E-08  0.10566000000E+00  0.10566000000E+00 0. -1.
     999900   -1    0    0    0    0 -0.00000000000E+00 -0.00000000000E+00 -0.74505805969E-08  0.93827000000E+00  0.93827000000E+00 0.  1.
     999902    2    1    2    0    0  0.21725485223E-01  0.78324953606E-02 -0.37801780042E-02  0.10205284095E+01  0.10202600650E+01 0.  0.
     999903    2    3    3    0    0  0.97896907931E-01 -0.61458277841E-01  0.60984949964E-01  0.13216034464E+00  0.19653703835E-01 0.  0.
         14    1    1    2    0    0 -0.21725485223E-01 -0.78324953606E-02  0.37801780042E-02  0.23401590490E-01  0.00000000000E+00 0.  1.
     999901    1    3    3    0    0 -0.76171422708E-01  0.69290773202E-01 -0.64765127968E-01  0.88836806487E+00  0.88000000000E+00 0. -1.
        -11    1    4    4    0    0  0.32321875172E-01 -0.10173409429E-01  0.20262208648E-01  0.39484428505E-01  0.51100000000E-03 0. -1.
         11    1    4    4    0    0  0.65575032758E-01 -0.51284868412E-01  0.40722741316E-01  0.92675916130E-01  0.51100000000E-03 0.  1.
</event>
<event>
 8    1  0.1054833E+005  0.1043930E+01  0.7957747E-01            NaN
         13   -1    0    0    0    0  0.00000000000E+00  0.00000000000E+00  0.74505805969E-08  0.10566000000E+00  0.10566000000E+00 0.  1.
     999900   -1    0    0    0    0 -0.00000000000E+00 -0.00000000000E+00 -0.74505805969E-08  0.93827000000E+00  0.93827000000E+00 0. -1.
     999902    2    1    2    0    0 -0.11802306834E-01  0.36144876147E-02  0.21794891052E-01  0.10188825202E+01  0.10185745990E+01 0.  0.
     999903    2    3    3    0    0  0.25768410823E-01 -0.11292855031E+00 -0.49453553939E-01  0.12755195336E+00  0.20173704087E-01 0.  0.
         14    1    1    2    0    0  0.11802306834E-01 -0.36144876147E-02 -0.21794891052E-01  0.25047479779E-01  0.00000000000E+00 0. -1.
     999901    1    3    3    0    0 -0.37570717656E-01  0.11654303792E+00  0.71248444990E-01  0.89133056686E+00  0.88000000000E+00 0.  1.
        -11    1    4    4    0    0  0.18669713974E-01 -0.78376087990E-01 -0.24063825141E-01  0.84087443712E-01  0.51100000000E-03 0.  1.
         11    1    4    4    0    0  0.70986968488E-02 -0.34552462319E-01 -0.25389728797E-01  0.43464509645E-01  0.51100000000E-03 0. -1.
</event>
<event>
 8    1  0.1054833E+005  0.1043930E+01  0.7957747E-01            NaN
         13   -1    0    0    0    0  0.00000000000E+00  0.00000000000E+00  0.74505805969E-08  0.10566000000E+00  0.10566000000E+00 0. -1.
     999900   -1    0    0    0    0 -0.00000000000E+00 -0.00000000000E+00 -0.74505805969E-08  0.93827000000E+00  0.93827000000E+00 0.  1.
     999902    2    1    2    0    0 -0.18596703160E-01 -0.82650361375E-02  0.11917668876E-01  0.10203465519E+01  0.10200739714E+01 0.  0.
     999903    2    3    3    0    0  0.39496191493E-01  0.12106827997E+00 -0.21659794098E-03  0.12891560594E+00  0.20042679020E-01 0.  0.
         14    1    1    2    0    0  0.18596703160E-01  0.82650361375E-02 -0.11917668876E-01  0.23583448056E-01  0.00000000000E+00 0.  1.
     999901    1    3    3    0    0 -0.58092894653E-01 -0.12933331611E+00  0.12134266817E-01  0.89143094601E+00  0.88000000000E+00 0.  1.
        -11    1    4    4    0    0  0.33604692034E-01  0.73962459486E-01 -0.35968476614E-02  0.81319857194E-01  0.51100000000E-03 0. -1.
         11    1    4    4    0    0  0.58914994596E-02  0.47105820485E-01  0.33802497204E-02  0.47595748745E-01  0.51100000000E-03 0.  1.
</event>
<event>
 8    1  0.1054833E+005  0.1043930E+01  0.7957747E-01            NaN
         13   -1    0    0    0    0  0.00000000000E+00  0.00000000000E+00  0.74505805969E-08  0.10566000000E+00  0.10566000000E+00 0. -1.
     999900   -1    0    0    0    0 -0.00000000000E+00 -0.00000000000E+00 -0.74505805969E-08  0.93827000000E+00  0.93827000000E+00 0. -1.
     999902    2    1    2    0    0  0.22806265474E-01 -0.77612237746E-02  0.80998502844E-02  0.10185140618E+01  0.10181968985E+01 0.  0.
     999903    2    3    3    0    0 -0.41345965923E-01  0.65744936002E-01 -0.98189765797E-01  0.12676513593E+00  0.19906885062E-01 0.  0.
         14    1    1    2    0    0 -0.22806265474E-01  0.77612237746E-02 -0.80998502844E-02  0.25415938189E-01  0.00000000000E+00 0.  1.
     999901    1    3    3    0    0  0.64152231398E-01 -0.73506159776E-01  0.10628961608E+00  0.89174892588E+00  0.88000000000E+00 0.  1.
        -11    1    4    4    0    0 -0.17196990126E-01  0.34330533641E-01 -0.62937147370E-01  0.73726980472E-01  0.51100000000E-03 0.  1.
         11    1    4    4    0    0 -0.24148975797E-01  0.31414402361E-01 -0.35252618427E-01  0.53038155461E-01  0.51100000000E-03 0. -1.
</event>
<event>
 8    1  0.1054833E+005  0.1043930E+01  0.7957747E-01            NaN
         13   -1    0    0    0    0  0.00000000000E+00  0.00000000000E+00  0.74505805969E-08  0.10566000000E+00  0.10566000000E+00 0. -1.
     999900   -1    0    0    0    0 -0.00000000000E+00 -0.00000000000E+00 -0.74505805969E-08  0.93827000000E+00  0.93827000000E+00 0.  1.
     999902    2    1    2    0    0  0.16486509032E-01 -0.12865442653E-01  0.94440206728E-02  0.10209841045E+01  0.10207262255E+01 0.  0.
     999903    2    3    3    0    0  0.11852358995E+00 -0.58460827930E-01  0.39997865032E-02  0.13389890861E+00  0.21152060421E-01 0.  0.
         14    1    1    2    0    0 -0.16486509032E-01  0.12865442653E-01 -0.94440206728E-02  0.22945895520E-01  0.00000000000E+00 0.  1.
     999901    1    3    3    0    0 -0.10203708091E+00  0.45595385277E-01  0.54442341696E-02  0.88708519587E+00  0.88000000000E+00 0. -1.
        -11    1    4    4    0    0  0.10061905723E+00 -0.44561293664E-01 -0.32547458875E-02  0.11009431440E+00  0.51100000000E-03 0.  1.
         11    1    4    4    0    0  0.17904532713E-01 -0.13899534266E-01  0.72545323907E-02  0.23804594214E-01  0.51100000000E-03 0. -1.
</event>
<event>
 7    1  0.1054833E+005  0.1043930E+01  0.7957747E-01            NaN
         13   -1    0    0    0    0  0.00000000000E+00  0.00000000000E+00  0.74505805969E-08  0.10566000000E+00  0.10566000000E+00 0. -1.
     999900   -1    0    0    0    0 -0.00000000000E+00 -0.00000000000E+00 -0.74505805969E-08  0.93827000000E+00  0.93827000000E+00 0. -1.
     999903    2    1    2    0    0  0.71681952609E-01 -0.68188656694E-01 -0.23220457489E-01  0.10373733737E+00  0.20838672876E-01 0.  0.
         14    1    1    2    0    0  0.26030501216E-01 -0.81510871676E-02  0.43412027935E-01  0.51270180271E-01  0.00000000000E+00 0. -1.
     999901    1    1    2    0    0 -0.97712453825E-01  0.76339743861E-01 -0.20191570446E-01  0.88892248236E+00  0.88000000000E+00 0.  1.
        -11    1    3    3    0    0  0.54058404344E-01 -0.37904635379E-01 -0.13823368369E-01  0.67456794302E-01  0.51100000000E-03 0.  1.
         11    1    3    3    0    0  0.17623548265E-01 -0.30284021315E-01 -0.93970891205E-02  0.36280543069E-01  0.51100000000E-03 0. -1.
</event>
<event>
 7    1  0.1054833E+005  0.1043930E+01  0.7957747E-01            NaN
         13   -1    0    0    0    0  0.00000000000E+00  0.00000000000E+00  0.74505805969E-08  0.10566000000E+00  0.10566000000E+00 0.  1.
     999900   -1    0    0    0    0 -0.00000000000E+00 -0.00000000000E+00 -0.74505805969E-08  0.93827000000E+00  0.93827000000E+00 0.  1.
     999903    2    1    2    0    0  0.36899576004E-01 -0.97034711762E-01 -0.23735636027E-01  0.10827964291E+00  0.19590473562E-01 0.  0.
         14    1    1    2    0    0  0.40711589548E-01 -0.15923252219E-01 -0.81659836338E-02  0.44470965510E-01  0.00000000000E+00 0.  1.
     999901    1    1    2    0    0 -0.77611165552E-01  0.11295796398E+00  0.31901619661E-01  0.89117939158E+00  0.88000000000E+00 0. -1.
        -11    1    3    3    0    0  0.24957908446E-01 -0.84296554574E-01 -0.22607800007E-01  0.90775437477E-01  0.51100000000E-03 0. -1.
         11    1    3    3    0    0  0.11941667559E-01 -0.12738157188E-01 -0.11278360197E-02  0.17504205430E-01  0.51100000000E-03 0.  1.
</event>
<event>
 8    1  0.1054833E+005  0.1043930E+01  0.7957747E-01            NaN
         13   -1    0    0    0    0  0.00000000000E+00  0.00000000000E+00  0.74505805969E-08  0.10566000000E+00  0.10566000000E+00 0.  1.
     999900   -1    0    0    0    0 -0.00000000000E+00 -0.00000000000E+00 -0.74505805969E-08  0.93827000000E+00  0.93827000000E+00 0.  1.
     999902    2    1    2    0    0 -0.13980303500E-01 -0.72546042334E-02  0.17029243548E-01  0.10207335929E+01  0.10204699870E+01 0.  0.
     999903    2    3    3    0    0  0.30757259037E-01  0.19287889650E-01 -0.12132173779E+00  0.12840688838E+00  0.21244605266E-01 0.  0.
         14    1    1    2    0    0  0.13980303500E-01  0.72546042334E-02 -0.17029243548E-01  0.23196407143E-01  0.00000000000E+00 0. -1.
     999901    1    3    3    0    0 -0.44737562537E-01 -0.26542493883E-01  0.13835098134E+00  0.89232670448E+00  0.88000000000E+00 0. -1.
        -11    1    4    4    0    0  0.11041572887E-01  0.42113841956E-02 -0.14371085524E-01  0.18612933912E-01  0.51100000000E-03 0. -1.
         11    1    4    4    0    0  0.19715686150E-01  0.15076505454E-01 -0.10695065227E+00  0.10979395447E+00  0.51100000000E-03 0.  1.
</event>
<event>
 8    1  0.1054833E+005  0.1043930E+01  0.7957747E-01            NaN
         13   -1    0    0    0    0  0.00000000000E+00  0.00000000000E+00  0.74505805969E-08  0.10566000000E+00  0.10566000000E+00 0. -1.
     999900   -1    0    0    0    0 -0.00000000000E+00 -0.00000000000E+00 -0.74505805969E-08  0.93827000000E+00  0.93827000000E+00 0.  1.
     999902    2    1    2    0    0 -0.18890415831E-02 -0.23855595524E-01  0.23062940889E-02  0.10198888497E+01  0.10196054574E+01 0.  0.
     999903    2    3    3    0    0 -0.10238483108E+00  0.37100427315E-01  0.67753565775E-01  0.12966506558E+00  0.19062744140E-01 0.  0.
         14    1    1    2    0    0  0.18890415831E-02  0.23855595524E-01 -0.23062940889E-02  0.24041150312E-01  0.00000000000E+00 0. -1.
     999901    1    3    3    0    0  0.10049578949E+00 -0.60956022839E-01 -0.65447271686E-01  0.89022378411E+00  0.88000000000E+00 0. -1.
        -11    1    4    4    0    0 -0.10001248294E+00  0.32801912400E-01  0.66723740401E-01  0.12462255356E+00  0.51100000000E-03 0.  1.
         11    1    4    4    0    0 -0.23723481320E-02  0.42985149142E-02  0.10298253743E-02  0.50425120157E-02  0.51100000000E-03 0. -1.
</event>
<event>
 8    1  0.1054833E+005  0.1043930E+01  0.7957747E-01            NaN
         13   -1    0    0    0    0  0.00000000000E+00  0.00000000000E+00  0.74505805969E-08  0.10566000000E+00  0.10566000000E+00 0. -1.
     999900   -1    0    0    0    0 -0.00000000000E+00 -0.00000000000E+00 -0.74505805969E-08  0.93827000000E+00  0.93827000000E+00 0. -1.
     999902    2    1    2    0    0 -0.12113550944E-01  0.11660333473E-02 -0.20141226554E-01  0.10203977507E+01  0.10201263661E+01 0.  0.
     999903    2    3    3    0    0  0.41828485424E-01 -0.79482422662E-01  0.89353443506E-01  0.12831983957E+00  0.20368251176E-01 0.  0.
         14    1    1    2    0    0  0.12113550944E-01 -0.11660333473E-02  0.20141226554E-01  0.23532249305E-01  0.00000000000E+00 0. -1.
     999901    1    3    3    0    0 -0.53942036369E-01  0.80648456009E-01 -0.10949467006E+00  0.89207791112E+00  0.88000000000E+00 0. -1.
        -11    1    4    4    0    0  0.25880254679E-01 -0.27773738872E-01  0.38045830155E-01  0.53748622926E-01  0.51100000000E-03 0. -1.
         11    1    4    4    0    0  0.15948230745E-01 -0.51708683789E-01  0.51307613351E-01  0.74571216645E-01  0.51100000000E-03 0.  1.
</event>
<event>
 8    1  0.1054833E+005  0.1043930E+01  0.7957747E-01            NaN
         13   -1    0    0    0    0  0.00000000000E+00  0.00000000000E+00  0.74505805969E-08  0.10566000000E+00  0.10566000000E+00 0. -1.
     999900   -1    0    0    0    0 -0.00000000000E+00 -0.00000000000E+00 -0.74505805969E-08  0.93827000000E+00  0.93827000000E+00 0.  1.
     999902    2    1    2    0    0  0.13826982644E-01  0.18748724910E-01 -0.33681167395E-02  0.10203918534E+01  0.10201203312E+01 0.  0.
     999903    2    3    3    0    0  0.17167053467E-01 -0.12310673805E+00  0.26202949516E-01  0.12853503956E+00  0.19613392153E-01 0.  0.
         14    1    1    2    0    0 -0.13826982644E-01 -0.18748724910E-01  0.33681167395E-02  0.23538146596E-01  0.00000000000E+00 0. -1.
     999901    1    3    3    0    0 -0.33400708224E-02  0.14185546296E+00 -0.29571066256E-01  0.89185681385E+00  0.88000000000E+00 0.  1.
        -11    1    4    4    0    0  0.16860557136E-01 -0.76174371644E-01  0.23667261405E-01  0.81530446250E-01  0.51100000000E-03 0. -1.
         11    1    4    4    0    0  0.30649633067E-03 -0.46932366410E-01  0.25356881115E-02  0.47004593308E-01  0.51100000000E-03 0.  1.
</event>
<event>
 8    1  0.1054833E+005  0.1043930E+01  0.7957747E-01            NaN
         13   -1    0    0    0    0  0.00000000000E+00  0.00000000000E+00  0.74505805969E-08  0.10566000000E+00  0.10566000000E+00 0. -1.
     999900   -1    0    0    0    0 -0.00000000000E+00 -0.00000000000E+00 -0.74505805969E-08  0.93827000000E+00  0.93827000000E+00 0.  1.
     999902    2    1    2    0    0  0.22940788162E-01 -0.34797391578E-02  0.41719489886E-02  0.10203547268E+01  0.10200823374E+01 0.  0.
     999903    2    3    3    0    0 -0.41106080868E-02 -0.98518907015E-01 -0.83129921180E-01  0.13053123985E+00  0.20123335795E-01 0.  0.
         14    1    1    2    0    0 -0.22940788162E-01  0.34797391578E-02 -0.41719489886E-02  0.23575273158E-01  0.00000000000E+00 0.  1.
     999901    1    3    3    0    0  0.27051396249E-01  0.95039167857E-01  0.87301870168E-01  0.88982348699E+00  0.88000000000E+00 0. -1.
        -11    1    4    4    0    0  0.32850842721E-02 -0.23743044468E-02 -0.21954608106E-02  0.46379164990E-02  0.51100000000E-03 0.  1.
         11    1    4    4    0    0 -0.73956923589E-02 -0.96144602568E-01 -0.80934460369E-01  0.12589332335E+00  0.51100000000E-03 0. -1.
</event>
<event>
 8    1  0.1054833E+005  0.1043930E+01  0.7957747E-01            NaN
         13   -1    0    0    0    0  0.00000000000E+00  0.00000000000E+00  0.74505805969E-08  0.10566000000E+00  0.10566000000E+00 0. -1.
     999900   -1    0    0    0    0 -0.00000000000E+00 -0.00000000000E+00 -0.74505805969E-08  0.93827000000E+00  0.93827000000E+00 0. -1.
     999902    2    1    2    0    0  0.25750097469E-02  0.25607820542E-01 -0.14128924885E-02  0.10181542864E+01  0.10178279636E+01 0.  0.
     999903    2    3    3    0    0  0.11167829176E+00  0.45659543212E-01  0.44070560156E-01  0.13002459866E+00  0.20182845337E-01 0.  0.
         14    1    1    2    0    0 -0.25750097469E-02 -0.25607820542E-01  0.14128924885E-02  0.25775713633E-01  0.00000000000E+00 0.  1.
     999901    1    3    3    0    0 -0.10910328202E+00 -0.20051722670E-01 -0.45483452644E-01  0.88812968771E+00  0.88000000000E+00 0.  1.
        -11    1    4    4    0    0  0.55077540163E-01  0.26632625569E-01  0.12378614896E-01  0.62420536708E-01  0.51100000000E-03 0. -1.
         11    1    4    4    0    0  0.56600751599E-01  0.19026917643E-01  0.31691945259E-01  0.67604061948E-01  0.51100000000E-03 0.  1.
</event>
<event>
 8    1  0.1054833E+005  0.1043930E+01  0.7957747E-01            NaN
         13   -1    0    0    0    0  0.00000000000E+00  0.00000000000E+00  0.74505805969E-08  0.10566000000E+00  0.10566000000E+00 0.  1.
     999900   -1    0    0    0    0 -0.00000000000E+00 -0.00000000000E+00 -0.74505805969E-08  0.93827000000E+00  0.93827000000E+00 0. -1.
     999902    2    1    2    0    0  0.49760750349E-02  0.18172126240E-01  0.13054616418E-01  0.10210081653E+01  0.10207508330E+01 0.  0.
     999903    2    3    3    0    0  0.12403774230E+00  0.25220953061E-01  0.34557504004E-01  0.13270205776E+00  0.19853389160E-01 0.  0.
         14    1    1    2    0    0 -0.49760750349E-02 -0.18172126240E-01 -0.13054616418E-01  0.22921834670E-01  0.00000000000E+00 0. -1.
     999901    1    3    3    0    0 -0.11906166727E+00 -0.70488268219E-02 -0.21502887586E-01  0.88830610757E+00  0.88000000000E+00 0.  1.
        -11    1    4    4    0    0  0.51786370655E-01  0.15929254738E-01  0.62311138794E-02  0.54540418437E-01  0.51100000000E-03 0.  1.
         11    1    4    4    0    0  0.72251371650E-01  0.92916983233E-02  0.28326390125E-01  0.78161639322E-01  0.51100000000E-03 0. -1.
</event>
<event>
 8    1  0.1054833E+005  0.1043930E+01  0.7957747E-01            NaN
         13   -1    0    0    0    0  0.00000000000E+00  0.00000000000E+00  0.74505805969E-08  0.10566000000E+00  0.10566000000E+00 0. -1.
     999900   -1    0    0    0    0 -0.00000000000E+00 -0.00000000000E+00 -0.74505805969E-08  0.93827000000E+00  0.93827000000E+00 0.  1.
     999902    2    1    2    0    0  0.92103032243E-04  0.20646169527E-01  0.78282321363E-02  0.10218493746E+01  0.10216107822E+01 0.  0.
     999903    2    3    3    0    0 -0.29865004488E-01  0.12387604244E+00  0.38989215467E-01  0.13476153125E+00  0.20082803599E-01 0.  0.
         14    1    1    2    0    0 -0.92103032243E-04 -0.20646169527E-01 -0.78282321363E-02  0.22080625387E-01  0.00000000000E+00 0.  1.
     999901    1    3    3    0    0  0.29957107520E-01 -0.10322987291E+00 -0.31160983331E-01  0.88708784336E+00  0.88000000000E+00 0.  1.
        -11    1    4    4    0    0 -0.22538243218E-02  0.39877923207E-01  0.60311761273E-02  0.40397582723E-01  0.51100000000E-03 0.  1.
         11    1    4    4    0    0 -0.27611180166E-01  0.83998119230E-01  0.32958039339E-01  0.94363948531E-01  0.51100000000E-03 0. -1.
</event>
<event>
 8    1  0.1054833E+005  0.1043930E+01  0.7957747E-01            NaN
         13   -1    0    0    0    0  0.00000000000E+00  0.00000000000E+00  0.74505805969E-08  0.10566000000E+00  0.10566000000E+00 0. -1.
     999900   -1    0    0    0    0 -0.00000000000E+00 -0.00000000000E+00 -0.74505805969E-08  0.93827000000E+00  0.93827000000E+00 0.  1.
     999902    2    1    2    0    0  0.81788995195E-02 -0.21351626619E-01  0.73330142784E-02  0.10199183475E+01  0.10196356585E+01 0.  0.
     999903    2    3    3    0    0  0.83435392756E-01 -0.74361681624E-01 -0.67774865417E-01  0.13193478950E+00  0.17950817282E-01 0.  0.
         14    1    1    2    0    0 -0.81788995195E-02  0.21351626619E-01 -0.73330142784E-02  0.24011652484E-01  0.00000000000E+00 0.  1.
     999901    1    3    3    0    0 -0.75256493236E-01  0.53010055006E-01  0.75107879695E-01  0.88798355801E+00  0.88000000000E+00 0. -1.
        -11    1    4    4    0    0  0.55724040922E-01 -0.37888472382E-01 -0.40493371784E-01  0.78617296796E-01  0.51100000000E-03 0. -1.
         11    1    4    4    0    0  0.27711351834E-01 -0.36473209242E-01 -0.27281493632E-01  0.53317492709E-01  0.51100000000E-03 0.  1.
</event>
<event>
 8    1  0.1054833E+005  0.1043930E+01  0.7957747E-01            NaN
         13   -1    0    0    0    0  0.00000000000E+00  0.00000000000E+00  0.74505805969E-08  0.10566000000E+00  0.10566000000E+00 0.  1.
     999900   -1    0    0    0    0 -0.00000000000E+00 -0.00000000000E+00 -0.74505805969E-08  0.93827000000E+00  0.93827000000E+00 0. -1.
     999902    2    1    2    0    0 -0.19457827424E-01  0.18015506138E-01  0.35269433775E-03  0.10174103865E+01  0.10170647003E+01 0.  0.
     999903    2    3    3    0    0  0.28253602628E-01 -0.11246578373E+00 -0.43668199425E-01  0.12542407117E+00  0.19428520712E-01 0.  0.
         14    1    1    2    0    0  0.19457827424E-01 -0.18015506138E-01 -0.35269433775E-03  0.26519613549E-01  0.00000000000E+00 0.  1.
     999901    1    3    3    0    0 -0.47711430052E-01  0.13048128986E+00  0.44020893763E-01  0.89198631528E+00  0.88000000000E+00 0. -1.
        -11    1    4    4    0    0  0.98350791943E-02 -0.12442560299E-01 -0.56379140936E-02  0.16840228201E-01  0.51100000000E-03 0.  1.
         11    1    4    4    0    0  0.18418523434E-01 -0.10002322343E+00 -0.38030285331E-01  0.10858384297E+00  0.51100000000E-03 0. -1.
</event>
<event>
 8    1  0.1054833E+005  0.1043930E+01  0.7957747E-01            NaN
         13   -1    0    0    0    0  0.00000000000E+00  0.00000000000E+00  0.74505805969E-08  0.10566000000E+00  0.10566000000E+00 0.  1.
     999900   -1    0    0    0    0 -0.00000000000E+00 -0.00000000000E+00 -0.74505805969E-08  0.93827000000E+00  0.93827000000E+00 0. -1.
     999902    2    1    2    0    0  0.10195400420E-01 -0.21479015019E-01  0.11925583891E-03  0.10201537829E+01  0.10198766751E+01 0.  0.
     999903    2    3    3    0    0 -0.74006170848E-01  0.96278553826E-01  0.33836747688E-01  0.12768887109E+00  0.20323608320E-01 0.  0.
         14    1    1    2    0    0 -0.10195400420E-01  0.21479015019E-01 -0.11925583891E-03  0.23776217064E-01  0.00000000000E+00 0.  1.
     999901    1    3    3    0    0  0.84201571267E-01 -0.11775756885E+00 -0.33717491849E-01  0.89246491185E+00  0.88000000000E+00 0.  1.
        -11    1    4    4    0    0 -0.22959516879E-01  0.46102000545E-01  0.12582873784E-01  0.53020031150E-01  0.51100000000E-03 0.  1.
         11    1    4    4    0    0 -0.51046653969E-01  0.50176553281E-01  0.21253873904E-01  0.74668839937E-01  0.51100000000E-03 0. -1.
</event>
<event>
 8    1  0.1054833E+005  0.1043930E+01  0.7957747E-01            NaN
         13   -1    0    0    0    0  0.00000000000E+00  0.00000000000E+00  0.74505805969E-08  0.10566000000E+00  0.10566000000E+00 0. -1.
     999900   -1    0    0    0    0 -0.00000000000E+00 -0.00000000000E+00 -0.74505805969E-08  0.93827000000E+00  0.93827000000E+00 0.  1.
     999902    2    1    2    0    0  0.19873290330E-01 -0.11924850444E-01 -0.26266841049E-02  0.10206051378E+01  0.10203385703E+01 0.  0.
     999903    2    3    3    0    0 -0.59031827378E-01 -0.71805613710E-01  0.88982226444E-01  0.13032208400E+00  0.20620527447E-01 0.  0.
         14    1    1    2    0    0 -0.19873290330E-01  0.11924850444E-01  0.26266841049E-02  0.23324862187E-01  0.00000000000E+00 0. -1.
     999901    1    3    3    0    0  0.78905117708E-01  0.59880763266E-01 -0.91608910549E-01  0.89028305381E+00  0.88000000000E+00 0. -1.
        -11    1    4    4    0    0 -0.14327087525E-01 -0.33036828412E-01  0.35157126637E-01  0.50328740724E-01  0.51100000000E-03 0.  1.
         11    1    4    4    0    0 -0.44704739853E-01 -0.38768785298E-01  0.53825099807E-01  0.79993343279E-01  0.51100000000E-03 0. -1.
</event>
<event>
 8    1  0.1054833E+005  0.1043930E+01  0.7957747E-01            NaN
         13   -1    0    0    0    0  0.00000000000E+00  0.00000000000E+00  0.74505805969E-08  0.10566000000E+00  0.10566000000E+00 0.  1.
     999900   -1    0    0    0    0 -0.00000000000E+00 -0.00000000000E+00 -0.74505805969E-08  0.93827000000E+00  0.93827000000E+00 0. -1.
     999902    2    1    2    0    0  0.54328464880E-02 -0.10026526806E-01 -0.22386678356E-01  0.10188060985E+01  0.10184962719E+01 0.  0.
     999903    2    3    3    0    0  0.92290100382E-01 -0.84240439746E-01  0.28876414616E-01  0.12994177128E+00  0.20906991317E-01 0.  0.
         14    1    1    2    0    0 -0.54328464880E-02  0.10026526806E-01  0.22386678356E-01  0.25123901539E-01  0.00000000000E+00 0.  1.
     999901    1    3    3    0    0 -0.86857253894E-01  0.74213912941E-01 -0.51263092971E-01  0.88886432718E+00  0.88000000000E+00 0. -1.
        -11    1    4    4    0    0  0.12102427105E-01 -0.15092179031E-01  0.11860404685E-01  0.22697421219E-01  0.51100000000E-03 0.  1.
         11    1    4    4    0    0  0.80187673278E-01 -0.69148260716E-01  0.17016009931E-01  0.10724435006E+00  0.51100000000E-03 0. -1.
</event>
<event>
 8    1  0.1054833E+005  0.1043930E+01  0.7957747E-01            NaN
         13   -1    0    0    0    0  0.00000000000E+00  0.00000000000E+00  0.74505805969E-08  0.10566000000E+00  0.10566000000E+00 0.  1.
     999900   -1    0    0    0    0 -0.00000000000E+00 -0.00000000000E+00 -0.74505805969E-08  0.93827000000E+00  0.93827000000E+00 0.  1.
     999902    2    1    2    0    0 -0.11406283172E-01 -0.11282080790E-01  0.17242744635E-01  0.10203779112E+01  0.10201060635E+01 0.  0.
     999903    2    3    3    0    0 -0.96822469177E-01  0.85099520474E-01 -0.50620201035E-02  0.13072469766E+00  0.21137729484E-01 0.  0.
         14    1    1    2    0    0  0.11406283172E-01  0.11282080790E-01 -0.17242744635E-01  0.23552088768E-01  0.00000000000E+00 0.  1.
     999901    1    3    3    0    0  0.85416186005E-01 -0.96381601264E-01  0.22304764739E-01  0.88965321357E+00  0.88000000000E+00 0.  1.
        -11    1    4    4    0    0 -0.49034182315E-01  0.42828612503E-01  0.80060263004E-02  0.65597245844E-01  0.51100000000E-03 0. -1.
         11    1    4    4    0    0 -0.47788286862E-01  0.42270907971E-01 -0.13068046404E-01  0.65127451813E-01  0.51100000000E-03 0.  1.
</event>
<event>
 8    1  0.1054833E+005  0.1043930E+01  0.7957747E-01            NaN
         13   -1    0    0    0    0  0.00000000000E+00  0.00000000000E+00  0.74505805969E-08  0.10566000000E+00  0.10566000000E+00 0.  1.
     999900   -1    0    0    0    0 -0.00000000000E+00 -0.00000000000E+00 -0.74505805969E-08  0.93827000000E+00  0.93827000000E+00 0. -1.
     999902    2    1    2    0    0  0.19553316551E-01 -0.13562044768E-01 -0.43276515439E-03  0.10201298208E+01  0.10198521475E+01 0.  0.
     999903    2    3    3    0    0  0.81378944392E-01 -0.99676390765E-01 -0.28547577834E-01  0.13332176287E+00  0.20045268446E-01 0.  0.
         14    1    1    2    0    0 -0.19553316551E-01  0.13562044768E-01  0.43276515439E-03  0.23800179246E-01  0.00000000000E+00 0.  1.
     999901    1    3    3    0    0 -0.61825627841E-01  0.86114345997E-01  0.28114812679E-01  0.88680805789E+00  0.88000000000E+00 0. -1.
        -11    1    4    4    0    0  0.14157559240E-01 -0.71975631082E-02 -0.29616888233E-02  0.16163975997E-01  0.51100000000E-03 0. -1.
         11    1    4    4    0    0  0.67221385151E-01 -0.92478827657E-01 -0.25585889011E-01  0.11715778687E+00  0.51100000000E-03 0.  1.
</event>
<event>
 8    1  0.1054833E+005  0.1043930E+01  0.7957747E-01            NaN
         13   -1    0    0    0    0  0.00000000000E+00  0.00000000000E+00  0.74505805969E-08  0.10566000000E+00  0.10566000000E+00 0. -1.
     999900   -1    0    0    0    0 -0.00000000000E+00 -0.00000000000E+00 -0.74505805969E-08  0.93827000000E+00  0.93827000000E+00 0. -1.
     999902    2    1    2    0    0 -0.38269589912E-02 -0.22702815714E-01 -0.47666722901E-02  0.10204186278E+01  0.10201477302E+01 0.  0.
     999903    2    3    3    0    0 -0.53678640568E-02  0.32935050667E-01 -0.12550311545E+00  0.13043254071E+00  0.12168983608E-01 0.  0.
         14    1    1    2    0    0  0.38269589912E-02  0.22702815714E-01  0.47666722901E-02  0.23511372167E-01  0.00000000000E+00 0.  1.
     999901    1    3    3    0    0  0.15409050656E-02 -0.55637866381E-01  0.12073644316E+00  0.88998608712E+00  0.88000000000E+00 0.  1.
        -11    1    4    4    0    0 -0.85788557040E-02  0.17860479239E-01 -0.62390433051E-01  0.65463125048E-01  0.51100000000E-03 0. -1.
         11    1    4    4    0    0  0.32109916472E-02  0.15074571429E-01 -0.63112682398E-01  0.64969415663E-01  0.51100000000E-03 0.  1.
</event>
<event>
 8    1  0.1054833E+005  0.1043930E+01  0.7957747E-01            NaN
         13   -1    0    0    0    0  0.00000000000E+00  0.00000000000E+00  0.74505805969E-08  0.10566000000E+00  0.10566000000E+00 0. -1.
     999900   -1    0    0    0    0 -0.00000000000E+00 -0.00000000000E+00 -0.74505805969E-08  0.93827000000E+00  0.93827000000E+00 0.  1.
     999902    2    1    2    0    0  0.51769916791E-02  0.59205343396E-02  0.22827153485E-01  0.10197859965E+01  0.10195001450E+01 0.  0.
     999903    2    3    3    0    0 -0.68218527652E-01  0.97120686636E-01 -0.46671109930E-01  0.12931736781E+00  0.21414803909E-01 0.  0.
         14    1    1    2    0    0 -0.51769916791E-02 -0.59205343396E-02 -0.22827153485E-01  0.24144003519E-01  0.00000000000E+00 0.  1.
     999901    1    3    3    0    0  0.73395519331E-01 -0.91200152296E-01  0.69498263415E-01  0.89046862868E+00  0.88000000000E+00 0. -1.
        -11    1    4    4    0    0 -0.57144326006E-01  0.74131283709E-01 -0.44676474394E-01  0.10371677639E+00  0.51100000000E-03 0. -1.
         11    1    4    4    0    0 -0.11074201645E-01  0.22989402927E-01 -0.19946355369E-02  0.25600591418E-01  0.51100000000E-03 0.  1.
</event>
<event>
 8    1  0.1054833E+005  0.1043930E+01  0.7957747E-01            NaN
         13   -1    0    0    0    0  0.00000000000E+00  0.00000000000E+00  0.74505805969E-08  0.10566000000E+00  0.10566000000E+00 0. -1.
     999900   -1    0    0    0    0 -0.00000000000E+00 -0.00000000000E+00 -0.74505805969E-08  0.93827000000E+00  0.93827000000E+00 0. -1.
     999902    2    1    2    0    0 -0.38133859326E-02 -0.22502338179E-01 -0.76126811645E-02  0.10198706972E+01  0.10195868717E+01 0.  0.
     999903    2    3    3    0    0  0.31279286095E-01  0.10968607475E+00 -0.56121243971E-01  0.12798597776E+00  0.14879104338E-01 0.  0.
         14    1    1    2    0    0  0.38133859326E-02  0.22502338179E-01  0.76126811645E-02  0.24059302781E-01  0.00000000000E+00 0. -1.
     999901    1    3    3    0    0 -0.35092672028E-01 -0.13218841293E+00  0.48508562807E-01  0.89188471946E+00  0.88000000000E+00 0.  1.
        -11    1    4    4    0    0  0.14281900784E-01  0.72935389797E-01 -0.39980999002E-01  0.84393632325E-01  0.51100000000E-03 0.  1.
         11    1    4    4    0    0  0.16997385312E-01  0.36750684951E-01 -0.16140244969E-01  0.43592345434E-01  0.51100000000E-03 0. -1.
</event>
<event>
 8    1  0.1054833E+005  0.1043930E+01  0.7957747E-01            NaN
         13   -1    0    0    0    0  0.00000000000E+00  0.00000000000E+00  0.74505805969E-08  0.10566000000E+00  0.10566000000E+00 0.  1.
     999900   -1    0    0    0    0 -0.00000000000E+00 -0.00000000000E+00 -0.74505805969E-08  0.93827000000E+00  0.93827000000E+00 0.  1.
     999902    2    1    2    0    0 -0.37522670726E-02 -0.17047704205E-01  0.16368975918E-01  0.10199999540E+01  0.10197192060E+01 0.  0.
     999903    2    3    3    0    0 -0.59315191079E-01  0.99295234397E-01 -0.51152204888E-01  0.12804590380E+00  0.20034219446E-01 0.  0.
         14    1    1    2    0    0  0.37522670726E-02  0.17047704205E-01 -0.16368975918E-01  0.23930045956E-01  0.00000000000E+00 0. -1.
     999901    1    3    3    0    0  0.55562924006E-01 -0.11634293860E+00  0.67521180806E-01  0.89195405024E+00  0.88000000000E+00 0. -1.
        -11    1    4    4    0    0 -0.33180735868E-01  0.36389359724E-01 -0.22501559782E-01  0.54145434225E-01  0.51100000000E-03 0.  1.
         11    1    4    4    0    0 -0.26134455211E-01  0.62905874674E-01 -0.28650645106E-01  0.73900469576E-01  0.51100000000E-03 0. -1.
</event>
<event>
 8    1  0.1054833E+005  0.1043930E+01  0.7957747E-01            NaN
         13   -1    0    0    0    0  0.00000000000E+00  0.00000000000E+00  0.74505805969E-08  0.10566000000E+00  0.10566000000E+00 0. -1.
     999900   -1    0    0    0    0 -0.00000000000E+00 -0.00000000000E+00 -0.74505805969E-08  0.93827000000E+00  0.93827000000E+00 0.  1.
     999902    2    1    2    0    0 -0.43786580354E-02  0.24265316472E-01  0.11475431228E-02  0.10192460966E+01  0.10189471578E+01 0.  0.
     999903    2    3    3    0    0  0.82818839219E-01  0.86588568225E-01  0.50074686595E-01  0.13139393744E+00  0.20008805097E-01 0.  0.
         14    1    1    2    0    0  0.43786580354E-02 -0.24265316472E-01 -0.11475431228E-02  0.24683903356E-01  0.00000000000E+00 0.  1.
     999901    1    3    3    0    0 -0.87197497254E-01 -0.62323251752E-01 -0.48927143472E-01  0.88785215920E+00  0.88000000000E+00 0. -1.
        -11    1    4    4    0    0  0.23300890380E-01  0.17201323032E-01  0.47388601042E-02  0.29351915144E-01  0.51100000000E-03 0.  1.
         11    1    4    4    0    0  0.59517948839E-01  0.69387245193E-01  0.45335826491E-01  0.10204202229E+00  0.51100000000E-03 0. -1.
</event>
<event>
 8    1  0.1054833E+005  0.1043930E+01  0.7957747E-01            NaN
         13   -1    0    0    0    0  0.00000000000E+00  0.00000000000E+00  0.74505805969E-08  0.10566000000E+00  0.10566000000E+00 0. -1.
     999900   -1    0    0    0    0 -0.00000000000E+00 -0.00000000000E+00 -0.74505805969E-08  0.93827000000E+00  0.93827000000E+00 0. -1.
     999902    2    1    2    0    0  0.21667982999E-01  0.63222912576E-02 -0.62799319601E-02  0.10205011631E+01  0.10202321860E+01 0.  0.
     999903    2    3    3    0    0 -0.11591233952E+00  0.61055663460E-02  0.50004719320E-01  0.12803471885E+00  0.20480939473E-01 0.  0.
         14    1    1    2    0    0 -0.21667982999E-01 -0.63222912576E-02  0.62799319601E-02  0.23428836920E-01  0.00000000000E+00 0.  1.
     999901    1    3    3    0    0  0.13758032252E+00  0.21672491155E-03 -0.56284651280E-01  0.89246644423E+00  0.88000000000E+00 0. -1.
        -11    1    4    4    0    0 -0.81939483208E-01 -0.31539780176E-02  0.41027481978E-01  0.91692649020E-01  0.51100000000E-03 0. -1.
         11    1    4    4    0    0 -0.33972856314E-01  0.92595443636E-02  0.89772373421E-02  0.36342069826E-01  0.51100000000E-03 0.  1.
</event>
<event>
 8    1  0.1054833E+005  0.1043930E+01  0.7957747E-01            NaN
         13   -1    0    0    0    0  0.00000000000E+00  0.00000000000E+00  0.74505805969E-08  0.10566000000E+00  0.10566000000E+00 0. -1.
     999900   -1    0    0    0    0 -0.00000000000E+00 -0.00000000000E+00 -0.74505805969E-08  0.93827000000E+00  0.93827000000E+00 0.  1.
     999902    2    1    2    0    0  0.17870785297E-01  0.15726881425E-01  0.36411549089E-02  0.10198476875E+01  0.10195633124E+01 0.  0.
     999903    2    3    3    0    0 -0.55167456407E-01  0.91870645751E-01  0.72361797311E-01  0.13088481747E+00  0.20271702846E-01 0.  0.
         14    1    1    2    0    0 -0.17870785297E-01 -0.15726881425E-01 -0.36411549089E-02  0.24082312504E-01  0.00000000000E+00 0.  1.
     999901    1    3    3    0    0  0.73038241704E-01 -0.76143764326E-01 -0.68720642402E-01  0.88896287003E+00  0.88000000000E+00 0.  1.
        -11    1    4    4    0    0 -0.35514896489E-01  0.52828209775E-01  0.31408185863E-01  0.70984948270E-01  0.51100000000E-03 0.  1.
         11    1    4    4    0    0 -0.19652559918E-01  0.39042435976E-01  0.40953611448E-01  0.59899869198E-01  0.51100000000E-03 0. -1.
</event>
<event>
 8    1  0.1054833E+005  0.1043930E+01  0.7957747E-01            NaN
         13   -1    0    0    0    0  0.00000000000E+00  0.00000000000E+00  0.74505805969E-08  0.10566000000E+00  0.10566000000E+00 0. -1.
     999900   -1    0    0    0    0 -0.00000000000E+00 -0.00000000000E+00 -0.74505805969E-08  0.93827000000E+00  0.93827000000E+00 0. -1.
     999902    2    1    2    0    0  0.91944611339E-02 -0.22383521428E-01 -0.88490041492E-04  0.10197314881E+01  0.10194443290E+01 0.  0.
     999903    2    3    3    0    0 -0.63657646293E-01  0.89891132588E-01  0.61208956633E-01  0.12750371200E+00  0.19440898984E-01 0.  0.
         14    1    1    2    0    0 -0.91944611339E-02  0.22383521428E-01  0.88490041492E-04  0.24198511887E-01  0.00000000000E+00 0.  1.
     999901    1    3    3    0    0  0.72852107427E-01 -0.11227465402E+00 -0.61297446675E-01  0.89222777611E+00  0.88000000000E+00 0.  1.
        -11    1    4    4    0    0 -0.36016613437E-01  0.59950512921E-01  0.47346845404E-01  0.84458542100E-01  0.51100000000E-03 0. -1.
         11    1    4    4    0    0 -0.27641032855E-01  0.29940619667E-01  0.13862111229E-01  0.43045169904E-01  0.51100000000E-03 0.  1.
</event>
<event>
 8    1  0.1054833E+005  0.1043930E+01  0.7957747E-01            NaN
         13   -1    0    0    0    0  0.00000000000E+00  0.00000000000E+00  0.74505805969E-08  0.10566000000E+00  0.10566000000E+00 0.  1.
     999900   -1    0    0    0    0 -0.00000000000E+00 -0.00000000000E+00 -0.74505805969E-08  0.93827000000E+00  0.93827000000E+00 0. -1.
     999902    2    1    2    0    0  0.45976194646E-02  0.11782041643E-01  0.20439608208E-01  0.10198939397E+01  0.10196106689E+01 0.  0.
     999903    2    3    3    0    0  0.11833932272E+00  0.50631417363E-01  0.18989553244E-01  0.13172247445E+00  0.20554109503E-01 0.  0.
         14    1    1    2    0    0 -0.45976194646E-02 -0.11782041643E-01 -0.20439608208E-01  0.24036060279E-01  0.00000000000E+00 0. -1.
     999901    1    3    3    0    0 -0.11374170326E+00 -0.38849375720E-01  0.14500549639E-02  0.88817146527E+00  0.88000000000E+00 0.  1.
        -11    1    4    4    0    0  0.98078446452E-02 -0.56514797764E-03 -0.16014605820E-02  0.99668954955E-02  0.51100000000E-03 0. -1.
         11    1    4    4    0    0  0.10853147808E+00  0.51196565340E-01  0.20591013826E-01  0.12175557896E+00  0.51100000000E-03 0.  1.
</event>
<event>
 8    1  0.1054833E+005  0.1043930E+01  0.7957747E-01            NaN
         13   -1    0    0    0    0  0.00000000000E+00  0.00000000000E+00  0.74505805969E-08  0.10566000000E+00  0.10566000000E+00 0.  1.
     999900   -1    0    0    0    0 -0.00000000000E+00 -0.00000000000E+00 -0.74505805969E-08  0.93827000000E+00  0.93827000000E+00 0. -1.
     999902    2    1    2    0    0  0.19296366674E-01 -0.11929978279E-01  0.39054442699E-02  0.10209098644E+01  0.10206502949E+01 0.  0.
     999903    2    3    3    0    0 -0.63359991820E-01  0.28590736911E-01  0.10811939019E+00  0.12999205197E+00  0.19396191376E-01 0.  0.
         14    1    1    2    0    0 -0.19296366674E-01  0.11929978279E-01 -0.39054442699E-02  0.23020135610E-01  0.00000000000E+00 0. -1.
     999901    1    3    3    0    0  0.82656358493E-01 -0.40520715190E-01 -0.10421394592E+00  0.89091781242E+00  0.88000000000E+00 0. -1.
        -11    1    4    4    0    0 -0.39114405480E-01  0.21563251704E-01  0.52638301964E-01  0.69035950742E-01  0.51100000000E-03 0. -1.
         11    1    4    4    0    0 -0.24245586340E-01  0.70274852066E-02  0.55481088228E-01  0.60956101231E-01  0.51100000000E-03 0.  1.
</event>
<event>
 8    1  0.1486869E+005  0.1043930E+01  0.7957747E-01            NaN
         13   -1    0    0    0    0  0.00000000000E+00  0.00000000000E+00  0.74505805969E-08  0.10566000000E+00  0.10566000000E+00 0. -1.
     999900   -1    0    0    0    0 -0.00000000000E+00 -0.00000000000E+00 -0.74505805969E-08  0.93827000000E+00  0.93827000000E+00 0. -1.
     999902    2    1    2    0    0 -0.13540734315E-01 -0.21411157445E-01 -0.31130950276E-02  0.10184058838E+01  0.10180859804E+01 0.  0.
     999903    2    3    3    0    0 -0.11399276880E+00  0.46015117734E-01 -0.35655234785E-01  0.12953249307E+00  0.19890414656E-01 0.  0.
         14    1    1    2    0    0  0.13540734315E-01  0.21411157445E-01  0.31130950276E-02  0.25524116235E-01  0.00000000000E+00 0.  1.
     999901    1    3    3    0    0  0.10045203449E+00 -0.67426275180E-01  0.32542139757E-01  0.88887339069E+00  0.88000000000E+00 0. -1.
        -11    1    4    4    0    0 -0.72959410341E-01  0.20548446616E-01 -0.16490991799E-01  0.77572728115E-01  0.51100000000E-03 0. -1.
         11    1    4    4    0    0 -0.41033358461E-01  0.25466671118E-01 -0.19164242986E-01  0.51959764960E-01  0.51100000000E-03 0.  1.
</event>
<event>
 8    1  0.1054833E+005  0.1043930E+01  0.7957747E-01            NaN
         13   -1    0    0    0    0  0.00000000000E+00  0.00000000000E+00  0.74505805969E-08  0.10566000000E+00  0.10566000000E+00 0. -1.
     999900   -1    0    0    0    0 -0.00000000000E+00 -0.00000000000E+00 -0.74505805969E-08  0.93827000000E+00  0.93827000000E+00 0. -1.
     999902    2    1    2    0    0 -0.95976626060E-02  0.21507814424E-01 -0.10241851508E-01  0.10182473847E+01  0.10179234449E+01 0.  0.
     999903    2    3    3    0    0 -0.89811451763E-01  0.89124114602E-01 -0.30838331918E-01  0.13177661185E+00  0.20121333073E-01 0.  0.
         14    1    1    2    0    0  0.95976626060E-02 -0.21507814424E-01  0.10241851508E-01  0.25682615348E-01  0.00000000000E+00 0. -1.
     999901    1    3    3    0    0  0.80213789157E-01 -0.67616300178E-01  0.20596480410E-01  0.88647077280E+00  0.88000000000E+00 0.  1.
        -11    1    4    4    0    0 -0.36735368844E-01  0.45475793599E-01 -0.22113676430E-01  0.62504487310E-01  0.51100000000E-03 0. -1.
         11    1    4    4    0    0 -0.53076082919E-01  0.43648321003E-01 -0.87246554881E-02  0.69272124543E-01  0.51100000000E-03 0.  1.
</event>
<event>
 8    1  0.1054833E+005  0.1043930E+01  0.7957747E-01            NaN
         13   -1    0    0    0    0  0.00000000000E+00  0.00000000000E+00  0.74505805969E-08  0.10566000000E+00  0.10566000000E+00 0.  1.
     999900   -1    0    0    0    0 -0.00000000000E+00 -0.00000000000E+00 -0.74505805969E-08  0.93827000000E+00  0.93827000000E+00 0. -1.
     999902    2    1    2    0    0 -0.16579490077E-01  0.79436262481E-02  0.16036416874E-01  0.10195343579E+01  0.10192424439E+01 0.  0.
     999903    2    3    3    0    0 -0.70788925217E-01 -0.70221839220E-01  0.83985988736E-01  0.13180374153E+00  0.19401065470E-01 0.  0.
         14    1    1    2    0    0  0.16579490077E-01 -0.79436262481E-02 -0.16036416874E-01  0.24395642139E-01  0.00000000000E+00 0. -1.
     999901    1    3    3    0    0  0.54209435140E-01  0.78165465468E-01 -0.67949571862E-01  0.88773061633E+00  0.88000000000E+00 0. -1.
        -11    1    4    4    0    0 -0.60755984104E-01 -0.50673639317E-01  0.70822963124E-01  0.10618502980E+00  0.51100000000E-03 0.  1.
         11    1    4    4    0    0 -0.10032941113E-01 -0.19548199903E-01  0.13163025613E-01  0.25618711738E-01  0.51100000000E-03 0. -1.
</event>
<event>
 8    1  0.1054833E+005  0.1043930E+01  0.7957747E-01            NaN
         13   -1    0    0    0    0  0.00000000000E+00  0.00000000000E+00  0.74505805969E-08  0.10566000000E+00  0.10566000000E+00 0. -1.
     999900   -1    0    0    0    0 -0.00000000000E+00 -0.00000000000E+00 -0.74505805969E-08  0.93827000000E+00  0.93827000000E+00 0.  1.
     999902    2    1    2    0    0  0.11807521384E-01  0.22480264163E-02 -0.12835484380E-01  0.10263453236E+01  0.10261946709E+01 0.  0.
     999903    2    3    3    0    0 -0.10855554262E+00 -0.58610281730E-01  0.48136740480E-01  0.13398406659E+00  0.20374330872E-01 0.  0.
         14    1    1    2    0    0 -0.11807521384E-01 -0.22480264163E-02  0.12835484380E-01  0.17584676376E-01  0.00000000000E+00 0. -1.
     999901    1    3    3    0    0  0.12036306400E+00  0.60858308146E-01 -0.60972224860E-01  0.89236125703E+00  0.88000000000E+00 0. -1.
        -11    1    4    4    0    0 -0.49565130706E-01 -0.35410623456E-01  0.30826408312E-01  0.68272564079E-01  0.51100000000E-03 0.  1.
         11    1    4    4    0    0 -0.58990411914E-01 -0.23199658274E-01  0.17310332168E-01  0.65711502513E-01  0.51100000000E-03 0. -1.
</event>
<event>
 8    1  0.1054833E+005  0.1043930E+01  0.7957747E-01            NaN
         13   -1    0    0    0    0  0.00000000000E+00  0.00000000000E+00  0.74505805969E-08  0.10566000000E+00  0.10566000000E+00 0. -1.
     999900   -1    0    0    0    0 -0.00000000000E+00 -0.00000000000E+00 -0.74505805969E-08  0.93827000000E+00  0.93827000000E+00 0.  1.
     999902    2    1    2    0    0  0.45266257976E-02 -0.56039851459E-02 -0.23629660934E-01  0.10192266426E+01  0.10189272266E+01 0.  0.
     999903    2    3    3    0    0  0.79394622194E-01 -0.99604570493E-01 -0.23605724807E-01  0.13105924425E+00  0.19867530384E-01 0.  0.
         14    1    1    2    0    0 -0.45266257976E-02  0.56039851459E-02  0.23629660934E-01  0.24703357392E-01  0.00000000000E+00 0. -1.
     999901    1    3    3    0    0 -0.74867996397E-01  0.94000585347E-01 -0.23936126037E-04  0.88816739836E+00  0.88000000000E+00 0. -1.
        -11    1    4    4    0    0  0.51140198790E-01 -0.60132898396E-01 -0.50925996392E-02  0.79104241946E-01  0.51100000000E-03 0.  1.
         11    1    4    4    0    0  0.28254423405E-01 -0.39471672097E-01 -0.18513125168E-01  0.51955002305E-01  0.51100000000E-03 0. -1.
</event>
<event>
 8    1  0.1054833E+005  0.1043930E+01  0.7957747E-01            NaN
         13   -1    0    0    0    0  0.00000000000E+00  0.00000000000E+00  0.74505805969E-08  0.10566000000E+00  0.10566000000E+00 0. -1.
     999900   -1    0    0    0    0 -0.00000000000E+00 -0.00000000000E+00 -0.74505805969E-08  0.93827000000E+00  0.93827000000E+00 0. -1.
     999902    2    1    2    0    0 -0.14171691930E-01  0.12450079488E-02 -0.11010343014E-01  0.10259407101E+01  0.10257829820E+01 0.  0.
     999903    2    3    3    0    0  0.38402384736E-01  0.80432097329E-01  0.98207651615E-01  0.13410933648E+00  0.19912454940E-01 0.  0.
         14    1    1    2    0    0  0.14171691930E-01 -0.12450079488E-02  0.11010343014E-01  0.17989289876E-01  0.00000000000E+00 0. -1.
     999901    1    3    3    0    0 -0.52574076666E-01 -0.79187089381E-01 -0.10921799463E+00  0.89183137364E+00  0.88000000000E+00 0. -1.
        -11    1    4    4    0    0  0.32875747156E-01  0.46875168746E-01  0.63883688344E-01  0.85787428878E-01  0.51100000000E-03 0. -1.
         11    1    4    4    0    0  0.55266375796E-02  0.33556928583E-01  0.34323963271E-01  0.48321907604E-01  0.51100000000E-03 0.  1.
</event>
<event>
 8    1  0.1054833E+005  0.1043930E+01  0.7957747E-01            NaN
         13   -1    0    0    0    0  0.00000000000E+00  0.00000000000E+00  0.74505805969E-08  0.10566000000E+00  0.10566000000E+00 0.  1.
     999900   -1    0    0    0    0 -0.00000000000E+00 -0.00000000000E+00 -0.74505805969E-08  0.93827000000E+00  0.93827000000E+00 0. -1.
     999902    2    1    2    0    0 -0.18892226705E-01  0.12281130147E-01 -0.72142292069E-03  0.10213853146E+01  0.10211364738E+01 0.  0.
     999903    2    3    3    0    0  0.11826424200E-01  0.12117831037E+00  0.49005192251E-01  0.13274873670E+00  0.19916601464E-01 0.  0.
         14    1    1    2    0    0  0.18892226705E-01 -0.12281130147E-01  0.72142292069E-03  0.22544685373E-01  0.00000000000E+00 0.  1.
     999901    1    3    3    0    0 -0.30718650905E-01 -0.10889718023E+00 -0.49726615172E-01  0.88863657793E+00  0.88000000000E+00 0. -1.
        -11    1    4    4    0    0  0.85166327802E-03  0.57618605251E-01  0.32533927824E-01  0.66176631692E-01  0.51100000000E-03 0. -1.
         11    1    4    4    0    0  0.10974760922E-01  0.63559705120E-01  0.16471264426E-01  0.66572105007E-01  0.51100000000E-03 0.  1.
</event>
<event>
 8    1  0.1054833E+005  0.1043930E+01  0.7957747E-01            NaN
         13   -1    0    0    0    0  0.00000000000E+00  0.00000000000E+00  0.74505805969E-08  0.10566000000E+00  0.10566000000E+00 0. -1.
     999900   -1    0    0    0    0 -0.00000000000E+00 -0.00000000000E+00 -0.74505805969E-08  0.93827000000E+00  0.93827000000E+00 0. -1.
     999902    2    1    2    0    0 -0.41567450608E-02  0.38727775853E-02 -0.22942298546E-01  0.10202947298E+01  0.10200209359E+01 0.  0.
     999903    2    3    3    0    0  0.11485057153E+00 -0.57385616040E-01  0.78419829074E-03  0.12985760182E+00  0.19458136481E-01 0.  0.
         14    1    1    2    0    0  0.41567450608E-02 -0.38727775853E-02  0.22942298546E-01  0.23635270218E-01  0.00000000000E+00 0. -1.
     999901    1    3    3    0    0 -0.11900731659E+00  0.61258393625E-01 -0.23726496837E-01  0.89043712796E+00  0.88000000000E+00 0. -1.
        -11    1    4    4    0    0  0.16297975170E-01 -0.13411771329E-01 -0.52960763660E-02  0.21767157617E-01  0.51100000000E-03 0. -1.
         11    1    4    4    0    0  0.98552596361E-01 -0.43973844711E-01  0.60802746568E-02  0.10809044421E+00  0.51100000000E-03 0.  1.
</event>
<event>
 7    1  0.1054833E+005  0.1043930E+01  0.7957747E-01            NaN
         13   -1    0    0    0    0  0.00000000000E+00  0.00000000000E+00  0.74505805969E-08  0.10566000000E+00  0.10566000000E+00 0.  1.
     999900   -1    0    0    0    0 -0.00000000000E+00 -0.00000000000E+00 -0.74505805969E-08  0.93827000000E+00  0.93827000000E+00 0.  1.
     999902    2    1    2    0    0 -0.70224153586E-02 -0.17673266856E-01 -0.14990528652E-01  0.10197148265E+01  0.10194272670E+01 0.  0.
         14    1    1    2    0    0  0.70224153586E-02  0.17673266856E-01  0.14990528652E-01  0.24215173510E-01  0.00000000000E+00 0.  1.
     999901    1    3    3    0    0  0.95003930577E-01 -0.81227953431E-01  0.21188216075E-01  0.88908529835E+00  0.88000000000E+00 0. -1.
        -11    1    3    3    0    0 -0.69689615261E-01  0.41585941340E-01 -0.41535820707E-01  0.91167529938E-01  0.51100000000E-03 0.  1.
         11    1    3    3    0    0 -0.32336730675E-01  0.21968745236E-01  0.53570759798E-02  0.39461998201E-01  0.51100000000E-03 0. -1.
</event>
<event>
 8    1  0.1054833E+005  0.1043930E+01  0.7957747E-01            NaN
         13   -1    0    0    0    0  0.00000000000E+00  0.00000000000E+00  0.74505805969E-08  0.10566000000E+00  0.10566000000E+00 0.  1.
     999900   -1    0    0    0    0 -0.00000000000E+00 -0.00000000000E+00 -0.74505805969E-08  0.93827000000E+00  0.93827000000E+00 0.  1.
     999902    2    1    2    0    0 -0.14906467537E-01 -0.17402904125E-01 -0.10665355421E-01  0.10186552368E+01  0.10183416312E+01 0.  0.
     999903    2    3    3    0    0  0.29748825152E-01  0.10518844199E+00  0.59802712822E-01  0.12624922949E+00  0.20320003935E-01 0.  0.
         14    1    1    2    0    0  0.14906467537E-01  0.17402904125E-01  0.10665355421E-01  0.25274763158E-01  0.00000000000E+00 0.  1.
     999901    1    3    3    0    0 -0.44655292688E-01 -0.12259134612E+00 -0.70468068243E-01  0.89240600735E+00  0.88000000000E+00 0. -1.
        -11    1    4    4    0    0  0.23559031632E-01  0.50333663287E-01  0.24618937811E-01  0.60785350631E-01  0.51100000000E-03 0. -1.
         11    1    4    4    0    0  0.61897935192E-02  0.54854778708E-01  0.35183775011E-01  0.65463878864E-01  0.51100000000E-03 0.  1.
</event>
<event>
 8    1  0.1054833E+005  0.1043930E+01  0.7957747E-01            NaN
         13   -1    0    0    0    0  0.00000000000E+00  0.00000000000E+00  0.74505805969E-08  0.10566000000E+00  0.10566000000E+00 0.  1.
     999900   -1    0    0    0    0 -0.00000000000E+00 -0.00000000000E+00 -0.74505805969E-08  0.93827000000E+00  0.93827000000E+00 0.  1.
     999902    2    1    2    0    0 -0.49106499584E-03  0.29646370149E-02  0.23148876494E-01  0.10205868918E+01  0.10203199023E+01 0.  0.
     999903    2    3    3    0    0 -0.98167868046E-01  0.84592070558E-01 -0.28437013045E-02  0.13104801695E+00  0.19306667055E-01 0.  0.
         14    1    1    2    0    0  0.49106499584E-03 -0.29646370149E-02 -0.23148876494E-01  0.23343108200E-01  0.00000000000E+00 0. -1.
     999901    1    3    3    0    0  0.97676803050E-01 -0.81627433543E-01  0.25992577799E-01  0.88953887485E+00  0.88000000000E+00 0. -1.
        -11    1    4    4    0    0 -0.58257418994E-01  0.41594915137E-01 -0.85990430301E-02  0.72099018684E-01  0.51100000000E-03 0.  1.
         11    1    4    4    0    0 -0.39910449051E-01  0.42997155421E-01  0.57553417256E-02  0.58948998271E-01  0.51100000000E-03 0. -1.
</event>
<event>
 8    1  0.1054833E+005  0.1043930E+01  0.7957747E-01            NaN
         13   -1    0    0    0    0  0.00000000000E+00  0.00000000000E+00  0.74505805969E-08  0.10566000000E+00  0.10566000000E+00 0.  1.
     999900   -1    0    0    0    0 -0.00000000000E+00 -0.00000000000E+00 -0.74505805969E-08  0.93827000000E+00  0.93827000000E+00 0. -1.
     999902    2    1    2    0    0  0.73663341809E-02  0.20214936857E-01  0.90228700208E-02  0.10205993606E+01  0.10203326595E+01 0.  0.
     999903    2    3    3    0    0 -0.32150172074E-01  0.52036145621E-02  0.12564962989E+00  0.13189879507E+00  0.23425445098E-01 0.  0.
         14    1    1    2    0    0 -0.73663341809E-02 -0.20214936857E-01 -0.90228700208E-02  0.23330639400E-01  0.00000000000E+00 0. -1.
     999901    1    3    3    0    0  0.39516506255E-01  0.15011322295E-01 -0.11662675987E+00  0.88870056554E+00  0.88000000000E+00 0. -1.
        -11    1    4    4    0    0 -0.18468874278E-01 -0.62870517724E-02  0.89105453104E-01  0.91217702399E-01  0.51100000000E-03 0. -1.
         11    1    4    4    0    0 -0.13681297796E-01  0.11490666335E-01  0.36544176790E-01  0.40681092666E-01  0.51100000000E-03 0.  1.
</event>
<event>
 8    1  0.1054833E+005  0.1043930E+01  0.7957747E-01            NaN
         13   -1    0    0    0    0  0.00000000000E+00  0.00000000000E+00  0.74505805969E-08  0.10566000000E+00  0.10566000000E+00 0. -1.
     999900   -1    0    0    0    0 -0.00000000000E+00 -0.00000000000E+00 -0.74505805969E-08  0.93827000000E+00  0.93827000000E+00 0.  1.
     999902    2    1    2    0    0 -0.43662368479E-02  0.19543282509E-01  0.11911045612E-01  0.10206302806E+01  0.10203642942E+01 0.  0.
     999903    2    3    3    0    0 -0.39631301779E-01 -0.10595017795E+00 -0.57213568872E-01  0.12834644364E+00  0.20083247782E-01 0.  0.
         14    1    1    2    0    0  0.43662368479E-02 -0.19543282509E-01 -0.11911045612E-01  0.23299719376E-01  0.00000000000E+00 0.  1.
     999901    1    3    3    0    0  0.35265064932E-01  0.12549346046E+00  0.69124614484E-01  0.89228383699E+00  0.88000000000E+00 0. -1.
        -11    1    4    4    0    0 -0.29696383226E-01 -0.65988644743E-01 -0.45696615679E-01  0.85585151851E-01  0.51100000000E-03 0.  1.
         11    1    4    4    0    0 -0.99349185532E-02 -0.39961533211E-01 -0.11516953193E-01  0.42761291785E-01  0.51100000000E-03 0. -1.
</event>
<event>
 8    1  0.1054833E+005  0.1043930E+01  0.7957747E-01            NaN
         13   -1    0    0    0    0  0.00000000000E+00  0.00000000000E+00  0.74505805969E-08  0.10566000000E+00  0.10566000000E+00 0. -1.
     999900   -1    0    0    0    0 -0.00000000000E+00 -0.00000000000E+00 -0.74505805969E-08  0.93827000000E+00  0.93827000000E+00 0. -1.
     999902    2    1    2    0    0 -0.21071954138E-01  0.23609043917E-02 -0.97989564126E-02  0.10205714755E+01  0.10203041291E+01 0.  0.
     999903    2    3    3    0    0  0.95652218015E-01  0.58517989625E-01  0.59136409432E-01  0.12842225296E+00  0.20529447484E-01 0.  0.
         14    1    1    2    0    0  0.21071954138E-01 -0.23609043917E-02  0.97989564126E-02  0.23358524515E-01  0.00000000000E+00 0. -1.
     999901    1    3    3    0    0 -0.11672417215E+00 -0.56157085234E-01 -0.68935365844E-01  0.89214922252E+00  0.88000000000E+00 0. -1.
        -11    1    4    4    0    0  0.29579926087E-01  0.14200472284E-01  0.27454167962E-01  0.42785720747E-01  0.51100000000E-03 0. -1.
         11    1    4    4    0    0  0.66072291928E-01  0.44317517342E-01  0.31682241470E-01  0.85636532213E-01  0.51100000000E-03 0.  1.
</event>
<event>
 8    1  0.1054833E+005  0.1043930E+01  0.7957747E-01            NaN
         13   -1    0    0    0    0  0.00000000000E+00  0.00000000000E+00  0.74505805969E-08  0.10566000000E+00  0.10566000000E+00 0. -1.
     999900   -1    0    0    0    0 -0.00000000000E+00 -0.00000000000E+00 -0.74505805969E-08  0.93827000000E+00  0.93827000000E+00 0.  1.
     999902    2    1    2    0    0  0.14460224056E-01 -0.81725338108E-02  0.15038132867E-01  0.10215238886E+01  0.10212781311E+01 0.  0.
     999903    2    3    3    0    0 -0.51726241253E-01  0.83187949182E-01 -0.81599068252E-01  0.12907437478E+00  0.20148135474E-01 0.  0.
         14    1    1    2    0    0 -0.14460224056E-01  0.81725338108E-02 -0.15038132867E-01  0.22406111415E-01  0.00000000000E+00 0.  1.
     999901    1    3    3    0    0  0.66186465309E-01 -0.91360482993E-01  0.96637201119E-01  0.89244951380E+00  0.88000000000E+00 0. -1.
        -11    1    4    4    0    0 -0.41964177407E-01  0.55655558812E-01 -0.48458414251E-01  0.84894124913E-01  0.51100000000E-03 0. -1.
         11    1    4    4    0    0 -0.97620638459E-02  0.27532390370E-01 -0.33140654001E-01  0.44180249871E-01  0.51100000000E-03 0.  1.
</event>
<event>
 8    1  0.1054833E+005  0.1043930E+01  0.7957747E-01            NaN
         13   -1    0    0    0    0  0.00000000000E+00  0.00000000000E+00  0.74505805969E-08  0.10566000000E+00  0.10566000000E+00 0.  1.
     999900   -1    0    0    0    0 -0.00000000000E+00 -0.00000000000E+00 -0.74505805969E-08  0.93827000000E+00  0.93827000000E+00 0. -1.
     999902    2    1    2    0    0  0.21030753476E-01  0.44917037741E-02  0.74685360140E-02  0.10211649605E+01  0.10209111761E+01 0.  0.
     999903    2    3    3    0    0  0.75956650739E-01 -0.96528532307E-01 -0.43724074490E-01  0.13220904162E+00  0.21914964195E-01 0.  0.
         14    1    1    2    0    0 -0.21030753476E-01 -0.44917037741E-02 -0.74685360140E-02  0.22765039529E-01  0.00000000000E+00 0. -1.
     999901    1    3    3    0    0 -0.54925897263E-01  0.10102023608E+00  0.51192610504E-01  0.88895591885E+00  0.88000000000E+00 0.  1.
        -11    1    4    4    0    0  0.55978661499E-01 -0.66626120130E-01 -0.40836137629E-01  0.96127528234E-01  0.51100000000E-03 0.  1.
         11    1    4    4    0    0  0.19977989240E-01 -0.29902412176E-01 -0.28879368606E-02  0.36081513388E-01  0.51100000000E-03 0. -1.
</event>
<event>
 8    1  0.1054833E+005  0.1043930E+01  0.7957747E-01            NaN
         13   -1    0    0    0    0  0.00000000000E+00  0.00000000000E+00  0.74505805969E-08  0.10566000000E+00  0.10566000000E+00 0. -1.
     999900   -1    0    0    0    0 -0.00000000000E+00 -0.00000000000E+00 -0.74505805969E-08  0.93827000000E+00  0.93827000000E+00 0. -1.
     999902    2    1    2    0    0  0.11787378805E-01 -0.10286573252E-02  0.21367088809E-01  0.10195055672E+01  0.10192129555E+01 0.  0.
     999903    2    3    3    0    0 -0.52203807564E-01  0.10917940112E+00  0.43057900294E-01  0.13006125785E+00  0.20410018696E-01 0.  0.
         14    1    1    2    0    0 -0.11787378805E-01  0.10286573252E-02 -0.21367088809E-01  0.24424432832E-01  0.00000000000E+00 0.  1.
     999901    1    3    3    0    0  0.63991186369E-01 -0.11020805844E+00 -0.21690811485E-01  0.88944430932E+00  0.88000000000E+00 0.  1.
        -11    1    4    4    0    0 -0.26980512761E-01  0.63382784356E-01  0.34622689171E-01  0.77099397844E-01  0.51100000000E-03 0. -1.
         11    1    4    4    0    0 -0.25223294803E-01  0.45796616760E-01  0.84352111230E-02  0.52961860004E-01  0.51100000000E-03 0.  1.
</event>
<event>
 8    1  0.1054833E+005  0.1043930E+01  0.7957747E-01            NaN
         13   -1    0    0    0    0  0.00000000000E+00  0.00000000000E+00  0.74505805969E-08  0.10566000000E+00  0.10566000000E+00 0.  1.
     999900   -1    0    0    0    0 -0.00000000000E+00 -0.00000000000E+00 -0.74505805969E-08  0.93827000000E+00  0.93827000000E+00 0.  1.
     999902    2    1    2    0    0  0.19588330209E-03  0.10771692498E-01 -0.20551472062E-01  0.10207258897E+01  0.10204621067E+01 0.  0.
     999903    2    3    3    0    0 -0.40662816406E-01 -0.12876269810E-01 -0.12456911537E+00  0.13334303572E+00  0.21062708967E-01 0.  0.
         14    1    1    2    0    0 -0.19588330209E-03 -0.10771692498E-01  0.20551472062E-01  0.23204110271E-01  0.00000000000E+00 0.  1.
     999901    1    3    3    0    0  0.40858699708E-01  0.23647962308E-01  0.10401764331E+00  0.88738285401E+00  0.88000000000E+00 0. -1.
        -11    1    4    4    0    0 -0.10118293261E-01  0.11903577559E-02 -0.11472492283E-01  0.15351742907E-01  0.51100000000E-03 0.  1.
         11    1    4    4    0    0 -0.30544523144E-01 -0.14066627566E-01 -0.11309662309E+00  0.11799129282E+00  0.51100000000E-03 0. -1.
</event>
<event>
 8    1  0.1282203E+005  0.1043930E+01  0.7957747E-01            NaN
         13   -1    0    0    0    0  0.00000000000E+00  0.00000000000E+00  0.74505805969E-08  0.10566000000E+00  0.10566000000E+00 0. -1.
     999900   -1    0    0    0    0 -0.00000000000E+00 -0.00000000000E+00 -0.74505805969E-08  0.93827000000E+00  0.93827000000E+00 0. -1.
     999902    2    1    2    0    0  0.13674742169E-01 -0.18546130675E-01 -0.45056571818E-02  0.10204511056E+01  0.10201809645E+01 0.  0.
     999903    2    3    3    0    0 -0.13151095153E-01  0.10252846960E-01 -0.12829405872E+00  0.13091607254E+00  0.20039470332E-01 0.  0.
         14    1    1    2    0    0 -0.13674742169E-01  0.18546130675E-01  0.45056571818E-02  0.23478894417E-01  0.00000000000E+00 0. -1.
     999901    1    3    3    0    0  0.26825837322E-01 -0.28798977634E-01  0.12378840154E+00  0.88953503305E+00  0.88000000000E+00 0.  1.
        -11    1    4    4    0    0 -0.14448628260E-01  0.39893756633E-02 -0.46239945235E-01  0.48611435209E-01  0.51100000000E-03 0. -1.
         11    1    4    4    0    0  0.12975331071E-02  0.62634712963E-02 -0.82054113485E-01  0.82304637328E-01  0.51100000000E-03 0.  1.
</event>
<event>
 8    1  0.1054833E+005  0.1043930E+01  0.7957747E-01            NaN
         13   -1    0    0    0    0  0.00000000000E+00  0.00000000000E+00  0.74505805969E-08  0.10566000000E+00  0.10566000000E+00 0. -1.
     999900   -1    0    0    0    0 -0.00000000000E+00 -0.00000000000E+00 -0.74505805969E-08  0.93827000000E+00  0.93827000000E+00 0. -1.
     999902    2    1    2    0    0  0.70274945210E-02  0.21824837827E-01 -0.10859304625E-01  0.10185600626E+01  0.10182440608E+01 0.  0.
     999903    2    3    3    0    0 -0.64459835524E-01 -0.63749424750E-01 -0.88346445173E-01  0.12814574911E+00  0.19929352405E-01 0.  0.
         14    1    1    2    0    0 -0.70274945210E-02 -0.21824837827E-01  0.10859304625E-01  0.25369937374E-01  0.00000000000E+00 0.  1.
     999901    1    3    3    0    0  0.71487330045E-01  0.85574262577E-01  0.77487140548E-01  0.89041431352E+00  0.88000000000E+00 0.  1.
        -11    1    4    4    0    0 -0.38901841405E-01 -0.44083565415E-01 -0.68513550568E-01  0.90283341414E-01  0.51100000000E-03 0. -1.
         11    1    4    4    0    0 -0.25557994119E-01 -0.19665859335E-01 -0.19832894605E-01  0.37862407691E-01  0.51100000000E-03 0.  1.
</event>
<event>
 8    1  0.1054833E+005  0.1043930E+01  0.7957747E-01            NaN
         13   -1    0    0    0    0  0.00000000000E+00  0.00000000000E+00  0.74505805969E-08  0.10566000000E+00  0.10566000000E+00 0. -1.
     999900   -1    0    0    0    0 -0.00000000000E+00 -0.00000000000E+00 -0.74505805969E-08  0.93827000000E+00  0.93827000000E+00 0.  1.
     999902    2    1    2    0    0  0.11376792884E-01 -0.20299164216E-01  0.44454196300E-02  0.10202393006E+01  0.10199642058E+01 0.  0.
     999903    2    3    3    0    0 -0.40880763434E-01 -0.11639792858E+00 -0.43477645262E-01  0.13217261114E+00  0.18962565849E-01 0.  0.
         14    1    1    2    0    0 -0.11376792884E-01  0.20299164216E-01 -0.44454196300E-02  0.23690699438E-01  0.00000000000E+00 0.  1.
     999901    1    3    3    0    0  0.52257556318E-01  0.96098764360E-01  0.47923064892E-01  0.88806668942E+00  0.88000000000E+00 0. -1.
        -11    1    4    4    0    0 -0.27173312343E-01 -0.77151936778E-01 -0.19174966731E-01  0.84016371753E-01  0.51100000000E-03 0. -1.
         11    1    4    4    0    0 -0.13707451090E-01 -0.39245991797E-01 -0.24302678532E-01  0.48156239392E-01  0.51100000000E-03 0.  1.
</event>
<event>
 8    1  0.1054833E+005  0.1043930E+01  0.7957747E-01            NaN
         13   -1    0    0    0    0  0.00000000000E+00  0.00000000000E+00  0.74505805969E-08  0.10566000000E+00  0.10566000000E+00 0.  1.
     999900   -1    0    0    0    0 -0.00000000000E+00 -0.00000000000E+00 -0.74505805969E-08  0.93827000000E+00  0.93827000000E+00 0. -1.
     999902    2    1    2    0    0 -0.20856571187E-01 -0.90528531940E-02 -0.36551915081E-02  0.10209015146E+01  0.10206417547E+01 0.  0.
     999903    2    3    3    0    0 -0.40819720990E-01 -0.11584448409E+00 -0.47182441015E-01  0.13315290089E+00  0.20428366546E-01 0.  0.
         14    1    1    2    0    0  0.20856571187E-01  0.90528531940E-02  0.36551915081E-02  0.23028485352E-01  0.00000000000E+00 0. -1.
     999901    1    3    3    0    0  0.19963149803E-01  0.10679163090E+00  0.43527249507E-01  0.88774861376E+00  0.88000000000E+00 0. -1.
        -11    1    4    4    0    0 -0.22345561409E-01 -0.48257014567E-01 -0.11055162013E-01  0.54318885277E-01  0.51100000000E-03 0.  1.
         11    1    4    4    0    0 -0.18474159582E-01 -0.67587469522E-01 -0.36127279002E-01  0.78834015613E-01  0.51100000000E-03 0. -1.
</event>
<event>
 8    1  0.1054833E+005  0.1043930E+01  0.7957747E-01            NaN
         13   -1    0    0    0    0  0.00000000000E+00  0.00000000000E+00  0.74505805969E-08  0.10566000000E+00  0.10566000000E+00 0.  1.
     999900   -1    0    0    0    0 -0.00000000000E+00 -0.00000000000E+00 -0.74505805969E-08  0.93827000000E+00  0.93827000000E+00 0.  1.
     999902    2    1    2    0    0  0.45993154020E-02 -0.29212797202E-02 -0.23204081398E-01  0.10200947956E+01  0.10198162947E+01 0.  0.
     999903    2    3    3    0    0  0.10354516896E+00  0.56431923806E-01  0.49459770870E-01  0.12959318403E+00  0.21022853603E-01 0.  0.
         14    1    1    2    0    0 -0.45993154020E-02  0.29212797202E-02  0.23204081398E-01  0.23835204444E-01  0.00000000000E+00 0.  1.
     999901    1    3    3    0    0 -0.98945853556E-01 -0.59353203526E-01 -0.72663852268E-01  0.89050161153E+00  0.88000000000E+00 0.  1.
        -11    1    4    4    0    0  0.53486440986E-01  0.27287286278E-01  0.36379277248E-01  0.70207608533E-01  0.51100000000E-03 0.  1.
         11    1    4    4    0    0  0.50058727971E-01  0.29144637527E-01  0.13080493622E-01  0.59385575497E-01  0.51100000000E-03 0. -1.
</event>
<event>
 8    1  0.1054833E+005  0.1043930E+01  0.7957747E-01            NaN
         13   -1    0    0    0    0  0.00000000000E+00  0.00000000000E+00  0.74505805969E-08  0.10566000000E+00  0.10566000000E+00 0.  1.
     999900   -1    0    0    0    0 -0.00000000000E+00 -0.00000000000E+00 -0.74505805969E-08  0.93827000000E+00  0.93827000000E+00 0. -1.
     999902    2    1    2    0    0  0.77818053824E-02 -0.80114914988E-02  0.20780889737E-01  0.10203379278E+01  0.10200651455E+01 0.  0.
     999903    2    3    3    0    0  0.67913808769E-01  0.49735831338E-01  0.10074562109E+00  0.13278794648E+00  0.19925366276E-01 0.  0.
         14    1    1    2    0    0 -0.77818053824E-02  0.80114914988E-02 -0.20780889737E-01  0.23592072171E-01  0.00000000000E+00 0. -1.
     999901    1    3    3    0    0 -0.60132003386E-01 -0.57747322836E-01 -0.79964731358E-01  0.88754998135E+00  0.88000000000E+00 0.  1.
        -11    1    4    4    0    0  0.32511539127E-01  0.19567422216E-01  0.31241628932E-01  0.49154701585E-01  0.51100000000E-03 0.  1.
         11    1    4    4    0    0  0.35402269642E-01  0.30168409121E-01  0.69503992163E-01  0.83633244899E-01  0.51100000000E-03 0. -1.
</event>
<event>
 8    1  0.1054833E+005  0.1043930E+01  0.7957747E-01            NaN
         13   -1    0    0    0    0  0.00000000000E+00  0.00000000000E+00  0.74505805969E-08  0.10566000000E+00  0.10566000000E+00 0.  1.
     999900   -1    0    0    0    0 -0.00000000000E+00 -0.00000000000E+00 -0.74505805969E-08  0.93827000000E+00  0.93827000000E+00 0.  1.
     999902    2    1    2    0    0  0.22221628974E-01  0.75366201517E-02  0.13095031438E-02  0.10204285908E+01  0.10201579253E+01 0.  0.
     999903    2    3    3    0    0 -0.76140969372E-01  0.11359688092E-01 -0.10153288854E+00  0.12898797349E+00  0.20061907155E-01 0.  0.
         14    1    1    2    0    0 -0.22221628974E-01 -0.75366201517E-02 -0.13095031438E-02  0.23501409236E-01  0.00000000000E+00 0.  1.
     999901    1    3    3    0    0  0.98362598346E-01 -0.38230679406E-02  0.10284239168E+00  0.89144061728E+00  0.88000000000E+00 0. -1.
        -11    1    4    4    0    0 -0.36258335411E-01  0.12108986802E-01 -0.37547233965E-01  0.53584982482E-01  0.51100000000E-03 0.  1.
         11    1    4    4    0    0 -0.39882633960E-01 -0.74929870945E-03 -0.63985654576E-01  0.75402991006E-01  0.51100000000E-03 0. -1.
</event>
<event>
 8    1  0.1054833E+005  0.1043930E+01  0.7957747E-01            NaN
         13   -1    0    0    0    0  0.00000000000E+00  0.00000000000E+00  0.74505805969E-08  0.10566000000E+00  0.10566000000E+00 0.  1.
     999900   -1    0    0    0    0 -0.00000000000E+00 -0.00000000000E+00 -0.74505805969E-08  0.93827000000E+00  0.93827000000E+00 0. -1.
     999902    2    1    2    0    0  0.88488073711E-02 -0.14660478458E-01 -0.27352053934E-01  0.10116597990E+01  0.10111449861E+01 0.  0.
     999903    2    3    3    0    0  0.78718809840E-01 -0.94325058323E-01 -0.11108446668E-01  0.12515423366E+00  0.21126215148E-01 0.  0.
         14    1    1    2    0    0 -0.88488073711E-02  0.14660478458E-01  0.27352053934E-01  0.32270201036E-01  0.00000000000E+00 0.  1.
     999901    1    3    3    0    0 -0.69870002469E-01  0.79664579865E-01 -0.16243607266E-01  0.88650556530E+00  0.88000000000E+00 0.  1.
        -11    1    4    4    0    0  0.55627197188E-01 -0.76832384133E-01 -0.14588253644E-01  0.95972280289E-01  0.51100000000E-03 0. -1.
         11    1    4    4    0    0  0.23091612652E-01 -0.17492674190E-01  0.34798069763E-02  0.29181953375E-01  0.51100000000E-03 0.  1.
</event>
<event>
 8    1  0.1054833E+005  0.1043930E+01  0.7957747E-01            NaN
         13   -1    0    0    0    0  0.00000000000E+00  0.00000000000E+00  0.74505805969E-08  0.10566000000E+00  0.10566000000E+00 0.  1.
     999900   -1    0    0    0    0 -0.00000000000E+00 -0.00000000000E+00 -0.74505805969E-08  0.93827000000E+00  0.93827000000E+00 0.  1.
     999902    2    1    2    0    0  0.21721564173E-01 -0.14501723133E-01 -0.82068937622E-02  0.10165533781E+01  0.10161846737E+01 0.  0.
     999903    2    3    3    0    0 -0.10124707239E+00 -0.12055547069E-01 -0.70425514474E-01  0.12582422387E+00  0.21810005513E-01 0.  0.
         14    1    1    2    0    0 -0.21721564173E-01  0.14501723133E-01  0.82068937622E-02  0.27376621946E-01  0.00000000000E+00 0. -1.
     999901    1    3    3    0    0  0.12296863656E+00 -0.24461760643E-02  0.62218620712E-01  0.89072915419E+00  0.88000000000E+00 0.  1.
        -11    1    4    4    0    0 -0.25686797563E-01 -0.97024656478E-02 -0.27612735452E-01  0.38944494974E-01  0.51100000000E-03 0. -1.
         11    1    4    4    0    0 -0.75560274825E-01 -0.23530814210E-02 -0.42812779023E-01  0.86879728892E-01  0.51100000000E-03 0.  1.
</event>
<event>
 8    1  0.1054833E+005  0.1043930E+01  0.7957747E-01            NaN
         13   -1    0    0    0    0  0.00000000000E+00  0.00000000000E+00  0.74505805969E-08  0.10566000000E+00  0.10566000000E+00 0.  1.
     999900   -1    0    0    0    0 -0.00000000000E+00 -0.00000000000E+00 -0.74505805969E-08  0.93827000000E+00  0.93827000000E+00 0.  1.
     999902    2    1    2    0    0 -0.64272493751E-02  0.21734305151E-01 -0.81695812259E-02  0.10198378516E+01  0.10195532414E+01 0.  0.
     999903    2    3    3    0    0 -0.11505628415E+00  0.20808192122E-01  0.55304597421E-01  0.13088898009E+00  0.20059841296E-01 0.  0.
         14    1    1    2    0    0  0.64272493751E-02 -0.21734305151E-01  0.81695812259E-02  0.24092148354E-01  0.00000000000E+00 0.  1.
     999901    1    3    3    0    0  0.10862903477E+00  0.92611302867E-03 -0.63474178647E-01  0.88894887155E+00  0.88000000000E+00 0.  1.
        -11    1    4    4    0    0 -0.16112027679E-01  0.37719276688E-02  0.16134278812E-01  0.23117113748E-01  0.51100000000E-03 0.  1.
         11    1    4    4    0    0 -0.98944256468E-01  0.17036264453E-01  0.39170318609E-01  0.10777186634E+00  0.51100000000E-03 0. -1.
</event>
<event>
 8    1  0.1054833E+005  0.1043930E+01  0.7957747E-01            NaN
         13   -1    0    0    0    0  0.00000000000E+00  0.00000000000E+00  0.74505805969E-08  0.10566000000E+00  0.10566000000E+00 0.  1.
     999900   -1    0    0    0    0 -0.00000000000E+00 -0.00000000000E+00 -0.74505805969E-08  0.93827000000E+00  0.93827000000E+00 0.  1.
     999902    2    1    2    0    0 -0.18336308145E-01 -0.15323362728E-01 -0.20470662595E-02  0.10199463364E+01  0.10196643138E+01 0.  0.
     999903    2    3    3    0    0  0.28804916306E-01 -0.10293456929E+00  0.73317400665E-01  0.13113937113E+00  0.19920960366E-01 0.  0.
         14    1    1    2    0    0  0.18336308145E-01  0.15323362728E-01  0.20470662595E-02  0.23983663648E-01  0.00000000000E+00 0. -1.
     999901    1    3    3    0    0 -0.47141224451E-01  0.87611206559E-01 -0.75364466925E-01  0.88880696522E+00  0.88000000000E+00 0.  1.
        -11    1    4    4    0    0  0.25802655693E-01 -0.10160932662E+00  0.68297170184E-01  0.12511992996E+00  0.51100000000E-03 0.  1.
         11    1    4    4    0    0  0.30022606123E-02 -0.13252426691E-02  0.50202304810E-02  0.60194411700E-02  0.51100000000E-03 0. -1.
</event>
<event>
 8    1  0.1054833E+005  0.1043930E+01  0.7957747E-01            NaN
         13   -1    0    0    0    0  0.00000000000E+00  0.00000000000E+00  0.74505805969E-08  0.10566000000E+00  0.10566000000E+00 0. -1.
     999900   -1    0    0    0    0 -0.00000000000E+00 -0.00000000000E+00 -0.74505805969E-08  0.93827000000E+00  0.93827000000E+00 0.  1.
     999902    2    1    2    0    0 -0.18038812089E-02 -0.22141154621E-01  0.42965838564E-02  0.10213037907E+01  0.10210531267E+01 0.  0.
     999903    2    3    3    0    0 -0.11586958549E+00  0.20061568075E-01 -0.54236736659E-01  0.13101271226E+00  0.19861515939E-01 0.  0.
         14    1    1    2    0    0  0.18038812089E-02  0.22141154621E-01 -0.42965838564E-02  0.22626209320E-01  0.00000000000E+00 0.  1.
     999901    1    3    3    0    0  0.11406570428E+00 -0.42202722696E-01  0.58533320515E-01  0.89029107842E+00  0.88000000000E+00 0. -1.
        -11    1    4    4    0    0 -0.71520869951E-01  0.16655216145E-01 -0.43128918833E-01  0.85164522097E-01  0.51100000000E-03 0.  1.
         11    1    4    4    0    0 -0.44348715542E-01  0.34063519299E-02 -0.11107817826E-01  0.45848190167E-01  0.51100000000E-03 0. -1.
</event>
<event>
 8    1  0.1054833E+005  0.1043930E+01  0.7957747E-01            NaN
         13   -1    0    0    0    0  0.00000000000E+00  0.00000000000E+00  0.74505805969E-08  0.10566000000E+00  0.10566000000E+00 0. -1.
     999900   -1    0    0    0    0 -0.00000000000E+00 -0.00000000000E+00 -0.74505805969E-08  0.93827000000E+00  0.93827000000E+00 0. -1.
     999902    2    1    2    0    0  0.21258179325E-01 -0.33297048911E-02  0.21731782689E-01  0.10133478565E+01  0.10128862773E+01 0.  0.
     999903    2    3    3    0    0 -0.10572538122E+00  0.40203396952E-01 -0.38265128309E-01  0.12114855984E+00  0.20459329099E-01 0.  0.
         14    1    1    2    0    0 -0.21258179325E-01  0.33297048911E-02 -0.21731782689E-01  0.30582143511E-01  0.00000000000E+00 0.  1.
     999901    1    3    3    0    0  0.12698356055E+00 -0.43533101843E-01  0.59996910998E-01  0.89219929665E+00  0.88000000000E+00 0.  1.
        -11    1    4    4    0    0 -0.11009938582E-01 -0.20439925804E-02 -0.44939277095E-02  0.12076968183E-01  0.51100000000E-03 0.  1.
         11    1    4    4    0    0 -0.94715442638E-01  0.42247389532E-01 -0.33771200600E-01  0.10907159166E+00  0.51100000000E-03 0. -1.
</event>
<event>
 8    1  0.1054833E+005  0.1043930E+01  0.7957747E-01            NaN
         13   -1    0    0    0    0  0.00000000000E+00  0.00000000000E+00  0.74505805969E-08  0.10566000000E+00  0.10566000000E+00 0. -1.
     999900   -1    0    0    0    0 -0.00000000000E+00 -0.00000000000E+00 -0.74505805969E-08  0.93827000000E+00  0.93827000000E+00 0. -1.
     999902    2    1    2    0    0 -0.14584314794E-01  0.94669492257E-02  0.15127760692E-01  0.10208827765E+01  0.10206225889E+01 0.  0.
     999903    2    3    3    0    0 -0.58652850720E-01  0.10148639820E+00  0.61340935730E-01  0.13378341773E+00  0.19890865897E-01 0.  0.
         14    1    1    2    0    0  0.14584314794E-01 -0.94669492257E-02 -0.15127760692E-01  0.23047223459E-01  0.00000000000E+00 0.  1.
     999901    1    3    3    0    0  0.44068535927E-01 -0.92019448979E-01 -0.46213175038E-01  0.88709935881E+00  0.88000000000E+00 0.  1.
        -11    1    4    4    0    0 -0.17701256160E-01  0.42112462858E-01  0.15144714279E-01  0.48129175031E-01  0.51100000000E-03 0.  1.
         11    1    4    4    0    0 -0.40951594560E-01  0.59373935346E-01  0.46196221451E-01  0.85654242702E-01  0.51100000000E-03 0. -1.
</event>
<event>
 8    1  0.1054833E+005  0.1043930E+01  0.7957747E-01            NaN
         13   -1    0    0    0    0  0.00000000000E+00  0.00000000000E+00  0.74505805969E-08  0.10566000000E+00  0.10566000000E+00 0. -1.
     999900   -1    0    0    0    0 -0.00000000000E+00 -0.00000000000E+00 -0.74505805969E-08  0.93827000000E+00  0.93827000000E+00 0.  1.
     999902    2    1    2    0    0  0.13852626576E-01  0.19368449808E-01  0.11126185050E-02  0.10200915850E+01  0.10198130082E+01 0.  0.
     999903    2    3    3    0    0 -0.81360473143E-01  0.84681528602E-01  0.54370004601E-01  0.13095285463E+00  0.20051555041E-01 0.  0.
         14    1    1    2    0    0 -0.13852626576E-01 -0.19368449808E-01 -0.11126185050E-02  0.23838415027E-01  0.00000000000E+00 0.  1.
     999901    1    3    3    0    0  0.95213099720E-01 -0.65313078793E-01 -0.53257386096E-01  0.88913873034E+00  0.88000000000E+00 0.  1.
        -11    1    4    4    0    0 -0.42030650130E-01  0.57428322288E-01  0.29709983110E-01  0.77120243572E-01  0.51100000000E-03 0.  1.
         11    1    4    4    0    0 -0.39329823013E-01  0.27253206313E-01  0.24660021491E-01  0.53832611060E-01  0.51100000000E-03 0. -1.
</event>
<event>
 8    1  0.1054833E+005  0.1043930E+01  0.7957747E-01            NaN
         13   -1    0    0    0    0  0.00000000000E+00  0.00000000000E+00  0.74505805969E-08  0.10566000000E+00  0.10566000000E+00 0.  1.
     999900   -1    0    0    0    0 -0.00000000000E+00 -0.00000000000E+00 -0.74505805969E-08  0.93827000000E+00  0.93827000000E+00 0.  1.
     999902    2    1    2    0    0  0.12425018945E-01  0.64871281740E-02 -0.22285516730E-01  0.10176030521E+01  0.10172624359E+01 0.  0.
     999903    2    3    3    0    0  0.30778866920E-01 -0.62413871372E-01 -0.10862112177E+00  0.13050776517E+00  0.19771157939E-01 0.  0.
         14    1    1    2    0    0 -0.12425018945E-01 -0.64871281740E-02  0.22285516730E-01  0.26326947860E-01  0.00000000000E+00 0.  1.
     999901    1    3    3    0    0 -0.18353847975E-01  0.68900999546E-01  0.86335605037E-01  0.88709528697E+00  0.88000000000E+00 0. -1.
        -11    1    4    4    0    0  0.26329064430E-03 -0.18872647445E-01 -0.33817295200E-01  0.38731340271E-01  0.51100000000E-03 0. -1.
         11    1    4    4    0    0  0.30515576275E-01 -0.43541223927E-01 -0.74803826567E-01  0.91776424895E-01  0.51100000000E-03 0.  1.
</event>
<event>
 8    1  0.1054833E+005  0.1043930E+01  0.7957747E-01            NaN
         13   -1    0    0    0    0  0.00000000000E+00  0.00000000000E+00  0.74505805969E-08  0.10566000000E+00  0.10566000000E+00 0.  1.
     999900   -1    0    0    0    0 -0.00000000000E+00 -0.00000000000E+00 -0.74505805969E-08  0.93827000000E+00  0.93827000000E+00 0.  1.
     999902    2    1    2    0    0  0.32721978648E-02  0.12331082859E-01 -0.20241391854E-01  0.10200035120E+01  0.10197228485E+01 0.  0.
     999903    2    3    3    0    0 -0.52459432721E-01 -0.42486733222E-01  0.10625049556E+00  0.12752874755E+00  0.20427899179E-01 0.  0.
         14    1    1    2    0    0 -0.32721978648E-02 -0.12331082859E-01  0.20241391854E-01  0.23926487990E-01  0.00000000000E+00 0.  1.
     999901    1    3    3    0    0  0.55731630585E-01  0.54817816081E-01 -0.12649188741E+00  0.89247476446E+00  0.88000000000E+00 0.  1.
        -11    1    4    4    0    0 -0.48202566198E-01 -0.30163220417E-01  0.79245667412E-01  0.97536886246E-01  0.51100000000E-03 0.  1.
         11    1    4    4    0    0 -0.42568665222E-02 -0.12323512805E-01  0.27004828148E-01  0.29991861309E-01  0.51100000000E-03 0. -1.
</event>
<event>
 8    1  0.1054833E+005  0.1043930E+01  0.7957747E-01            NaN
         13   -1    0    0    0    0  0.00000000000E+00  0.00000000000E+00  0.74505805969E-08  0.10566000000E+00  0.10566000000E+00 0. -1.
     999900   -1    0    0    0    0 -0.00000000000E+00 -0.00000000000E+00 -0.74505805969E-08  0.93827000000E+00  0.93827000000E+00 0.  1.
     999902    2    1    2    0    0  0.16541559951E-02 -0.16940735761E-01  0.89875556374E-02  0.10246815996E+01  0.10245007954E+01 0.  0.
     999903    2    3    3    0    0 -0.10150957847E+00 -0.75685193580E-02  0.86887812681E-01  0.13518789837E+00  0.19099708534E-01 0.  0.
         14    1    1    2    0    0 -0.16541559951E-02  0.16940735761E-01 -0.89875556374E-02  0.19248400362E-01  0.00000000000E+00 0.  1.
     999901    1    3    3    0    0  0.10316373447E+00 -0.93722164028E-02 -0.77900257044E-01  0.88949370127E+00  0.88000000000E+00 0.  1.
        -11    1    4    4    0    0 -0.60375406200E-01 -0.12177830733E-01  0.44865676918E-01  0.76201570335E-01  0.51100000000E-03 0. -1.
         11    1    4    4    0    0 -0.41134172271E-01  0.46093113754E-02  0.42022135763E-01  0.58986328034E-01  0.51100000000E-03 0.  1.
</event>
<event>
 8    1  0.1054833E+005  0.1043930E+01  0.7957747E-01            NaN
         13   -1    0    0    0    0  0.00000000000E+00  0.00000000000E+00  0.74505805969E-08  0.10566000000E+00  0.10566000000E+00 0. -1.
     999900   -1    0    0    0    0 -0.00000000000E+00 -0.00000000000E+00 -0.74505805969E-08  0.93827000000E+00  0.93827000000E+00 0.  1.
     999902    2    1    2    0    0 -0.19933567239E-01 -0.95223685154E-02 -0.96876579297E-02  0.10198079495E+01  0.10195226238E+01 0.  0.
     999903    2    3    3    0    0  0.33489821597E-01 -0.10869957328E+00  0.59701589747E-01  0.12991748200E+00  0.19419241218E-01 0.  0.
         14    1    1    2    0    0  0.19933567239E-01  0.95223685154E-02  0.96876579297E-02  0.24122050518E-01  0.00000000000E+00 0. -1.
     999901    1    3    3    0    0 -0.53423388837E-01  0.99177204764E-01 -0.69389247676E-01  0.88989046748E+00  0.88000000000E+00 0. -1.
        -11    1    4    4    0    0  0.11948839245E-01 -0.25239549430E-01  0.66748691409E-02  0.28716277854E-01  0.51100000000E-03 0.  1.
         11    1    4    4    0    0  0.21540982352E-01 -0.83460023850E-01  0.53026720606E-01  0.10120120415E+00  0.51100000000E-03 0. -1.
</event>
<event>
 8    1  0.1054833E+005  0.1043930E+01  0.7957747E-01            NaN
         13   -1    0    0    0    0  0.00000000000E+00  0.00000000000E+00  0.74505805969E-08  0.10566000000E+00  0.10566000000E+00 0. -1.
     999900   -1    0    0    0    0 -0.00000000000E+00 -0.00000000000E+00 -0.74505805969E-08  0.93827000000E+00  0.93827000000E+00 0. -1.
     999902    2    1    2    0    0  0.16025777903E-01  0.19653370561E-01  0.29098926858E-02  0.10184045616E+01  0.10180846247E+01 0.  0.
     999903    2    3    3    0    0  0.80122224961E-01 -0.97048352072E-01  0.15360953068E-01  0.12830194080E+00  0.19684398925E-01 0.  0.
         14    1    1    2    0    0 -0.16025777903E-01 -0.19653370561E-01 -0.29098926858E-02  0.25525438434E-01  0.00000000000E+00 0. -1.
     999901    1    3    3    0    0 -0.64096447058E-01  0.11670172263E+00 -0.12451060382E-01  0.89010262077E+00  0.88000000000E+00 0. -1.
        -11    1    4    4    0    0  0.42559492766E-01 -0.46867074563E-01 -0.17157649246E-02  0.63332756713E-01  0.51100000000E-03 0.  1.
         11    1    4    4    0    0  0.37562732195E-01 -0.50181277509E-01  0.17076717993E-01  0.64969184086E-01  0.51100000000E-03 0. -1.
</event>
<event>
 8    1  0.1054833E+005  0.1043930E+01  0.7957747E-01            NaN
         13   -1    0    0    0    0  0.00000000000E+00  0.00000000000E+00  0.74505805969E-08  0.10566000000E+00  0.10566000000E+00 0. -1.
     999900   -1    0    0    0    0 -0.00000000000E+00 -0.00000000000E+00 -0.74505805969E-08  0.93827000000E+00  0.93827000000E+00 0.  1.
     999902    2    1    2    0    0 -0.45720648806E-02 -0.16402111165E-01 -0.12571392617E-01  0.10227646287E+01  0.10225456043E+01 0.  0.
     999903    2    3    3    0    0 -0.12206043717E+00  0.13598135163E-01 -0.48699079837E-01  0.13371528131E+00  0.20603797622E-01 0.  0.
         14    1    1    2    0    0  0.45720648806E-02  0.16402111165E-01  0.12571392617E-01  0.21165371253E-01  0.00000000000E+00 0.  1.
     999901    1    3    3    0    0  0.11748837229E+00 -0.30000246328E-01  0.36127687219E-01  0.88904934744E+00  0.88000000000E+00 0. -1.
        -11    1    4    4    0    0 -0.23585720746E-01  0.91936518595E-02 -0.15565142113E-01  0.29721107443E-01  0.51100000000E-03 0.  1.
         11    1    4    4    0    0 -0.98474716421E-01  0.44044833035E-02 -0.33133937723E-01  0.10399417386E+00  0.51100000000E-03 0. -1.
</event>
<event>
 8    1  0.1054833E+005  0.1043930E+01  0.7957747E-01            NaN
         13   -1    0    0    0    0  0.00000000000E+00  0.00000000000E+00  0.74505805969E-08  0.10566000000E+00  0.10566000000E+00 0.  1.
     999900   -1    0    0    0    0 -0.00000000000E+00 -0.00000000000E+00 -0.74505805969E-08  0.93827000000E+00  0.93827000000E+00 0.  1.
     999902    2    1    2    0    0 -0.90817931026E-02 -0.19089173974E-01 -0.16212262649E-01  0.10172895610E+01  0.10169406757E+01 0.  0.
     999903    2    3    3    0    0 -0.46505972223E-01  0.11059193544E+00 -0.35405464508E-01  0.12679186966E+00  0.20718341062E-01 0.  0.
         14    1    1    2    0    0  0.90817931026E-02  0.19089173974E-01  0.16212262649E-01  0.26640438983E-01  0.00000000000E+00 0.  1.
     999901    1    3    3    0    0  0.37424179120E-01 -0.12968110942E+00  0.19193201858E-01  0.89049769136E+00  0.88000000000E+00 0. -1.
        -11    1    4    4    0    0 -0.22591782620E-01  0.71196320197E-01 -0.14094123494E-01  0.76014538673E-01  0.51100000000E-03 0.  1.
         11    1    4    4    0    0 -0.23914189602E-01  0.39395615246E-01 -0.21311341014E-01  0.50777330983E-01  0.51100000000E-03 0. -1.
</event>
<event>
 8    1  0.1054833E+005  0.1043930E+01  0.7957747E-01            NaN
         13   -1    0    0    0    0  0.00000000000E+00  0.00000000000E+00  0.74505805969E-08  0.10566000000E+00  0.10566000000E+00 0. -1.
     999900   -1    0    0    0    0 -0.00000000000E+00 -0.00000000000E+00 -0.74505805969E-08  0.93827000000E+00  0.93827000000E+00 0.  1.
     999902    2    1    2    0    0  0.13211475332E-01  0.10885614846E-01  0.17882059190E-01  0.10191750463E+01  0.10188743629E+01 0.  0.
     999903    2    3    3    0    0 -0.81811824978E-01 -0.88467201329E-01 -0.34669326646E-01  0.12695194763E+00  0.19879999466E-01 0.  0.
         14    1    1    2    0    0 -0.13211475332E-01 -0.10885614846E-01 -0.17882059190E-01  0.24754953684E-01  0.00000000000E+00 0.  1.
     999901    1    3    3    0    0  0.95023300310E-01  0.99352816175E-01  0.52551385835E-01  0.89222309869E+00  0.88000000000E+00 0. -1.
        -11    1    4    4    0    0 -0.54384443377E-01 -0.71021615363E-01 -0.22507538075E-01  0.92242007358E-01  0.51100000000E-03 0.  1.
         11    1    4    4    0    0 -0.27427381601E-01 -0.17445585965E-01 -0.12161788570E-01  0.34709940268E-01  0.51100000000E-03 0. -1.
</event>
<event>
 8    1  0.1054833E+005  0.1043930E+01  0.7957747E-01            NaN
         13   -1    0    0    0    0  0.00000000000E+00  0.00000000000E+00  0.74505805969E-08  0.10566000000E+00  0.10566000000E+00 0. -1.
     999900   -1    0    0    0    0 -0.00000000000E+00 -0.00000000000E+00 -0.74505805969E-08  0.93827000000E+00  0.93827000000E+00 0.  1.
     999902    2    1    2    0    0  0.62354336640E-02  0.14895441503E-01  0.18196740871E-01  0.10196014943E+01  0.10193112042E+01 0.  0.
     999903    2    3    3    0    0  0.70332264437E-01 -0.84080620244E-01 -0.63194648341E-01  0.12801346010E+00  0.19434615169E-01 0.  0.
         14    1    1    2    0    0 -0.62354336640E-02 -0.14895441503E-01 -0.18196740871E-01  0.24328505685E-01  0.00000000000E+00 0.  1.
     999901    1    3    3    0    0 -0.64096830773E-01  0.98976061747E-01  0.81391389212E-01  0.89158803421E+00  0.88000000000E+00 0. -1.
        -11    1    4    4    0    0  0.34382007947E-01 -0.33478183901E-01 -0.18113983518E-01  0.51296089400E-01  0.51100000000E-03 0. -1.
         11    1    4    4    0    0  0.35950256490E-01 -0.50602436343E-01 -0.45080664823E-01  0.76717370702E-01  0.51100000000E-03 0.  1.
</event>
<event>
 8    1  0.1054833E+005  0.1043930E+01  0.7957747E-01            NaN
         13   -1    0    0    0    0  0.00000000000E+00  0.00000000000E+00  0.74505805969E-08  0.10566000000E+00  0.10566000000E+00 0.  1.
     999900   -1    0    0    0    0 -0.00000000000E+00 -0.00000000000E+00 -0.74505805969E-08  0.93827000000E+00  0.93827000000E+00 0. -1.
     999902    2    1    2    0    0 -0.66870089578E-02  0.15908626217E-02 -0.23050486197E-01  0.10198764795E+01  0.10195927921E+01 0.  0.
     999903    2    3    3    0    0 -0.49887200720E-01  0.11872845632E+00 -0.11320271179E-01  0.13098668301E+00  0.21075660174E-01 0.  0.
         14    1    1    2    0    0  0.66870089578E-02 -0.15908626217E-02  0.23050486197E-01  0.24053520461E-01  0.00000000000E+00 0.  1.
     999901    1    3    3    0    0  0.43200191762E-01 -0.11713759370E+00 -0.11730215018E-01  0.88888979653E+00  0.88000000000E+00 0. -1.
        -11    1    4    4    0    0 -0.13750404620E-01  0.59246006763E-01 -0.74615257252E-02  0.61278857951E-01  0.51100000000E-03 0. -1.
         11    1    4    4    0    0 -0.36136796099E-01  0.59482449554E-01 -0.38587454535E-02  0.69707825061E-01  0.51100000000E-03 0.  1.
</event>
<event>
 8    1  0.1054833E+005  0.1043930E+01  0.7957747E-01            NaN
         13   -1    0    0    0    0  0.00000000000E+00  0.00000000000E+00  0.74505805969E-08  0.10566000000E+00  0.10566000000E+00 0. -1.
     999900   -1    0    0    0    0 -0.00000000000E+00 -0.00000000000E+00 -0.74505805969E-08  0.93827000000E+00  0.93827000000E+00 0.  1.
     999902    2    1    2    0    0  0.91174481854E-02  0.15918635424E-01 -0.13055279123E-01  0.10214139806E+01  0.10211657792E+01 0.  0.
     999903    2    3    3    0    0  0.16298213961E-01  0.12879601923E+00 -0.27167160723E-01  0.13406285939E+00  0.19512798283E-01 0.  0.
         14    1    1    2    0    0 -0.91174481854E-02 -0.15918635424E-01  0.13055279123E-01  0.22516019368E-01  0.00000000000E+00 0. -1.
     999901    1    3    3    0    0 -0.71807657761E-02 -0.11287738381E+00  0.14111881600E-01  0.88735112125E+00  0.88000000000E+00 0. -1.
        -11    1    4    4    0    0  0.61069358605E-02  0.63327793229E-01 -0.23071894427E-01  0.67677747409E-01  0.51100000000E-03 0. -1.
         11    1    4    4    0    0  0.10191278101E-01  0.65468226003E-01 -0.40952662963E-02  0.66385111978E-01  0.51100000000E-03 0.  1.
</event>
<event>
 8    1  0.1054833E+005  0.1043930E+01  0.7957747E-01            NaN
         13   -1    0    0    0    0  0.00000000000E+00  0.00000000000E+00  0.74505805969E-08  0.10566000000E+00  0.10566000000E+00 0.  1.
     999900   -1    0    0    0    0 -0.00000000000E+00 -0.00000000000E+00 -0.74505805969E-08  0.93827000000E+00  0.93827000000E+00 0.  1.
     999902    2    1    2    0    0 -0.76230220947E-02  0.49867496098E-02  0.21712719343E-01  0.10203838683E+01  0.10201121597E+01 0.  0.
     999903    2    3    3    0    0  0.89678743856E-01 -0.63848335418E-01  0.68569797326E-01  0.13111366843E+00  0.19237720997E-01 0.  0.
         14    1    1    2    0    0  0.76230220947E-02 -0.49867496098E-02 -0.21712719343E-01  0.23546131716E-01  0.00000000000E+00 0. -1.
     999901    1    3    3    0    0 -0.97301765950E-01  0.68835085027E-01 -0.46857077984E-01  0.88927019985E+00  0.88000000000E+00 0.  1.
        -11    1    4    4    0    0  0.48632928423E-01 -0.32725509266E-01  0.25334827175E-01  0.63861062258E-01  0.51100000000E-03 0. -1.
         11    1    4    4    0    0  0.41045815433E-01 -0.31122826152E-01  0.43234970152E-01  0.67252606174E-01  0.51100000000E-03 0.  1.
</event>
<event>
 7    1  0.1054833E+005  0.1043930E+01  0.7957747E-01            NaN
         13   -1    0    0    0    0  0.00000000000E+00  0.00000000000E+00  0.74505805969E-08  0.10566000000E+00  0.10566000000E+00 0.  1.
     999900   -1    0    0    0    0 -0.00000000000E+00 -0.00000000000E+00 -0.74505805969E-08  0.93827000000E+00  0.93827000000E+00 0.  1.
     999902    2    1    2    0    0 -0.13619416787E-01  0.18136564502E-01 -0.82038095131E-02  0.10198110038E+01  0.10195257513E+01 0.  0.
         14    1    1    2    0    0  0.13619416787E-01 -0.18136564502E-01  0.82038095131E-02  0.24118996166E-01  0.00000000000E+00 0.  1.
     999901    1    3    3    0    0 -0.29467482323E-01 -0.10816440803E+00 -0.18547529809E-01  0.88730596895E+00  0.88000000000E+00 0.  1.
        -11    1    3    3    0    0  0.14390394324E-01  0.79236278576E-01 -0.10107293848E-01  0.81165816705E-01  0.51100000000E-03 0. -1.
         11    1    3    3    0    0  0.14576712120E-02  0.47064693954E-01  0.20451014144E-01  0.51339218175E-01  0.51100000000E-03 0.  1.
</event>
<event>
 8    1  0.1054833E+005  0.1043930E+01  0.7957747E-01            NaN
         13   -1    0    0    0    0  0.00000000000E+00  0.00000000000E+00  0.74505805969E-08  0.10566000000E+00  0.10566000000E+00 0.  1.
     999900   -1    0    0    0    0 -0.00000000000E+00 -0.00000000000E+00 -0.74505805969E-08  0.93827000000E+00  0.93827000000E+00 0. -1.
     999902    2    1    2    0    0 -0.13630065170E-02  0.56503408346E-02 -0.20709139344E-01  0.10224206395E+01  0.10221943609E+01 0.  0.
     999903    2    3    3    0    0 -0.10114492821E+00  0.59699893937E-01  0.56668693172E-01  0.13176632097E+00  0.18885145433E-01 0.  0.
         14    1    1    2    0    0  0.13630065170E-02 -0.56503408346E-02  0.20709139344E-01  0.21509360536E-01  0.00000000000E+00 0.  1.
     999901    1    3    3    0    0  0.99781921691E-01 -0.54049553102E-01 -0.77377832515E-01  0.89065431849E+00  0.88000000000E+00 0.  1.
        -11    1    4    4    0    0 -0.69912179191E-01  0.35340563480E-01  0.29390598610E-01  0.83670404767E-01  0.51100000000E-03 0.  1.
         11    1    4    4    0    0 -0.31232749017E-01  0.24359330457E-01  0.27278094562E-01  0.48095916203E-01  0.51100000000E-03 0. -1.
</event>
<event>
 8    1  0.1054833E+005  0.1043930E+01  0.7957747E-01            NaN
         13   -1    0    0    0    0  0.00000000000E+00  0.00000000000E+00  0.74505805969E-08  0.10566000000E+00  0.10566000000E+00 0. -1.
     999900   -1    0    0    0    0 -0.00000000000E+00 -0.00000000000E+00 -0.74505805969E-08  0.93827000000E+00  0.93827000000E+00 0.  1.
     999902    2    1    2    0    0 -0.10780381076E-01  0.20424697775E-01 -0.77909069950E-02  0.10195561795E+01  0.10192647938E+01 0.  0.
     999903    2    3    3    0    0 -0.10912999124E-02 -0.55992483450E-01 -0.11639523090E+00  0.12954024532E+00  0.98222319959E-02 0.  0.
         14    1    1    2    0    0  0.10780381076E-01 -0.20424697775E-01  0.77909069950E-02  0.24373820528E-01  0.00000000000E+00 0. -1.
     999901    1    3    3    0    0 -0.96890811632E-02  0.76417181224E-01  0.10860432391E+00  0.89001593416E+00  0.88000000000E+00 0. -1.
        -11    1    4    4    0    0 -0.39910350223E-02 -0.42237514202E-01 -0.93372839512E-01  0.10256063692E+00  0.51100000000E-03 0.  1.
         11    1    4    4    0    0  0.28997351099E-02 -0.13754969248E-01 -0.23022391390E-01  0.26979608393E-01  0.51100000000E-03 0. -1.
</event>
<event>
 8    1  0.1054833E+005  0.1043930E+01  0.7957747E-01            NaN
         13   -1    0    0    0    0  0.00000000000E+00  0.00000000000E+00  0.74505805969E-08  0.10566000000E+00  0.10566000000E+00 0.  1.
     999900   -1    0    0    0    0 -0.00000000000E+00 -0.00000000000E+00 -0.74505805969E-08  0.93827000000E+00  0.93827000000E+00 0. -1.
     999902    2    1    2    0    0 -0.69900122873E-02 -0.13707707228E-01 -0.17490087653E-01  0.10206348358E+01  0.10203689545E+01 0.  0.
     999903    2    3    3    0    0  0.10054298013E+00  0.78302120445E-01  0.37616357070E-02  0.12907396373E+00  0.20145105898E-01 0.  0.
         14    1    1    2    0    0  0.69900122873E-02  0.13707707228E-01  0.17490087653E-01  0.23295164205E-01  0.00000000000E+00 0.  1.
     999901    1    3    3    0    0 -0.10753299241E+00 -0.92009827673E-01 -0.21251723360E-01  0.89156087206E+00  0.88000000000E+00 0.  1.
        -11    1    4    4    0    0  0.47587243892E-01  0.35133968679E-01 -0.81737288710E-02  0.59716099178E-01  0.51100000000E-03 0. -1.
         11    1    4    4    0    0  0.52955736235E-01  0.43168151766E-01  0.11935364578E-01  0.69357864555E-01  0.51100000000E-03 0.  1.
</event>
<event>
 8    1  0.1054833E+005  0.1043930E+01  0.7957747E-01            NaN
         13   -1    0    0    0    0  0.00000000000E+00  0.00000000000E+00  0.74505805969E-08  0.10566000000E+00  0.10566000000E+00 0.  1.
     999900   -1    0    0    0    0 -0.00000000000E+00 -0.00000000000E+00 -0.74505805969E-08  0.93827000000E+00  0.93827000000E+00 0. -1.
     999902    2    1    2    0    0 -0.18322225888E-01  0.10523476185E-01 -0.11845495912E-01  0.10197068027E+01  0.10194190504E+01 0.  0.
     999903    2    3    3    0    0  0.11168191347E+00  0.37094174847E-01  0.46174086420E-01  0.12786973790E+00  0.19230080868E-01 0.  0.
         14    1    1    2    0    0  0.18322225888E-01 -0.10523476185E-01  0.11845495912E-01  0.24223197268E-01  0.00000000000E+00 0.  1.
     999901    1    3    3    0    0 -0.13000413936E+00 -0.26570698662E-01 -0.58019582332E-01  0.89183706483E+00  0.88000000000E+00 0. -1.
        -11    1    4    4    0    0  0.20052396388E-02 -0.12728738027E-02 -0.77225827393E-03  0.25492543161E-02  0.51100000000E-03 0. -1.
         11    1    4    4    0    0  0.10967667383E+00  0.38367048650E-01  0.46946344694E-01  0.12532048358E+00  0.51100000000E-03 0.  1.
</event>
<event>
 8    1  0.1054833E+005  0.1043930E+01  0.7957747E-01            NaN
         13   -1    0    0    0    0  0.00000000000E+00  0.00000000000E+00  0.74505805969E-08  0.10566000000E+00  0.10566000000E+00 0. -1.
     999900   -1    0    0    0    0 -0.00000000000E+00 -0.00000000000E+00 -0.74505805969E-08  0.93827000000E+00  0.93827000000E+00 0. -1.
     999902    2    1    2    0    0  0.84640404749E-02  0.15410302521E-01  0.11794832306E-01  0.10227584277E+01  0.10225392735E+01 0.  0.
     999903    2    3    3    0    0 -0.88750600568E-01  0.97115165317E-01  0.12265789737E-01  0.13364280369E+00  0.20048065862E-01 0.  0.
         14    1    1    2    0    0 -0.84640404749E-02 -0.15410302521E-01 -0.11794832306E-01  0.21171572310E-01  0.00000000000E+00 0.  1.
     999901    1    3    3    0    0  0.97214641043E-01 -0.81704862797E-01 -0.47095743010E-03  0.88911562400E+00  0.88000000000E+00 0. -1.
        -11    1    4    4    0    0 -0.45679294529E-01  0.42462534515E-01  0.14452031649E-01  0.64021770719E-01  0.51100000000E-03 0.  1.
         11    1    4    4    0    0 -0.43071306039E-01  0.54652630802E-01 -0.21862419130E-02  0.69621032973E-01  0.51100000000E-03 0. -1.
</event>
<event>
 7    1  0.1131981E+005  0.1043930E+01  0.7957747E-01            NaN
         13   -1    0    0    0    0  0.00000000000E+00  0.00000000000E+00  0.74505805969E-08  0.10566000000E+00  0.10566000000E+00 0. -1.
     999900   -1    0    0    0    0 -0.00000000000E+00 -0.00000000000E+00 -0.74505805969E-08  0.93827000000E+00  0.93827000000E+00 0. -1.
     999903    2    1    2    0    0  0.15117188908E-01 -0.52664316084E-01 -0.80028498955E-01  0.99330434943E-01  0.21445630603E-01 0.  0.
         14    1    1    2    0    0  0.72334565511E-02 -0.34111281966E-01 -0.38727796177E-01  0.52112806946E-01  0.00000000000E+00 0.  1.
     999901    1    1    2    0    0 -0.22350645459E-01  0.86775598050E-01  0.11875629513E+00  0.89248675811E+00  0.88000000000E+00 0.  1.
        -11    1    3    3    0    0  0.52248156447E-03 -0.37351359523E-01 -0.45998589518E-01  0.59258150527E-01  0.51100000000E-03 0. -1.
         11    1    3    3    0    0  0.14594707343E-01 -0.15312956561E-01 -0.34029909437E-01  0.40072284417E-01  0.51100000000E-03 0.  1.
</event>
<event>
 8    1  0.1054833E+005  0.1043930E+01  0.7957747E-01            NaN
         13   -1    0    0    0    0  0.00000000000E+00  0.00000000000E+00  0.74505805969E-08  0.10566000000E+00  0.10566000000E+00 0. -1.
     999900   -1    0    0    0    0 -0.00000000000E+00 -0.00000000000E+00 -0.74505805969E-08  0.93827000000E+00  0.93827000000E+00 0.  1.
     999902    2    1    2    0    0  0.13656765312E-01  0.23606208753E-01 -0.13836677351E-01  0.10133487317E+01  0.10128871793E+01 0.  0.
     999903    2    3    3    0    0 -0.77728394599E-01  0.88436759636E-01  0.36484841790E-01  0.12481820152E+00  0.19638634587E-01 0.  0.
         14    1    1    2    0    0 -0.13656765312E-01 -0.23606208753E-01  0.13836677351E-01  0.30581268296E-01  0.00000000000E+00 0. -1.
     999901    1    3    3    0    0  0.91385159911E-01 -0.64830550882E-01 -0.50321519141E-01  0.88853053018E+00  0.88000000000E+00 0. -1.
        -11    1    4    4    0    0 -0.35615953950E-01  0.48644949350E-01  0.10015673377E-01  0.61117936052E-01  0.51100000000E-03 0. -1.
         11    1    4    4    0    0 -0.42112440649E-01  0.39791810285E-01  0.26469168413E-01  0.63700265468E-01  0.51100000000E-03 0.  1.
</event>
<event>
 8    1  0.1054833E+005  0.1043930E+01  0.7957747E-01            NaN
         13   -1    0    0    0    0  0.00000000000E+00  0.00000000000E+00  0.74505805969E-08  0.10566000000E+00  0.10566000000E+00 0. -1.
     999900   -1    0    0    0    0 -0.00000000000E+00 -0.00000000000E+00 -0.74505805969E-08  0.93827000000E+00  0.93827000000E+00 0. -1.
     999902    2    1    2    0    0 -0.19122518045E-01  0.51798823587E-02 -0.93368128501E-02  0.10220284486E+01  0.10217937521E+01 0.  0.
     999903    2    3    3    0    0 -0.31593323701E-01  0.12779945424E+00  0.18565146046E-02  0.13336857502E+00  0.21281248781E-01 0.  0.
         14    1    1    2    0    0  0.19122518045E-01 -0.51798823587E-02  0.93368128501E-02  0.21901551357E-01  0.00000000000E+00 0. -1.
     999901    1    3    3    0    0  0.12470805656E-01 -0.12261957189E+00 -0.11193327455E-01  0.88865987362E+00  0.88000000000E+00 0. -1.
        -11    1    4    4    0    0 -0.15026892440E-01  0.25349617059E-01  0.25612002861E-02  0.29584310865E-01  0.51100000000E-03 0.  1.
         11    1    4    4    0    0 -0.16566431261E-01  0.10244983718E+00 -0.70468568157E-03  0.10378426416E+00  0.51100000000E-03 0. -1.
</event>
<event>
 8    1  0.1054833E+005  0.1043930E+01  0.7957747E-01            NaN
         13   -1    0    0    0    0  0.00000000000E+00  0.00000000000E+00  0.74505805969E-08  0.10566000000E+00  0.10566000000E+00 0. -1.
     999900   -1    0    0    0    0 -0.00000000000E+00 -0.00000000000E+00 -0.74505805969E-08  0.93827000000E+00  0.93827000000E+00 0. -1.
     999902    2    1    2    0    0 -0.85300743872E-02  0.13345425706E-01 -0.17747544743E-01  0.10201426525E+01  0.10198652821E+01 0.  0.
     999903    2    3    3    0    0  0.82804436340E-01  0.99408769062E-01 -0.81828258978E-02  0.13118799913E+00  0.20116024244E-01 0.  0.
         14    1    1    2    0    0  0.85300743872E-02 -0.13345425706E-01  0.17747544743E-01  0.23787347492E-01  0.00000000000E+00 0. -1.
     999901    1    3    3    0    0 -0.91334510727E-01 -0.86063343356E-01 -0.95647188450E-02  0.88895465338E+00  0.88000000000E+00 0.  1.
        -11    1    4    4    0    0  0.27910798622E-01  0.47839871129E-01  0.32814345912E-03  0.55389843369E-01  0.51100000000E-03 0.  1.
         11    1    4    4    0    0  0.54893637718E-01  0.51568897934E-01 -0.85109693569E-02  0.75798155759E-01  0.51100000000E-03 0. -1.
</event>
<event>
 8    1  0.1054833E+005  0.1043930E+01  0.7957747E-01            NaN
         13   -1    0    0    0    0  0.00000000000E+00  0.00000000000E+00  0.74505805969E-08  0.10566000000E+00  0.10566000000E+00 0.  1.
     999900   -1    0    0    0    0 -0.00000000000E+00 -0.00000000000E+00 -0.74505805969E-08  0.93827000000E+00  0.93827000000E+00 0.  1.
     999902    2    1    2    0    0 -0.16923584338E-01 -0.16057557021E-01 -0.34635843195E-02  0.10203450628E+01  0.10200724474E+01 0.  0.
     999903    2    3    3    0    0 -0.12317069176E+00  0.22878488260E-01 -0.38004740764E-01  0.13242752447E+00  0.19956061343E-01 0.  0.
         14    1    1    2    0    0  0.16923584338E-01  0.16057557021E-01  0.34635843195E-02  0.23584937156E-01  0.00000000000E+00 0. -1.
     999901    1    3    3    0    0  0.10624710742E+00 -0.38936045281E-01  0.34541156444E-01  0.88791753837E+00  0.88000000000E+00 0.  1.
        -11    1    4    4    0    0 -0.84220064990E-01  0.10092099337E-01 -0.33431039788E-01  0.91174367880E-01  0.51100000000E-03 0. -1.
         11    1    4    4    0    0 -0.38950626768E-01  0.12786388923E-01 -0.45737009761E-02  0.41253156594E-01  0.51100000000E-03 0.  1.
</event>
<event>
 8    1  0.1054833E+005  0.1043930E+01  0.7957747E-01            NaN
         13   -1    0    0    0    0  0.00000000000E+00  0.00000000000E+00  0.74505805969E-08  0.10566000000E+00  0.10566000000E+00 0. -1.
     999900   -1    0    0    0    0 -0.00000000000E+00 -0.00000000000E+00 -0.74505805969E-08  0.93827000000E+00  0.93827000000E+00 0. -1.
     999902    2    1    2    0    0  0.60240028034E-03 -0.10031907783E-01 -0.24610461102E-01  0.10173466056E+01  0.10169992326E+01 0.  0.
     999903    2    3    3    0    0  0.91991536266E-02 -0.42028655207E-02  0.12297979489E+00  0.12499534881E+00  0.19937872669E-01 0.  0.
         14    1    1    2    0    0 -0.60240028034E-03  0.10031907783E-01  0.24610461102E-01  0.26583394357E-01  0.00000000000E+00 0. -1.
     999901    1    3    3    0    0 -0.85967533462E-02 -0.58290422621E-02 -0.14759025600E+00  0.89235125683E+00  0.88000000000E+00 0. -1.
        -11    1    4    4    0    0  0.14070692094E-01  0.12054837990E-02  0.62540610617E-01  0.64117288344E-01  0.51100000000E-03 0.  1.
         11    1    4    4    0    0 -0.48715384670E-02 -0.54083493197E-02  0.60439184277E-01  0.60878060469E-01  0.51100000000E-03 0. -1.
</event>
<event>
 8    1  0.1054833E+005  0.1043930E+01  0.7957747E-01            NaN
         13   -1    0    0    0    0  0.00000000000E+00  0.00000000000E+00  0.74505805969E-08  0.10566000000E+00  0.10566000000E+00 0.  1.
     999900   -1    0    0    0    0 -0.00000000000E+00 -0.00000000000E+00 -0.74505805969E-08  0.93827000000E+00  0.93827000000E+00 0. -1.
     999902    2    1    2    0    0 -0.14913413746E-01  0.18291567855E-01  0.57335836741E-02  0.10196428564E+01  0.10193535644E+01 0.  0.
     999903    2    3    3    0    0 -0.33176129664E-01 -0.76278229205E-01 -0.95930821742E-01  0.12856899599E+00  0.20204958324E-01 0.  0.
         14    1    1    2    0    0  0.14913413746E-01 -0.18291567855E-01 -0.57335836741E-02  0.24287143634E-01  0.00000000000E+00 0. -1.
     999901    1    3    3    0    0  0.18262715918E-01  0.94569797060E-01  0.10166440542E+00  0.89107386037E+00  0.88000000000E+00 0.  1.
        -11    1    4    4    0    0 -0.13593246628E-01 -0.18607362148E-01 -0.38401059683E-01  0.44787417717E-01  0.51100000000E-03 0. -1.
         11    1    4    4    0    0 -0.19582883035E-01 -0.57670867057E-01 -0.57529762059E-01  0.83781578277E-01  0.51100000000E-03 0.  1.
</event>
<event>
 8    1  0.1054833E+005  0.1043930E+01  0.7957747E-01            NaN
         13   -1    0    0    0    0  0.00000000000E+00  0.00000000000E+00  0.74505805969E-08  0.10566000000E+00  0.10566000000E+00 0.  1.
     999900   -1    0    0    0    0 -0.00000000000E+00 -0.00000000000E+00 -0.74505805969E-08  0.93827000000E+00  0.93827000000E+00 0. -1.
     999902    2    1    2    0    0 -0.19540936961E-01 -0.51940788843E-02 -0.45796024065E-03  0.10237053517E+01  0.10235055499E+01 0.  0.
     999903    2    3    3    0    0  0.11128684730E+00  0.66469273182E-01  0.56752985248E-03  0.13115137750E+00  0.19935773617E-01 0.  0.
         14    1    1    2    0    0  0.19540936961E-01  0.51940788843E-02  0.45796024065E-03  0.20224648337E-01  0.00000000000E+00 0. -1.
     999901    1    3    3    0    0 -0.13082778427E+00 -0.71663352066E-01 -0.10254900931E-02  0.89255397416E+00  0.88000000000E+00 0. -1.
        -11    1    4    4    0    0  0.68259377180E-01  0.48166974389E-01  0.74952300513E-02  0.83879911715E-01  0.51100000000E-03 0.  1.
         11    1    4    4    0    0  0.43027470123E-01  0.18302298793E-01 -0.69277001988E-02  0.47271465784E-01  0.51100000000E-03 0. -1.
</event>
<event>
 8    1  0.1054833E+005  0.1043930E+01  0.7957747E-01            NaN
         13   -1    0    0    0    0  0.00000000000E+00  0.00000000000E+00  0.74505805969E-08  0.10566000000E+00  0.10566000000E+00 0. -1.
     999900   -1    0    0    0    0 -0.00000000000E+00 -0.00000000000E+00 -0.74505805969E-08  0.93827000000E+00  0.93827000000E+00 0.  1.
     999902    2    1    2    0    0 -0.55100665176E-02 -0.85013787593E-03  0.21591885585E-01  0.10216299307E+01  0.10213865195E+01 0.  0.
     999903    2    3    3    0    0  0.19056032094E-02 -0.64003614282E-01  0.11633680941E+00  0.13426306501E+00  0.19804631731E-01 0.  0.
         14    1    1    2    0    0  0.55100665176E-02  0.85013787593E-03 -0.21591885585E-01  0.22300069295E-01  0.00000000000E+00 0.  1.
     999901    1    3    3    0    0 -0.74156697270E-02  0.63153476406E-01 -0.94744923824E-01  0.88736686569E+00  0.88000000000E+00 0.  1.
        -11    1    4    4    0    0 -0.61080503450E-02 -0.10422471896E-01  0.14237619587E-01  0.18679055971E-01  0.51100000000E-03 0. -1.
         11    1    4    4    0    0  0.80136535544E-02 -0.53581142385E-01  0.10209918982E+00  0.11558400904E+00  0.51100000000E-03 0.  1.
</event>
<event>
 8    1  0.1054833E+005  0.1043930E+01  0.7957747E-01            NaN
         13   -1    0    0    0    0  0.00000000000E+00  0.00000000000E+00  0.74505805969E-08  0.10566000000E+00  0.10566000000E+00 0.  1.
     999900   -1    0    0    0    0 -0.00000000000E+00 -0.00000000000E+00 -0.74505805969E-08  0.93827000000E+00  0.93827000000E+00 0. -1.
     999902    2    1    2    0    0  0.11296311093E-01 -0.17996364924E-01 -0.13786020553E-01  0.10186015544E+01  0.10182865984E+01 0.  0.
     999903    2    3    3    0    0  0.99394337724E-01  0.52318624573E-01  0.58400157326E-01  0.12848004339E+00  0.21910507204E-01 0.  0.
         14    1    1    2    0    0 -0.11296311093E-01  0.17996364924E-01  0.13786020553E-01  0.25328445619E-01  0.00000000000E+00 0. -1.
     999901    1    3    3    0    0 -0.88098026631E-01 -0.70314989498E-01 -0.72186177879E-01  0.89012151099E+00  0.88000000000E+00 0. -1.
        -11    1    4    4    0    0  0.74169212100E-01  0.48959383054E-01  0.42974435384E-01  0.98717558874E-01  0.51100000000E-03 0.  1.
         11    1    4    4    0    0  0.25225125624E-01  0.33592415196E-02  0.15425721942E-01  0.29762484520E-01  0.51100000000E-03 0. -1.
</event>
<event>
 8    1  0.1054833E+005  0.1043930E+01  0.7957747E-01            NaN
         13   -1    0    0    0    0  0.00000000000E+00  0.00000000000E+00  0.74505805969E-08  0.10566000000E+00  0.10566000000E+00 0.  1.
     999900   -1    0    0    0    0 -0.00000000000E+00 -0.00000000000E+00 -0.74505805969E-08  0.93827000000E+00  0.93827000000E+00 0. -1.
     999902    2    1    2    0    0  0.22191222265E-02 -0.24038723999E-01 -0.16435164669E-02  0.10197331841E+01  0.10194460657E+01 0.  0.
     999903    2    3    3    0    0 -0.46417487492E-01 -0.12018139081E+00  0.25163290880E-01  0.13275655692E+00  0.19823278134E-01 0.  0.
         14    1    1    2    0    0 -0.22191222265E-02  0.24038723999E-01  0.16435164669E-02  0.24196815934E-01  0.00000000000E+00 0. -1.
     999901    1    3    3    0    0  0.48636609718E-01  0.96142666807E-01 -0.26806807347E-01  0.88697662715E+00  0.88000000000E+00 0.  1.
        -11    1    4    4    0    0 -0.32652222363E-01 -0.58229180455E-01  0.15788403824E-01  0.68602768880E-01  0.51100000000E-03 0.  1.
         11    1    4    4    0    0 -0.13765265129E-01 -0.61952210350E-01  0.93748870558E-02  0.64153788038E-01  0.51100000000E-03 0. -1.
</event>
<event>
 8    1  0.1054833E+005  0.1043930E+01  0.7957747E-01            NaN
         13   -1    0    0    0    0  0.00000000000E+00  0.00000000000E+00  0.74505805969E-08  0.10566000000E+00  0.10566000000E+00 0.  1.
     999900   -1    0    0    0    0 -0.00000000000E+00 -0.00000000000E+00 -0.74505805969E-08  0.93827000000E+00  0.93827000000E+00 0.  1.
     999902    2    1    2    0    0  0.11091573123E-01  0.14532021386E-01 -0.14696118966E-01  0.10204741148E+01  0.10202045091E+01 0.  0.
     999903    2    3    3    0    0 -0.12481223701E+00  0.24466345581E-03 -0.29395381192E-01  0.12980580247E+00  0.20181762867E-01 0.  0.
         14    1    1    2    0    0 -0.11091573123E-01 -0.14532021386E-01  0.14696118966E-01  0.23455885244E-01  0.00000000000E+00 0. -1.
     999901    1    3    3    0    0  0.13590381013E+00  0.14287357930E-01  0.14699262225E-01  0.89066831229E+00  0.88000000000E+00 0. -1.
        -11    1    4    4    0    0 -0.75030734605E-01 -0.82729584290E-02 -0.22888286236E-01  0.78880845231E-01  0.51100000000E-03 0. -1.
         11    1    4    4    0    0 -0.49781502400E-01  0.85176218848E-02 -0.65070949553E-02  0.50924957237E-01  0.51100000000E-03 0.  1.
</event>
<event>
 8    1  0.1054833E+005  0.1043930E+01  0.7957747E-01            NaN
         13   -1    0    0    0    0  0.00000000000E+00  0.00000000000E+00  0.74505805969E-08  0.10566000000E+00  0.10566000000E+00 0. -1.
     999900   -1    0    0    0    0 -0.00000000000E+00 -0.00000000000E+00 -0.74505805969E-08  0.93827000000E+00  0.93827000000E+00 0. -1.
     999902    2    1    2    0    0 -0.14241234716E-01 -0.34350795871E-02 -0.16706567807E-01  0.10217101452E+01  0.10214685012E+01 0.  0.
     999903    2    3    3    0    0 -0.37532829821E-01  0.75411078946E-01 -0.10198585714E+00  0.13377333875E+00  0.19966145356E-01 0.  0.
         14    1    1    2    0    0  0.14241234716E-01  0.34350795871E-02  0.16706567807E-01  0.22219854767E-01  0.00000000000E+00 0. -1.
     999901    1    3    3    0    0  0.23291595105E-01 -0.78846158533E-01  0.85279289338E-01  0.88793680648E+00  0.88000000000E+00 0.  1.
        -11    1    4    4    0    0 -0.17685782140E-01  0.16428091699E-01 -0.24624324782E-01  0.34486049045E-01  0.51100000000E-03 0.  1.
         11    1    4    4    0    0 -0.19847047680E-01  0.58982987247E-01 -0.77361532363E-01  0.99287289704E-01  0.51100000000E-03 0. -1.
</event>
<event>
 8    1  0.1054833E+005  0.1043930E+01  0.7957747E-01            NaN
         13   -1    0    0    0    0  0.00000000000E+00  0.00000000000E+00  0.74505805969E-08  0.10566000000E+00  0.10566000000E+00 0.  1.
     999900   -1    0    0    0    0 -0.00000000000E+00 -0.00000000000E+00 -0.74505805969E-08  0.93827000000E+00  0.93827000000E+00 0.  1.
     999902    2    1    2    0    0  0.24024583584E-01 -0.37573783321E-02 -0.30024374255E-02  0.10194287115E+01  0.10191342329E+01 0.  0.
     999903    2    3    3    0    0 -0.12282408445E+00 -0.56844718906E-02 -0.24346777634E-01  0.12700290177E+00  0.20467108599E-01 0.  0.
         14    1    1    2    0    0 -0.24024583584E-01  0.37573783321E-02  0.30024374255E-02  0.24501288513E-01  0.00000000000E+00 0.  1.
     999901    1    3    3    0    0  0.14684866804E+00  0.19270935585E-02  0.21344340208E-01  0.89242580972E+00  0.88000000000E+00 0. -1.
        -11    1    4    4    0    0 -0.11183619541E+00 -0.63748083732E-02 -0.27866734976E-01  0.11543304910E+00  0.51100000000E-03 0. -1.
         11    1    4    4    0    0 -0.10987889046E-01  0.69033648259E-03  0.35199573424E-02  0.11569852671E-01  0.51100000000E-03 0.  1.
</event>
<event>
 8    1  0.1054833E+005  0.1043930E+01  0.7957747E-01            NaN
         13   -1    0    0    0    0  0.00000000000E+00  0.00000000000E+00  0.74505805969E-08  0.10566000000E+00  0.10566000000E+00 0.  1.
     999900   -1    0    0    0    0 -0.00000000000E+00 -0.00000000000E+00 -0.74505805969E-08  0.93827000000E+00  0.93827000000E+00 0.  1.
     999902    2    1    2    0    0 -0.49762371844E-02 -0.83660175836E-02  0.22143541959E-01  0.10197413738E+01  0.10194544521E+01 0.  0.
     999903    2    3    3    0    0 -0.48943250363E-01 -0.21193884476E-01 -0.11468981264E+00  0.12798971592E+00  0.19570175327E-01 0.  0.
         14    1    1    2    0    0  0.49762371844E-02  0.83660175836E-02 -0.22143541959E-01  0.24188626195E-01  0.00000000000E+00 0. -1.
     999901    1    3    3    0    0  0.43967013178E-01  0.12827866892E-01  0.13683335460E+00  0.89175165789E+00  0.88000000000E+00 0. -1.
        -11    1    4    4    0    0 -0.44093416313E-01 -0.10907661180E-01 -0.92230531421E-01  0.10281020612E+00  0.51100000000E-03 0.  1.
         11    1    4    4    0    0 -0.48498340496E-02 -0.10286223295E-01 -0.22459281217E-01  0.25179509800E-01  0.51100000000E-03 0. -1.
</event>
<event>
 8    1  0.1054833E+005  0.1043930E+01  0.7957747E-01            NaN
         13   -1    0    0    0    0  0.00000000000E+00  0.00000000000E+00  0.74505805969E-08  0.10566000000E+00  0.10566000000E+00 0. -1.
     999900   -1    0    0    0    0 -0.00000000000E+00 -0.00000000000E+00 -0.74505805969E-08  0.93827000000E+00  0.93827000000E+00 0. -1.
     999902    2    1    2    0    0 -0.20976982064E-01  0.62923600711E-02  0.11100261936E-01  0.10193771308E+01  0.10190813959E+01 0.  0.
     999903    2    3    3    0    0  0.10817564539E+00  0.52004815773E-01 -0.37969075314E-01  0.12742543386E+00  0.19726109453E-01 0.  0.
         14    1    1    2    0    0  0.20976982064E-01 -0.62923600711E-02 -0.11100261936E-01  0.24552869218E-01  0.00000000000E+00 0.  1.
     999901    1    3    3    0    0 -0.12915262746E+00 -0.45712455702E-01  0.49069337250E-01  0.89195169692E+00  0.88000000000E+00 0.  1.
        -11    1    4    4    0    0  0.98399532391E-01  0.41084511416E-01 -0.30192215511E-01  0.11082525006E+00  0.51100000000E-03 0. -1.
         11    1    4    4    0    0  0.97761130030E-02  0.10920304356E-01 -0.77768598031E-02  0.16600183797E-01  0.51100000000E-03 0.  1.
</event>
<event>
 8    1  0.1054833E+005  0.1043930E+01  0.7957747E-01            NaN
         13   -1    0    0    0    0  0.00000000000E+00  0.00000000000E+00  0.74505805969E-08  0.10566000000E+00  0.10566000000E+00 0.  1.
     999900   -1    0    0    0    0 -0.00000000000E+00 -0.00000000000E+00 -0.74505805969E-08  0.93827000000E+00  0.93827000000E+00 0.  1.
     999902    2    1    2    0    0  0.20670889414E-01  0.91129498424E-02  0.53606542754E-03  0.10213331221E+01  0.10210831149E+01 0.  0.
     999903    2    3    3    0    0  0.12393606561E+00  0.35817133334E-01 -0.31570190268E-01  0.13431135142E+00  0.19996169812E-01 0.  0.
         14    1    1    2    0    0 -0.20670889414E-01 -0.91129498424E-02 -0.53606542754E-03  0.22596877885E-01  0.00000000000E+00 0.  1.
     999901    1    3    3    0    0 -0.10326517620E+00 -0.26704183491E-01  0.32106255696E-01  0.88702177069E+00  0.88000000000E+00 0. -1.
        -11    1    4    4    0    0  0.28875155903E-01  0.33126390149E-02 -0.22730655317E-03  0.29069932834E-01  0.51100000000E-03 0.  1.
         11    1    4    4    0    0  0.95060909709E-01  0.32504494319E-01 -0.31342883715E-01  0.10524141859E+00  0.51100000000E-03 0. -1.
</event>
<event>
 8    1  0.1054833E+005  0.1043930E+01  0.7957747E-01            NaN
         13   -1    0    0    0    0  0.00000000000E+00  0.00000000000E+00  0.74505805969E-08  0.10566000000E+00  0.10566000000E+00 0. -1.
     999900   -1    0    0    0    0 -0.00000000000E+00 -0.00000000000E+00 -0.74505805969E-08  0.93827000000E+00  0.93827000000E+00 0.  1.
     999902    2    1    2    0    0  0.56467270460E-02  0.20115263598E-01 -0.78602686472E-02  0.10216075185E+01  0.10213636124E+01 0.  0.
     999903    2    3    3    0    0  0.62425453533E-01  0.53933442236E-01 -0.10350327386E+00  0.13396171223E+00  0.20665410799E-01 0.  0.
         14    1    1    2    0    0 -0.56467270460E-02 -0.20115263598E-01  0.78602686472E-02  0.22322481474E-01  0.00000000000E+00 0. -1.
     999901    1    3    3    0    0 -0.56778726487E-01 -0.33818178639E-01  0.95643005214E-01  0.88764580630E+00  0.88000000000E+00 0. -1.
        -11    1    4    4    0    0  0.46570791479E-01  0.45433493620E-01 -0.67739879714E-01  0.93925467186E-01  0.51100000000E-03 0. -1.
         11    1    4    4    0    0  0.15854662055E-01  0.84999486167E-02 -0.35763394147E-01  0.40036245044E-01  0.51100000000E-03 0.  1.
</event>
<event>
 8    1  0.1054833E+005  0.1043930E+01  0.7957747E-01            NaN
         13   -1    0    0    0    0  0.00000000000E+00  0.00000000000E+00  0.74505805969E-08  0.10566000000E+00  0.10566000000E+00 0. -1.
     999900   -1    0    0    0    0 -0.00000000000E+00 -0.00000000000E+00 -0.74505805969E-08  0.93827000000E+00  0.93827000000E+00 0. -1.
     999902    2    1    2    0    0 -0.14427921147E-01  0.25220224013E-01 -0.21437013611E-01  0.10078222424E+01  0.10071752092E+01 0.  0.
     999903    2    3    3    0    0  0.72280213089E-02  0.99979018365E-01  0.63486515904E-01  0.12031457309E+00  0.19925119613E-01 0.  0.
         14    1    1    2    0    0  0.14427921147E-01 -0.25220224013E-01  0.21437013611E-01  0.36107757621E-01  0.00000000000E+00 0. -1.
     999901    1    3    3    0    0 -0.21655942456E-01 -0.74758794352E-01 -0.84923529514E-01  0.88750766929E+00  0.88000000000E+00 0. -1.
        -11    1    4    4    0    0  0.75902177114E-02  0.72718286383E-01  0.55825755859E-01  0.91990959978E-01  0.51100000000E-03 0. -1.
         11    1    4    4    0    0 -0.36219640254E-03  0.27260731981E-01  0.76607600448E-02  0.28323613115E-01  0.51100000000E-03 0.  1.
</event>
<event>
 8    1  0.1054833E+005  0.1043930E+01  0.7957747E-01            NaN
         13   -1    0    0    0    0  0.00000000000E+00  0.00000000000E+00  0.74505805969E-08  0.10566000000E+00  0.10566000000E+00 0.  1.
     999900   -1    0    0    0    0 -0.00000000000E+00 -0.00000000000E+00 -0.74505805969E-08  0.93827000000E+00  0.93827000000E+00 0.  1.
     999902    2    1    2    0    0  0.63905951504E-02 -0.19598366745E-01 -0.11509832200E-01  0.10203204273E+01  0.10200472354E+01 0.  0.
     999903    2    3    3    0    0 -0.88079327492E-01 -0.36317264793E-01  0.85736657012E-01  0.12978072157E+00  0.20380129570E-01 0.  0.
         14    1    1    2    0    0 -0.63905951504E-02  0.19598366745E-01  0.11509832200E-01  0.23609572693E-01  0.00000000000E+00 0. -1.
     999901    1    3    3    0    0  0.94469922643E-01  0.16718898048E-01 -0.97246489213E-01  0.89053970574E+00  0.88000000000E+00 0.  1.
        -11    1    4    4    0    0 -0.79574314227E-01 -0.33673171827E-01  0.68104611245E-01  0.11002023986E+00  0.51100000000E-03 0.  1.
         11    1    4    4    0    0 -0.85050132655E-02 -0.26440929660E-02  0.17632045767E-01  0.19760481705E-01  0.51100000000E-03 0. -1.
</event>
<event>
 7    1  0.1054833E+005  0.1043930E+01  0.7957747E-01            NaN
         13   -1    0    0    0    0  0.00000000000E+00  0.00000000000E+00  0.74505805969E-08  0.10566000000E+00  0.10566000000E+00 0. -1.
     999900   -1    0    0    0    0 -0.00000000000E+00 -0.00000000000E+00 -0.74505805969E-08  0.93827000000E+00  0.93827000000E+00 0. -1.
     999903    2    1    2    0    0 -0.11267379101E-01 -0.76798483817E-02  0.65067073253E-01  0.69672977341E-01  0.20848641367E-01 0.  0.
         14    1    1    2    0    0  0.88315641626E-01 -0.56016223644E-02 -0.10377862309E-01  0.89099555302E-01  0.00000000000E+00 0. -1.
     999901    1    1    2    0    0 -0.77048262525E-01  0.13281470746E-01 -0.54689210944E-01  0.88515746736E+00  0.88000000000E+00 0. -1.
        -11    1    3    3    0    0 -0.16820590600E-01 -0.36631899739E-02  0.53654327442E-01  0.56350680592E-01  0.51100000000E-03 0. -1.
         11    1    3    3    0    0  0.55532114992E-02 -0.40166584078E-02  0.11412745811E-01  0.13322296749E-01  0.51100000000E-03 0.  1.
</event>
<event>
 8    1  0.1054833E+005  0.1043930E+01  0.7957747E-01            NaN
         13   -1    0    0    0    0  0.00000000000E+00  0.00000000000E+00  0.74505805969E-08  0.10566000000E+00  0.10566000000E+00 0. -1.
     999900   -1    0    0    0    0 -0.00000000000E+00 -0.00000000000E+00 -0.74505805969E-08  0.93827000000E+00  0.93827000000E+00 0. -1.
     999902    2    1    2    0    0 -0.11074557576E-01 -0.18638838035E-01 -0.11160646072E-01  0.10195453300E+01  0.10192536818E+01 0.  0.
     999903    2    3    3    0    0  0.25923617546E-01  0.27355819511E-01 -0.12365237182E+00  0.13042286274E+00  0.17315867256E-01 0.  0.
         14    1    1    2    0    0  0.11074557576E-01  0.18638838035E-01  0.11160646072E-01  0.24384669970E-01  0.00000000000E+00 0. -1.
     999901    1    3    3    0    0 -0.36998175122E-01 -0.45994657546E-01  0.11249172575E+00  0.88912246729E+00  0.88000000000E+00 0.  1.
        -11    1    4    4    0    0  0.18590110473E-01  0.16847640254E-01 -0.53306243244E-01  0.58917330891E-01  0.51100000000E-03 0. -1.
         11    1    4    4    0    0  0.73335070732E-02  0.10508179257E-01 -0.70346128579E-01  0.71505531845E-01  0.51100000000E-03 0.  1.
</event>
<event>
 8    1  0.1054833E+005  0.1043930E+01  0.7957747E-01            NaN
         13   -1    0    0    0    0  0.00000000000E+00  0.00000000000E+00  0.74505805969E-08  0.10566000000E+00  0.10566000000E+00 0. -1.
     999900   -1    0    0    0    0 -0.00000000000E+00 -0.00000000000E+00 -0.74505805969E-08  0.93827000000E+00  0.93827000000E+00 0. -1.
     999902    2    1    2    0    0 -0.17457953190E-01 -0.17193189932E-01 -0.17659919322E-01  0.10137263800E+01  0.10132763270E+01 0.  0.
     999903    2    3    3    0    0 -0.51616353180E-01  0.10907413452E+00  0.16337221282E-01  0.12340843732E+00  0.20033044392E-01 0.  0.
         14    1    1    2    0    0  0.17457953190E-01  0.17193189932E-01  0.17659919322E-01  0.30203619983E-01  0.00000000000E+00 0. -1.
     999901    1    3    3    0    0  0.34158399990E-01 -0.12626732445E+00 -0.33997140604E-01  0.89031794269E+00  0.88000000000E+00 0.  1.
        -11    1    4    4    0    0 -0.33662732730E-01  0.83910673774E-01  0.52512566228E-02  0.90564990836E-01  0.51100000000E-03 0. -1.
         11    1    4    4    0    0 -0.17953620450E-01  0.25163460741E-01  0.11085964659E-01  0.32843446487E-01  0.51100000000E-03 0.  1.
</event>
<event>
 8    1  0.1054833E+005  0.1043930E+01  0.7957747E-01            NaN
         13   -1    0    0    0    0  0.00000000000E+00  0.00000000000E+00  0.74505805969E-08  0.10566000000E+00  0.10566000000E+00 0.  1.
     999900   -1    0    0    0    0 -0.00000000000E+00 -0.00000000000E+00 -0.74505805969E-08  0.93827000000E+00  0.93827000000E+00 0. -1.
     999902    2    1    2    0    0  0.11047734655E-02  0.12124903410E-01  0.18588566992E-01  0.10217090948E+01  0.10214674276E+01 0.  0.
     999903    2    3    3    0    0  0.22802678134E-01 -0.12450059030E+00 -0.22315924545E-01  0.12996333389E+00  0.19290115407E-01 0.  0.
         14    1    1    2    0    0 -0.11047734655E-02 -0.12124903410E-01 -0.18588566992E-01  0.22220905246E-01  0.00000000000E+00 0. -1.
     999901    1    3    3    0    0 -0.21697904668E-01  0.13662549371E+00  0.40904491537E-01  0.89174576087E+00  0.88000000000E+00 0. -1.
        -11    1    4    4    0    0  0.17544125729E-01 -0.64498721607E-01 -0.19640684143E-01  0.69669929174E-01  0.51100000000E-03 0. -1.
         11    1    4    4    0    0  0.52585524048E-02 -0.60001868689E-01 -0.26752404020E-02  0.60293404712E-01  0.51100000000E-03 0.  1.
</event>
<event>
 8    1  0.1054833E+005  0.1043930E+01  0.7957747E-01            NaN
         13   -1    0    0    0    0  0.00000000000E+00  0.00000000000E+00  0.74505805969E-08  0.10566000000E+00  0.10566000000E+00 0. -1.
     999900   -1    0    0    0    0 -0.00000000000E+00 -0.00000000000E+00 -0.74505805969E-08  0.93827000000E+00  0.93827000000E+00 0.  1.
     999902    2    1    2    0    0 -0.22476684212E-01  0.87163824560E-02  0.59178447752E-04  0.10198223216E+01  0.10195373399E+01 0.  0.
     999903    2    3    3    0    0 -0.80091803292E-02 -0.26182450026E-01 -0.12561863685E+00  0.13009081690E+00  0.19847192703E-01 0.  0.
         14    1    1    2    0    0  0.22476684212E-01 -0.87163824560E-02 -0.59178447752E-04  0.24107678411E-01  0.00000000000E+00 0.  1.
     999901    1    3    3    0    0 -0.14467503883E-01  0.34898832482E-01  0.12567781530E+00  0.88973150469E+00  0.88000000000E+00 0. -1.
        -11    1    4    4    0    0 -0.79704385547E-02 -0.26729954836E-02 -0.17199481652E-01  0.19150876892E-01  0.51100000000E-03 0.  1.
         11    1    4    4    0    0 -0.38741774494E-04 -0.23509454542E-01 -0.10841915520E+00  0.11093994001E+00  0.51100000000E-03 0. -1.
</event>
<event>
 8    1  0.1054833E+005  0.1043930E+01  0.7957747E-01            NaN
         13   -1    0    0    0    0  0.00000000000E+00  0.00000000000E+00  0.74505805969E-08  0.10566000000E+00  0.10566000000E+00 0.  1.
     999900   -1    0    0    0    0 -0.00000000000E+00 -0.00000000000E+00 -0.74505805969E-08  0.93827000000E+00  0.93827000000E+00 0. -1.
     999902    2    1    2    0    0 -0.18546180187E-01 -0.23983652093E-02 -0.14663096569E-01  0.10201661755E+01  0.10198893598E+01 0.  0.
     999903    2    3    3    0    0  0.77799280544E-01 -0.99511523223E-01 -0.20127916936E-01  0.12958025737E+00  0.20751837325E-01 0.  0.
         14    1    1    2    0    0  0.18546180187E-01  0.23983652093E-02  0.14663096569E-01  0.23763824528E-01  0.00000000000E+00 0.  1.
     999901    1    3    3    0    0 -0.96345460730E-01  0.97113158013E-01  0.54648203670E-02  0.89058591810E+00  0.88000000000E+00 0. -1.
        -11    1    4    4    0    0  0.24166740108E-01 -0.44727658820E-01 -0.24493879307E-02  0.50900446100E-01  0.51100000000E-03 0.  1.
         11    1    4    4    0    0  0.53632540436E-01 -0.54783864403E-01 -0.17678529005E-01  0.78679811269E-01  0.51100000000E-03 0. -1.
</event>
<event>
 8    1  0.1054833E+005  0.1043930E+01  0.7957747E-01            NaN
         13   -1    0    0    0    0  0.00000000000E+00  0.00000000000E+00  0.74505805969E-08  0.10566000000E+00  0.10566000000E+00 0.  1.
     999900   -1    0    0    0    0 -0.00000000000E+00 -0.00000000000E+00 -0.74505805969E-08  0.93827000000E+00  0.93827000000E+00 0. -1.
     999902    2    1    2    0    0 -0.17982979089E-01 -0.76004495852E-02 -0.10078796309E-01  0.10219587345E+01  0.10217225252E+01 0.  0.
     999903    2    3    3    0    0  0.98010547502E-01 -0.86364403903E-03  0.82274002219E-01  0.12953006952E+00  0.20055277745E-01 0.  0.
         14    1    1    2    0    0  0.17982979089E-01  0.76004495852E-02  0.10078796309E-01  0.21971265459E-01  0.00000000000E+00 0.  1.
     999901    1    3    3    0    0 -0.11599352659E+00 -0.67368055462E-02 -0.92352798529E-01  0.89242866502E+00  0.88000000000E+00 0. -1.
        -11    1    4    4    0    0  0.70057820461E-01  0.96512282483E-03  0.46507645822E-01  0.84096681924E-01  0.51100000000E-03 0. -1.
         11    1    4    4    0    0  0.27952727041E-01 -0.18287668639E-02  0.35766356397E-01  0.45433387593E-01  0.51100000000E-03 0.  1.
</event>
<event>
 8    1  0.1054833E+005  0.1043930E+01  0.7957747E-01            NaN
         13   -1    0    0    0    0  0.00000000000E+00  0.00000000000E+00  0.74505805969E-08  0.10566000000E+00  0.10566000000E+00 0. -1.
     999900   -1    0    0    0    0 -0.00000000000E+00 -0.00000000000E+00 -0.74505805969E-08  0.93827000000E+00  0.93827000000E+00 0. -1.
     999902    2    1    2    0    0 -0.85873901564E-02 -0.18751816921E-01 -0.10713755537E-01  0.10206886905E+01  0.10204240513E+01 0.  0.
     999903    2    3    3    0    0  0.35309531357E-01  0.12812425525E-01  0.12202892355E+00  0.12909244786E+00  0.19049426745E-01 0.  0.
         14    1    1    2    0    0  0.85873901564E-02  0.18751816921E-01  0.10713755537E-01  0.23241309456E-01  0.00000000000E+00 0. -1.
     999901    1    3    3    0    0 -0.43896921513E-01 -0.31564242446E-01 -0.13274267909E+00  0.89159624269E+00  0.88000000000E+00 0. -1.
        -11    1    4    4    0    0  0.53002932047E-02 -0.46892689965E-02  0.15643714830E-01  0.17177580926E-01  0.51100000000E-03 0.  1.
         11    1    4    4    0    0  0.30009238152E-01  0.17501694522E-01  0.10638520872E+00  0.11191486693E+00  0.51100000000E-03 0. -1.
</event>
<event>
 8    1  0.1054833E+005  0.1043930E+01  0.7957747E-01            NaN
         13   -1    0    0    0    0  0.00000000000E+00  0.00000000000E+00  0.74505805969E-08  0.10566000000E+00  0.10566000000E+00 0. -1.
     999900   -1    0    0    0    0 -0.00000000000E+00 -0.00000000000E+00 -0.74505805969E-08  0.93827000000E+00  0.93827000000E+00 0. -1.
     999902    2    1    2    0    0 -0.18653220082E-01 -0.19031169872E-01  0.11153273861E-01  0.10150418785E+01  0.10146307168E+01 0.  0.
     999903    2    3    3    0    0 -0.11471283233E+00 -0.33327893452E-01 -0.41982558700E-01  0.12810599462E+00  0.19463510420E-01 0.  0.
         14    1    1    2    0    0  0.18653220082E-01  0.19031169872E-01 -0.11153273861E-01  0.28888121503E-01  0.00000000000E+00 0. -1.
     999901    1    3    3    0    0  0.96059612252E-01  0.14296723580E-01  0.53135832561E-01  0.88693588388E+00  0.88000000000E+00 0.  1.
        -11    1    4    4    0    0 -0.61464163721E-01 -0.22173037772E-01 -0.13610674928E-01  0.66745776038E-01  0.51100000000E-03 0. -1.
         11    1    4    4    0    0 -0.53248668613E-01 -0.11154855681E-01 -0.28371883773E-01  0.61360218580E-01  0.51100000000E-03 0.  1.
</event>
<event>
 8    1  0.1054833E+005  0.1043930E+01  0.7957747E-01            NaN
         13   -1    0    0    0    0  0.00000000000E+00  0.00000000000E+00  0.74505805969E-08  0.10566000000E+00  0.10566000000E+00 0.  1.
     999900   -1    0    0    0    0 -0.00000000000E+00 -0.00000000000E+00 -0.74505805969E-08  0.93827000000E+00  0.93827000000E+00 0.  1.
     999902    2    1    2    0    0 -0.12028861787E-01 -0.31971392828E-02  0.19101878701E-01  0.10211309433E+01  0.10208763914E+01 0.  0.
     999903    2    3    3    0    0  0.62687404126E-01 -0.59408393233E-01 -0.93629600964E-01  0.12902634633E+00  0.20548188448E-01 0.  0.
         14    1    1    2    0    0  0.12028861787E-01  0.31971392828E-02 -0.19101878701E-01  0.22799056678E-01  0.00000000000E+00 0. -1.
     999901    1    3    3    0    0 -0.74716265913E-01  0.56211253951E-01  0.11273147967E+00  0.89210459699E+00  0.88000000000E+00 0. -1.
        -11    1    4    4    0    0  0.30725072502E-01 -0.42648828554E-01 -0.58743087369E-01  0.78828700940E-01  0.51100000000E-03 0.  1.
         11    1    4    4    0    0  0.31962331624E-01 -0.16759564680E-01 -0.34886513595E-01  0.50197645392E-01  0.51100000000E-03 0. -1.
</event>
<event>
 8    1  0.1054833E+005  0.1043930E+01  0.7957747E-01            NaN
         13   -1    0    0    0    0  0.00000000000E+00  0.00000000000E+00  0.74505805969E-08  0.10566000000E+00  0.10566000000E+00 0.  1.
     999900   -1    0    0    0    0 -0.00000000000E+00 -0.00000000000E+00 -0.74505805969E-08  0.93827000000E+00  0.93827000000E+00 0. -1.
     999902    2    1    2    0    0 -0.13817610171E-02 -0.15730991431E-01  0.18295392001E-01  0.10197619483E+01  0.10194755203E+01 0.  0.
     999903    2    3    3    0    0  0.10041247778E+00 -0.79062203539E-01  0.24523221963E-01  0.13161123172E+00  0.19662913763E-01 0.  0.
         14    1    1    2    0    0  0.13817610171E-02  0.15730991431E-01 -0.18295392001E-01  0.24168051708E-01  0.00000000000E+00 0. -1.
     999901    1    3    3    0    0 -0.10179423880E+00  0.63331212108E-01 -0.62278299619E-02  0.88815071657E+00  0.88000000000E+00 0. -1.
        -11    1    4    4    0    0  0.22936031464E-01 -0.11130658676E-01  0.10673762977E-01  0.27643144520E-01  0.51100000000E-03 0. -1.
         11    1    4    4    0    0  0.77476446314E-01 -0.67931544863E-01  0.13849458985E-01  0.10396808720E+00  0.51100000000E-03 0.  1.
</event>
<event>
 8    1  0.1054833E+005  0.1043930E+01  0.7957747E-01            NaN
         13   -1    0    0    0    0  0.00000000000E+00  0.00000000000E+00  0.74505805969E-08  0.10566000000E+00  0.10566000000E+00 0.  1.
     999900   -1    0    0    0    0 -0.00000000000E+00 -0.00000000000E+00 -0.74505805969E-08  0.93827000000E+00  0.93827000000E+00 0.  1.
     999902    2    1    2    0    0  0.48301013167E-02  0.15363238995E-01  0.14215318112E-01  0.10224489791E+01  0.10222233027E+01 0.  0.
     999903    2    3    3    0    0  0.36157509057E-01  0.11151220738E+00  0.64175489927E-01  0.13524998822E+00  0.20778064186E-01 0.  0.
         14    1    1    2    0    0 -0.48301013167E-02 -0.15363238995E-01 -0.14215318112E-01  0.21481020929E-01  0.00000000000E+00 0. -1.
     999901    1    3    3    0    0 -0.31327407740E-01 -0.96148968382E-01 -0.49960171815E-01  0.88719899085E+00  0.88000000000E+00 0.  1.
        -11    1    4    4    0    0  0.13427760681E-01  0.71700559694E-01  0.35028079177E-01  0.80922817976E-01  0.51100000000E-03 0. -1.
         11    1    4    4    0    0  0.22729748376E-01  0.39811647682E-01  0.29147410751E-01  0.54327170245E-01  0.51100000000E-03 0.  1.
</event>
<event>
 8    1  0.1054833E+005  0.1043930E+01  0.7957747E-01            NaN
         13   -1    0    0    0    0  0.00000000000E+00  0.00000000000E+00  0.74505805969E-08  0.10566000000E+00  0.10566000000E+00 0.  1.
     999900   -1    0    0    0    0 -0.00000000000E+00 -0.00000000000E+00 -0.74505805969E-08  0.93827000000E+00  0.93827000000E+00 0. -1.
     999902    2    1    2    0    0  0.54969999473E-02 -0.13684722829E-01  0.18575769203E-01  0.10202119088E+01  0.10199361701E+01 0.  0.
     999903    2    3    3    0    0  0.47427575882E-01  0.35721163610E-04 -0.11783555485E+00  0.12860971440E+00  0.20146077045E-01 0.  0.
         14    1    1    2    0    0 -0.54969999473E-02  0.13684722829E-01 -0.18575769203E-01  0.23718091171E-01  0.00000000000E+00 0. -1.
     999901    1    3    3    0    0 -0.41930575934E-01 -0.13720443993E-01  0.13641132406E+00  0.89160219443E+00  0.88000000000E+00 0.  1.
        -11    1    4    4    0    0  0.15215624533E-01 -0.93761120036E-02 -0.37467901982E-01  0.41515436962E-01  0.51100000000E-03 0. -1.
         11    1    4    4    0    0  0.32211951349E-01  0.94118331672E-02 -0.80367652871E-01  0.87094277437E-01  0.51100000000E-03 0.  1.
</event>
<event>
 8    1  0.1054833E+005  0.1043930E+01  0.7957747E-01            NaN
         13   -1    0    0    0    0  0.00000000000E+00  0.00000000000E+00  0.74505805969E-08  0.10566000000E+00  0.10566000000E+00 0.  1.
     999900   -1    0    0    0    0 -0.00000000000E+00 -0.00000000000E+00 -0.74505805969E-08  0.93827000000E+00  0.93827000000E+00 0.  1.
     999902    2    1    2    0    0 -0.16901456754E-01  0.14449308099E-01  0.63772461898E-02  0.10207975333E+01  0.10205353953E+01 0.  0.
     999903    2    3    3    0    0 -0.96385548744E-02 -0.12587097399E+00 -0.19223154648E-01  0.12928314095E+00  0.20203886389E-01 0.  0.
         14    1    1    2    0    0  0.16901456754E-01 -0.14449308099E-01 -0.63772461898E-02  0.23132466663E-01  0.00000000000E+00 0.  1.
     999901    1    3    3    0    0 -0.72629018798E-02  0.14032028209E+00  0.25600400838E-01  0.89151439239E+00  0.88000000000E+00 0. -1.
        -11    1    4    4    0    0  0.10886965991E-02 -0.82351751997E-01 -0.61447796783E-02  0.82589440945E-01  0.51100000000E-03 0.  1.
         11    1    4    4    0    0 -0.10727251474E-01 -0.43519221996E-01 -0.13078374970E-01  0.46693700005E-01  0.51100000000E-03 0. -1.
</event>
<event>
 8    1  0.1054833E+005  0.1043930E+01  0.7957747E-01            NaN
         13   -1    0    0    0    0  0.00000000000E+00  0.00000000000E+00  0.74505805969E-08  0.10566000000E+00  0.10566000000E+00 0. -1.
     999900   -1    0    0    0    0 -0.00000000000E+00 -0.00000000000E+00 -0.74505805969E-08  0.93827000000E+00  0.93827000000E+00 0. -1.
     999902    2    1    2    0    0  0.10415362688E-01  0.19534864871E-01  0.42562952991E-02  0.10213865580E+01  0.10211377450E+01 0.  0.
     999903    2    3    3    0    0  0.12776134012E+00  0.33169216120E-01  0.36712645954E-03  0.13348391722E+00  0.19866163350E-01 0.  0.
         14    1    1    2    0    0 -0.10415362688E-01 -0.19534864871E-01 -0.42562952991E-02  0.22543441954E-01  0.00000000000E+00 0.  1.
     999901    1    3    3    0    0 -0.11734597743E+00 -0.13634351249E-01  0.38891688396E-02  0.88790264083E+00  0.88000000000E+00 0. -1.
        -11    1    4    4    0    0  0.10940186808E+00  0.33778929827E-01  0.47287082523E-02  0.11459671305E+00  0.51100000000E-03 0. -1.
         11    1    4    4    0    0  0.18359472043E-01 -0.60971370686E-03 -0.43615817928E-02  0.18887204167E-01  0.51100000000E-03 0.  1.
</event>
<event>
 8    1  0.1054833E+005  0.1043930E+01  0.7957747E-01            NaN
         13   -1    0    0    0    0  0.00000000000E+00  0.00000000000E+00  0.74505805969E-08  0.10566000000E+00  0.10566000000E+00 0. -1.
     999900   -1    0    0    0    0 -0.00000000000E+00 -0.00000000000E+00 -0.74505805969E-08  0.93827000000E+00  0.93827000000E+00 0.  1.
     999902    2    1    2    0    0 -0.50008615030E-02  0.16723419486E-01 -0.16153269312E-01  0.10201474542E+01  0.10198701971E+01 0.  0.
     999903    2    3    3    0    0  0.94981256364E-01 -0.27077263678E-01  0.80088944935E-01  0.12819594905E+00  0.16289413249E-01 0.  0.
         14    1    1    2    0    0  0.50008615030E-02 -0.16723419486E-01  0.16153269312E-01  0.23782545796E-01  0.00000000000E+00 0. -1.
     999901    1    3    3    0    0 -0.99982117867E-01  0.43800683164E-01 -0.96242214247E-01  0.89195150515E+00  0.88000000000E+00 0.  1.
        -11    1    4    4    0    0  0.77842816675E-01 -0.20124751746E-01  0.56755837903E-01  0.98417457790E-01  0.51100000000E-03 0.  1.
         11    1    4    4    0    0  0.17138439688E-01 -0.69525119320E-02  0.23333107031E-01  0.29778491262E-01  0.51100000000E-03 0. -1.
</event>
<event>
 8    1  0.1054833E+005  0.1043930E+01  0.7957747E-01            NaN
         13   -1    0    0    0    0  0.00000000000E+00  0.00000000000E+00  0.74505805969E-08  0.10566000000E+00  0.10566000000E+00 0. -1.
     999900   -1    0    0    0    0 -0.00000000000E+00 -0.00000000000E+00 -0.74505805969E-08  0.93827000000E+00  0.93827000000E+00 0.  1.
     999902    2    1    2    0    0 -0.22484517205E-02 -0.21345671080E-01  0.12491890599E-01  0.10190957386E+01  0.10187931016E+01 0.  0.
     999903    2    3    3    0    0 -0.78871770519E-02 -0.11795486356E+00  0.56773396646E-01  0.13268387999E+00  0.20155298095E-01 0.  0.
         14    1    1    2    0    0  0.22484517205E-02  0.21345671080E-01 -0.12491890599E-01  0.24834261410E-01  0.00000000000E+00 0.  1.
     999901    1    3    3    0    0  0.56387253314E-02  0.96609192484E-01 -0.44281506046E-01  0.88641185860E+00  0.88000000000E+00 0.  1.
        -11    1    4    4    0    0 -0.42650548595E-02 -0.11450354498E+00  0.52310000287E-01  0.12595971482E+00  0.51100000000E-03 0. -1.
         11    1    4    4    0    0 -0.36221221924E-02 -0.34513185813E-02  0.44633963591E-02  0.67241651664E-02  0.51100000000E-03 0.  1.
</event>
<event>
 8    1  0.1054833E+005  0.1043930E+01  0.7957747E-01            NaN
         13   -1    0    0    0    0  0.00000000000E+00  0.00000000000E+00  0.74505805969E-08  0.10566000000E+00  0.10566000000E+00 0. -1.
     999900   -1    0    0    0    0 -0.00000000000E+00 -0.00000000000E+00 -0.74505805969E-08  0.93827000000E+00  0.93827000000E+00 0.  1.
     999902    2    1    2    0    0 -0.97099248136E-02 -0.20123009662E-01 -0.65919852197E-02  0.10206346694E+01  0.10203687843E+01 0.  0.
     999903    2    3    3    0    0  0.87011464687E-01  0.81825592789E-01 -0.42726573617E-01  0.12875224824E+00  0.22026318615E-01 0.  0.
         14    1    1    2    0    0  0.97099248136E-02  0.20123009662E-01  0.65919852197E-02  0.23295330581E-01  0.00000000000E+00 0.  1.
     999901    1    3    3    0    0 -0.96721389501E-01 -0.10194860245E+00  0.36134588397E-01  0.89188242118E+00  0.88000000000E+00 0. -1.
        -11    1    4    4    0    0  0.58859408464E-01  0.62149446481E-01 -0.21102188532E-01  0.88162050478E-01  0.51100000000E-03 0. -1.
         11    1    4    4    0    0  0.28152056223E-01  0.19676146308E-01 -0.21624385085E-01  0.40590197763E-01  0.51100000000E-03 0.  1.
</event>
<event>
 8    1  0.1054833E+005  0.1043930E+01  0.7957747E-01            NaN
         13   -1    0    0    0    0  0.00000000000E+00  0.00000000000E+00  0.74505805969E-08  0.10566000000E+00  0.10566000000E+00 0. -1.
     999900   -1    0    0    0    0 -0.00000000000E+00 -0.00000000000E+00 -0.74505805969E-08  0.93827000000E+00  0.93827000000E+00 0.  1.
     999902    2    1    2    0    0 -0.20303531050E-01  0.12061917409E-01 -0.24763705935E-02  0.10201843554E+01  0.10199079681E+01 0.  0.
     999903    2    3    3    0    0  0.24908598752E-01 -0.11256798527E+00 -0.53910455182E-01  0.12876850725E+00  0.19570428764E-01 0.  0.
         14    1    1    2    0    0  0.20303531050E-01 -0.12061917409E-01  0.24763705935E-02  0.23745644569E-01  0.00000000000E+00 0.  1.
     999901    1    3    3    0    0 -0.45212129803E-01  0.12462990268E+00  0.51434084588E-01  0.89141584818E+00  0.88000000000E+00 0.  1.
        -11    1    4    4    0    0  0.12389554372E-01 -0.23008393830E-01 -0.79002815860E-02  0.27304996142E-01  0.51100000000E-03 0. -1.
         11    1    4    4    0    0  0.12519044380E-01 -0.89559591444E-01 -0.46010173596E-01  0.10146351111E+00  0.51100000000E-03 0.  1.
</event>
<event>
 8    1  0.1054833E+005  0.1043930E+01  0.7957747E-01            NaN
         13   -1    0    0    0    0  0.00000000000E+00  0.00000000000E+00  0.74505805969E-08  0.10566000000E+00  0.10566000000E+00 0.  1.
     999900   -1    0    0    0    0 -0.00000000000E+00 -0.00000000000E+00 -0.74505805969E-08  0.93827000000E+00  0.93827000000E+00 0. -1.
     999902    2    1    2    0    0  0.11876501286E-01 -0.15576502966E-01  0.10994356520E-01  0.10214677071E+01  0.10212207019E+01 0.  0.
     999903    2    3    3    0    0 -0.49515574415E-01  0.11577636847E+00  0.22383239822E-01  0.12953033796E+00  0.20521681704E-01 0.  0.
         14    1    1    2    0    0 -0.11876501286E-01  0.15576502966E-01 -0.10994356520E-01  0.22462292909E-01  0.00000000000E+00 0. -1.
     999901    1    3    3    0    0  0.61392075700E-01 -0.13135287144E+00 -0.11388883303E-01  0.89193736913E+00  0.88000000000E+00 0. -1.
        -11    1    4    4    0    0 -0.24677401894E-01  0.65552041109E-01  0.22261120393E-01  0.73497366347E-01  0.51100000000E-03 0. -1.
         11    1    4    4    0    0 -0.24838172520E-01  0.50224327365E-01  0.12211942945E-03  0.56032971611E-01  0.51100000000E-03 0.  1.
</event>
<event>
 8    1  0.1054833E+005  0.1043930E+01  0.7957747E-01            NaN
         13   -1    0    0    0    0  0.00000000000E+00  0.00000000000E+00  0.74505805969E-08  0.10566000000E+00  0.10566000000E+00 0. -1.
     999900   -1    0    0    0    0 -0.00000000000E+00 -0.00000000000E+00 -0.74505805969E-08  0.93827000000E+00  0.93827000000E+00 0.  1.
     999902    2    1    2    0    0  0.21157056108E-01  0.11223651296E-01 -0.16471167037E-02  0.10199236599E+01  0.10196410975E+01 0.  0.
     999903    2    3    3    0    0 -0.27797413390E-01 -0.69081432019E-01 -0.10345652283E+00  0.12907541151E+00  0.20304415747E-01 0.  0.
         14    1    1    2    0    0 -0.21157056108E-01 -0.11223651296E-01  0.16471167037E-02  0.24006340101E-01  0.00000000000E+00 0. -1.
     999901    1    3    3    0    0  0.48954469498E-01  0.80305083315E-01  0.10180940612E+00  0.89084824839E+00  0.88000000000E+00 0. -1.
        -11    1    4    4    0    0 -0.25526053556E-01 -0.41110915831E-01 -0.56727472986E-01  0.74565099899E-01  0.51100000000E-03 0.  1.
         11    1    4    4    0    0 -0.22713598335E-02 -0.27970516188E-01 -0.46729049843E-01  0.54510311607E-01  0.51100000000E-03 0. -1.
</event>
<event>
 8    1  0.1054833E+005  0.1043930E+01  0.7957747E-01            NaN
         13   -1    0    0    0    0  0.00000000000E+00  0.00000000000E+00  0.74505805969E-08  0.10566000000E+00  0.10566000000E+00 0.  1.
     999900   -1    0    0    0    0 -0.00000000000E+00 -0.00000000000E+00 -0.74505805969E-08  0.93827000000E+00  0.93827000000E+00 0. -1.
     999902    2    1    2    0    0  0.12162584107E-02 -0.22255787101E-01  0.44932640885E-03  0.10216364754E+01  0.10213932086E+01 0.  0.
     999903    2    3    3    0    0  0.88201413247E-01  0.91828874152E-01 -0.16329773577E-01  0.12986113079E+00  0.19627031302E-01 0.  0.
         14    1    1    2    0    0 -0.12162584107E-02  0.22255787101E-01 -0.44932640885E-03  0.22293524581E-01  0.00000000000E+00 0.  1.
     999901    1    3    3    0    0 -0.86985154837E-01 -0.11408466125E+00  0.16779099986E-01  0.89177534463E+00  0.88000000000E+00 0.  1.
        -11    1    4    4    0    0  0.39283222255E-01  0.27806013941E-01 -0.88796176991E-02  0.48943382531E-01  0.51100000000E-03 0.  1.
         11    1    4    4    0    0  0.48918190992E-01  0.64022860211E-01 -0.74501558776E-02  0.80917748258E-01  0.51100000000E-03 0. -1.
</event>
<event>
 8    1  0.1054833E+005  0.1043930E+01  0.7957747E-01            NaN
         13   -1    0    0    0    0  0.00000000000E+00  0.00000000000E+00  0.74505805969E-08  0.10566000000E+00  0.10566000000E+00 0.  1.
     999900   -1    0    0    0    0 -0.00000000000E+00 -0.00000000000E+00 -0.74505805969E-08  0.93827000000E+00  0.93827000000E+00 0. -1.
     999902    2    1    2    0    0  0.23937912344E-01 -0.24557978280E-02 -0.50720956234E-02  0.10193377097E+01  0.10190410127E+01 0.  0.
     999903    2    3    3    0    0 -0.80490038137E-01 -0.83261004425E-01  0.50325628258E-01  0.12776405254E+00  0.19492130832E-01 0.  0.
         14    1    1    2    0    0 -0.23937912344E-01  0.24557978280E-02  0.50720956234E-02  0.24592290344E-01  0.00000000000E+00 0.  1.
     999901    1    3    3    0    0  0.10442795048E+00  0.80805206596E-01 -0.55397723882E-01  0.89157365712E+00  0.88000000000E+00 0. -1.
        -11    1    4    4    0    0 -0.69583387418E-01 -0.60988407699E-01  0.37501315400E-01  0.99840089423E-01  0.51100000000E-03 0. -1.
         11    1    4    4    0    0 -0.10906650720E-01 -0.22272596725E-01  0.12824312859E-01  0.27923963116E-01  0.51100000000E-03 0.  1.
</event>
<event>
 8    1  0.1054833E+005  0.1043930E+01  0.7957747E-01            NaN
         13   -1    0    0    0    0  0.00000000000E+00  0.00000000000E+00  0.74505805969E-08  0.10566000000E+00  0.10566000000E+00 0. -1.
     999900   -1    0    0    0    0 -0.00000000000E+00 -0.00000000000E+00 -0.74505805969E-08  0.93827000000E+00  0.93827000000E+00 0. -1.
     999902    2    1    2    0    0  0.20765022208E-01 -0.55914942127E-02 -0.14318207571E-01  0.10180947136E+01  0.10177668612E+01 0.  0.
     999903    2    3    3    0    0 -0.45074858351E-01 -0.38061938631E-01 -0.11351212405E+00  0.12948419561E+00  0.20017506837E-01 0.  0.
         14    1    1    2    0    0 -0.20765022208E-01  0.55914942127E-02  0.14318207571E-01  0.25835286390E-01  0.00000000000E+00 0. -1.
     999901    1    3    3    0    0  0.65839880560E-01  0.32470444418E-01  0.99193916475E-01  0.88861051800E+00  0.88000000000E+00 0.  1.
        -11    1    4    4    0    0 -0.14168470947E-02 -0.10387110595E-01 -0.16405076384E-01  0.19475296515E-01  0.51100000000E-03 0.  1.
         11    1    4    4    0    0 -0.43658011257E-01 -0.27674828036E-01 -0.97107047661E-01  0.11000889910E+00  0.51100000000E-03 0. -1.
</event>
<event>
 8    1  0.1054833E+005  0.1043930E+01  0.7957747E-01            NaN
         13   -1    0    0    0    0  0.00000000000E+00  0.00000000000E+00  0.74505805969E-08  0.10566000000E+00  0.10566000000E+00 0.  1.
     999900   -1    0    0    0    0 -0.00000000000E+00 -0.00000000000E+00 -0.74505805969E-08  0.93827000000E+00  0.93827000000E+00 0.  1.
     999902    2    1    2    0    0 -0.66921889303E-02  0.17638829469E-01  0.13608012794E-01  0.10206686219E+01  0.10204035202E+01 0.  0.
     999903    2    3    3    0    0  0.80449638770E-01 -0.73046533859E-01 -0.65103713900E-01  0.12824883888E+00  0.20033237946E-01 0.  0.
         14    1    1    2    0    0  0.66921889303E-02 -0.17638829469E-01 -0.13608012794E-01  0.23261378075E-01  0.00000000000E+00 0.  1.
     999901    1    3    3    0    0 -0.87141827700E-01  0.90685363328E-01  0.78711726694E-01  0.89241978305E+00  0.88000000000E+00 0. -1.
        -11    1    4    4    0    0  0.63372469873E-01 -0.53598495347E-01 -0.58464111773E-01  0.10152429329E+00  0.51100000000E-03 0. -1.
         11    1    4    4    0    0  0.17077168897E-01 -0.19448038512E-01 -0.66396021266E-02  0.26724545588E-01  0.51100000000E-03 0.  1.
</event>
<event>
 8    1  0.1054833E+005  0.1043930E+01  0.7957747E-01            NaN
         13   -1    0    0    0    0  0.00000000000E+00  0.00000000000E+00  0.74505805969E-08  0.10566000000E+00  0.10566000000E+00 0.  1.
     999900   -1    0    0    0    0 -0.00000000000E+00 -0.00000000000E+00 -0.74505805969E-08  0.93827000000E+00  0.93827000000E+00 0. -1.
     999902    2    1    2    0    0 -0.14011544727E-01  0.37473878011E-02 -0.18964097668E-01  0.10200552581E+01  0.10197758216E+01 0.  0.
     999903    2    3    3    0    0 -0.37720401833E-01  0.12239075197E+00  0.18714785442E-01  0.13097817707E+00  0.20067754991E-01 0.  0.
         14    1    1    2    0    0  0.14011544727E-01 -0.37473878011E-02  0.18964097668E-01  0.23874741911E-01  0.00000000000E+00 0.  1.
     999901    1    3    3    0    0  0.23708857106E-01 -0.11864336417E+00 -0.37678883110E-01  0.88907708102E+00  0.88000000000E+00 0.  1.
        -11    1    4    4    0    0 -0.17902786021E-01  0.29913549030E-01  0.82056042735E-02  0.35817917658E-01  0.51100000000E-03 0. -1.
         11    1    4    4    0    0 -0.19817615812E-01  0.92477202944E-01  0.10509181169E-01  0.95160259408E-01  0.51100000000E-03 0.  1.
</event>
<event>
 8    1  0.1054833E+005  0.1043930E+01  0.7957747E-01            NaN
         13   -1    0    0    0    0  0.00000000000E+00  0.00000000000E+00  0.74505805969E-08  0.10566000000E+00  0.10566000000E+00 0. -1.
     999900   -1    0    0    0    0 -0.00000000000E+00 -0.00000000000E+00 -0.74505805969E-08  0.93827000000E+00  0.93827000000E+00 0.  1.
     999902    2    1    2    0    0  0.21687205727E-01 -0.77025496732E-02  0.42029573153E-02  0.10205349361E+01  0.10202667430E+01 0.  0.
     999903    2    3    3    0    0  0.33583563458E-01  0.12100232912E+00 -0.29672055055E-01  0.13044843155E+00  0.19155757750E-01 0.  0.
         14    1    1    2    0    0 -0.21687205727E-01  0.77025496732E-02 -0.42029573153E-02  0.23395063879E-01  0.00000000000E+00 0.  1.
     999901    1    3    3    0    0 -0.11896357731E-01 -0.12870487880E+00  0.33875012370E-01  0.89008650457E+00  0.88000000000E+00 0. -1.
        -11    1    4    4    0    0  0.10031963090E-01  0.71301645174E-01 -0.18034579752E-01  0.74229859732E-01  0.51100000000E-03 0. -1.
         11    1    4    4    0    0  0.23551600367E-01  0.49700683951E-01 -0.11637475303E-01  0.56218571820E-01  0.51100000000E-03 0.  1.
</event>
<event>
 7    1  0.1054833E+005  0.1043930E+01  0.7957747E-01            NaN
         13   -1    0    0    0    0  0.00000000000E+00  0.00000000000E+00  0.74505805969E-08  0.10566000000E+00  0.10566000000E+00 0.  1.
     999900   -1    0    0    0    0 -0.00000000000E+00 -0.00000000000E+00 -0.74505805969E-08  0.93827000000E+00  0.93827000000E+00 0. -1.
     999903    2    1    2    0    0 -0.81308168090E-01 -0.64599300471E-01 -0.10525370852E-01  0.10638410036E+00  0.20559804427E-01 0.  0.
         14    1    1    2    0    0 -0.19460961118E-01 -0.31417710504E-01 -0.27074630449E-01  0.45813067513E-01  0.00000000000E+00 0. -1.
     999901    1    1    2    0    0  0.10076912921E+00  0.96017010975E-01  0.37600001301E-01  0.89173283213E+00  0.88000000000E+00 0. -1.
        -11    1    3    3    0    0 -0.28872942997E-01 -0.14829509023E-01  0.37934640570E-02  0.32683522848E-01  0.51100000000E-03 0. -1.
         11    1    3    3    0    0 -0.52435225093E-01 -0.49769791448E-01 -0.14318834909E-01  0.73700577511E-01  0.51100000000E-03 0.  1.
</event>
<event>
 8    1  0.1054833E+005  0.1043930E+01  0.7957747E-01            NaN
         13   -1    0    0    0    0  0.00000000000E+00  0.00000000000E+00  0.74505805969E-08  0.10566000000E+00  0.10566000000E+00 0. -1.
     999900   -1    0    0    0    0 -0.00000000000E+00 -0.00000000000E+00 -0.74505805969E-08  0.93827000000E+00  0.93827000000E+00 0.  1.
     999902    2    1    2    0    0  0.23165289063E-01  0.13449173528E-02  0.10019201089E-01  0.10186550359E+01  0.10183414252E+01 0.  0.
     999903    2    3    3    0    0  0.14600562912E-01 -0.74757301080E-01 -0.10128512431E+00  0.12834410423E+00  0.20290445618E-01 0.  0.
         14    1    1    2    0    0 -0.23165289063E-01 -0.13449173528E-02 -0.10019201089E-01  0.25274964106E-01  0.00000000000E+00 0. -1.
     999901    1    3    3    0    0  0.85647261515E-02  0.76102218433E-01  0.11130432540E+00  0.89031093166E+00  0.88000000000E+00 0. -1.
        -11    1    4    4    0    0  0.16077853220E-01 -0.57239198498E-01 -0.65438966363E-01  0.88415737562E-01  0.51100000000E-03 0.  1.
         11    1    4    4    0    0 -0.14772903084E-02 -0.17518102582E-01 -0.35846157943E-01  0.39928366671E-01  0.51100000000E-03 0. -1.
</event>
<event>
 8    1  0.1054833E+005  0.1043930E+01  0.7957747E-01            NaN
         13   -1    0    0    0    0  0.00000000000E+00  0.00000000000E+00  0.74505805969E-08  0.10566000000E+00  0.10566000000E+00 0.  1.
     999900   -1    0    0    0    0 -0.00000000000E+00 -0.00000000000E+00 -0.74505805969E-08  0.93827000000E+00  0.93827000000E+00 0.  1.
     999902    2    1    2    0    0  0.79719980969E-02 -0.21955727574E-01  0.26127807757E-02  0.10204260993E+01  0.10201553758E+01 0.  0.
     999903    2    3    3    0    0 -0.11650156178E+00 -0.43453704314E-01 -0.34329641056E-01  0.13063928622E+00  0.20670281397E-01 0.  0.
         14    1    1    2    0    0 -0.79719980969E-02  0.21955727574E-01 -0.26127807757E-02  0.23503900747E-01  0.00000000000E+00 0. -1.
     999901    1    3    3    0    0  0.12447355988E+00  0.21497976740E-01  0.36942421832E-01  0.88978681303E+00  0.88000000000E+00 0. -1.
        -11    1    4    4    0    0 -0.84781746220E-01 -0.22524380770E-01 -0.28178232989E-01  0.92138841736E-01  0.51100000000E-03 0.  1.
         11    1    4    4    0    0 -0.31719815563E-01 -0.20929323544E-01 -0.61514080676E-02  0.38500444485E-01  0.51100000000E-03 0. -1.
</event>
<event>
 8    1  0.1054833E+005  0.1043930E+01  0.7957747E-01            NaN
         13   -1    0    0    0    0  0.00000000000E+00  0.00000000000E+00  0.74505805969E-08  0.10566000000E+00  0.10566000000E+00 0. -1.
     999900   -1    0    0    0    0 -0.00000000000E+00 -0.00000000000E+00 -0.74505805969E-08  0.93827000000E+00  0.93827000000E+00 0.  1.
     999902    2    1    2    0    0  0.19913611315E-01 -0.81076240497E-02 -0.99424330650E-02  0.10202416599E+01  0.10199666206E+01 0.  0.
     999903    2    3    3    0    0  0.61607318757E-01  0.63381730902E-01 -0.96413810109E-01  0.13213896751E+00  0.18771745212E-01 0.  0.
         14    1    1    2    0    0 -0.19913611315E-01  0.81076240497E-02  0.99424330650E-02  0.23688340140E-01  0.00000000000E+00 0. -1.
     999901    1    3    3    0    0 -0.41693707442E-01 -0.71489354951E-01  0.86471377044E-01  0.88810269235E+00  0.88000000000E+00 0. -1.
        -11    1    4    4    0    0  0.49908125826E-03  0.36949066528E-03 -0.62576324970E-02  0.63090958878E-02  0.51100000000E-03 0. -1.
         11    1    4    4    0    0  0.61108237498E-01  0.63012240236E-01 -0.90156177613E-01  0.12582987162E+00  0.51100000000E-03 0.  1.
</event>
<event>
 8    1  0.1054833E+005  0.1043930E+01  0.7957747E-01            NaN
         13   -1    0    0    0    0  0.00000000000E+00  0.00000000000E+00  0.74505805969E-08  0.10566000000E+00  0.10566000000E+00 0.  1.
     999900   -1    0    0    0    0 -0.00000000000E+00 -0.00000000000E+00 -0.74505805969E-08  0.93827000000E+00  0.93827000000E+00 0. -1.
     999902    2    1    2    0    0  0.27004013461E-02  0.13728541947E-01  0.19106243258E-01  0.10202484975E+01  0.10199736188E+01 0.  0.
     999903    2    3    3    0    0 -0.11884900470E+00  0.21165009024E-01  0.48312833723E-01  0.13138259976E+00  0.18820576293E-01 0.  0.
         14    1    1    2    0    0 -0.27004013461E-02 -0.13728541947E-01 -0.19106243258E-01  0.23681502547E-01  0.00000000000E+00 0. -1.
     999901    1    3    3    0    0  0.12154940605E+00 -0.74364670767E-02 -0.29206590465E-01  0.88886589769E+00  0.88000000000E+00 0. -1.
        -11    1    4    4    0    0 -0.38967197305E-01  0.13922092925E-01  0.10436866682E-01  0.42678524393E-01  0.51100000000E-03 0. -1.
         11    1    4    4    0    0 -0.79881807397E-01  0.72429160989E-02  0.37875967041E-01  0.88704075368E-01  0.51100000000E-03 0.  1.
</event>
<event>
 8    1  0.1054833E+005  0.1043930E+01  0.7957747E-01            NaN
         13   -1    0    0    0    0  0.00000000000E+00  0.00000000000E+00  0.74505805969E-08  0.10566000000E+00  0.10566000000E+00 0. -1.
     999900   -1    0    0    0    0 -0.00000000000E+00 -0.00000000000E+00 -0.74505805969E-08  0.93827000000E+00  0.93827000000E+00 0.  1.
     999902    2    1    2    0    0 -0.39682692570E-02  0.15532763660E-01  0.17227047748E-01  0.10203973613E+01  0.10201259677E+01 0.  0.
     999903    2    3    3    0    0  0.37010168596E-01 -0.12197761971E+00  0.64490816662E-02  0.12871103620E+00  0.16632735632E-01 0.  0.
         14    1    1    2    0    0  0.39682692570E-02 -0.15532763660E-01 -0.17227047748E-01  0.23532638652E-01  0.00000000000E+00 0.  1.
     999901    1    3    3    0    0 -0.40978437853E-01  0.13751038337E+00  0.10777966082E-01  0.89168632515E+00  0.88000000000E+00 0. -1.
        -11    1    4    4    0    0  0.69036355390E-02 -0.38572094896E-01 -0.41409128403E-02  0.39406534591E-01  0.51100000000E-03 0.  1.
         11    1    4    4    0    0  0.30106533057E-01 -0.83405524818E-01  0.10589994506E-01  0.89304501609E-01  0.51100000000E-03 0. -1.
</event>
<event>
 8    1  0.1054833E+005  0.1043930E+01  0.7957747E-01            NaN
         13   -1    0    0    0    0  0.00000000000E+00  0.00000000000E+00  0.74505805969E-08  0.10566000000E+00  0.10566000000E+00 0.  1.
     999900   -1    0    0    0    0 -0.00000000000E+00 -0.00000000000E+00 -0.74505805969E-08  0.93827000000E+00  0.93827000000E+00 0.  1.
     999902    2    1    2    0    0 -0.10595266497E-01 -0.18426364405E-01  0.13253816118E-01  0.10188809637E+01  0.10185730038E+01 0.  0.
     999903    2    3    3    0    0 -0.95083308730E-01  0.75085790918E-01 -0.37620265793E-01  0.12844796529E+00  0.20121724354E-01 0.  0.
         14    1    1    2    0    0  0.10595266497E-01  0.18426364405E-01 -0.13253816118E-01  0.25049036289E-01  0.00000000000E+00 0.  1.
     999901    1    3    3    0    0  0.84488042233E-01 -0.93512155323E-01  0.50874081911E-01  0.89043299842E+00  0.88000000000E+00 0.  1.
        -11    1    4    4    0    0 -0.23285342735E-01  0.30053337973E-01 -0.10140400100E-01  0.39350973873E-01  0.51100000000E-03 0. -1.
         11    1    4    4    0    0 -0.71797965996E-01  0.45032452945E-01 -0.27479865692E-01  0.89096991413E-01  0.51100000000E-03 0.  1.
</event>
<event>
 8    1  0.1054833E+005  0.1043930E+01  0.7957747E-01            NaN
         13   -1    0    0    0    0  0.00000000000E+00  0.00000000000E+00  0.74505805969E-08  0.10566000000E+00  0.10566000000E+00 0. -1.
     999900   -1    0    0    0    0 -0.00000000000E+00 -0.00000000000E+00 -0.74505805969E-08  0.93827000000E+00  0.93827000000E+00 0.  1.
     999902    2    1    2    0    0  0.19731540583E-01  0.77629327103E-02  0.11074578148E-01  0.10200083968E+01  0.10197278492E+01 0.  0.
     999903    2    3    3    0    0 -0.12291093642E-01 -0.11357771806E+00 -0.55718148874E-01  0.12859924776E+00  0.19552119744E-01 0.  0.
         14    1    1    2    0    0 -0.19731540583E-01 -0.77629327103E-02 -0.11074578148E-01  0.23921603191E-01  0.00000000000E+00 0.  1.
     999901    1    3    3    0    0  0.32022634225E-01  0.12134065077E+00  0.66792727022E-01  0.89140914905E+00  0.88000000000E+00 0. -1.
        -11    1    4    4    0    0 -0.70763799334E-02 -0.47118365218E-01 -0.33810628109E-01  0.58426322731E-01  0.51100000000E-03 0.  1.
         11    1    4    4    0    0 -0.52147137085E-02 -0.66459352844E-01 -0.21907520764E-01  0.70172925025E-01  0.51100000000E-03 0. -1.
</event>
<event>
 8    1  0.1054833E+005  0.1043930E+01  0.7957747E-01            NaN
         13   -1    0    0    0    0  0.00000000000E+00  0.00000000000E+00  0.74505805969E-08  0.10566000000E+00  0.10566000000E+00 0. -1.
     999900   -1    0    0    0    0 -0.00000000000E+00 -0.00000000000E+00 -0.74505805969E-08  0.93827000000E+00  0.93827000000E+00 0. -1.
     999902    2    1    2    0    0 -0.18748022734E-01 -0.12177362801E-01 -0.72892583087E-02  0.10204159657E+01  0.10201450060E+01 0.  0.
     999903    2    3    3    0    0 -0.53242617350E-01  0.48574124459E-01  0.10680268702E+00  0.13030496576E+00  0.19451176767E-01 0.  0.
         14    1    1    2    0    0  0.18748022734E-01  0.12177362801E-01  0.72892583087E-02  0.23514034276E-01  0.00000000000E+00 0. -1.
     999901    1    3    3    0    0  0.34494594616E-01 -0.60751487260E-01 -0.11409194533E+00  0.89011099996E+00  0.88000000000E+00 0. -1.
        -11    1    4    4    0    0 -0.13029632097E-01  0.46147919368E-02  0.11881994892E-01  0.18234871560E-01  0.51100000000E-03 0. -1.
         11    1    4    4    0    0 -0.40212985253E-01  0.43959332522E-01  0.94920692133E-01  0.11207009420E+00  0.51100000000E-03 0.  1.
</event>
<event>
 8    1  0.1054833E+005  0.1043930E+01  0.7957747E-01            NaN
         13   -1    0    0    0    0  0.00000000000E+00  0.00000000000E+00  0.74505805969E-08  0.10566000000E+00  0.10566000000E+00 0. -1.
     999900   -1    0    0    0    0 -0.00000000000E+00 -0.00000000000E+00 -0.74505805969E-08  0.93827000000E+00  0.93827000000E+00 0. -1.
     999902    2    1    2    0    0  0.49885865585E-02  0.18501296660E-01  0.15576483419E-01  0.10192356523E+01  0.10189364573E+01 0.  0.
     999903    2    3    3    0    0  0.72239362073E-01 -0.79423900251E-01  0.69982832348E-01  0.12958849649E+00  0.19206775736E-01 0.  0.
         14    1    1    2    0    0 -0.49885865585E-02 -0.18501296660E-01 -0.15576483419E-01  0.24694347727E-01  0.00000000000E+00 0.  1.
     999901    1    3    3    0    0 -0.67250775514E-01  0.97925196911E-01 -0.54406348928E-01  0.88964715579E+00  0.88000000000E+00 0. -1.
        -11    1    4    4    0    0  0.53285721512E-01 -0.48996536341E-01  0.54122522995E-01  0.90385492789E-01  0.51100000000E-03 0. -1.
         11    1    4    4    0    0  0.18953640561E-01 -0.30427363910E-01  0.15860309353E-01  0.39203003697E-01  0.51100000000E-03 0.  1.
</event>
<event>
 8    1  0.1054833E+005  0.1043930E+01  0.7957747E-01            NaN
         13   -1    0    0    0    0  0.00000000000E+00  0.00000000000E+00  0.74505805969E-08  0.10566000000E+00  0.10566000000E+00 0.  1.
     999900   -1    0    0    0    0 -0.00000000000E+00 -0.00000000000E+00 -0.74505805969E-08  0.93827000000E+00  0.93827000000E+00 0. -1.
     999902    2    1    2    0    0  0.67659605060E-02 -0.14041963831E-01  0.18241269424E-01  0.10199362742E+01  0.10196540121E+01 0.  0.
     999903    2    3    3    0    0  0.10167161598E-01  0.12016578555E+00  0.42177262346E-01  0.12943292216E+00  0.20755064156E-01 0.  0.
         14    1    1    2    0    0 -0.67659605060E-02  0.14041963831E-01 -0.18241269424E-01  0.23993725846E-01  0.00000000000E+00 0. -1.
     999901    1    3    3    0    0 -0.34012010918E-02 -0.13420774938E+00 -0.23935992922E-01  0.89050335200E+00  0.88000000000E+00 0. -1.
        -11    1    4    4    0    0  0.16298614359E-01  0.92719190540E-01  0.34638457096E-01  0.10031239682E+00  0.51100000000E-03 0. -1.
         11    1    4    4    0    0 -0.61314527610E-02  0.27446595006E-01  0.75388052502E-02  0.29120525338E-01  0.51100000000E-03 0.  1.
</event>
<event>
 8    1  0.1054833E+005  0.1043930E+01  0.7957747E-01            NaN
         13   -1    0    0    0    0  0.00000000000E+00  0.00000000000E+00  0.74505805969E-08  0.10566000000E+00  0.10566000000E+00 0. -1.
     999900   -1    0    0    0    0 -0.00000000000E+00 -0.00000000000E+00 -0.74505805969E-08  0.93827000000E+00  0.93827000000E+00 0.  1.
     999902    2    1    2    0    0  0.53323541982E-02  0.43452913203E-02 -0.22849048866E-01  0.10200680095E+01  0.10197888749E+01 0.  0.
     999903    2    3    3    0    0 -0.40005944629E-01 -0.11824634693E+00  0.25817713342E-01  0.12908387670E+00  0.20332701094E-01 0.  0.
         14    1    1    2    0    0 -0.53323541982E-02 -0.43452913203E-02  0.22849048866E-01  0.23861990529E-01  0.00000000000E+00 0. -1.
     999901    1    3    3    0    0  0.45338298827E-01  0.12259163825E+00 -0.48666762208E-01  0.89098413277E+00  0.88000000000E+00 0.  1.
        -11    1    4    4    0    0 -0.21495189377E-01 -0.76436835950E-01  0.25359775716E-01  0.83354738329E-01  0.51100000000E-03 0. -1.
         11    1    4    4    0    0 -0.18510755252E-01 -0.41809510978E-01  0.45793762632E-03  0.45729138370E-01  0.51100000000E-03 0.  1.
</event>
<event>
 8    1  0.1054833E+005  0.1043930E+01  0.7957747E-01            NaN
         13   -1    0    0    0    0  0.00000000000E+00  0.00000000000E+00  0.74505805969E-08  0.10566000000E+00  0.10566000000E+00 0.  1.
     999900   -1    0    0    0    0 -0.00000000000E+00 -0.00000000000E+00 -0.74505805969E-08  0.93827000000E+00  0.93827000000E+00 0. -1.
     999902    2    1    2    0    0  0.14676904988E-01  0.16679409647E-01 -0.47038138624E-03  0.10217075900E+01  0.10214658898E+01 0.  0.
     999903    2    3    3    0    0  0.10159776340E+00 -0.14710250666E-01 -0.82716178852E-01  0.13305416062E+00  0.17970709851E-01 0.  0.
         14    1    1    2    0    0 -0.14676904988E-01 -0.16679409647E-01  0.47038138624E-03  0.22222409969E-01  0.00000000000E+00 0. -1.
     999901    1    3    3    0    0 -0.86920858410E-01  0.31389660312E-01  0.82245797466E-01  0.88865342941E+00  0.88000000000E+00 0.  1.
        -11    1    4    4    0    0  0.71654521267E-01 -0.29572374844E-02 -0.52110454506E-01  0.88650303222E-01  0.51100000000E-03 0. -1.
         11    1    4    4    0    0  0.29943242131E-01 -0.11753013181E-01 -0.30605724346E-01  0.44403857399E-01  0.51100000000E-03 0.  1.
</event>
<event>
 8    1  0.1054833E+005  0.1043930E+01  0.7957747E-01            NaN
         13   -1    0    0    0    0  0.00000000000E+00  0.00000000000E+00  0.74505805969E-08  0.10566000000E+00  0.10566000000E+00 0.  1.
     999900   -1    0    0    0    0 -0.00000000000E+00 -0.00000000000E+00 -0.74505805969E-08  0.93827000000E+00  0.93827000000E+00 0. -1.
     999902    2    1    2    0    0 -0.21505036254E-01 -0.37088350647E-02 -0.14598727563E-02  0.10220587113E+01  0.10218246699E+01 0.  0.
     999903    2    3    3    0    0  0.11444706728E+00 -0.33773604163E-01 -0.47496208568E-01  0.12992295423E+00  0.19628974987E-01 0.  0.
         14    1    1    2    0    0  0.21505036254E-01  0.37088350647E-02  0.14598727563E-02  0.21871288721E-01  0.00000000000E+00 0. -1.
     999901    1    3    3    0    0 -0.13595210354E+00  0.30064769098E-01  0.46036335811E-01  0.89213575705E+00  0.88000000000E+00 0. -1.
        -11    1    4    4    0    0  0.47157042690E-01 -0.20767087138E-01 -0.12762606851E-01  0.53086757652E-01  0.51100000000E-03 0. -1.
         11    1    4    4    0    0  0.67290024593E-01 -0.13006517025E-01 -0.34733601717E-01  0.76836196574E-01  0.51100000000E-03 0.  1.
</event>
<event>
 8    1  0.1054833E+005  0.1043930E+01  0.7957747E-01            NaN
         13   -1    0    0    0    0  0.00000000000E+00  0.00000000000E+00  0.74505805969E-08  0.10566000000E+00  0.10566000000E+00 0.  1.
     999900   -1    0    0    0    0 -0.00000000000E+00 -0.00000000000E+00 -0.74505805969E-08  0.93827000000E+00  0.93827000000E+00 0. -1.
     999902    2    1    2    0    0 -0.15345491989E-01 -0.83683314904E-03 -0.16929445184E-01  0.10210653870E+01  0.10208093524E+01 0.  0.
     999903    2    3    3    0    0 -0.14236748115E-02  0.12801621231E+00 -0.22520880514E-01  0.13155530359E+00  0.20234386028E-01 0.  0.
         14    1    1    2    0    0  0.15345491989E-01  0.83683314904E-03  0.16929445184E-01  0.22864613015E-01  0.00000000000E+00 0.  1.
     999901    1    3    3    0    0 -0.13921817177E-01 -0.12885304546E+00  0.55914353295E-02  0.88951008340E+00  0.88000000000E+00 0.  1.
        -11    1    4    4    0    0 -0.94364015741E-02  0.36803513362E-01 -0.82797462999E-02  0.38889067747E-01  0.51100000000E-03 0.  1.
         11    1    4    4    0    0  0.80127267625E-02  0.91212698950E-01 -0.14241134214E-01  0.92666235839E-01  0.51100000000E-03 0. -1.
</event>
<event>
 8    1  0.1054833E+005  0.1043930E+01  0.7957747E-01            NaN
         13   -1    0    0    0    0  0.00000000000E+00  0.00000000000E+00  0.74505805969E-08  0.10566000000E+00  0.10566000000E+00 0. -1.
     999900   -1    0    0    0    0 -0.00000000000E+00 -0.00000000000E+00 -0.74505805969E-08  0.93827000000E+00  0.93827000000E+00 0. -1.
     999902    2    1    2    0    0  0.45872271477E-02 -0.24177742102E-01 -0.26538599647E-02  0.10191782558E+01  0.10188776513E+01 0.  0.
     999903    2    3    3    0    0  0.97438365957E-01 -0.40932620373E-01  0.74523681346E-01  0.13077607619E+00  0.19465057218E-01 0.  0.
         14    1    1    2    0    0 -0.45872271477E-02  0.24177742102E-01  0.26538599647E-02  0.24751744156E-01  0.00000000000E+00 0. -1.
     999901    1    3    3    0    0 -0.92851138809E-01  0.16754878271E-01 -0.77177541311E-01  0.88840217965E+00  0.88000000000E+00 0. -1.
        -11    1    4    4    0    0  0.36634167529E-01 -0.63824229994E-02  0.21005009576E-01  0.42711463358E-01  0.51100000000E-03 0. -1.
         11    1    4    4    0    0  0.60804198428E-01 -0.34550197374E-01  0.53518671770E-01  0.88064612836E-01  0.51100000000E-03 0.  1.
</event>
<event>
 8    1  0.1054833E+005  0.1043930E+01  0.7957747E-01            NaN
         13   -1    0    0    0    0  0.00000000000E+00  0.00000000000E+00  0.74505805969E-08  0.10566000000E+00  0.10566000000E+00 0. -1.
     999900   -1    0    0    0    0 -0.00000000000E+00 -0.00000000000E+00 -0.74505805969E-08  0.93827000000E+00  0.93827000000E+00 0.  1.
     999902    2    1    2    0    0  0.64218650048E-04 -0.16875536227E-01 -0.16210043124E-01  0.10205301422E+01  0.10202618379E+01 0.  0.
     999903    2    3    3    0    0 -0.12597476341E+00  0.25298317331E-01  0.44076424302E-02  0.13031132198E+00  0.21259526057E-01 0.  0.
         14    1    1    2    0    0 -0.64218650048E-04  0.16875536227E-01  0.16210043124E-01  0.23399857800E-01  0.00000000000E+00 0. -1.
     999901    1    3    3    0    0  0.12603898206E+00 -0.42173853557E-01 -0.20617685554E-01  0.89021882022E+00  0.88000000000E+00 0.  1.
        -11    1    4    4    0    0 -0.84289391598E-01  0.16826816020E-01  0.12942587697E-01  0.86923040505E-01  0.51100000000E-03 0.  1.
         11    1    4    4    0    0 -0.41685371810E-01  0.84715013104E-02 -0.85349452670E-02  0.43388281472E-01  0.51100000000E-03 0. -1.
</event>
<event>
 8    1  0.1054833E+005  0.1043930E+01  0.7957747E-01            NaN
         13   -1    0    0    0    0  0.00000000000E+00  0.00000000000E+00  0.74505805969E-08  0.10566000000E+00  0.10566000000E+00 0. -1.
     999900   -1    0    0    0    0 -0.00000000000E+00 -0.00000000000E+00 -0.74505805969E-08  0.93827000000E+00  0.93827000000E+00 0.  1.
     999902    2    1    2    0    0  0.84497958307E-02 -0.12436523657E-01 -0.10490543220E-01  0.10255964879E+01  0.10254326103E+01 0.  0.
     999903    2    3    3    0    0  0.24963595763E-01  0.10572231457E+00  0.75450848564E-01  0.13339688045E+00  0.17363993010E-01 0.  0.
         14    1    1    2    0    0 -0.84497958307E-02  0.12436523657E-01  0.10490543220E-01  0.18333512138E-01  0.00000000000E+00 0. -1.
     999901    1    3    3    0    0 -0.16513799932E-01 -0.11815883823E+00 -0.85941391784E-01  0.89219960741E+00  0.88000000000E+00 0. -1.
        -11    1    4    4    0    0  0.22472451484E-01  0.61727513121E-01  0.40740375177E-01  0.77300299109E-01  0.51100000000E-03 0. -1.
         11    1    4    4    0    0  0.24911442790E-02  0.43994801453E-01  0.34710473387E-01  0.56096581344E-01  0.51100000000E-03 0.  1.
</event>
<event>
 8    1  0.1054833E+005  0.1043930E+01  0.7957747E-01            NaN
         13   -1    0    0    0    0  0.00000000000E+00  0.00000000000E+00  0.74505805969E-08  0.10566000000E+00  0.10566000000E+00 0.  1.
     999900   -1    0    0    0    0 -0.00000000000E+00 -0.00000000000E+00 -0.74505805969E-08  0.93827000000E+00  0.93827000000E+00 0. -1.
     999902    2    1    2    0    0  0.56186069765E-02 -0.41678623553E-02  0.22438683197E-01  0.10204260785E+01  0.10201553545E+01 0.  0.
     999903    2    3    3    0    0 -0.18235269291E-01  0.20340231066E-01  0.12902318546E+00  0.13333537844E+00  0.19623728310E-01 0.  0.
         14    1    1    2    0    0 -0.56186069765E-02  0.41678623553E-02 -0.22438683197E-01  0.23503921472E-01  0.00000000000E+00 0. -1.
     999901    1    3    3    0    0  0.23853876267E-01 -0.24508093421E-01 -0.10658450226E+00  0.88709070009E+00  0.88000000000E+00 0. -1.
        -11    1    4    4    0    0 -0.27258693688E-02 -0.14262393607E-02  0.46200145179E-01  0.46305281103E-01  0.51100000000E-03 0.  1.
         11    1    4    4    0    0 -0.15509399922E-01  0.21766470426E-01  0.82823040279E-01  0.87030097339E-01  0.51100000000E-03 0. -1.
</event>
<event>
 8    1  0.1054833E+005  0.1043930E+01  0.7957747E-01            NaN
         13   -1    0    0    0    0  0.00000000000E+00  0.00000000000E+00  0.74505805969E-08  0.10566000000E+00  0.10566000000E+00 0. -1.
     999900   -1    0    0    0    0 -0.00000000000E+00 -0.00000000000E+00 -0.74505805969E-08  0.93827000000E+00  0.93827000000E+00 0. -1.
     999902    2    1    2    0    0  0.10025217575E-01  0.61940890935E-02 -0.21640096703E-01  0.10192892713E+01  0.10189913901E+01 0.  0.
     999903    2    3    3    0    0 -0.20537244617E-01 -0.12003131986E+00 -0.39277767119E-01  0.12958257500E+00  0.20484252246E-01 0.  0.
         14    1    1    2    0    0 -0.10025217575E-01 -0.61940890935E-02  0.21640096703E-01  0.24640728732E-01  0.00000000000E+00 0. -1.
     999901    1    3    3    0    0  0.30562462193E-01  0.12622540896E+00  0.17637670416E-01  0.88970669627E+00  0.88000000000E+00 0.  1.
        -11    1    4    4    0    0  0.15907407636E-02 -0.26408306143E-01 -0.14778207683E-01  0.30308177656E-01  0.51100000000E-03 0. -1.
         11    1    4    4    0    0 -0.22127985381E-01 -0.93623013719E-01 -0.24499559436E-01  0.99274397346E-01  0.51100000000E-03 0.  1.
</event>
<event>
 8    1  0.1054833E+005  0.1043930E+01  0.7957747E-01            NaN
         13   -1    0    0    0    0  0.00000000000E+00  0.00000000000E+00  0.74505805969E-08  0.10566000000E+00  0.10566000000E+00 0.  1.
     999900   -1    0    0    0    0 -0.00000000000E+00 -0.00000000000E+00 -0.74505805969E-08  0.93827000000E+00  0.93827000000E+00 0. -1.
     999902    2    1    2    0    0 -0.51682151511E-02  0.21377077306E-01 -0.93923874851E-02  0.10200154265E+01  0.10197350457E+01 0.  0.
     999903    2    3    3    0    0 -0.11935785877E+00 -0.44012520586E-01 -0.19595426794E-01  0.13017320667E+00  0.19434056800E-01 0.  0.
         14    1    1    2    0    0  0.51682151511E-02 -0.21377077306E-01  0.93923874851E-02  0.23914573479E-01  0.00000000000E+00 0.  1.
     999901    1    3    3    0    0  0.11418964362E+00  0.65389597891E-01  0.10203039309E-01  0.88984221985E+00  0.88000000000E+00 0. -1.
        -11    1    4    4    0    0 -0.73969676938E-01 -0.24272699945E-01 -0.21072849045E-01  0.80653599776E-01  0.51100000000E-03 0. -1.
         11    1    4    4    0    0 -0.45388181835E-01 -0.19739820641E-01  0.14774222508E-02  0.49519606892E-01  0.51100000000E-03 0.  1.
</event>
<event>
 8    1  0.1054833E+005  0.1043930E+01  0.7957747E-01            NaN
         13   -1    0    0    0    0  0.00000000000E+00  0.00000000000E+00  0.74505805969E-08  0.10566000000E+00  0.10566000000E+00 0.  1.
     999900   -1    0    0    0    0 -0.00000000000E+00 -0.00000000000E+00 -0.74505805969E-08  0.93827000000E+00  0.93827000000E+00 0. -1.
     999902    2    1    2    0    0 -0.93988471512E-02 -0.21736686834E-01  0.25957785974E-02  0.10201064833E+01  0.10198282587E+01 0.  0.
     999903    2    3    3    0    0  0.74998169846E-01  0.96087092649E-01  0.32486595313E-01  0.12775074681E+00  0.20184637269E-01 0.  0.
         14    1    1    2    0    0  0.93988471512E-02  0.21736686834E-01 -0.25957785974E-02  0.23823516718E-01  0.00000000000E+00 0. -1.
     999901    1    3    3    0    0 -0.84397016997E-01 -0.11782377948E+00 -0.29890816715E-01  0.89235573647E+00  0.88000000000E+00 0. -1.
        -11    1    4    4    0    0  0.22753584056E-01  0.38849902943E-01  0.40757251454E-02  0.45209658288E-01  0.51100000000E-03 0.  1.
         11    1    4    4    0    0  0.52244585790E-01  0.57237189706E-01  0.28410870168E-01  0.82541088522E-01  0.51100000000E-03 0. -1.
</event>
<event>
 8    1  0.1054833E+005  0.1043930E+01  0.7957747E-01            NaN
         13   -1    0    0    0    0  0.00000000000E+00  0.00000000000E+00  0.74505805969E-08  0.10566000000E+00  0.10566000000E+00 0. -1.
     999900   -1    0    0    0    0 -0.00000000000E+00 -0.00000000000E+00 -0.74505805969E-08  0.93827000000E+00  0.93827000000E+00 0. -1.
     999902    2    1    2    0    0 -0.19462118318E-02  0.57286528722E-02  0.22448277792E-01  0.10206806908E+01  0.10204158672E+01 0.  0.
     999903    2    3    3    0    0  0.10856040916E+00 -0.63947745787E-01 -0.28690617862E-01  0.12956807136E+00  0.94898331394E-02 0.  0.
         14    1    1    2    0    0  0.19462118318E-02 -0.57286528722E-02 -0.22448277792E-01  0.23249309238E-01  0.00000000000E+00 0.  1.
     999901    1    3    3    0    0 -0.11050662099E+00  0.69676398659E-01  0.51138895654E-01  0.89111261940E+00  0.88000000000E+00 0. -1.
        -11    1    4    4    0    0  0.41962792169E-01 -0.29291215597E-01 -0.14128828818E-01  0.53091771137E-01  0.51100000000E-03 0. -1.
         11    1    4    4    0    0  0.66597616994E-01 -0.34656530190E-01 -0.14561789044E-01  0.76476300220E-01  0.51100000000E-03 0.  1.
</event>
<event>
 8    1  0.1054833E+005  0.1043930E+01  0.7957747E-01            NaN
         13   -1    0    0    0    0  0.00000000000E+00  0.00000000000E+00  0.74505805969E-08  0.10566000000E+00  0.10566000000E+00 0. -1.
     999900   -1    0    0    0    0 -0.00000000000E+00 -0.00000000000E+00 -0.74505805969E-08  0.93827000000E+00  0.93827000000E+00 0.  1.
     999902    2    1    2    0    0  0.79976622085E-02 -0.20093337096E-01 -0.12921034456E-01  0.10187375819E+01  0.10184260420E+01 0.  0.
     999903    2    3    3    0    0  0.12619314110E+00 -0.27747220837E-01 -0.67192753695E-03  0.13071799106E+00  0.19802135628E-01 0.  0.
         14    1    1    2    0    0 -0.79976622085E-02  0.20093337096E-01  0.12921034456E-01  0.25192418063E-01  0.00000000000E+00 0. -1.
     999901    1    3    3    0    0 -0.11819547889E+00  0.76538837414E-02 -0.12249106919E-01  0.88801959088E+00  0.88000000000E+00 0.  1.
        -11    1    4    4    0    0  0.66680290064E-01 -0.11324380171E-01  0.89736703362E-02  0.68229689649E-01  0.51100000000E-03 0.  1.
         11    1    4    4    0    0  0.59512851032E-01 -0.16422840666E-01 -0.96455978731E-02  0.62488301408E-01  0.51100000000E-03 0. -1.
</event>
<event>
 8    1  0.1054833E+005  0.1043930E+01  0.7957747E-01            NaN
         13   -1    0    0    0    0  0.00000000000E+00  0.00000000000E+00  0.74505805969E-08  0.10566000000E+00  0.10566000000E+00 0.  1.
     999900   -1    0    0    0    0 -0.00000000000E+00 -0.00000000000E+00 -0.74505805969E-08  0.93827000000E+00  0.93827000000E+00 0. -1.
     999902    2    1    2    0    0 -0.59083482771E-02 -0.37799706633E-02 -0.21109615618E-01  0.10216856158E+01  0.10214434320E+01 0.  0.
     999903    2    3    3    0    0 -0.40066408749E-01  0.10381398167E+00 -0.70069687545E-01  0.13312480171E+00  0.20731420989E-01 0.  0.
         14    1    1    2    0    0  0.59083482771E-02  0.37799706633E-02  0.21109615618E-01  0.22244384215E-01  0.00000000000E+00 0.  1.
     999901    1    3    3    0    0  0.34158060472E-01 -0.10759395233E+00  0.48960071927E-01  0.88856081408E+00  0.88000000000E+00 0.  1.
        -11    1    4    4    0    0 -0.42109587315E-01  0.97622200733E-01 -0.63415243024E-01  0.12379444894E+00  0.51100000000E-03 0. -1.
         11    1    4    4    0    0  0.20431785660E-02  0.61917809369E-02 -0.66544445211E-02  0.93303527644E-02  0.51100000000E-03 0.  1.
</event>
<event>
 8    1  0.1054833E+005  0.1043930E+01  0.7957747E-01            NaN
         13   -1    0    0    0    0  0.00000000000E+00  0.00000000000E+00  0.74505805969E-08  0.10566000000E+00  0.10566000000E+00 0.  1.
     999900   -1    0    0    0    0 -0.00000000000E+00 -0.00000000000E+00 -0.74505805969E-08  0.93827000000E+00  0.93827000000E+00 0.  1.
     999902    2    1    2    0    0  0.16993529014E-01  0.13397271966E-01  0.95063473493E-02  0.10202944851E+01  0.10200206855E+01 0.  0.
     999903    2    3    3    0    0 -0.91868409762E-01  0.85739923329E-01  0.28896645744E-01  0.13042912192E+00  0.19636714217E-01 0.  0.
         14    1    1    2    0    0 -0.16993529014E-01 -0.13397271966E-01 -0.95063473493E-02  0.23635514896E-01  0.00000000000E+00 0. -1.
     999901    1    3    3    0    0  0.10886193878E+00 -0.72342651363E-01 -0.19390298394E-01  0.88986536318E+00  0.88000000000E+00 0. -1.
        -11    1    4    4    0    0 -0.50217474858E-01  0.56629892898E-01  0.10655165534E-01  0.76436465279E-01  0.51100000000E-03 0. -1.
         11    1    4    4    0    0 -0.41650934904E-01  0.29110030431E-01  0.18241480210E-01  0.53992656642E-01  0.51100000000E-03 0.  1.
</event>
<event>
 8    1  0.1054833E+005  0.1043930E+01  0.7957747E-01            NaN
         13   -1    0    0    0    0  0.00000000000E+00  0.00000000000E+00  0.74505805969E-08  0.10566000000E+00  0.10566000000E+00 0. -1.
     999900   -1    0    0    0    0 -0.00000000000E+00 -0.00000000000E+00 -0.74505805969E-08  0.93827000000E+00  0.93827000000E+00 0.  1.
     999902    2    1    2    0    0 -0.11441610011E-01 -0.17955496857E-01 -0.85390970548E-02  0.10209903730E+01  0.10207326366E+01 0.  0.
     999903    2    3    3    0    0 -0.39622768805E-01 -0.40825751282E-01  0.11662462486E+00  0.13139317006E+00  0.20643551969E-01 0.  0.
         14    1    1    2    0    0  0.11441610011E-01  0.17955496857E-01  0.85390970548E-02  0.22939626970E-01  0.00000000000E+00 0. -1.
     999901    1    3    3    0    0  0.28181158795E-01  0.22870254426E-01 -0.12516372192E+00  0.88959720297E+00  0.88000000000E+00 0.  1.
        -11    1    4    4    0    0 -0.28221153261E-02 -0.55201331683E-02  0.31915668163E-01  0.32516260554E-01  0.51100000000E-03 0.  1.
         11    1    4    4    0    0 -0.36800653479E-01 -0.35305618114E-01  0.84708956701E-01  0.98876909506E-01  0.51100000000E-03 0. -1.
</event>
<event>
 8    1  0.1054833E+005  0.1043930E+01  0.7957747E-01            NaN
         13   -1    0    0    0    0  0.00000000000E+00  0.00000000000E+00  0.74505805969E-08  0.10566000000E+00  0.10566000000E+00 0. -1.
     999900   -1    0    0    0    0 -0.00000000000E+00 -0.00000000000E+00 -0.74505805969E-08  0.93827000000E+00  0.93827000000E+00 0.  1.
     999902    2    1    2    0    0 -0.27454383297E-02 -0.23680992928E-01 -0.41752792303E-02  0.10197275246E+01  0.10194402703E+01 0.  0.
     999903    2    3    3    0    0  0.22677327015E-01 -0.11323256821E+00 -0.62575411828E-01  0.13289249085E+00  0.20220195272E-01 0.  0.
         14    1    1    2    0    0  0.27454383297E-02  0.23680992928E-01  0.41752792303E-02  0.24202475376E-01  0.00000000000E+00 0. -1.
     999901    1    3    3    0    0 -0.25422765345E-01  0.89551575279E-01  0.58400132598E-01  0.88683503377E+00  0.88000000000E+00 0.  1.
        -11    1    4    4    0    0 -0.13696901903E-02 -0.40034927348E-01 -0.24375504292E-01  0.46894539016E-01  0.51100000000E-03 0.  1.
         11    1    4    4    0    0  0.24047017205E-01 -0.73197640859E-01 -0.38199907536E-01  0.85997951839E-01  0.51100000000E-03 0. -1.
</event>
<event>
 8    1  0.1054833E+005  0.1043930E+01  0.7957747E-01            NaN
         13   -1    0    0    0    0  0.00000000000E+00  0.00000000000E+00  0.74505805969E-08  0.10566000000E+00  0.10566000000E+00 0.  1.
     999900   -1    0    0    0    0 -0.00000000000E+00 -0.00000000000E+00 -0.74505805969E-08  0.93827000000E+00  0.93827000000E+00 0.  1.
     999902    2    1    2    0    0  0.41566705987E-02  0.50244371928E-02 -0.22001055783E-01  0.10209829014E+01  0.10207249951E+01 0.  0.
     999903    2    3    3    0    0  0.95487431037E-01  0.84094713882E-01  0.26444628760E-01  0.13140974485E+00  0.19479021118E-01 0.  0.
         14    1    1    2    0    0 -0.41566705987E-02 -0.50244371928E-02  0.22001055783E-01  0.22947098621E-01  0.00000000000E+00 0.  1.
     999901    1    3    3    0    0 -0.91330760438E-01 -0.79070276689E-01 -0.48445684543E-01  0.88957315652E+00  0.88000000000E+00 0.  1.
        -11    1    4    4    0    0  0.57356757300E-01  0.49197216654E-01  0.59428186865E-02  0.75800672486E-01  0.51100000000E-03 0. -1.
         11    1    4    4    0    0  0.38130673737E-01  0.34897497228E-01  0.20501810074E-01  0.55609072368E-01  0.51100000000E-03 0.  1.
</event>
<event>
 8    1  0.1054833E+005  0.1043930E+01  0.7957747E-01            NaN
         13   -1    0    0    0    0  0.00000000000E+00  0.00000000000E+00  0.74505805969E-08  0.10566000000E+00  0.10566000000E+00 0.  1.
     999900   -1    0    0    0    0 -0.00000000000E+00 -0.00000000000E+00 -0.74505805969E-08  0.93827000000E+00  0.93827000000E+00 0.  1.
     999902    2    1    2    0    0  0.21779887506E-01 -0.89299082884E-02 -0.10578831565E-02  0.10203667685E+01  0.10200946605E+01 0.  0.
     999903    2    3    3    0    0 -0.12364553820E+00  0.40065967087E-02 -0.24771512355E-01  0.12802252786E+00  0.21722520139E-01 0.  0.
         14    1    1    2    0    0 -0.21779887506E-01  0.89299082884E-02  0.10578831565E-02  0.23563231497E-01  0.00000000000E+00 0.  1.
     999901    1    3    3    0    0  0.14542542570E+00 -0.12936504997E-01  0.23713629199E-01  0.89234424065E+00  0.88000000000E+00 0.  1.
        -11    1    4    4    0    0 -0.76815419815E-01  0.12758936604E-01 -0.13014298168E-01  0.78949555175E-01  0.51100000000E-03 0.  1.
         11    1    4    4    0    0 -0.46830118384E-01 -0.87523398949E-02 -0.11757214187E-01  0.49072972682E-01  0.51100000000E-03 0. -1.
</event>
<event>
 8    1  0.1054833E+005  0.1043930E+01  0.7957747E-01            NaN
         13   -1    0    0    0    0  0.00000000000E+00  0.00000000000E+00  0.74505805969E-08  0.10566000000E+00  0.10566000000E+00 0.  1.
     999900   -1    0    0    0    0 -0.00000000000E+00 -0.00000000000E+00 -0.74505805969E-08  0.93827000000E+00  0.93827000000E+00 0.  1.
     999902    2    1    2    0    0 -0.81129970411E-03 -0.46009975928E-02  0.22978469591E-01  0.10204813870E+01  0.10202119504E+01 0.  0.
     999903    2    3    3    0    0  0.10343695936E+00  0.66460472443E-01 -0.36292816043E-01  0.12950971668E+00  0.18422791832E-01 0.  0.
         14    1    1    2    0    0  0.81129970411E-03  0.46009975928E-02 -0.22978469591E-01  0.23448612983E-01  0.00000000000E+00 0. -1.
     999901    1    3    3    0    0 -0.10424825907E+00 -0.71061470036E-01  0.59271285635E-01  0.89097167034E+00  0.88000000000E+00 0.  1.
        -11    1    4    4    0    0  0.55199372924E-01  0.35594883286E-01 -0.28919328634E-01  0.71767368469E-01  0.51100000000E-03 0.  1.
         11    1    4    4    0    0  0.48237586438E-01  0.30865589157E-01 -0.73734874091E-02  0.57742348211E-01  0.51100000000E-03 0. -1.
</event>
<event>
 8    1  0.1054833E+005  0.1043930E+01  0.7957747E-01            NaN
         13   -1    0    0    0    0  0.00000000000E+00  0.00000000000E+00  0.74505805969E-08  0.10566000000E+00  0.10566000000E+00 0. -1.
     999900   -1    0    0    0    0 -0.00000000000E+00 -0.00000000000E+00 -0.74505805969E-08  0.93827000000E+00  0.93827000000E+00 0.  1.
     999902    2    1    2    0    0 -0.16206615282E-01 -0.18011250436E-01 -0.12535238359E-01  0.10166501224E+01  0.10162840546E+01 0.  0.
     999903    2    3    3    0    0 -0.35360083509E-01 -0.83494949499E-01 -0.91714056529E-01  0.13046489603E+00  0.19694639718E-01 0.  0.
         14    1    1    2    0    0  0.16206615282E-01  0.18011250436E-01  0.12535238359E-01  0.27279877601E-01  0.00000000000E+00 0. -1.
     999901    1    3    3    0    0  0.19153468227E-01  0.65483699062E-01  0.79178818170E-01  0.88618522637E+00  0.88000000000E+00 0. -1.
        -11    1    4    4    0    0 -0.10288545282E-01 -0.48526579730E-01 -0.45409367818E-01  0.67252917490E-01  0.51100000000E-03 0. -1.
         11    1    4    4    0    0 -0.25071538226E-01 -0.34968369769E-01 -0.46304688711E-01  0.63211978540E-01  0.51100000000E-03 0.  1.
</event>
<event>
 8    1  0.1054833E+005  0.1043930E+01  0.7957747E-01            NaN
         13   -1    0    0    0    0  0.00000000000E+00  0.00000000000E+00  0.74505805969E-08  0.10566000000E+00  0.10566000000E+00 0.  1.
     999900   -1    0    0    0    0 -0.00000000000E+00 -0.00000000000E+00 -0.74505805969E-08  0.93827000000E+00  0.93827000000E+00 0. -1.
     999902    2    1    2    0    0 -0.48699302496E-02  0.20045594529E-01 -0.50203054907E-02  0.10226992311E+01  0.10224788368E+01 0.  0.
     999903    2    3    3    0    0 -0.89153148517E-01  0.57164184421E-01 -0.81020054156E-01  0.13463537507E+00  0.18612016926E-01 0.  0.
         14    1    1    2    0    0  0.48699302496E-02 -0.20045594529E-01  0.50203054907E-02  0.21230768895E-01  0.00000000000E+00 0.  1.
     999901    1    3    3    0    0  0.84283218267E-01 -0.37118589893E-01  0.75999748665E-01  0.88806385603E+00  0.88000000000E+00 0. -1.
        -11    1    4    4    0    0 -0.18190118487E-01  0.14437965315E-01 -0.27578092671E-01  0.36057559115E-01  0.51100000000E-03 0. -1.
         11    1    4    4    0    0 -0.70963030030E-01  0.42726219107E-01 -0.53441961485E-01  0.98577815956E-01  0.51100000000E-03 0.  1.
</event>
<event>
 8    1  0.1054833E+005  0.1043930E+01  0.7957747E-01            NaN
         13   -1    0    0    0    0  0.00000000000E+00  0.00000000000E+00  0.74505805969E-08  0.10566000000E+00  0.10566000000E+00 0. -1.
     999900   -1    0    0    0    0 -0.00000000000E+00 -0.00000000000E+00 -0.74505805969E-08  0.93827000000E+00  0.93827000000E+00 0. -1.
     999902    2    1    2    0    0  0.38750086455E-02 -0.16180230761E-01  0.18561482161E-01  0.10190032236E+01  0.10186982996E+01 0.  0.
     999903    2    3    3    0    0  0.59236337924E-01 -0.67655452321E-02  0.11596406909E+00  0.13185003675E+00  0.19546113120E-01 0.  0.
         14    1    1    2    0    0 -0.38750086455E-02  0.16180230761E-01 -0.18561482161E-01  0.24926776356E-01  0.00000000000E+00 0.  1.
     999901    1    3    3    0    0 -0.55361329279E-01 -0.94146855288E-02 -0.97402586925E-01  0.88715318690E+00  0.88000000000E+00 0. -1.
        -11    1    4    4    0    0  0.17458045127E-01 -0.90622809701E-02  0.50010918890E-01  0.53742547439E-01  0.51100000000E-03 0. -1.
         11    1    4    4    0    0  0.41778292797E-01  0.22967357381E-02  0.65953150196E-01  0.78107489308E-01  0.51100000000E-03 0.  1.
</event>
<event>
 8    1  0.1054833E+005  0.1043930E+01  0.7957747E-01            NaN
         13   -1    0    0    0    0  0.00000000000E+00  0.00000000000E+00  0.74505805969E-08  0.10566000000E+00  0.10566000000E+00 0. -1.
     999900   -1    0    0    0    0 -0.00000000000E+00 -0.00000000000E+00 -0.74505805969E-08  0.93827000000E+00  0.93827000000E+00 0.  1.
     999902    2    1    2    0    0 -0.30611625840E-02 -0.11494560281E-02 -0.22138607333E-01  0.10215512176E+01  0.10213060660E+01 0.  0.
     999903    2    3    3    0    0 -0.69764368696E-01  0.42812184518E-01  0.98365157752E-01  0.12975353826E+00  0.21455212596E-01 0.  0.
         14    1    1    2    0    0  0.30611625840E-02  0.11494560281E-02  0.22138607333E-01  0.22378782366E-01  0.00000000000E+00 0. -1.
     999901    1    3    3    0    0  0.66703206112E-01 -0.43961640546E-01 -0.12050376509E+00  0.89179767938E+00  0.88000000000E+00 0.  1.
        -11    1    4    4    0    0 -0.14238614117E-01  0.20063537978E-01  0.28085099269E-01  0.37340562531E-01  0.51100000000E-03 0.  1.
         11    1    4    4    0    0 -0.55525754578E-01  0.22748646540E-01  0.70280058484E-01  0.92412975725E-01  0.51100000000E-03 0. -1.
</event>
<event>
 8    1  0.1054833E+005  0.1043930E+01  0.7957747E-01            NaN
         13   -1    0    0    0    0  0.00000000000E+00  0.00000000000E+00  0.74505805969E-08  0.10566000000E+00  0.10566000000E+00 0.  1.
     999900   -1    0    0    0    0 -0.00000000000E+00 -0.00000000000E+00 -0.74505805969E-08  0.93827000000E+00  0.93827000000E+00 0.  1.
     999902    2    1    2    0    0  0.11844625076E-01 -0.52069358866E-02  0.18770490314E-01  0.10211322231E+01  0.10208777000E+01 0.  0.
     999903    2    3    3    0    0  0.12459571965E+00 -0.40970712210E-01  0.12125536828E-01  0.13319302900E+00  0.19765164239E-01 0.  0.
         14    1    1    2    0    0 -0.11844625076E-01  0.52069358866E-02 -0.18770490314E-01  0.22797776891E-01  0.00000000000E+00 0. -1.
     999901    1    3    3    0    0 -0.11275109457E+00  0.35763776323E-01  0.66449534864E-02  0.88793919411E+00  0.88000000000E+00 0.  1.
        -11    1    4    4    0    0  0.69041419121E-01 -0.13785290878E-01  0.11496380750E-01  0.71338486739E-01  0.51100000000E-03 0.  1.
         11    1    4    4    0    0  0.55554300529E-01 -0.27185421332E-01  0.62915607772E-03  0.61854542263E-01  0.51100000000E-03 0. -1.
</event>
<event>
 8    1  0.1054833E+005  0.1043930E+01  0.7957747E-01            NaN
         13   -1    0    0    0    0  0.00000000000E+00  0.00000000000E+00  0.74505805969E-08  0.10566000000E+00  0.10566000000E+00 0.  1.
     999900   -1    0    0    0    0 -0.00000000000E+00 -0.00000000000E+00 -0.74505805969E-08  0.93827000000E+00  0.93827000000E+00 0. -1.
     999902    2    1    2    0    0  0.30224376769E-02  0.57621874790E-02 -0.22774994073E-01  0.10202437532E+01  0.10199687630E+01 0.  0.
     999903    2    3    3    0    0  0.11101915344E+00 -0.65214931700E-01 -0.43477736837E-02  0.13061427720E+00  0.21516192170E-01 0.  0.
         14    1    1    2    0    0 -0.30224376769E-02 -0.57621874790E-02  0.22774994073E-01  0.23686246834E-01  0.00000000000E+00 0.  1.
     999901    1    3    3    0    0 -0.10799671576E+00  0.70977119179E-01 -0.18427220390E-01  0.88962947597E+00  0.88000000000E+00 0.  1.
        -11    1    4    4    0    0  0.87290298190E-01 -0.56009730375E-01 -0.11014337960E-01  0.10429891091E+00  0.51100000000E-03 0.  1.
         11    1    4    4    0    0  0.23728855246E-01 -0.92052013252E-02  0.66665642764E-02  0.26315366290E-01  0.51100000000E-03 0. -1.
</event>
<event>
 8    1  0.1054833E+005  0.1043930E+01  0.7957747E-01            NaN
         13   -1    0    0    0    0  0.00000000000E+00  0.00000000000E+00  0.74505805969E-08  0.10566000000E+00  0.10566000000E+00 0.  1.
     999900   -1    0    0    0    0 -0.00000000000E+00 -0.00000000000E+00 -0.74505805969E-08  0.93827000000E+00  0.93827000000E+00 0. -1.
     999902    2    1    2    0    0  0.12175812255E-01 -0.17571969227E-01 -0.99318494365E-02  0.10203574282E+01  0.10200851019E+01 0.  0.
     999903    2    3    3    0    0 -0.10872791248E+00  0.58949644071E-01 -0.27852785546E-01  0.12862068013E+00  0.21695211611E-01 0.  0.
         14    1    1    2    0    0 -0.12175812255E-01  0.17571969227E-01  0.99318494365E-02  0.23572571769E-01  0.00000000000E+00 0. -1.
     999901    1    3    3    0    0  0.12090372474E+00 -0.76521613298E-01  0.17920936110E-01  0.89173674810E+00  0.88000000000E+00 0.  1.
        -11    1    4    4    0    0 -0.39427559307E-01  0.32156051078E-01 -0.16293604119E-01  0.53425524892E-01  0.51100000000E-03 0.  1.
         11    1    4    4    0    0 -0.69300353174E-01  0.26793592992E-01 -0.11559181427E-01  0.75195155241E-01  0.51100000000E-03 0. -1.
</event>
<event>
 8    1  0.1420634E+005  0.1043930E+01  0.7957747E-01            NaN
         13   -1    0    0    0    0  0.00000000000E+00  0.00000000000E+00  0.74505805969E-08  0.10566000000E+00  0.10566000000E+00 0.  1.
     999900   -1    0    0    0    0 -0.00000000000E+00 -0.00000000000E+00 -0.74505805969E-08  0.93827000000E+00  0.93827000000E+00 0. -1.
     999902    2    1    2    0    0 -0.12281414869E-01  0.19707512984E-01 -0.45755917683E-02  0.10202624006E+01  0.10199878484E+01 0.  0.
     999903    2    3    3    0    0  0.66486561836E-01  0.29779207825E-01 -0.10665508352E+00  0.13080972859E+00  0.20702998059E-01 0.  0.
         14    1    1    2    0    0  0.12281414869E-01 -0.19707512984E-01  0.45755917683E-02  0.23667599355E-01  0.00000000000E+00 0. -1.
     999901    1    3    3    0    0 -0.78767976705E-01 -0.10071694841E-01  0.10207949176E+00  0.88945267206E+00  0.88000000000E+00 0.  1.
        -11    1    4    4    0    0  0.33984468349E-01  0.19970317831E-01 -0.40896783172E-01  0.56802866812E-01  0.51100000000E-03 0. -1.
         11    1    4    4    0    0  0.32502093487E-01  0.98088899939E-02 -0.65758300351E-01  0.74006861777E-01  0.51100000000E-03 0.  1.
</event>
<event>
 7    1  0.1054833E+005  0.1043930E+01  0.7957747E-01            NaN
         13   -1    0    0    0    0  0.00000000000E+00  0.00000000000E+00  0.74505805969E-08  0.10566000000E+00  0.10566000000E+00 0. -1.
     999900   -1    0    0    0    0 -0.00000000000E+00 -0.00000000000E+00 -0.74505805969E-08  0.93827000000E+00  0.93827000000E+00 0.  1.
     999903    2    1    2    0    0 -0.25221703535E-01 -0.67456791631E-01 -0.40986030186E-01  0.85312305476E-01  0.20292405692E-01 0.  0.
         14    1    1    2    0    0  0.81616434643E-02 -0.62006864715E-01 -0.23112478837E-01  0.66675710523E-01  0.00000000000E+00 0.  1.
     999901    1    1    2    0    0  0.17060060071E-01  0.12946365635E+00  0.64098509023E-01  0.89194198400E+00  0.88000000000E+00 0.  1.
        -11    1    3    3    0    0 -0.76736250332E-02 -0.30474191078E-01 -0.72259636211E-02  0.32249597118E-01  0.51100000000E-03 0. -1.
         11    1    3    3    0    0 -0.17548078502E-01 -0.36982600553E-01 -0.33760066565E-01  0.53062708358E-01  0.51100000000E-03 0.  1.
</event>
<event>
 8    1  0.1054833E+005  0.1043930E+01  0.7957747E-01            NaN
         13   -1    0    0    0    0  0.00000000000E+00  0.00000000000E+00  0.74505805969E-08  0.10566000000E+00  0.10566000000E+00 0. -1.
     999900   -1    0    0    0    0 -0.00000000000E+00 -0.00000000000E+00 -0.74505805969E-08  0.93827000000E+00  0.93827000000E+00 0.  1.
     999902    2    1    2    0    0 -0.22270635220E-01  0.77277887113E-02  0.47960554659E-02  0.10198737730E+01  0.10195900209E+01 0.  0.
     999903    2    3    3    0    0 -0.41438346550E-01 -0.10487317505E+00  0.62500409611E-01  0.13061780830E+00  0.20956889872E-01 0.  0.
         14    1    1    2    0    0  0.22270635220E-01 -0.77277887113E-02 -0.47960554659E-02  0.24056227043E-01  0.00000000000E+00 0. -1.
     999901    1    3    3    0    0  0.19167711330E-01  0.11260096376E+00 -0.57704354145E-01  0.88925596466E+00  0.88000000000E+00 0.  1.
        -11    1    4    4    0    0 -0.53389729846E-02 -0.39630489441E-01  0.24879322044E-01  0.47099067000E-01  0.51100000000E-03 0.  1.
         11    1    4    4    0    0 -0.36099373566E-01 -0.65242685607E-01  0.37621087567E-01  0.83518741297E-01  0.51100000000E-03 0. -1.
</event>
<event>
 8    1  0.1054833E+005  0.1043930E+01  0.7957747E-01            NaN
         13   -1    0    0    0    0  0.00000000000E+00  0.00000000000E+00  0.74505805969E-08  0.10566000000E+00  0.10566000000E+00 0.  1.
     999900   -1    0    0    0    0 -0.00000000000E+00 -0.00000000000E+00 -0.74505805969E-08  0.93827000000E+00  0.93827000000E+00 0.  1.
     999902    2    1    2    0    0  0.17930039763E-01  0.13442835052E-02 -0.45603511731E-02  0.10253803308E+01  0.10252125305E+01 0.  0.
     999903    2    3    3    0    0  0.40212682934E-02 -0.12149415783E+00 -0.55986827076E-01  0.13525257649E+00  0.19538005404E-01 0.  0.
         14    1    1    2    0    0 -0.17930039763E-01 -0.13442835052E-02  0.45603511731E-02  0.18549669184E-01  0.00000000000E+00 0. -1.
     999901    1    3    3    0    0  0.13908771469E-01  0.12283844134E+00  0.51426475902E-01  0.89012775432E+00  0.88000000000E+00 0. -1.
        -11    1    4    4    0    0 -0.48836960965E-02 -0.89051395783E-02 -0.50983175455E-02  0.11375674102E-01  0.51100000000E-03 0.  1.
         11    1    4    4    0    0  0.89049643899E-02 -0.11258901826E+00 -0.50888509530E-01  0.12387690239E+00  0.51100000000E-03 0. -1.
</event>
<event>
 8    1  0.1054833E+005  0.1043930E+01  0.7957747E-01            NaN
         13   -1    0    0    0    0  0.00000000000E+00  0.00000000000E+00  0.74505805969E-08  0.10566000000E+00  0.10566000000E+00 0. -1.
     999900   -1    0    0    0    0 -0.00000000000E+00 -0.00000000000E+00 -0.74505805969E-08  0.93827000000E+00  0.93827000000E+00 0. -1.
     999902    2    1    2    0    0 -0.51033163785E-02  0.23020693137E-01 -0.24642550153E-02  0.10202220118E+01  0.10199465107E+01 0.  0.
     999903    2    3    3    0    0 -0.14261938987E-01  0.50166574732E-01 -0.11950265783E+00  0.13201101944E+00  0.20638214565E-01 0.  0.
         14    1    1    2    0    0  0.51033163785E-02 -0.23020693137E-01  0.24642550153E-02  0.23707988176E-01  0.00000000000E+00 0. -1.
     999901    1    3    3    0    0  0.91586226090E-02 -0.27145881595E-01  0.11703840282E+00  0.88821099238E+00  0.88000000000E+00 0.  1.
        -11    1    4    4    0    0  0.15889976932E-02  0.21335555905E-01 -0.31723635611E-01  0.38267231894E-01  0.51100000000E-03 0.  1.
         11    1    4    4    0    0 -0.15850936681E-01  0.28831018827E-01 -0.87779022222E-01  0.93743787547E-01  0.51100000000E-03 0. -1.
</event>
<event>
 8    1  0.1054833E+005  0.1043930E+01  0.7957747E-01            NaN
         13   -1    0    0    0    0  0.00000000000E+00  0.00000000000E+00  0.74505805969E-08  0.10566000000E+00  0.10566000000E+00 0.  1.
     999900   -1    0    0    0    0 -0.00000000000E+00 -0.00000000000E+00 -0.74505805969E-08  0.93827000000E+00  0.93827000000E+00 0.  1.
     999902    2    1    2    0    0  0.15323428769E-01  0.15113915443E-01 -0.67997279723E-02  0.10213584646E+01  0.10211090241E+01 0.  0.
     999903    2    3    3    0    0 -0.65405383369E-01 -0.69780952056E-01  0.84015664695E-01  0.12896185145E+00  0.20622360972E-01 0.  0.
         14    1    1    2    0    0 -0.15323428769E-01 -0.15113915443E-01  0.67997279723E-02  0.22571535387E-01  0.00000000000E+00 0. -1.
     999901    1    3    3    0    0  0.80728812138E-01  0.84894867499E-01 -0.90815392667E-01  0.89239661316E+00  0.88000000000E+00 0.  1.
        -11    1    4    4    0    0 -0.53919954474E-01 -0.65173251233E-01  0.66959939229E-01  0.10788331080E+00  0.51100000000E-03 0.  1.
         11    1    4    4    0    0 -0.11485428896E-01 -0.46077008227E-02  0.17055725465E-01  0.21078540650E-01  0.51100000000E-03 0. -1.
</event>
<event>
 8    1  0.1054833E+005  0.1043930E+01  0.7957747E-01            NaN
         13   -1    0    0    0    0  0.00000000000E+00  0.00000000000E+00  0.74505805969E-08  0.10566000000E+00  0.10566000000E+00 0.  1.
     999900   -1    0    0    0    0 -0.00000000000E+00 -0.00000000000E+00 -0.74505805969E-08  0.93827000000E+00  0.93827000000E+00 0. -1.
     999902    2    1    2    0    0  0.49911953086E-02 -0.22680765445E-01 -0.23426931582E-02  0.10205886769E+01  0.10203217287E+01 0.  0.
     999903    2    3    3    0    0 -0.30414336416E-01 -0.11274150047E+00 -0.61174466228E-01  0.13333129307E+00  0.19981006157E-01 0.  0.
         14    1    1    2    0    0 -0.49911953086E-02  0.22680765445E-01  0.23426931582E-02  0.23341323077E-01  0.00000000000E+00 0. -1.
     999901    1    3    3    0    0  0.35405531724E-01  0.90060735025E-01  0.58831773070E-01  0.88725738385E+00  0.88000000000E+00 0. -1.
        -11    1    4    4    0    0 -0.19531398601E-01 -0.93414551084E-01 -0.55617872430E-01  0.11045977883E+00  0.51100000000E-03 0.  1.
         11    1    4    4    0    0 -0.10882937814E-01 -0.19326949386E-01 -0.55565937983E-02  0.22871514241E-01  0.51100000000E-03 0. -1.
</event>
<event>
 8    1  0.1054833E+005  0.1043930E+01  0.7957747E-01            NaN
         13   -1    0    0    0    0  0.00000000000E+00  0.00000000000E+00  0.74505805969E-08  0.10566000000E+00  0.10566000000E+00 0. -1.
     999900   -1    0    0    0    0 -0.00000000000E+00 -0.00000000000E+00 -0.74505805969E-08  0.93827000000E+00  0.93827000000E+00 0.  1.
     999902    2    1    2    0    0  0.20586683781E-01 -0.98091362493E-02 -0.83972890205E-02  0.10196288649E+01  0.10193392355E+01 0.  0.
     999903    2    3    3    0    0 -0.10776568857E+00  0.65130792426E-02  0.64237750038E-01  0.12720710639E+00  0.19982381026E-01 0.  0.
         14    1    1    2    0    0 -0.20586683781E-01  0.98091362493E-02  0.83972890205E-02  0.24301135075E-01  0.00000000000E+00 0. -1.
     999901    1    3    3    0    0  0.12835237235E+00 -0.16322215492E-01 -0.72635039059E-01  0.89242175853E+00  0.88000000000E+00 0.  1.
        -11    1    4    4    0    0 -0.22840430620E-01 -0.44521580774E-02  0.20671221024E-01  0.31129848732E-01  0.51100000000E-03 0.  1.
         11    1    4    4    0    0 -0.84925257952E-01  0.10965237320E-01  0.43566529015E-01  0.96077257658E-01  0.51100000000E-03 0. -1.
</event>
<event>
 8    1  0.1054833E+005  0.1043930E+01  0.7957747E-01            NaN
         13   -1    0    0    0    0  0.00000000000E+00  0.00000000000E+00  0.74505805969E-08  0.10566000000E+00  0.10566000000E+00 0.  1.
     999900   -1    0    0    0    0 -0.00000000000E+00 -0.00000000000E+00 -0.74505805969E-08  0.93827000000E+00  0.93827000000E+00 0.  1.
     999902    2    1    2    0    0 -0.12713749383E-01  0.13240986670E-01  0.15224143162E-01  0.10200817781E+01  0.10198029694E+01 0.  0.
     999903    2    3    3    0    0 -0.13216758803E-01  0.12982189747E+00  0.51384798393E-02  0.13233570949E+00  0.21399258295E-01 0.  0.
         14    1    1    2    0    0  0.12713749383E-01 -0.13240986670E-01 -0.15224143162E-01  0.23848221871E-01  0.00000000000E+00 0. -1.
     999901    1    3    3    0    0  0.50300942032E-03 -0.11658091080E+00  0.10085663323E-01  0.88774606864E+00  0.88000000000E+00 0.  1.
        -11    1    4    4    0    0 -0.52133053464E-02  0.10377227105E+00 -0.28159033051E-02  0.10394254771E+00  0.51100000000E-03 0.  1.
         11    1    4    4    0    0 -0.80034534570E-02  0.26049626415E-01  0.79543831444E-02  0.28393161779E-01  0.51100000000E-03 0. -1.
</event>
<event>
 8    1  0.1054833E+005  0.1043930E+01  0.7957747E-01            NaN
         13   -1    0    0    0    0  0.00000000000E+00  0.00000000000E+00  0.74505805969E-08  0.10566000000E+00  0.10566000000E+00 0. -1.
     999900   -1    0    0    0    0 -0.00000000000E+00 -0.00000000000E+00 -0.74505805969E-08  0.93827000000E+00  0.93827000000E+00 0. -1.
     999902    2    1    2    0    0 -0.67787659934E-02  0.18467753941E-01  0.13233958746E-01  0.10202203550E+01  0.10199448149E+01 0.  0.
     999903    2    3    3    0    0  0.40374507014E-01 -0.56649527742E-01 -0.10541465649E+00  0.12783953319E+00  0.19784504875E-01 0.  0.
         14    1    1    2    0    0  0.67787659934E-02 -0.18467753941E-01 -0.13233958746E-01  0.23709645044E-01  0.00000000000E+00 0. -1.
     999901    1    3    3    0    0 -0.47153273007E-01  0.75117281682E-01  0.11864861523E+00  0.89238082177E+00  0.88000000000E+00 0.  1.
        -11    1    4    4    0    0  0.33184309897E-01 -0.34589282758E-01 -0.59631509389E-01  0.76510096968E-01  0.51100000000E-03 0. -1.
         11    1    4    4    0    0  0.71901971171E-02 -0.22060244984E-01 -0.45783147100E-01  0.51329436220E-01  0.51100000000E-03 0.  1.
</event>
<event>
 8    1  0.1054833E+005  0.1043930E+01  0.7957747E-01            NaN
         13   -1    0    0    0    0  0.00000000000E+00  0.00000000000E+00  0.74505805969E-08  0.10566000000E+00  0.10566000000E+00 0.  1.
     999900   -1    0    0    0    0 -0.00000000000E+00 -0.00000000000E+00 -0.74505805969E-08  0.93827000000E+00  0.93827000000E+00 0. -1.
     999902    2    1    2    0    0 -0.13500907443E-01  0.13279133699E-01 -0.11970205985E-01  0.10215269706E+01  0.10212812815E+01 0.  0.
     999903    2    3    3    0    0  0.75534423545E-01  0.10340337773E+00  0.22368438736E-01  0.13179172234E+00  0.21702611840E-01 0.  0.
         14    1    1    2    0    0  0.13500907443E-01 -0.13279133699E-01  0.11970205985E-01  0.22403029369E-01  0.00000000000E+00 0. -1.
     999901    1    3    3    0    0 -0.89035330988E-01 -0.90124244029E-01 -0.34338644721E-01  0.88973524829E+00  0.88000000000E+00 0. -1.
        -11    1    4    4    0    0  0.65725399047E-01  0.77585733868E-01  0.12456038744E-01  0.10244407353E+00  0.51100000000E-03 0.  1.
         11    1    4    4    0    0  0.98090244980E-02  0.25817643860E-01  0.99123999915E-02  0.29347648810E-01  0.51100000000E-03 0. -1.
</event>
<event>
 8    1  0.1054833E+005  0.1043930E+01  0.7957747E-01            NaN
         13   -1    0    0    0    0  0.00000000000E+00  0.00000000000E+00  0.74505805969E-08  0.10566000000E+00  0.10566000000E+00 0. -1.
     999900   -1    0    0    0    0 -0.00000000000E+00 -0.00000000000E+00 -0.74505805969E-08  0.93827000000E+00  0.93827000000E+00 0.  1.
     999902    2    1    2    0    0  0.55788912945E-02  0.98127035423E-02 -0.21539082976E-01  0.10196124081E+01  0.10193223816E+01 0.  0.
     999903    2    3    3    0    0  0.46078250774E-01  0.95919861503E-01 -0.76885701344E-01  0.13275397020E+00  0.19707371884E-01 0.  0.
         14    1    1    2    0    0 -0.55788912945E-02 -0.98127035423E-02  0.21539082976E-01  0.24317591869E-01  0.00000000000E+00 0. -1.
     999901    1    3    3    0    0 -0.40499359480E-01 -0.86107157961E-01  0.55346618368E-01  0.88685843793E+00  0.88000000000E+00 0. -1.
        -11    1    4    4    0    0  0.14091568115E-01  0.49251168814E-01 -0.42330543498E-01  0.66455894813E-01  0.51100000000E-03 0. -1.
         11    1    4    4    0    0  0.31986682660E-01  0.46668692689E-01 -0.34555157845E-01  0.66298075384E-01  0.51100000000E-03 0.  1.
</event>
<event>
 8    1  0.1054833E+005  0.1043930E+01  0.7957747E-01            NaN
         13   -1    0    0    0    0  0.00000000000E+00  0.00000000000E+00  0.74505805969E-08  0.10566000000E+00  0.10566000000E+00 0. -1.
     999900   -1    0    0    0    0 -0.00000000000E+00 -0.00000000000E+00 -0.74505805969E-08  0.93827000000E+00  0.93827000000E+00 0. -1.
     999902    2    1    2    0    0  0.11694370584E-01 -0.16172377468E-03  0.21725154293E-01  0.10192568002E+01  0.10189581238E+01 0.  0.
     999903    2    3    3    0    0  0.12718426535E+00  0.24956121989E-01  0.10730810997E-03  0.13109231476E+00  0.19660572147E-01 0.  0.
         14    1    1    2    0    0 -0.11694370584E-01  0.16172377468E-03 -0.21725154293E-01  0.24673199772E-01  0.00000000000E+00 0.  1.
     999901    1    3    3    0    0 -0.11548989477E+00 -0.25117845763E-01  0.21617846183E-01  0.88816448547E+00  0.88000000000E+00 0.  1.
        -11    1    4    4    0    0  0.10106944748E+00  0.21821679666E-01 -0.76022012965E-02  0.10367870322E+00  0.51100000000E-03 0. -1.
         11    1    4    4    0    0  0.26114817875E-01  0.31344423231E-02  0.77095094064E-02  0.27413611539E-01  0.51100000000E-03 0.  1.
</event>
<event>
 8    1  0.1054833E+005  0.1043930E+01  0.7957747E-01            NaN
         13   -1    0    0    0    0  0.00000000000E+00  0.00000000000E+00  0.74505805969E-08  0.10566000000E+00  0.10566000000E+00 0.  1.
     999900   -1    0    0    0    0 -0.00000000000E+00 -0.00000000000E+00 -0.74505805969E-08  0.93827000000E+00  0.93827000000E+00 0.  1.
     999902    2    1    2    0    0 -0.20098997213E-01 -0.93832521286E-02 -0.86314604535E-02  0.10201283778E+01  0.10198506704E+01 0.  0.
     999903    2    3    3    0    0  0.10666316889E+00 -0.68001445013E-01  0.13789172899E-01  0.12883301481E+00  0.20163737156E-01 0.  0.
         14    1    1    2    0    0  0.20098997213E-01  0.93832521286E-02  0.86314604535E-02  0.23801622193E-01  0.00000000000E+00 0.  1.
     999901    1    3    3    0    0 -0.12676216610E+00  0.58618192884E-01 -0.22420633352E-01  0.89129536299E+00  0.88000000000E+00 0.  1.
        -11    1    4    4    0    0  0.66680808285E-01 -0.49494606585E-01  0.13696066250E-02  0.83055302166E-01  0.51100000000E-03 0.  1.
         11    1    4    4    0    0  0.39982360602E-01 -0.18506838427E-01  0.12419566274E-01  0.45777712648E-01  0.51100000000E-03 0. -1.
</event>
<event>
 8    1  0.1054833E+005  0.1043930E+01  0.7957747E-01            NaN
         13   -1    0    0    0    0  0.00000000000E+00  0.00000000000E+00  0.74505805969E-08  0.10566000000E+00  0.10566000000E+00 0. -1.
     999900   -1    0    0    0    0 -0.00000000000E+00 -0.00000000000E+00 -0.74505805969E-08  0.93827000000E+00  0.93827000000E+00 0.  1.
     999902    2    1    2    0    0 -0.15013346933E-01 -0.41504637430E-02 -0.18868233023E-01  0.10194629374E+01  0.10191692909E+01 0.  0.
     999903    2    3    3    0    0  0.53029575893E-01 -0.11349450920E+00  0.17291408727E-01  0.12935424778E+00  0.27210091247E-01 0.  0.
         14    1    1    2    0    0  0.15013346933E-01  0.41504637430E-02  0.18868233023E-01  0.24467062611E-01  0.00000000000E+00 0. -1.
     999901    1    3    3    0    0 -0.68042922825E-01  0.10934404546E+00 -0.36159641750E-01  0.89010868961E+00  0.88000000000E+00 0.  1.
        -11    1    4    4    0    0  0.49380234460E-01 -0.80616731557E-01  0.18119329745E-01  0.96260252408E-01  0.51100000000E-03 0. -1.
         11    1    4    4    0    0  0.36493414328E-02 -0.32877777642E-01 -0.82792101752E-03  0.33093995373E-01  0.51100000000E-03 0.  1.
</event>
<event>
 8    1  0.1054833E+005  0.1043930E+01  0.7957747E-01            NaN
         13   -1    0    0    0    0  0.00000000000E+00  0.00000000000E+00  0.74505805969E-08  0.10566000000E+00  0.10566000000E+00 0. -1.
     999900   -1    0    0    0    0 -0.00000000000E+00 -0.00000000000E+00 -0.74505805969E-08  0.93827000000E+00  0.93827000000E+00 0. -1.
     999902    2    1    2    0    0 -0.10321886602E-01  0.21745465399E-01 -0.44546893589E-02  0.10194503990E+01  0.10191564478E+01 0.  0.
     999903    2    3    3    0    0  0.61445801547E-01  0.11465544175E+00  0.58762552278E-02  0.13159365762E+00  0.18997460390E-01 0.  0.
         14    1    1    2    0    0  0.10321886602E-01 -0.21745465399E-01  0.44546893589E-02  0.24479601012E-01  0.00000000000E+00 0.  1.
     999901    1    3    3    0    0 -0.71767688149E-01 -0.92909976350E-01 -0.10330944587E-01  0.88785674136E+00  0.88000000000E+00 0.  1.
        -11    1    4    4    0    0  0.11957031452E-01  0.33219803671E-01 -0.50695972667E-02  0.35671948286E-01  0.51100000000E-03 0.  1.
         11    1    4    4    0    0  0.49488770095E-01  0.81435638077E-01  0.10945852494E-01  0.95921709338E-01  0.51100000000E-03 0. -1.
</event>
<event>
 8    1  0.1054833E+005  0.1043930E+01  0.7957747E-01            NaN
         13   -1    0    0    0    0  0.00000000000E+00  0.00000000000E+00  0.74505805969E-08  0.10566000000E+00  0.10566000000E+00 0.  1.
     999900   -1    0    0    0    0 -0.00000000000E+00 -0.00000000000E+00 -0.74505805969E-08  0.93827000000E+00  0.93827000000E+00 0. -1.
     999902    2    1    2    0    0  0.19095317117E-01  0.38763643064E-02  0.15414817245E-01  0.10190850020E+01  0.10187821000E+01 0.  0.
     999903    2    3    3    0    0 -0.51532927502E-01  0.10786954069E+00  0.46202895452E-01  0.12961840034E+00  0.19358247173E-01 0.  0.
         14    1    1    2    0    0 -0.19095317117E-01 -0.38763643064E-02 -0.15414817245E-01  0.24844998022E-01  0.00000000000E+00 0. -1.
     999901    1    3    3    0    0  0.70628244620E-01 -0.10399317638E+00 -0.30788078208E-01  0.88946660164E+00  0.88000000000E+00 0. -1.
        -11    1    4    4    0    0 -0.19552519736E-01  0.30552443392E-01  0.59273265702E-02  0.36757953514E-01  0.51100000000E-03 0. -1.
         11    1    4    4    0    0 -0.31980407766E-01  0.77317097293E-01  0.40275568882E-01  0.92860446825E-01  0.51100000000E-03 0.  1.
</event>
<event>
 8    1  0.1054833E+005  0.1043930E+01  0.7957747E-01            NaN
         13   -1    0    0    0    0  0.00000000000E+00  0.00000000000E+00  0.74505805969E-08  0.10566000000E+00  0.10566000000E+00 0. -1.
     999900   -1    0    0    0    0 -0.00000000000E+00 -0.00000000000E+00 -0.74505805969E-08  0.93827000000E+00  0.93827000000E+00 0. -1.
     999902    2    1    2    0    0  0.84014597638E-02 -0.21274026503E-01 -0.58253384181E-02  0.10203269642E+01  0.10200539254E+01 0.  0.
     999903    2    3    3    0    0  0.79198516995E-01 -0.88104336046E-01  0.56193267157E-01  0.13278833351E+00  0.20982829125E-01 0.  0.
         14    1    1    2    0    0 -0.84014597638E-02  0.21274026503E-01  0.58253384181E-02  0.23603035769E-01  0.00000000000E+00 0. -1.
     999901    1    3    3    0    0 -0.70797057232E-01  0.66830309543E-01 -0.62018605575E-01  0.88753863072E+00  0.88000000000E+00 0. -1.
        -11    1    4    4    0    0  0.27687573026E-01 -0.46266077970E-01  0.26633291410E-01  0.60139379804E-01  0.51100000000E-03 0. -1.
         11    1    4    4    0    0  0.51510943969E-01 -0.41838258076E-01  0.29559975746E-01  0.72648953706E-01  0.51100000000E-03 0.  1.
</event>
<event>
 7    1  0.1054833E+005  0.1043930E+01  0.7957747E-01            NaN
         13   -1    0    0    0    0  0.00000000000E+00  0.00000000000E+00  0.74505805969E-08  0.10566000000E+00  0.10566000000E+00 0.  1.
     999900   -1    0    0    0    0 -0.00000000000E+00 -0.00000000000E+00 -0.74505805969E-08  0.93827000000E+00  0.93827000000E+00 0. -1.
     999903    2    1    2    0    0  0.33007347263E-01  0.90482640806E-01  0.50248843533E-01  0.11053006938E+00  0.20380301779E-01 0.  0.
         14    1    1    2    0    0 -0.40644121322E-01 -0.28468035891E-01  0.17520781780E-02  0.49653231954E-01  0.00000000000E+00 0. -1.
     999901    1    1    2    0    0  0.76367740595E-02 -0.62014604915E-01 -0.52000921711E-01  0.88374669866E+00  0.88000000000E+00 0.  1.
        -11    1    3    3    0    0  0.88594457521E-02  0.20388712788E-01  0.25717395686E-02  0.22384466793E-01  0.51100000000E-03 0. -1.
         11    1    3    3    0    0  0.24147901510E-01  0.70093928018E-01  0.47677103964E-01  0.88145602589E-01  0.51100000000E-03 0.  1.
</event>
<event>
 8    1  0.1054833E+005  0.1043930E+01  0.7957747E-01            NaN
         13   -1    0    0    0    0  0.00000000000E+00  0.00000000000E+00  0.74505805969E-08  0.10566000000E+00  0.10566000000E+00 0. -1.
     999900   -1    0    0    0    0 -0.00000000000E+00 -0.00000000000E+00 -0.74505805969E-08  0.93827000000E+00  0.93827000000E+00 0.  1.
     999902    2    1    2    0    0  0.82966928483E-02 -0.21445845925E-01 -0.90434676626E-02  0.10192208169E+01  0.10189212580E+01 0.  0.
     999903    2    3    3    0    0  0.44032522944E-01 -0.51678506804E-01  0.10927353949E+00  0.13006954888E+00  0.19179415278E-01 0.  0.
         14    1    1    2    0    0 -0.82966928483E-02  0.21445845925E-01  0.90434676626E-02  0.24709183051E-01  0.00000000000E+00 0. -1.
     999901    1    3    3    0    0 -0.35735830096E-01  0.30232660879E-01 -0.11831700715E+00  0.88915126807E+00  0.88000000000E+00 0.  1.
        -11    1    4    4    0    0  0.39605770327E-01 -0.34108422675E-01  0.84769934270E-01  0.99590182336E-01  0.51100000000E-03 0.  1.
         11    1    4    4    0    0  0.44267526169E-02 -0.17570084129E-01  0.24503605217E-01  0.30479366539E-01  0.51100000000E-03 0. -1.
</event>
<event>
 8    1  0.1054833E+005  0.1043930E+01  0.7957747E-01            NaN
         13   -1    0    0    0    0  0.00000000000E+00  0.00000000000E+00  0.74505805969E-08  0.10566000000E+00  0.10566000000E+00 0.  1.
     999900   -1    0    0    0    0 -0.00000000000E+00 -0.00000000000E+00 -0.74505805969E-08  0.93827000000E+00  0.93827000000E+00 0. -1.
     999902    2    1    2    0    0  0.13353569523E-01 -0.48772838967E-02 -0.18728167090E-01  0.10204172384E+01  0.10201463083E+01 0.  0.
     999903    2    3    3    0    0 -0.39613740185E-02 -0.14690958691E-01 -0.13074922269E+00  0.13309270226E+00  0.19667013216E-01 0.  0.
         14    1    1    2    0    0 -0.13353569523E-01  0.48772838967E-02  0.18728167090E-01  0.23512761636E-01  0.00000000000E+00 0.  1.
     999901    1    3    3    0    0  0.17314943541E-01  0.98136747944E-02  0.11202105560E+00  0.88732453611E+00  0.88000000000E+00 0.  1.
        -11    1    4    4    0    0 -0.11381819133E-01 -0.10479400133E-01 -0.99440706071E-01  0.10063835640E+00  0.51100000000E-03 0. -1.
         11    1    4    4    0    0  0.74204451146E-02 -0.42115585583E-02 -0.31308516616E-01  0.32454345856E-01  0.51100000000E-03 0.  1.
</event>
<event>
 8    1  0.1054833E+005  0.1043930E+01  0.7957747E-01            NaN
         13   -1    0    0    0    0  0.00000000000E+00  0.00000000000E+00  0.74505805969E-08  0.10566000000E+00  0.10566000000E+00 0. -1.
     999900   -1    0    0    0    0 -0.00000000000E+00 -0.00000000000E+00 -0.74505805969E-08  0.93827000000E+00  0.93827000000E+00 0.  1.
     999902    2    1    2    0    0 -0.23853540317E-01 -0.29903075118E-02 -0.14862582767E-02  0.10198438569E+01  0.10195593902E+01 0.  0.
     999903    2    3    3    0    0 -0.50729588886E-01 -0.35345296487E-01  0.11411237795E+00  0.13128760547E+00  0.19799479173E-01 0.  0.
         14    1    1    2    0    0  0.23853540317E-01  0.29903075118E-02  0.14862582767E-02  0.24086143077E-01  0.00000000000E+00 0. -1.
     999901    1    3    3    0    0  0.26876048570E-01  0.32354988975E-01 -0.11559863623E+00  0.88855625145E+00  0.88000000000E+00 0.  1.
        -11    1    4    4    0    0 -0.18804807828E-01 -0.10927563436E-01  0.22770266572E-01  0.31492516585E-01  0.51100000000E-03 0.  1.
         11    1    4    4    0    0 -0.31924781059E-01 -0.24417733051E-01  0.91342111381E-01  0.99795088885E-01  0.51100000000E-03 0. -1.
</event>
<event>
 8    1  0.1054833E+005  0.1043930E+01  0.7957747E-01            NaN
         13   -1    0    0    0    0  0.00000000000E+00  0.00000000000E+00  0.74505805969E-08  0.10566000000E+00  0.10566000000E+00 0.  1.
     999900   -1    0    0    0    0 -0.00000000000E+00 -0.00000000000E+00 -0.74505805969E-08  0.93827000000E+00  0.93827000000E+00 0.  1.
     999902    2    1    2    0    0  0.14713797413E-01  0.13452787596E-01 -0.12004006774E-01  0.10206583540E+01  0.10203930155E+01 0.  0.
     999903    2    3    3    0    0  0.11483129471E+00  0.63577099988E-01 -0.14883977081E-01  0.13355956910E+00  0.19706644475E-01 0.  0.
         14    1    1    2    0    0 -0.14713797413E-01 -0.13452787596E-01  0.12004006774E-01  0.23271645989E-01  0.00000000000E+00 0.  1.
     999901    1    3    3    0    0 -0.10011749730E+00 -0.50124312393E-01  0.28799703069E-02  0.88709878491E+00  0.88000000000E+00 0. -1.
        -11    1    4    4    0    0  0.74100808912E-01  0.32211128832E-01 -0.14821822664E-01  0.82148854223E-01  0.51100000000E-03 0. -1.
         11    1    4    4    0    0  0.40730485801E-01  0.31365971156E-01 -0.62154416809E-04  0.51410714879E-01  0.51100000000E-03 0.  1.
</event>
<event>
 8    1  0.1054833E+005  0.1043930E+01  0.7957747E-01            NaN
         13   -1    0    0    0    0  0.00000000000E+00  0.00000000000E+00  0.74505805969E-08  0.10566000000E+00  0.10566000000E+00 0.  1.
     999900   -1    0    0    0    0 -0.00000000000E+00 -0.00000000000E+00 -0.74505805969E-08  0.93827000000E+00  0.93827000000E+00 0. -1.
     999902    2    1    2    0    0  0.12781655271E-01 -0.65539270404E-04  0.19372748151E-01  0.10207205541E+01  0.10204566484E+01 0.  0.
     999903    2    3    3    0    0 -0.28803204076E-01  0.68913413629E-01 -0.10217653233E+00  0.12872188593E+00  0.23464803788E-01 0.  0.
         14    1    1    2    0    0 -0.12781655271E-01  0.65539270404E-04 -0.19372748151E-01  0.23209445874E-01  0.00000000000E+00 0. -1.
     999901    1    3    3    0    0  0.41584859347E-01 -0.68978952899E-01  0.12154928048E+00  0.89199866819E+00  0.88000000000E+00 0.  1.
        -11    1    4    4    0    0 -0.15673898064E-01  0.52151118471E-01 -0.86738547802E-01  0.10241702512E+00  0.51100000000E-03 0. -1.
         11    1    4    4    0    0 -0.13129306012E-01  0.16762295158E-01 -0.15437984527E-01  0.26304860816E-01  0.51100000000E-03 0.  1.
</event>
<event>
 8    1  0.1054833E+005  0.1043930E+01  0.7957747E-01            NaN
         13   -1    0    0    0    0  0.00000000000E+00  0.00000000000E+00  0.74505805969E-08  0.10566000000E+00  0.10566000000E+00 0. -1.
     999900   -1    0    0    0    0 -0.00000000000E+00 -0.00000000000E+00 -0.74505805969E-08  0.93827000000E+00  0.93827000000E+00 0.  1.
     999902    2    1    2    0    0 -0.37230470592E-02 -0.38896549683E-02 -0.22087440803E-01  0.10211957629E+01  0.10209426726E+01 0.  0.
     999903    2    3    3    0    0  0.40157941934E-01 -0.12026678095E+00 -0.21594413889E-01  0.13244978135E+00  0.31620673136E-01 0.  0.
         14    1    1    2    0    0  0.37230470592E-02  0.38896549683E-02  0.22087440803E-01  0.22734237097E-01  0.00000000000E+00 0. -1.
     999901    1    3    3    0    0 -0.43880988993E-01  0.11637712598E+00 -0.49302691434E-03  0.88874598155E+00  0.88000000000E+00 0. -1.
        -11    1    4    4    0    0  0.28326563818E-01 -0.44593258065E-01  0.13684393994E-03  0.52832118354E-01  0.51100000000E-03 0. -1.
         11    1    4    4    0    0  0.11831378116E-01 -0.75673522882E-01 -0.21731257828E-01  0.79617662998E-01  0.51100000000E-03 0.  1.
</event>
<event>
 8    1  0.1054833E+005  0.1043930E+01  0.7957747E-01            NaN
         13   -1    0    0    0    0  0.00000000000E+00  0.00000000000E+00  0.74505805969E-08  0.10566000000E+00  0.10566000000E+00 0.  1.
     999900   -1    0    0    0    0 -0.00000000000E+00 -0.00000000000E+00 -0.74505805969E-08  0.93827000000E+00  0.93827000000E+00 0.  1.
     999902    2    1    2    0    0 -0.12049001226E-02 -0.23084527665E-01 -0.55259288906E-02  0.10201627307E+01  0.10198858338E+01 0.  0.
     999903    2    3    3    0    0  0.49923065093E-01  0.91981256547E-01 -0.73116596004E-01  0.12863443509E+00  0.15745389637E-01 0.  0.
         14    1    1    2    0    0  0.12049001226E-02  0.23084527665E-01  0.55259288906E-02  0.23767269341E-01  0.00000000000E+00 0. -1.
     999901    1    3    3    0    0 -0.51127965216E-01 -0.11506578421E+00  0.67590667114E-01  0.89152829557E+00  0.88000000000E+00 0. -1.
        -11    1    4    4    0    0  0.17838222122E-01  0.31652883330E-01 -0.34700524374E-01  0.50244349975E-01  0.51100000000E-03 0.  1.
         11    1    4    4    0    0  0.32084842971E-01  0.60328373217E-01 -0.38416071630E-01  0.78390085113E-01  0.51100000000E-03 0. -1.
</event>
<event>
 8    1  0.1054833E+005  0.1043930E+01  0.7957747E-01            NaN
         13   -1    0    0    0    0  0.00000000000E+00  0.00000000000E+00  0.74505805969E-08  0.10566000000E+00  0.10566000000E+00 0. -1.
     999900   -1    0    0    0    0 -0.00000000000E+00 -0.00000000000E+00 -0.74505805969E-08  0.93827000000E+00  0.93827000000E+00 0.  1.
     999902    2    1    2    0    0 -0.14187287649E-01 -0.72571249367E-02  0.17251897404E-01  0.10204444096E+01  0.10201741126E+01 0.  0.
     999903    2    3    3    0    0  0.47792545375E-01  0.45835774978E-01 -0.10757089265E+00  0.12789688444E+00  0.20026743175E-01 0.  0.
         14    1    1    2    0    0  0.14187287649E-01  0.72571249367E-02 -0.17251897404E-01  0.23485590417E-01  0.00000000000E+00 0.  1.
     999901    1    3    3    0    0 -0.61979833024E-01 -0.53092899915E-01  0.12482279006E+00  0.89254752514E+00  0.88000000000E+00 0. -1.
        -11    1    4    4    0    0  0.33555683473E-01  0.23541603449E-01 -0.78703289554E-01  0.88739280445E-01  0.51100000000E-03 0.  1.
         11    1    4    4    0    0  0.14236861901E-01  0.22294171529E-01 -0.28867603098E-01  0.39157603994E-01  0.51100000000E-03 0. -1.
</event>
<event>
 8    1  0.1054833E+005  0.1043930E+01  0.7957747E-01            NaN
         13   -1    0    0    0    0  0.00000000000E+00  0.00000000000E+00  0.74505805969E-08  0.10566000000E+00  0.10566000000E+00 0.  1.
     999900   -1    0    0    0    0 -0.00000000000E+00 -0.00000000000E+00 -0.74505805969E-08  0.93827000000E+00  0.93827000000E+00 0. -1.
     999902    2    1    2    0    0 -0.10051618833E-01  0.39155958455E-02 -0.19996523593E-01  0.10212093511E+01  0.10209565666E+01 0.  0.
     999903    2    3    3    0    0  0.12346345225E+00 -0.38902663540E-02  0.32472474150E-01  0.12955908251E+00  0.21742494583E-01 0.  0.
         14    1    1    2    0    0  0.10051618833E-01 -0.39155958455E-02  0.19996523593E-01  0.22720648930E-01  0.00000000000E+00 0.  1.
     999901    1    3    3    0    0 -0.13351507108E+00  0.78058621995E-02 -0.52468997743E-01  0.89165026856E+00  0.88000000000E+00 0. -1.
        -11    1    4    4    0    0  0.10886942005E+00 -0.13693272517E-02  0.21161412252E-01  0.11091660006E+00  0.51100000000E-03 0.  1.
         11    1    4    4    0    0  0.14594032198E-01 -0.25209391023E-02  0.11311061898E-01  0.18642482453E-01  0.51100000000E-03 0. -1.
</event>
<event>
 8    1  0.1054833E+005  0.1043930E+01  0.7957747E-01            NaN
         13   -1    0    0    0    0  0.00000000000E+00  0.00000000000E+00  0.74505805969E-08  0.10566000000E+00  0.10566000000E+00 0.  1.
     999900   -1    0    0    0    0 -0.00000000000E+00 -0.00000000000E+00 -0.74505805969E-08  0.93827000000E+00  0.93827000000E+00 0.  1.
     999902    2    1    2    0    0  0.24871002180E-02 -0.13385258401E-01 -0.19225454898E-01  0.10203722215E+01  0.10201002409E+01 0.  0.
     999903    2    3    3    0    0 -0.85249495357E-01 -0.71818265900E-01 -0.69316754455E-01  0.13266660318E+00  0.19242540808E-01 0.  0.
         14    1    1    2    0    0 -0.24871002180E-02  0.13385258401E-01  0.19225454898E-01  0.23557778460E-01  0.00000000000E+00 0.  1.
     999901    1    3    3    0    0  0.87736595575E-01  0.58433007498E-01  0.50091299557E-01  0.88770561836E+00  0.88000000000E+00 0. -1.
        -11    1    4    4    0    0 -0.38591061581E-01 -0.44871000217E-01 -0.34339354191E-01  0.68426084659E-01  0.51100000000E-03 0.  1.
         11    1    4    4    0    0 -0.46658433776E-01 -0.26947265683E-01 -0.34977400264E-01  0.64240518525E-01  0.51100000000E-03 0. -1.
</event>
<event>
 8    1  0.1054833E+005  0.1043930E+01  0.7957747E-01            NaN
         13   -1    0    0    0    0  0.00000000000E+00  0.00000000000E+00  0.74505805969E-08  0.10566000000E+00  0.10566000000E+00 0.  1.
     999900   -1    0    0    0    0 -0.00000000000E+00 -0.00000000000E+00 -0.74505805969E-08  0.93827000000E+00  0.93827000000E+00 0.  1.
     999902    2    1    2    0    0 -0.12874760733E-01  0.19979226878E-01  0.18287298982E-02  0.10200915180E+01  0.10198129397E+01 0.  0.
     999903    2    3    3    0    0 -0.80040589646E-02  0.12415429324E+00  0.43448922008E-01  0.13295657417E+00  0.17643364224E-01 0.  0.
         14    1    1    2    0    0  0.12874760733E-01 -0.19979226878E-01 -0.18287298982E-02  0.23838481990E-01  0.00000000000E+00 0.  1.
     999901    1    3    3    0    0 -0.48707017680E-02 -0.10417506637E+00 -0.41620192110E-01  0.88713494384E+00  0.88000000000E+00 0.  1.
        -11    1    4    4    0    0 -0.11098176185E-02  0.67491884846E-01  0.32143141827E-01  0.74765158348E-01  0.51100000000E-03 0.  1.
         11    1    4    4    0    0 -0.68942413461E-02  0.56662408397E-01  0.11305780181E-01  0.58191415824E-01  0.51100000000E-03 0. -1.
</event>
<event>
 8    1  0.1054833E+005  0.1043930E+01  0.7957747E-01            NaN
         13   -1    0    0    0    0  0.00000000000E+00  0.00000000000E+00  0.74505805969E-08  0.10566000000E+00  0.10566000000E+00 0.  1.
     999900   -1    0    0    0    0 -0.00000000000E+00 -0.00000000000E+00 -0.74505805969E-08  0.93827000000E+00  0.93827000000E+00 0.  1.
     999902    2    1    2    0    0  0.52458733013E-02 -0.31019120639E-02  0.22349452569E-01  0.10207645284E+01  0.10205016332E+01 0.  0.
     999903    2    3    3    0    0 -0.46824236110E-01  0.42889414409E-01 -0.10981854608E+00  0.12818686886E+00  0.18432290409E-01 0.  0.
         14    1    1    2    0    0 -0.52458733013E-02  0.31019120639E-02 -0.22349452569E-01  0.23165471618E-01  0.00000000000E+00 0. -1.
     999901    1    3    3    0    0  0.52070109412E-01 -0.45991326473E-01  0.13216799865E+00  0.89257765952E+00  0.88000000000E+00 0. -1.
        -11    1    4    4    0    0 -0.35702872654E-01  0.30868465581E-01 -0.63967095856E-01  0.79495960629E-01  0.51100000000E-03 0. -1.
         11    1    4    4    0    0 -0.11121363457E-01  0.12020948828E-01 -0.45851450226E-01  0.48690908235E-01  0.51100000000E-03 0.  1.
</event>
<event>
 8    1  0.1054833E+005  0.1043930E+01  0.7957747E-01            NaN
         13   -1    0    0    0    0  0.00000000000E+00  0.00000000000E+00  0.74505805969E-08  0.10566000000E+00  0.10566000000E+00 0.  1.
     999900   -1    0    0    0    0 -0.00000000000E+00 -0.00000000000E+00 -0.74505805969E-08  0.93827000000E+00  0.93827000000E+00 0.  1.
     999902    2    1    2    0    0 -0.23263655679E-01 -0.34208620619E-02 -0.38254001072E-02  0.10201070351E+01  0.10198288235E+01 0.  0.
     999903    2    3    3    0    0 -0.51422973179E-01 -0.87421337673E-01 -0.82461914867E-01  0.13216969013E+00  0.19546026031E-01 0.  0.
         14    1    1    2    0    0  0.23263655679E-01  0.34208620619E-02  0.38254001072E-02  0.23822964945E-01  0.00000000000E+00 0.  1.
     999901    1    3    3    0    0  0.28159317501E-01  0.84000475611E-01  0.78636514760E-01  0.88793734493E+00  0.88000000000E+00 0. -1.
        -11    1    4    4    0    0 -0.30324426726E-01 -0.67474028342E-01 -0.63449302416E-01  0.97459686307E-01  0.51100000000E-03 0.  1.
         11    1    4    4    0    0 -0.21098546453E-01 -0.19947309331E-01 -0.19012612451E-01  0.34710003820E-01  0.51100000000E-03 0. -1.
</event>
<event>
 8    1  0.1054833E+005  0.1043930E+01  0.7957747E-01            NaN
         13   -1    0    0    0    0  0.00000000000E+00  0.00000000000E+00  0.74505805969E-08  0.10566000000E+00  0.10566000000E+00 0.  1.
     999900   -1    0    0    0    0 -0.00000000000E+00 -0.00000000000E+00 -0.74505805969E-08  0.93827000000E+00  0.93827000000E+00 0.  1.
     999902    2    1    2    0    0 -0.13043578782E-01  0.17052184761E-01 -0.62363337435E-02  0.10215737076E+01  0.10213290538E+01 0.  0.
     999903    2    3    3    0    0  0.37943245092E-01 -0.43020516673E-01 -0.11576321277E+00  0.13129031286E+00  0.23357442469E-01 0.  0.
         14    1    1    2    0    0  0.13043578782E-01 -0.17052184761E-01  0.62363337435E-02  0.22356292428E-01  0.00000000000E+00 0. -1.
     999901    1    3    3    0    0 -0.50986823874E-01  0.60072701434E-01  0.10952687902E+00  0.89028339471E+00  0.88000000000E+00 0. -1.
        -11    1    4    4    0    0  0.11696589504E-01 -0.79255807461E-02 -0.52210670719E-01  0.54091037096E-01  0.51100000000E-03 0.  1.
         11    1    4    4    0    0  0.26246655587E-01 -0.35094935927E-01 -0.63552542048E-01  0.77199275767E-01  0.51100000000E-03 0. -1.
</event>
<event>
 7    1  0.1054833E+005  0.1043930E+01  0.7957747E-01            NaN
         13   -1    0    0    0    0  0.00000000000E+00  0.00000000000E+00  0.74505805969E-08  0.10566000000E+00  0.10566000000E+00 0.  1.
     999900   -1    0    0    0    0 -0.00000000000E+00 -0.00000000000E+00 -0.74505805969E-08  0.93827000000E+00  0.93827000000E+00 0. -1.
     999902    2    1    2    0    0 -0.14904341531E-01 -0.10437646048E-01 -0.17045929072E-01  0.10189971392E+01  0.10186920644E+01 0.  0.
         14    1    1    2    0    0  0.14904341531E-01  0.10437646048E-01  0.17045929072E-01  0.24932860835E-01  0.00000000000E+00 0.  1.
     999901    1    3    3    0    0  0.16811111031E-02 -0.35686540111E-01  0.80473082719E-01  0.88439373150E+00  0.88000000000E+00 0.  1.
        -11    1    3    3    0    0 -0.12243513974E-01  0.57315581643E-01 -0.49611653040E-01  0.76789040701E-01  0.51100000000E-03 0. -1.
         11    1    3    3    0    0 -0.43419386605E-02 -0.32066687579E-01 -0.47907358751E-01  0.57814366961E-01  0.51100000000E-03 0.  1.
</event>
<event>
 8    1  0.1054833E+005  0.1043930E+01  0.7957747E-01            NaN
         13   -1    0    0    0    0  0.00000000000E+00  0.00000000000E+00  0.74505805969E-08  0.10566000000E+00  0.10566000000E+00 0.  1.
     999900   -1    0    0    0    0 -0.00000000000E+00 -0.00000000000E+00 -0.74505805969E-08  0.93827000000E+00  0.93827000000E+00 0.  1.
     999902    2    1    2    0    0  0.18620586773E-01 -0.50075056836E-02 -0.18551921835E-01  0.10171722877E+01  0.10168202829E+01 0.  0.
     999903    2    3    3    0    0 -0.49886383341E-01 -0.16441015816E-01 -0.11621942160E+00  0.12904905827E+00  0.19691298554E-01 0.  0.
         14    1    1    2    0    0 -0.18620586773E-01  0.50075056836E-02  0.18551921835E-01  0.26757712322E-01  0.00000000000E+00 0.  1.
     999901    1    3    3    0    0  0.68506970114E-01  0.11433510133E-01  0.97667499765E-01  0.88812322941E+00  0.88000000000E+00 0. -1.
        -11    1    4    4    0    0 -0.27469560650E-02  0.16990952965E-02 -0.21078872076E-01  0.21331025794E-01  0.51100000000E-03 0. -1.
         11    1    4    4    0    0 -0.47139427276E-01 -0.18140111113E-01 -0.95140549524E-01  0.10771803247E+00  0.51100000000E-03 0.  1.
</event>
<event>
 8    1  0.1054833E+005  0.1043930E+01  0.7957747E-01            NaN
         13   -1    0    0    0    0  0.00000000000E+00  0.00000000000E+00  0.74505805969E-08  0.10566000000E+00  0.10566000000E+00 0.  1.
     999900   -1    0    0    0    0 -0.00000000000E+00 -0.00000000000E+00 -0.74505805969E-08  0.93827000000E+00  0.93827000000E+00 0. -1.
     999902    2    1    2    0    0  0.48309403478E-02 -0.12829433890E-01 -0.19141350084E-01  0.10203859213E+01  0.10201142606E+01 0.  0.
     999903    2    3    3    0    0  0.68369182411E-01 -0.55522079498E-01 -0.98297121150E-01  0.13352324519E+00  0.20225888463E-01 0.  0.
         14    1    1    2    0    0 -0.48309403478E-02  0.12829433890E-01  0.19141350084E-01  0.23544078695E-01  0.00000000000E+00 0.  1.
     999901    1    3    3    0    0 -0.63538242064E-01  0.42692645608E-01  0.79155771066E-01  0.88686267612E+00  0.88000000000E+00 0. -1.
        -11    1    4    4    0    0  0.99853183016E-02 -0.86183309124E-02 -0.55647915458E-02  0.14325160915E-01  0.51100000000E-03 0.  1.
         11    1    4    4    0    0  0.58383864110E-01 -0.46903748586E-01 -0.92732329604E-01  0.11919808427E+00  0.51100000000E-03 0. -1.
</event>
<event>
 8    1  0.1054833E+005  0.1043930E+01  0.7957747E-01            NaN
         13   -1    0    0    0    0  0.00000000000E+00  0.00000000000E+00  0.74505805969E-08  0.10566000000E+00  0.10566000000E+00 0.  1.
     999900   -1    0    0    0    0 -0.00000000000E+00 -0.00000000000E+00 -0.74505805969E-08  0.93827000000E+00  0.93827000000E+00 0. -1.
     999902    2    1    2    0    0  0.22797044785E-01  0.77983341072E-02 -0.16508138186E-03  0.10198354671E+01  0.10195507998E+01 0.  0.
     999903    2    3    3    0    0  0.12446345658E+00  0.54694274069E-02  0.41536592114E-01  0.13299810166E+00  0.21027122963E-01 0.  0.
         14    1    1    2    0    0 -0.22797044785E-01 -0.77983341072E-02  0.16508138186E-03  0.24094532941E-01  0.00000000000E+00 0.  1.
     999901    1    3    3    0    0 -0.10166641180E+00  0.23289067003E-02 -0.41701673496E-01  0.88683736540E+00  0.88000000000E+00 0. -1.
        -11    1    4    4    0    0  0.28967599227E-01 -0.61265713527E-02  0.46784175713E-02  0.29980083280E-01  0.51100000000E-03 0. -1.
         11    1    4    4    0    0  0.95495857357E-01  0.11595998760E-01  0.36858174543E-01  0.10301801838E+00  0.51100000000E-03 0.  1.
</event>
<event>
 8    1  0.1054833E+005  0.1043930E+01  0.7957747E-01            NaN
         13   -1    0    0    0    0  0.00000000000E+00  0.00000000000E+00  0.74505805969E-08  0.10566000000E+00  0.10566000000E+00 0. -1.
     999900   -1    0    0    0    0 -0.00000000000E+00 -0.00000000000E+00 -0.74505805969E-08  0.93827000000E+00  0.93827000000E+00 0.  1.
     999902    2    1    2    0    0 -0.98917858079E-02  0.16793860602E-01 -0.11315433519E-01  0.10213929146E+01  0.10211442434E+01 0.  0.
     999903    2    3    3    0    0  0.67101050080E-01 -0.34907953943E-01  0.10311100909E+00  0.12915169997E+00  0.18087709633E-01 0.  0.
         14    1    1    2    0    0  0.98917858079E-02 -0.16793860602E-01  0.11315433519E-01  0.22537085351E-01  0.00000000000E+00 0.  1.
     999901    1    3    3    0    0 -0.76992835888E-01  0.51701814545E-01 -0.11442644261E+00  0.89224121468E+00  0.88000000000E+00 0.  1.
        -11    1    4    4    0    0  0.26146560374E-01 -0.44206625297E-02  0.39602340506E-01  0.47663312633E-01  0.51100000000E-03 0.  1.
         11    1    4    4    0    0  0.40954489706E-01 -0.30487291413E-01  0.63508668581E-01  0.81488387337E-01  0.51100000000E-03 0. -1.
</event>
<event>
 8    1  0.1054833E+005  0.1043930E+01  0.7957747E-01            NaN
         13   -1    0    0    0    0  0.00000000000E+00  0.00000000000E+00  0.74505805969E-08  0.10566000000E+00  0.10566000000E+00 0.  1.
     999900   -1    0    0    0    0 -0.00000000000E+00 -0.00000000000E+00 -0.74505805969E-08  0.93827000000E+00  0.93827000000E+00 0. -1.
     999902    2    1    2    0    0  0.11434287426E-01 -0.18944553280E-01 -0.61047381472E-02  0.10209755482E+01  0.10207174747E+01 0.  0.
     999903    2    3    3    0    0 -0.81576950131E-03 -0.11149620982E+00 -0.70519474624E-01  0.13369592416E+00  0.21668722926E-01 0.  0.
         14    1    1    2    0    0 -0.11434287426E-01  0.18944553280E-01  0.61047381472E-02  0.22954451763E-01  0.00000000000E+00 0.  1.
     999901    1    3    3    0    0  0.12250056927E-01  0.92551656536E-01  0.64414736477E-01  0.88727962407E+00  0.88000000000E+00 0.  1.
        -11    1    4    4    0    0 -0.10480707752E-01 -0.59245358899E-01 -0.32769646775E-01  0.68512543792E-01  0.51100000000E-03 0. -1.
         11    1    4    4    0    0  0.96649382509E-02 -0.52250850917E-01 -0.37749827849E-01  0.65183380371E-01  0.51100000000E-03 0.  1.
</event>
<event>
 8    1  0.1054833E+005  0.1043930E+01  0.7957747E-01            NaN
         13   -1    0    0    0    0  0.00000000000E+00  0.00000000000E+00  0.74505805969E-08  0.10566000000E+00  0.10566000000E+00 0.  1.
     999900   -1    0    0    0    0 -0.00000000000E+00 -0.00000000000E+00 -0.74505805969E-08  0.93827000000E+00  0.93827000000E+00 0.  1.
     999902    2    1    2    0    0 -0.22674919707E-01 -0.75629992676E-02 -0.11052722441E-03  0.10200267961E+01  0.10197466850E+01 0.  0.
     999903    2    3    3    0    0  0.17361244995E-01 -0.41259177898E-01  0.12061070907E+00  0.13024483187E+00  0.20323397760E-01 0.  0.
         14    1    1    2    0    0  0.22674919707E-01  0.75629992676E-02  0.11052722441E-03  0.23903203926E-01  0.00000000000E+00 0. -1.
     999901    1    3    3    0    0 -0.40036164703E-01  0.33696178631E-01 -0.12072123630E+00  0.88978196421E+00  0.88000000000E+00 0.  1.
        -11    1    4    4    0    0  0.47569368861E-02 -0.32855183420E-01  0.71186673962E-01  0.78548680428E-01  0.51100000000E-03 0. -1.
         11    1    4    4    0    0  0.12604308109E-01 -0.84039944782E-02  0.49424035108E-01  0.51696151438E-01  0.51100000000E-03 0.  1.
</event>
<event>
 8    1  0.1054833E+005  0.1043930E+01  0.7957747E-01            NaN
         13   -1    0    0    0    0  0.00000000000E+00  0.00000000000E+00  0.74505805969E-08  0.10566000000E+00  0.10566000000E+00 0. -1.
     999900   -1    0    0    0    0 -0.00000000000E+00 -0.00000000000E+00 -0.74505805969E-08  0.93827000000E+00  0.93827000000E+00 0.  1.
     999902    2    1    2    0    0 -0.14053078987E-01 -0.93415601982E-02  0.16219490417E-01  0.10205243245E+01  0.10202558852E+01 0.  0.
     999903    2    3    3    0    0  0.31543345142E-01 -0.41971191549E-01 -0.11597527151E+00  0.12888584294E+00  0.20117986088E-01 0.  0.
         14    1    1    2    0    0  0.14053078987E-01  0.93415601982E-02 -0.16219490417E-01  0.23405675494E-01  0.00000000000E+00 0. -1.
     999901    1    3    3    0    0 -0.45596424129E-01  0.32629631350E-01  0.13219476193E+00  0.89163848157E+00  0.88000000000E+00 0. -1.
        -11    1    4    4    0    0  0.16032037174E-01 -0.86371128887E-02 -0.26580886159E-01  0.32224688749E-01  0.51100000000E-03 0. -1.
         11    1    4    4    0    0  0.15511307968E-01 -0.33334078660E-01 -0.89394385353E-01  0.96661154187E-01  0.51100000000E-03 0.  1.
</event>
<event>
 8    1  0.1054833E+005  0.1043930E+01  0.7957747E-01            NaN
         13   -1    0    0    0    0  0.00000000000E+00  0.00000000000E+00  0.74505805969E-08  0.10566000000E+00  0.10566000000E+00 0.  1.
     999900   -1    0    0    0    0 -0.00000000000E+00 -0.00000000000E+00 -0.74505805969E-08  0.93827000000E+00  0.93827000000E+00 0.  1.
     999902    2    1    2    0    0  0.63595156273E-02  0.15889269978E-01  0.15098571943E-01  0.10211072216E+01  0.10208521337E+01 0.  0.
     999903    2    3    3    0    0 -0.90919877649E-01  0.14489931355E-01  0.93034402358E-01  0.13232196510E+00  0.19424730697E-01 0.  0.
         14    1    1    2    0    0 -0.63595156273E-02 -0.15889269978E-01 -0.15098571943E-01  0.22822778406E-01  0.00000000000E+00 0. -1.
     999901    1    3    3    0    0  0.97279393276E-01  0.13993386232E-02 -0.77935830415E-01  0.88878525650E+00  0.88000000000E+00 0.  1.
        -11    1    4    4    0    0 -0.52202597610E-01 -0.13507289012E-02  0.53468256108E-01  0.74739890273E-01  0.51100000000E-03 0.  1.
         11    1    4    4    0    0 -0.38717280039E-01  0.15840660256E-01  0.39566146250E-01  0.57582074823E-01  0.51100000000E-03 0. -1.
</event>
<event>
 8    1  0.1054833E+005  0.1043930E+01  0.7957747E-01            NaN
         13   -1    0    0    0    0  0.00000000000E+00  0.00000000000E+00  0.74505805969E-08  0.10566000000E+00  0.10566000000E+00 0. -1.
     999900   -1    0    0    0    0 -0.00000000000E+00 -0.00000000000E+00 -0.74505805969E-08  0.93827000000E+00  0.93827000000E+00 0. -1.
     999902    2    1    2    0    0  0.20747003490E-01  0.32091671939E-02 -0.10074865827E-01  0.10206439563E+01  0.10203782856E+01 0.  0.
     999903    2    3    3    0    0  0.90715457641E-01 -0.45032213053E-01  0.81429798564E-01  0.13182681038E+00  0.22142749917E-01 0.  0.
         14    1    1    2    0    0 -0.20747003490E-01 -0.32091671939E-02  0.10074865827E-01  0.23286043660E-01  0.00000000000E+00 0.  1.
     999901    1    3    3    0    0 -0.69968454151E-01  0.48241380247E-01 -0.91504664391E-01  0.88881714596E+00  0.88000000000E+00 0. -1.
        -11    1    4    4    0    0  0.27964396342E-01 -0.24263393953E-01  0.22891161887E-01  0.43531438782E-01  0.51100000000E-03 0.  1.
         11    1    4    4    0    0  0.62751061299E-01 -0.20768819099E-01  0.58538636678E-01  0.88295371600E-01  0.51100000000E-03 0. -1.
</event>
<event>
 8    1  0.1054833E+005  0.1043930E+01  0.7957747E-01            NaN
         13   -1    0    0    0    0  0.00000000000E+00  0.00000000000E+00  0.74505805969E-08  0.10566000000E+00  0.10566000000E+00 0.  1.
     999900   -1    0    0    0    0 -0.00000000000E+00 -0.00000000000E+00 -0.74505805969E-08  0.93827000000E+00  0.93827000000E+00 0. -1.
     999902    2    1    2    0    0 -0.46152763105E-03  0.71291257291E-03  0.25097433081E-01  0.10188182020E+01  0.10185086776E+01 0.  0.
     999903    2    3    3    0    0  0.16993774921E-02  0.36836968605E-01 -0.11907869519E+00  0.12635174721E+00  0.20619850537E-01 0.  0.
         14    1    1    2    0    0  0.46152763105E-03 -0.71291257291E-03 -0.25097433081E-01  0.25111798011E-01  0.00000000000E+00 0. -1.
     999901    1    3    3    0    0 -0.21609051232E-02 -0.36124056033E-01  0.14417612827E+00  0.89246645477E+00  0.88000000000E+00 0.  1.
        -11    1    4    4    0    0  0.15804273238E-02  0.12495222616E-01 -0.15645407727E-01  0.20091496775E-01  0.51100000000E-03 0. -1.
         11    1    4    4    0    0  0.11895016838E-03  0.24341745990E-01 -0.10343328746E+00  0.10626025044E+00  0.51100000000E-03 0.  1.
</event>
<event>
 8    1  0.1054833E+005  0.1043930E+01  0.7957747E-01            NaN
         13   -1    0    0    0    0  0.00000000000E+00  0.00000000000E+00  0.74505805969E-08  0.10566000000E+00  0.10566000000E+00 0.  1.
     999900   -1    0    0    0    0 -0.00000000000E+00 -0.00000000000E+00 -0.74505805969E-08  0.93827000000E+00  0.93827000000E+00 0. -1.
     999902    2    1    2    0    0 -0.92703747083E-02  0.20541476277E-01 -0.57868799420E-02  0.10206624244E+01  0.10203971798E+01 0.  0.
     999903    2    3    3    0    0 -0.13595289971E-01 -0.80126331605E-01  0.97942052873E-01  0.12885952917E+00  0.20176015741E-01 0.  0.
         14    1    1    2    0    0  0.92703747083E-02 -0.20541476277E-01  0.57868799420E-02  0.23267575600E-01  0.00000000000E+00 0. -1.
     999901    1    3    3    0    0  0.43249152629E-02  0.10066780788E+00 -0.10372893282E+00  0.89180289523E+00  0.88000000000E+00 0. -1.
        -11    1    4    4    0    0 -0.15059017863E-01 -0.33032187825E-01  0.48184069990E-01  0.60331295140E-01  0.51100000000E-03 0.  1.
         11    1    4    4    0    0  0.14637278918E-02 -0.47094143780E-01  0.49757982884E-01  0.68528234031E-01  0.51100000000E-03 0. -1.
</event>
<event>
 8    1  0.1054833E+005  0.1043930E+01  0.7957747E-01            NaN
         13   -1    0    0    0    0  0.00000000000E+00  0.00000000000E+00  0.74505805969E-08  0.10566000000E+00  0.10566000000E+00 0. -1.
     999900   -1    0    0    0    0 -0.00000000000E+00 -0.00000000000E+00 -0.74505805969E-08  0.93827000000E+00  0.93827000000E+00 0. -1.
     999902    2    1    2    0    0  0.18312718998E-01 -0.19999037193E-01 -0.11515732964E-01  0.10144693606E+01  0.10140414954E+01 0.  0.
     999903    2    3    3    0    0  0.85399489232E-01  0.89586489783E-01 -0.33037869419E-02  0.12510045039E+00  0.17899602422E-01 0.  0.
         14    1    1    2    0    0 -0.18312718998E-01  0.19999037193E-01  0.11515732964E-01  0.29460639359E-01  0.00000000000E+00 0. -1.
     999901    1    3    3    0    0 -0.67086770234E-01 -0.10958552698E+00 -0.82119460220E-02  0.88936891025E+00  0.88000000000E+00 0. -1.
        -11    1    4    4    0    0  0.54869093334E-01  0.65234355757E-01  0.41293353906E-02  0.85343137428E-01  0.51100000000E-03 0.  1.
         11    1    4    4    0    0  0.30530395898E-01  0.24352134026E-01 -0.74331223325E-02  0.39757312962E-01  0.51100000000E-03 0. -1.
</event>
<event>
 8    1  0.1054833E+005  0.1043930E+01  0.7957747E-01            NaN
         13   -1    0    0    0    0  0.00000000000E+00  0.00000000000E+00  0.74505805969E-08  0.10566000000E+00  0.10566000000E+00 0.  1.
     999900   -1    0    0    0    0 -0.00000000000E+00 -0.00000000000E+00 -0.74505805969E-08  0.93827000000E+00  0.93827000000E+00 0. -1.
     999902    2    1    2    0    0 -0.18588690703E-01 -0.14599876729E-01  0.30053119640E-02  0.10201029624E+01  0.10198246546E+01 0.  0.
     999903    2    3    3    0    0  0.96854319672E-01  0.58408357742E-01 -0.55406587660E-01  0.12765170825E+00  0.20803200969E-01 0.  0.
         14    1    1    2    0    0  0.18588690703E-01  0.14599876729E-01 -0.30053119640E-02  0.23827037637E-01  0.00000000000E+00 0. -1.
     999901    1    3    3    0    0 -0.11544301037E+00 -0.73008234471E-01  0.58411899624E-01  0.89245125411E+00  0.88000000000E+00 0.  1.
        -11    1    4    4    0    0  0.50953339717E-01  0.33819041481E-01 -0.18743769465E-01  0.63965306298E-01  0.51100000000E-03 0. -1.
         11    1    4    4    0    0  0.45900979955E-01  0.24589316260E-01 -0.36662818195E-01  0.63686401955E-01  0.51100000000E-03 0.  1.
</event>
<event>
 8    1  0.1054833E+005  0.1043930E+01  0.7957747E-01            NaN
         13   -1    0    0    0    0  0.00000000000E+00  0.00000000000E+00  0.74505805969E-08  0.10566000000E+00  0.10566000000E+00 0. -1.
     999900   -1    0    0    0    0 -0.00000000000E+00 -0.00000000000E+00 -0.74505805969E-08  0.93827000000E+00  0.93827000000E+00 0. -1.
     999902    2    1    2    0    0  0.21854017726E-01 -0.15476172317E-01 -0.10746968942E-02  0.10171295341E+01  0.10167763885E+01 0.  0.
     999903    2    3    3    0    0  0.12539089474E+00  0.15589066525E-01  0.23693571921E-01  0.13016933141E+00  0.20415043776E-01 0.  0.
         14    1    1    2    0    0 -0.21854017726E-01  0.15476172317E-01  0.10746968942E-02  0.26800465925E-01  0.00000000000E+00 0. -1.
     999901    1    3    3    0    0 -0.10353687701E+00 -0.31065238842E-01 -0.24768268816E-01  0.88696020266E+00  0.88000000000E+00 0.  1.
        -11    1    4    4    0    0  0.87184806858E-01  0.11695575834E-01  0.25893466193E-01  0.91699017189E-01  0.51100000000E-03 0.  1.
         11    1    4    4    0    0  0.38206087879E-01  0.38934906904E-02 -0.21998942717E-02  0.38470314225E-01  0.51100000000E-03 0. -1.
</event>
<event>
 8    1  0.1054833E+005  0.1043930E+01  0.7957747E-01            NaN
         13   -1    0    0    0    0  0.00000000000E+00  0.00000000000E+00  0.74505805969E-08  0.10566000000E+00  0.10566000000E+00 0. -1.
     999900   -1    0    0    0    0 -0.00000000000E+00 -0.00000000000E+00 -0.74505805969E-08  0.93827000000E+00  0.93827000000E+00 0.  1.
     999902    2    1    2    0    0 -0.76478066617E-02 -0.18584511825E-01 -0.11800051734E-01  0.10206251883E+01  0.10203590842E+01 0.  0.
     999903    2    3    3    0    0 -0.77749885600E-01 -0.93372117967E-01  0.49267679379E-01  0.13257296278E+00  0.19618590783E-01 0.  0.
         14    1    1    2    0    0  0.76478066617E-02  0.18584511825E-01  0.11800051734E-01  0.23304811680E-01  0.00000000000E+00 0.  1.
     999901    1    3    3    0    0  0.70102078938E-01  0.74787606142E-01 -0.61067731113E-01  0.88805222554E+00  0.88000000000E+00 0. -1.
        -11    1    4    4    0    0 -0.35445615176E-01 -0.32565014013E-01  0.27145707390E-01  0.55263209494E-01  0.51100000000E-03 0. -1.
         11    1    4    4    0    0 -0.42304270424E-01 -0.60807103955E-01  0.22121971989E-01  0.77309753286E-01  0.51100000000E-03 0.  1.
</event>
<event>
 8    1  0.1054833E+005  0.1043930E+01  0.7957747E-01            NaN
         13   -1    0    0    0    0  0.00000000000E+00  0.00000000000E+00  0.74505805969E-08  0.10566000000E+00  0.10566000000E+00 0.  1.
     999900   -1    0    0    0    0 -0.00000000000E+00 -0.00000000000E+00 -0.74505805969E-08  0.93827000000E+00  0.93827000000E+00 0. -1.
     999902    2    1    2    0    0  0.16147408960E-01 -0.17609872991E-01 -0.17316461484E-02  0.10199749370E+01  0.10196935947E+01 0.  0.
     999903    2    3    3    0    0  0.63036879595E-01  0.65413797927E-01  0.90815573115E-01  0.12999935301E+00  0.19993756862E-01 0.  0.
         14    1    1    2    0    0 -0.16147408960E-01  0.17609872991E-01  0.17316461484E-02  0.23955062957E-01  0.00000000000E+00 0.  1.
     999901    1    3    3    0    0 -0.46889470635E-01 -0.83023670918E-01 -0.92547219263E-01  0.88997558404E+00  0.88000000000E+00 0. -1.
        -11    1    4    4    0    0  0.42776871039E-01  0.47590067879E-01  0.75488038530E-01  0.98961509380E-01  0.51100000000E-03 0. -1.
         11    1    4    4    0    0  0.20260008556E-01  0.17823730048E-01  0.15327534585E-01  0.31037843626E-01  0.51100000000E-03 0.  1.
</event>
<event>
 8    1  0.1054833E+005  0.1043930E+01  0.7957747E-01            NaN
         13   -1    0    0    0    0  0.00000000000E+00  0.00000000000E+00  0.74505805969E-08  0.10566000000E+00  0.10566000000E+00 0.  1.
     999900   -1    0    0    0    0 -0.00000000000E+00 -0.00000000000E+00 -0.74505805969E-08  0.93827000000E+00  0.93827000000E+00 0. -1.
     999902    2    1    2    0    0  0.15664997830E-02 -0.75860398523E-02 -0.22265516970E-01  0.10203555399E+01  0.10200831695E+01 0.  0.
     999903    2    3    3    0    0  0.76816313023E-01  0.63118529967E-01 -0.84712818965E-01  0.13212058445E+00  0.19871898930E-01 0.  0.
         14    1    1    2    0    0 -0.15664997830E-02  0.75860398523E-02  0.22265516970E-01  0.23574460082E-01  0.00000000000E+00 0.  1.
     999901    1    3    3    0    0 -0.75249813240E-01 -0.70704569819E-01  0.62447301995E-01  0.88823495547E+00  0.88000000000E+00 0. -1.
        -11    1    4    4    0    0  0.31929205239E-01  0.27599346718E-01 -0.48908439914E-01  0.64602590523E-01  0.51100000000E-03 0.  1.
         11    1    4    4    0    0  0.44887107784E-01  0.35519183249E-01 -0.35804379052E-01  0.67517993929E-01  0.51100000000E-03 0. -1.
</event>
<event>
 8    1  0.1054833E+005  0.1043930E+01  0.7957747E-01            NaN
         13   -1    0    0    0    0  0.00000000000E+00  0.00000000000E+00  0.74505805969E-08  0.10566000000E+00  0.10566000000E+00 0.  1.
     999900   -1    0    0    0    0 -0.00000000000E+00 -0.00000000000E+00 -0.74505805969E-08  0.93827000000E+00  0.93827000000E+00 0. -1.
     999902    2    1    2    0    0 -0.20174210302E-01 -0.12431655416E-01  0.46604118220E-02  0.10197791355E+01  0.10194931196E+01 0.  0.
     999903    2    3    3    0    0 -0.69804779586E-02 -0.12335377684E+00  0.41616228470E-01  0.13194833857E+00  0.20336475791E-01 0.  0.
         14    1    1    2    0    0  0.20174210302E-01  0.12431655416E-01 -0.46604118220E-02  0.24150864499E-01  0.00000000000E+00 0. -1.
     999901    1    3    3    0    0 -0.13193732343E-01  0.11092212142E+00 -0.36955816648E-01  0.88783079693E+00  0.88000000000E+00 0.  1.
        -11    1    4    4    0    0 -0.14940588803E-02 -0.56925808297E-01  0.87021377000E-02  0.57608750931E-01  0.51100000000E-03 0. -1.
         11    1    4    4    0    0 -0.54864190782E-02 -0.66427968538E-01  0.32914090769E-01  0.74339587640E-01  0.51100000000E-03 0.  1.
</event>
<event>
 8    1  0.1054833E+005  0.1043930E+01  0.7957747E-01            NaN
         13   -1    0    0    0    0  0.00000000000E+00  0.00000000000E+00  0.74505805969E-08  0.10566000000E+00  0.10566000000E+00 0. -1.
     999900   -1    0    0    0    0 -0.00000000000E+00 -0.00000000000E+00 -0.74505805969E-08  0.93827000000E+00  0.93827000000E+00 0.  1.
     999902    2    1    2    0    0  0.15124516514E-02 -0.26028067034E-01 -0.67334959067E-02  0.10170025465E+01  0.10166460013E+01 0.  0.
     999903    2    3    3    0    0 -0.58758488642E-01  0.76608022671E-01 -0.78926297765E-01  0.12606003783E+00  0.18450570036E-01 0.  0.
         14    1    1    2    0    0 -0.15124516514E-02  0.26028067034E-01  0.67334959067E-02  0.26927453475E-01  0.00000000000E+00 0. -1.
     999901    1    3    3    0    0  0.60270940293E-01 -0.10263608970E+00  0.72192801858E-01  0.89094250869E+00  0.88000000000E+00 0. -1.
        -11    1    4    4    0    0 -0.12452691132E-01  0.28529017699E-01 -0.30567563703E-01  0.43630395816E-01  0.51100000000E-03 0.  1.
         11    1    4    4    0    0 -0.46305797509E-01  0.48079004971E-01 -0.48358734063E-01  0.82429642018E-01  0.51100000000E-03 0. -1.
</event>
<event>
 8    1  0.1054833E+005  0.1043930E+01  0.7957747E-01            NaN
         13   -1    0    0    0    0  0.00000000000E+00  0.00000000000E+00  0.74505805969E-08  0.10566000000E+00  0.10566000000E+00 0.  1.
     999900   -1    0    0    0    0 -0.00000000000E+00 -0.00000000000E+00 -0.74505805969E-08  0.93827000000E+00  0.93827000000E+00 0.  1.
     999902    2    1    2    0    0 -0.35047238305E-01 -0.62383104135E-02 -0.81214640750E-02  0.10074172131E+01  0.10067553117E+01 0.  0.
     999903    2    3    3    0    0 -0.74266552330E-01  0.92880606481E-01 -0.95135823961E-02  0.12098354254E+00  0.20104264737E-01 0.  0.
         14    1    1    2    0    0  0.35047238305E-01  0.62383104135E-02  0.81214640750E-02  0.36512786915E-01  0.00000000000E+00 0. -1.
     999901    1    3    3    0    0  0.39219314026E-01 -0.99118916894E-01  0.13921183210E-02  0.88643367054E+00  0.88000000000E+00 0.  1.
        -11    1    4    4    0    0 -0.14417070839E-01  0.94538081528E-02  0.31399551191E-02  0.17531310827E-01  0.51100000000E-03 0. -1.
         11    1    4    4    0    0 -0.59849481491E-01  0.83426798328E-01 -0.12653537515E-01  0.10345223171E+00  0.51100000000E-03 0.  1.
</event>
<event>
 8    1  0.1054833E+005  0.1043930E+01  0.7957747E-01            NaN
         13   -1    0    0    0    0  0.00000000000E+00  0.00000000000E+00  0.74505805969E-08  0.10566000000E+00  0.10566000000E+00 0.  1.
     999900   -1    0    0    0    0 -0.00000000000E+00 -0.00000000000E+00 -0.74505805969E-08  0.93827000000E+00  0.93827000000E+00 0. -1.
     999902    2    1    2    0    0 -0.73235790765E-02 -0.18278441942E-01 -0.13666021194E-01  0.10199613458E+01  0.10196796803E+01 0.  0.
     999903    2    3    3    0    0  0.11017586668E-01  0.44674782533E-01  0.11746446612E+00  0.12783203253E+00  0.20637449712E-01 0.  0.
         14    1    1    2    0    0  0.73235790765E-02  0.18278441942E-01  0.13666021194E-01  0.23968654230E-01  0.00000000000E+00 0.  1.
     999901    1    3    3    0    0 -0.18341165745E-01 -0.62953224475E-01 -0.13113048731E+00  0.89212931324E+00  0.88000000000E+00 0. -1.
        -11    1    4    4    0    0 -0.27841622400E-02  0.10190200688E-02  0.19063502030E-01  0.19299435016E-01  0.51100000000E-03 0.  1.
         11    1    4    4    0    0  0.13801748908E-01  0.43655762464E-01  0.98400964089E-01  0.10853259752E+00  0.51100000000E-03 0. -1.
</event>
<event>
 8    1  0.1054833E+005  0.1043930E+01  0.7957747E-01            NaN
         13   -1    0    0    0    0  0.00000000000E+00  0.00000000000E+00  0.74505805969E-08  0.10566000000E+00  0.10566000000E+00 0. -1.
     999900   -1    0    0    0    0 -0.00000000000E+00 -0.00000000000E+00 -0.74505805969E-08  0.93827000000E+00  0.93827000000E+00 0. -1.
     999902    2    1    2    0    0  0.21785372921E-01 -0.97868642385E-02 -0.35333183072E-02  0.10197873091E+01  0.10195014891E+01 0.  0.
     999903    2    3    3    0    0  0.12780075425E+00  0.27906899454E-01 -0.83769060888E-02  0.13261002061E+00  0.20085247976E-01 0.  0.
         14    1    1    2    0    0 -0.21785372921E-01  0.97868642385E-02  0.35333183072E-02  0.24142690886E-01  0.00000000000E+00 0. -1.
     999901    1    3    3    0    0 -0.10601538133E+00 -0.37693763693E-01  0.48435877817E-02  0.88717728851E+00  0.88000000000E+00 0. -1.
        -11    1    4    4    0    0  0.29901309037E-01  0.48749111560E-02  0.63652890271E-02  0.30961767816E-01  0.51100000000E-03 0.  1.
         11    1    4    4    0    0  0.97899445212E-01  0.23031988298E-01 -0.14742195116E-01  0.10164825279E+00  0.51100000000E-03 0. -1.
</event>
<event>
 8    1  0.1054833E+005  0.1043930E+01  0.7957747E-01            NaN
         13   -1    0    0    0    0  0.00000000000E+00  0.00000000000E+00  0.74505805969E-08  0.10566000000E+00  0.10566000000E+00 0. -1.
     999900   -1    0    0    0    0 -0.00000000000E+00 -0.00000000000E+00 -0.74505805969E-08  0.93827000000E+00  0.93827000000E+00 0.  1.
     999902    2    1    2    0    0 -0.22500657117E-01  0.35960359370E-02 -0.58089518412E-02  0.10204150055E+01  0.10201440234E+01 0.  0.
     999903    2    3    3    0    0  0.64898673263E-01  0.96993299261E-01  0.51693608801E-01  0.12930994085E+00  0.20719404425E-01 0.  0.
         14    1    1    2    0    0  0.22500657117E-01 -0.35960359370E-02  0.58089518412E-02  0.23514994507E-01  0.00000000000E+00 0.  1.
     999901    1    3    3    0    0 -0.87399330380E-01 -0.93397263324E-01 -0.57502560642E-01  0.89110506464E+00  0.88000000000E+00 0.  1.
        -11    1    4    4    0    0  0.61127470728E-01  0.83387276254E-01  0.39617834521E-01  0.11072415930E+00  0.51100000000E-03 0.  1.
         11    1    4    4    0    0  0.37712025353E-02  0.13606023007E-01  0.12075774280E-01  0.18585781557E-01  0.51100000000E-03 0. -1.
</event>
<event>
 8    1  0.1054833E+005  0.1043930E+01  0.7957747E-01            NaN
         13   -1    0    0    0    0  0.00000000000E+00  0.00000000000E+00  0.74505805969E-08  0.10566000000E+00  0.10566000000E+00 0. -1.
     999900   -1    0    0    0    0 -0.00000000000E+00 -0.00000000000E+00 -0.74505805969E-08  0.93827000000E+00  0.93827000000E+00 0.  1.
     999902    2    1    2    0    0  0.35225570482E-02 -0.29565824322E-02  0.23489245714E-01  0.10199947864E+01  0.10197139156E+01 0.  0.
     999903    2    3    3    0    0 -0.52000564134E-01 -0.86350330656E-01  0.83238652297E-01  0.13229701920E+00  0.20331989054E-01 0.  0.
         14    1    1    2    0    0 -0.35225570482E-02  0.29565824322E-02 -0.23489245714E-01  0.23935213641E-01  0.00000000000E+00 0.  1.
     999901    1    3    3    0    0  0.55523121182E-01  0.83393748223E-01 -0.59749406584E-01  0.88769776716E+00  0.88000000000E+00 0.  1.
        -11    1    4    4    0    0 -0.71557848939E-02 -0.78154493085E-02  0.17598217420E-01  0.20548598071E-01  0.51100000000E-03 0.  1.
         11    1    4    4    0    0 -0.44844779240E-01 -0.78534881347E-01  0.65640434877E-01  0.11174842113E+00  0.51100000000E-03 0. -1.
</event>
<event>
 8    1  0.1370860E+005  0.1043930E+01  0.7957747E-01            NaN
         13   -1    0    0    0    0  0.00000000000E+00  0.00000000000E+00  0.74505805969E-08  0.10566000000E+00  0.10566000000E+00 0.  1.
     999900   -1    0    0    0    0 -0.00000000000E+00 -0.00000000000E+00 -0.74505805969E-08  0.93827000000E+00  0.93827000000E+00 0.  1.
     999902    2    1    2    0    0  0.95803169356E-02  0.21761716618E-01 -0.44841759111E-02  0.10197336652E+01  0.10194465584E+01 0.  0.
     999903    2    3    3    0    0 -0.32654800476E-01  0.70748041882E-02  0.12330866967E+00  0.12937950989E+00  0.20436259829E-01 0.  0.
         14    1    1    2    0    0 -0.95803169356E-02 -0.21761716618E-01  0.44841759111E-02  0.24196334771E-01  0.00000000000E+00 0.  1.
     999901    1    3    3    0    0  0.42235117412E-01  0.14686912430E-01 -0.12779284558E+00  0.89035415533E+00  0.88000000000E+00 0.  1.
        -11    1    4    4    0    0 -0.59792502962E-02  0.85522391497E-02  0.55896013098E-01  0.56864027555E-01  0.51100000000E-03 0. -1.
         11    1    4    4    0    0 -0.26675550180E-01 -0.14774349615E-02  0.67412656574E-01  0.72515482339E-01  0.51100000000E-03 0.  1.
</event>
<event>
 8    1  0.1054833E+005  0.1043930E+01  0.7957747E-01            NaN
         13   -1    0    0    0    0  0.00000000000E+00  0.00000000000E+00  0.74505805969E-08  0.10566000000E+00  0.10566000000E+00 0.  1.
     999900   -1    0    0    0    0 -0.00000000000E+00 -0.00000000000E+00 -0.74505805969E-08  0.93827000000E+00  0.93827000000E+00 0.  1.
     999902    2    1    2    0    0  0.13569151759E-01  0.10577012887E-01  0.13626070363E-01  0.10219831352E+01  0.10217474560E+01 0.  0.
     999903    2    3    3    0    0  0.11924982378E+00 -0.18684363551E-01 -0.51506784129E-01  0.13278860006E+00  0.20254322535E-01 0.  0.
         14    1    1    2    0    0 -0.13569151759E-01 -0.10577012887E-01 -0.13626070363E-01  0.21946864801E-01  0.00000000000E+00 0. -1.
     999901    1    3    3    0    0 -0.10568067202E+00  0.29261376438E-01  0.65132854492E-01  0.88919453514E+00  0.88000000000E+00 0. -1.
        -11    1    4    4    0    0  0.10179562483E+00 -0.11734224748E-01 -0.36637223126E-01  0.10882365784E+00  0.51100000000E-03 0.  1.
         11    1    4    4    0    0  0.17454198945E-01 -0.69501388030E-02 -0.14869561003E-01  0.23964942220E-01  0.51100000000E-03 0. -1.
</event>
<event>
 8    1  0.1054833E+005  0.1043930E+01  0.7957747E-01            NaN
         13   -1    0    0    0    0  0.00000000000E+00  0.00000000000E+00  0.74505805969E-08  0.10566000000E+00  0.10566000000E+00 0. -1.
     999900   -1    0    0    0    0 -0.00000000000E+00 -0.00000000000E+00 -0.74505805969E-08  0.93827000000E+00  0.93827000000E+00 0.  1.
     999902    2    1    2    0    0  0.18429458611E-01 -0.12943929010E-01 -0.90962572779E-02  0.10196414813E+01  0.10193521562E+01 0.  0.
     999903    2    3    3    0    0  0.74383669827E-01 -0.30683362890E-01 -0.10343441754E+00  0.13265486939E+00  0.20597003340E-01 0.  0.
         14    1    1    2    0    0 -0.18429458611E-01  0.12943929010E-01  0.90962572779E-02  0.24288518674E-01  0.00000000000E+00 0. -1.
     999901    1    3    3    0    0 -0.55954211216E-01  0.17739433880E-01  0.94338160262E-01  0.88698661193E+00  0.88000000000E+00 0. -1.
        -11    1    4    4    0    0  0.18744003062E-01 -0.17967030556E-01 -0.33394327443E-01  0.42303593986E-01  0.51100000000E-03 0. -1.
         11    1    4    4    0    0  0.55639666765E-01 -0.12716332334E-01 -0.70040090097E-01  0.90351275407E-01  0.51100000000E-03 0.  1.
</event>
<event>
 8    1  0.1054833E+005  0.1043930E+01  0.7957747E-01            NaN
         13   -1    0    0    0    0  0.00000000000E+00  0.00000000000E+00  0.74505805969E-08  0.10566000000E+00  0.10566000000E+00 0.  1.
     999900   -1    0    0    0    0 -0.00000000000E+00 -0.00000000000E+00 -0.74505805969E-08  0.93827000000E+00  0.93827000000E+00 0. -1.
     999902    2    1    2    0    0  0.41710039794E-03 -0.11637538232E-01  0.21699457578E-01  0.10193033330E+01  0.10190057958E+01 0.  0.
     999903    2    3    3    0    0  0.44976178146E-01  0.11685003770E+00 -0.17408810822E-01  0.12799865712E+00  0.20094815708E-01 0.  0.
         14    1    1    2    0    0 -0.41710039794E-03  0.11637538232E-01 -0.21699457578E-01  0.24626667010E-01  0.00000000000E+00 0.  1.
     999901    1    3    3    0    0 -0.44559077749E-01 -0.12848757593E+00  0.39108268400E-01  0.89130467587E+00  0.88000000000E+00 0. -1.
        -11    1    4    4    0    0  0.17593683313E-01  0.23930247536E-01 -0.82527367287E-03  0.29717614932E-01  0.51100000000E-03 0. -1.
         11    1    4    4    0    0  0.27382494833E-01  0.92919790163E-01 -0.16583537149E-01  0.98281042183E-01  0.51100000000E-03 0.  1.
</event>
<event>
 8    1  0.1054833E+005  0.1043930E+01  0.7957747E-01            NaN
         13   -1    0    0    0    0  0.00000000000E+00  0.00000000000E+00  0.74505805969E-08  0.10566000000E+00  0.10566000000E+00 0. -1.
     999900   -1    0    0    0    0 -0.00000000000E+00 -0.00000000000E+00 -0.74505805969E-08  0.93827000000E+00  0.93827000000E+00 0. -1.
     999902    2    1    2    0    0  0.65515602055E-02  0.70673946913E-02 -0.21740141880E-01  0.10201496556E+01  0.10198724504E+01 0.  0.
     999903    2    3    3    0    0  0.33551444529E-01 -0.89949242086E-01 -0.88264932826E-01  0.13191164172E+00  0.19834749114E-01 0.  0.
         14    1    1    2    0    0 -0.65515602055E-02 -0.70673946913E-02  0.21740141880E-01  0.23780344359E-01  0.00000000000E+00 0. -1.
     999901    1    3    3    0    0 -0.26999884324E-01  0.97016636778E-01  0.66524790946E-01  0.88823801392E+00  0.88000000000E+00 0.  1.
        -11    1    4    4    0    0  0.35069661370E-01 -0.80487972647E-01 -0.74583668630E-01  0.11520060606E+00  0.51100000000E-03 0. -1.
         11    1    4    4    0    0 -0.15182168411E-02 -0.94612694397E-02 -0.13681264197E-01  0.16711035659E-01  0.51100000000E-03 0.  1.
</event>
<event>
 8    1  0.1054833E+005  0.1043930E+01  0.7957747E-01            NaN
         13   -1    0    0    0    0  0.00000000000E+00  0.00000000000E+00  0.74505805969E-08  0.10566000000E+00  0.10566000000E+00 0.  1.
     999900   -1    0    0    0    0 -0.00000000000E+00 -0.00000000000E+00 -0.74505805969E-08  0.93827000000E+00  0.93827000000E+00 0.  1.
     999902    2    1    2    0    0 -0.91791130567E-02 -0.86031614343E-02  0.19978213802E-01  0.10203206898E+01  0.10200475040E+01 0.  0.
     999903    2    3    3    0    0 -0.64249663080E-01  0.57120240157E-02 -0.10981113226E+00  0.12898295110E+00  0.20432094414E-01 0.  0.
         14    1    1    2    0    0  0.91791130567E-02  0.86031614343E-02 -0.19978213802E-01  0.23609310238E-01  0.00000000000E+00 0. -1.
     999901    1    3    3    0    0  0.55070550023E-01 -0.14315185450E-01  0.12978934606E+00  0.89133773866E+00  0.88000000000E+00 0. -1.
        -11    1    4    4    0    0 -0.62808275042E-01  0.13464795588E-02 -0.99387137149E-01  0.11757872500E+00  0.51100000000E-03 0. -1.
         11    1    4    4    0    0 -0.14413880380E-02  0.43655444569E-02 -0.10423995109E-01  0.11404226099E-01  0.51100000000E-03 0.  1.
</event>
<event>
 8    1  0.1106650E+005  0.1043930E+01  0.7957747E-01            NaN
         13   -1    0    0    0    0  0.00000000000E+00  0.00000000000E+00  0.74505805969E-08  0.10566000000E+00  0.10566000000E+00 0.  1.
     999900   -1    0    0    0    0 -0.00000000000E+00 -0.00000000000E+00 -0.74505805969E-08  0.93827000000E+00  0.93827000000E+00 0.  1.
     999902    2    1    2    0    0 -0.42719446044E-02  0.10893032815E-01 -0.21676736550E-01  0.10192969210E+01  0.10189992270E+01 0.  0.
     999903    2    3    3    0    0  0.89313902821E-01  0.93037730006E-01 -0.61810929887E-02  0.13039525202E+00  0.18213275272E-01 0.  0.
         14    1    1    2    0    0  0.42719446044E-02 -0.10893032815E-01  0.21676736550E-01  0.24633079021E-01  0.00000000000E+00 0.  1.
     999901    1    3    3    0    0 -0.93585847425E-01 -0.82144697192E-01 -0.15495643561E-01  0.88890166896E+00  0.88000000000E+00 0. -1.
        -11    1    4    4    0    0  0.34194957933E-01  0.27142550712E-01  0.41899542637E-02  0.43861487035E-01  0.51100000000E-03 0. -1.
         11    1    4    4    0    0  0.55118944888E-01  0.65895179294E-01 -0.10371047252E-01  0.86533764982E-01  0.51100000000E-03 0.  1.
</event>
<event>
 8    1  0.1054833E+005  0.1043930E+01  0.7957747E-01            NaN
         13   -1    0    0    0    0  0.00000000000E+00  0.00000000000E+00  0.74505805969E-08  0.10566000000E+00  0.10566000000E+00 0.  1.
     999900   -1    0    0    0    0 -0.00000000000E+00 -0.00000000000E+00 -0.74505805969E-08  0.93827000000E+00  0.93827000000E+00 0. -1.
     999902    2    1    2    0    0  0.10988394737E-01 -0.13015641135E-01  0.18141670123E-01  0.10190448251E+01  0.10187409306E+01 0.  0.
     999903    2    3    3    0    0  0.76946693389E-01 -0.85284199219E-01 -0.58233097936E-01  0.13033432849E+00  0.20043832688E-01 0.  0.
         14    1    1    2    0    0 -0.10988394737E-01  0.13015641135E-01 -0.18141670123E-01  0.24885174862E-01  0.00000000000E+00 0. -1.
     999901    1    3    3    0    0 -0.65958298652E-01  0.72268558084E-01  0.76374768059E-01  0.88871049664E+00  0.88000000000E+00 0.  1.
        -11    1    4    4    0    0  0.45107565495E-01 -0.42852480980E-01 -0.21593201905E-01  0.65860117526E-01  0.51100000000E-03 0. -1.
         11    1    4    4    0    0  0.31839127894E-01 -0.42431718239E-01 -0.36639896031E-01  0.64474210968E-01  0.51100000000E-03 0.  1.
</event>
<event>
 8    1  0.1054833E+005  0.1043930E+01  0.7957747E-01            NaN
         13   -1    0    0    0    0  0.00000000000E+00  0.00000000000E+00  0.74505805969E-08  0.10566000000E+00  0.10566000000E+00 0.  1.
     999900   -1    0    0    0    0 -0.00000000000E+00 -0.00000000000E+00 -0.74505805969E-08  0.93827000000E+00  0.93827000000E+00 0.  1.
     999902    2    1    2    0    0 -0.21134380399E-01  0.58280319256E-02  0.86739653914E-02  0.10203531964E+01  0.10200807712E+01 0.  0.
     999903    2    3    3    0    0 -0.49773599962E-01  0.35375003005E-01  0.11473997858E+00  0.13302956463E+00  0.28333730598E-01 0.  0.
         14    1    1    2    0    0  0.21134380399E-01 -0.58280319256E-02 -0.86739653914E-02  0.23576803570E-01  0.00000000000E+00 0. -1.
     999901    1    3    3    0    0  0.28639219563E-01 -0.29546971079E-01 -0.10606601319E+00  0.88732363180E+00  0.88000000000E+00 0.  1.
        -11    1    4    4    0    0 -0.16998718451E-01  0.10003070216E-01  0.14285105434E-01  0.24358637092E-01  0.51100000000E-03 0. -1.
         11    1    4    4    0    0 -0.32774881511E-01  0.25371932788E-01  0.10045487315E+00  0.10867092754E+00  0.51100000000E-03 0.  1.
</event>
<event>
 8    1  0.1054833E+005  0.1043930E+01  0.7957747E-01            NaN
         13   -1    0    0    0    0  0.00000000000E+00  0.00000000000E+00  0.74505805969E-08  0.10566000000E+00  0.10566000000E+00 0. -1.
     999900   -1    0    0    0    0 -0.00000000000E+00 -0.00000000000E+00 -0.74505805969E-08  0.93827000000E+00  0.93827000000E+00 0.  1.
     999902    2    1    2    0    0  0.20053840586E-02 -0.23923398212E-02 -0.23297306703E-01  0.10204244825E+01  0.10201537213E+01 0.  0.
     999903    2    3    3    0    0 -0.30075729888E-01 -0.61994065823E-01  0.10671938369E+00  0.12830010582E+00  0.18002126898E-01 0.  0.
         14    1    1    2    0    0 -0.20053840586E-02  0.23923398212E-02  0.23297306703E-01  0.23505517537E-01  0.00000000000E+00 0. -1.
     999901    1    3    3    0    0  0.32081113946E-01  0.59601726002E-01 -0.13001669040E+00  0.89212437664E+00  0.88000000000E+00 0.  1.
        -11    1    4    4    0    0 -0.15809672650E-01 -0.14039295750E-01  0.33516103408E-01  0.39631274054E-01  0.51100000000E-03 0.  1.
         11    1    4    4    0    0 -0.14266057237E-01 -0.47954770073E-01  0.73203280285E-01  0.88668831769E-01  0.51100000000E-03 0. -1.
</event>
<event>
 8    1  0.1054833E+005  0.1043930E+01  0.7957747E-01            NaN
         13   -1    0    0    0    0  0.00000000000E+00  0.00000000000E+00  0.74505805969E-08  0.10566000000E+00  0.10566000000E+00 0. -1.
     999900   -1    0    0    0    0 -0.00000000000E+00 -0.00000000000E+00 -0.74505805969E-08  0.93827000000E+00  0.93827000000E+00 0. -1.
     999902    2    1    2    0    0  0.40497481956E-02  0.25525892977E-01 -0.54144106217E-03  0.10180791812E+01  0.10177509295E+01 0.  0.
     999903    2    3    3    0    0 -0.50947892199E-01  0.92626873421E-01  0.74364983542E-01  0.13064566007E+00  0.19045007728E-01 0.  0.
         14    1    1    2    0    0 -0.40497481956E-02 -0.25525892977E-01  0.54144106217E-03  0.25850818771E-01  0.00000000000E+00 0.  1.
     999901    1    3    3    0    0  0.54997640394E-01 -0.67100980444E-01 -0.74906424604E-01  0.88743352116E+00  0.88000000000E+00 0. -1.
        -11    1    4    4    0    0 -0.48862834141E-01  0.82057452383E-01  0.71998872943E-01  0.11960393337E+00  0.51100000000E-03 0. -1.
         11    1    4    4    0    0 -0.20850580579E-02  0.10569421038E-01  0.23661105994E-02  0.11041726701E-01  0.51100000000E-03 0.  1.
</event>
<event>
 8    1  0.1054833E+005  0.1043930E+01  0.7957747E-01            NaN
         13   -1    0    0    0    0  0.00000000000E+00  0.00000000000E+00  0.74505805969E-08  0.10566000000E+00  0.10566000000E+00 0.  1.
     999900   -1    0    0    0    0 -0.00000000000E+00 -0.00000000000E+00 -0.74505805969E-08  0.93827000000E+00  0.93827000000E+00 0.  1.
     999902    2    1    2    0    0 -0.11613294421E-01 -0.26051080981E-02  0.12989053145E-01  0.10263126592E+01  0.10261614414E+01 0.  0.
     999903    2    3    3    0    0  0.11339191427E+00  0.61815712861E-01  0.33719978476E-01  0.13490584093E+00  0.19586740224E-01 0.  0.
         14    1    1    2    0    0  0.11613294421E-01  0.26051080981E-02 -0.12989053145E-01  0.17617340807E-01  0.00000000000E+00 0. -1.
     999901    1    3    3    0    0 -0.12500520869E+00 -0.64420820959E-01 -0.20730925331E-01  0.89140681826E+00  0.88000000000E+00 0. -1.
        -11    1    4    4    0    0  0.39314104525E-01  0.19638773798E-01  0.21029929339E-01  0.48721651243E-01  0.51100000000E-03 0.  1.
         11    1    4    4    0    0  0.74077809740E-01  0.42176939063E-01  0.12690049137E-01  0.86184189691E-01  0.51100000000E-03 0. -1.
</event>
<event>
 8    1  0.1054833E+005  0.1043930E+01  0.7957747E-01            NaN
         13   -1    0    0    0    0  0.00000000000E+00  0.00000000000E+00  0.74505805969E-08  0.10566000000E+00  0.10566000000E+00 0.  1.
     999900   -1    0    0    0    0 -0.00000000000E+00 -0.00000000000E+00 -0.74505805969E-08  0.93827000000E+00  0.93827000000E+00 0.  1.
     999902    2    1    2    0    0 -0.62803028199E-02 -0.10413583274E-01  0.20959656438E-01  0.10196979527E+01  0.10194099875E+01 0.  0.
     999903    2    3    3    0    0 -0.89944706036E-01 -0.91324279608E-01  0.26244175255E-01  0.13201884438E+00  0.17608076168E-01 0.  0.
         14    1    1    2    0    0  0.62803028199E-02  0.10413583274E-01 -0.20959656438E-01  0.24232047337E-01  0.00000000000E+00 0. -1.
     999901    1    3    3    0    0  0.83664403216E-01  0.80910696334E-01 -0.52845188168E-02  0.88767910829E+00  0.88000000000E+00 0. -1.
        -11    1    4    4    0    0 -0.43701784422E-01 -0.32280083036E-01  0.91899723959E-02  0.55105049099E-01  0.51100000000E-03 0. -1.
         11    1    4    4    0    0 -0.46242921614E-01 -0.59044196572E-01  0.17054202859E-01  0.76913795280E-01  0.51100000000E-03 0.  1.
</event>
<event>
 8    1  0.1054833E+005  0.1043930E+01  0.7957747E-01            NaN
         13   -1    0    0    0    0  0.00000000000E+00  0.00000000000E+00  0.74505805969E-08  0.10566000000E+00  0.10566000000E+00 0.  1.
     999900   -1    0    0    0    0 -0.00000000000E+00 -0.00000000000E+00 -0.74505805969E-08  0.93827000000E+00  0.93827000000E+00 0. -1.
     999902    2    1    2    0    0  0.20714744750E-01 -0.18633617137E-02 -0.87201111954E-02  0.10213775477E+01  0.10211285334E+01 0.  0.
     999903    2    3    3    0    0 -0.72819572106E-01  0.83844467167E-01 -0.66100312515E-01  0.13043030576E+00  0.17613307176E-01 0.  0.
         14    1    1    2    0    0 -0.20714744750E-01  0.18633617137E-02  0.87201111954E-02  0.22552452332E-01  0.00000000000E+00 0.  1.
     999901    1    3    3    0    0  0.93534316856E-01 -0.85707828881E-01  0.57380201320E-01  0.89094724191E+00  0.88000000000E+00 0.  1.
        -11    1    4    4    0    0 -0.40747282612E-01  0.34011473087E-01 -0.33941523077E-01  0.63003249532E-01  0.51100000000E-03 0.  1.
         11    1    4    4    0    0 -0.32072289494E-01  0.49832994080E-01 -0.32158789438E-01  0.67427056227E-01  0.51100000000E-03 0. -1.
</event>
<event>
 8    1  0.1054833E+005  0.1043930E+01  0.7957747E-01            NaN
         13   -1    0    0    0    0  0.00000000000E+00  0.00000000000E+00  0.74505805969E-08  0.10566000000E+00  0.10566000000E+00 0. -1.
     999900   -1    0    0    0    0 -0.00000000000E+00 -0.00000000000E+00 -0.74505805969E-08  0.93827000000E+00  0.93827000000E+00 0.  1.
     999902    2    1    2    0    0 -0.98182022472E-02  0.21547644875E-02  0.20975765469E-01  0.10206701023E+01  0.10204050347E+01 0.  0.
     999903    2    3    3    0    0 -0.38371169289E-02  0.11005011682E-01  0.13165676686E+00  0.13367270412E+00  0.19976331444E-01 0.  0.
         14    1    1    2    0    0  0.98182022472E-02 -0.21547644875E-02 -0.20975765469E-01  0.23259897729E-01  0.00000000000E+00 0.  1.
     999901    1    3    3    0    0 -0.59810853183E-02 -0.88502471945E-02 -0.11068100139E+00  0.88699739815E+00  0.88000000000E+00 0.  1.
        -11    1    4    4    0    0  0.59072788439E-02 -0.24996552295E-02  0.39908397161E-01  0.40423823478E-01  0.51100000000E-03 0.  1.
         11    1    4    4    0    0 -0.97443957728E-02  0.13504666912E-01  0.91748369700E-01  0.93248880642E-01  0.51100000000E-03 0. -1.
</event>
<event>
 8    1  0.1054833E+005  0.1043930E+01  0.7957747E-01            NaN
         13   -1    0    0    0    0  0.00000000000E+00  0.00000000000E+00  0.74505805969E-08  0.10566000000E+00  0.10566000000E+00 0. -1.
     999900   -1    0    0    0    0 -0.00000000000E+00 -0.00000000000E+00 -0.74505805969E-08  0.93827000000E+00  0.93827000000E+00 0. -1.
     999902    2    1    2    0    0  0.24867893499E-02 -0.21772283817E-01 -0.86583761058E-02  0.10203676584E+01  0.10200955712E+01 0.  0.
     999903    2    3    3    0    0  0.78004021901E-01 -0.25730939017E-01  0.99380995522E-01  0.13054125446E+00  0.20438399887E-01 0.  0.
         14    1    1    2    0    0 -0.24867893499E-02  0.21772283817E-01  0.86583761058E-02  0.23562341579E-01  0.00000000000E+00 0.  1.
     999901    1    3    3    0    0 -0.75517232551E-01  0.39586551995E-02 -0.10803937163E+00  0.88982640396E+00  0.88000000000E+00 0. -1.
        -11    1    4    4    0    0  0.39468360017E-01 -0.22339342934E-01  0.45841603108E-01  0.64486520930E-01  0.51100000000E-03 0. -1.
         11    1    4    4    0    0  0.38535661884E-01 -0.33915960832E-02  0.53539392414E-01  0.66054733531E-01  0.51100000000E-03 0.  1.
</event>
<event>
 8    1  0.1054833E+005  0.1043930E+01  0.7957747E-01            NaN
         13   -1    0    0    0    0  0.00000000000E+00  0.00000000000E+00  0.74505805969E-08  0.10566000000E+00  0.10566000000E+00 0. -1.
     999900   -1    0    0    0    0 -0.00000000000E+00 -0.00000000000E+00 -0.74505805969E-08  0.93827000000E+00  0.93827000000E+00 0.  1.
     999902    2    1    2    0    0  0.12543907930E-01 -0.14359412465E-02  0.18370922101E-01  0.10216386938E+01  0.10213954760E+01 0.  0.
     999903    2    3    3    0    0 -0.61069376604E-01  0.62256900433E-01 -0.94804926780E-01  0.12906686671E+00  0.80555279172E-02 0.  0.
         14    1    1    2    0    0 -0.12543907930E-01  0.14359412465E-02 -0.18370922101E-01  0.22291306203E-01  0.00000000000E+00 0.  1.
     999901    1    3    3    0    0  0.73613284534E-01 -0.63692841679E-01  0.11317584888E+00  0.89257182709E+00  0.88000000000E+00 0. -1.
        -11    1    4    4    0    0 -0.48132508841E-01  0.52250215645E-01 -0.80115009620E-01  0.10707707191E+00  0.51100000000E-03 0.  1.
         11    1    4    4    0    0 -0.12936867763E-01  0.10006684787E-01 -0.14689917160E-01  0.21989794795E-01  0.51100000000E-03 0. -1.
</event>
<event>
 8    1  0.1054833E+005  0.1043930E+01  0.7957747E-01            NaN
         13   -1    0    0    0    0  0.00000000000E+00  0.00000000000E+00  0.74505805969E-08  0.10566000000E+00  0.10566000000E+00 0.  1.
     999900   -1    0    0    0    0 -0.00000000000E+00 -0.00000000000E+00 -0.74505805969E-08  0.93827000000E+00  0.93827000000E+00 0.  1.
     999902    2    1    2    0    0 -0.14548791228E-01  0.75541303139E-02  0.17731739870E-01  0.10197815671E+01  0.10194956095E+01 0.  0.
     999903    2    3    3    0    0  0.19851297543E-01 -0.11206978549E+00  0.59474065802E-01  0.13004246542E+00  0.20497987139E-01 0.  0.
         14    1    1    2    0    0  0.14548791228E-01 -0.75541303139E-02 -0.17731739870E-01  0.24148432865E-01  0.00000000000E+00 0. -1.
     999901    1    3    3    0    0 -0.34400088771E-01  0.11962391580E+00 -0.41742325932E-01  0.88973910171E+00  0.88000000000E+00 0. -1.
        -11    1    4    4    0    0  0.43740176780E-04 -0.49775573716E-01  0.31716562493E-01  0.59023818153E-01  0.51100000000E-03 0.  1.
         11    1    4    4    0    0  0.19807557366E-01 -0.62294211773E-01  0.27757503309E-01  0.71018647271E-01  0.51100000000E-03 0. -1.
</event>
<event>
 8    1  0.1054833E+005  0.1043930E+01  0.7957747E-01            NaN
         13   -1    0    0    0    0  0.00000000000E+00  0.00000000000E+00  0.74505805969E-08  0.10566000000E+00  0.10566000000E+00 0.  1.
     999900   -1    0    0    0    0 -0.00000000000E+00 -0.00000000000E+00 -0.74505805969E-08  0.93827000000E+00  0.93827000000E+00 0. -1.
     999902    2    1    2    0    0 -0.29745560670E-01 -0.13030822396E-01 -0.73952167452E-02  0.10106239954E+01  0.10100750319E+01 0.  0.
     999903    2    3    3    0    0 -0.42072523082E-01  0.97156904979E-01 -0.57915118500E-01  0.12222906647E+00  0.19396452158E-01 0.  0.
         14    1    1    2    0    0  0.29745560670E-01  0.13030822396E-01  0.73952167452E-02  0.33306004602E-01  0.00000000000E+00 0. -1.
     999901    1    3    3    0    0  0.12326962412E-01 -0.11018772738E+00  0.50519901755E-01  0.88839492893E+00  0.88000000000E+00 0.  1.
        -11    1    4    4    0    0 -0.14061957509E-01  0.15652782482E-01 -0.15716229086E-01  0.26268026688E-01  0.51100000000E-03 0.  1.
         11    1    4    4    0    0 -0.28010565572E-01  0.81504122497E-01 -0.42198889414E-01  0.95961039784E-01  0.51100000000E-03 0. -1.
</event>
<event>
 8    1  0.1054833E+005  0.1043930E+01  0.7957747E-01            NaN
         13   -1    0    0    0    0  0.00000000000E+00  0.00000000000E+00  0.74505805969E-08  0.10566000000E+00  0.10566000000E+00 0.  1.
     999900   -1    0    0    0    0 -0.00000000000E+00 -0.00000000000E+00 -0.74505805969E-08  0.93827000000E+00  0.93827000000E+00 0.  1.
     999902    2    1    2    0    0  0.20204454274E-01  0.99967745037E-02 -0.47368169079E-02  0.10208953976E+01  0.10206354981E+01 0.  0.
     999903    2    3    3    0    0 -0.51427874256E-01 -0.60542581208E-01  0.99732794149E-01  0.12903167997E+00  0.19806913400E-01 0.  0.
         14    1    1    2    0    0 -0.20204454274E-01 -0.99967745037E-02  0.47368169079E-02  0.23034602393E-01  0.00000000000E+00 0.  1.
     999901    1    3    3    0    0  0.71632328530E-01  0.70539355712E-01 -0.10446961106E+00  0.89186371763E+00  0.88000000000E+00 0.  1.
        -11    1    4    4    0    0 -0.11216618966E-01 -0.87796057415E-02  0.81832111614E-02  0.16435330356E-01  0.51100000000E-03 0.  1.
         11    1    4    4    0    0 -0.40211255289E-01 -0.51762975467E-01  0.91549582988E-01  0.11259634962E+00  0.51100000000E-03 0. -1.
</event>
<event>
 8    1  0.1054833E+005  0.1043930E+01  0.7957747E-01            NaN
         13   -1    0    0    0    0  0.00000000000E+00  0.00000000000E+00  0.74505805969E-08  0.10566000000E+00  0.10566000000E+00 0. -1.
     999900   -1    0    0    0    0 -0.00000000000E+00 -0.00000000000E+00 -0.74505805969E-08  0.93827000000E+00  0.93827000000E+00 0. -1.
     999902    2    1    2    0    0  0.87339864753E-02  0.12378021757E-01  0.18296720912E-01  0.10201756754E+01  0.10198990836E+01 0.  0.
     999903    2    3    3    0    0 -0.12160702880E-01 -0.11150092642E+00 -0.58042409017E-01  0.12798161319E+00  0.20737231805E-01 0.  0.
         14    1    1    2    0    0 -0.87339864753E-02 -0.12378021757E-01 -0.18296720912E-01  0.23754324628E-01  0.00000000000E+00 0.  1.
     999901    1    3    3    0    0  0.20894689356E-01  0.12387894817E+00  0.76339129930E-01  0.89219406219E+00  0.88000000000E+00 0. -1.
        -11    1    4    4    0    0  0.42874653225E-02 -0.45789346772E-01 -0.18730687968E-01  0.49660310404E-01  0.51100000000E-03 0. -1.
         11    1    4    4    0    0 -0.16448168203E-01 -0.65711579643E-01 -0.39311721049E-01  0.78321302781E-01  0.51100000000E-03 0.  1.
</event>
<event>
 8    1  0.1054833E+005  0.1043930E+01  0.7957747E-01            NaN
         13   -1    0    0    0    0  0.00000000000E+00  0.00000000000E+00  0.74505805969E-08  0.10566000000E+00  0.10566000000E+00 0.  1.
     999900   -1    0    0    0    0 -0.00000000000E+00 -0.00000000000E+00 -0.74505805969E-08  0.93827000000E+00  0.93827000000E+00 0.  1.
     999902    2    1    2    0    0 -0.19306304117E-01  0.13467843180E-01  0.39876752428E-02  0.10200549559E+01  0.10197755122E+01 0.  0.
     999903    2    3    3    0    0  0.47339519588E-02  0.87445443976E-01 -0.95150973883E-01  0.13107852700E+00  0.21418600228E-01 0.  0.
         14    1    1    2    0    0  0.19306304117E-01 -0.13467843180E-01 -0.39876752428E-02  0.23875044134E-01  0.00000000000E+00 0.  1.
     999901    1    3    3    0    0 -0.24040256076E-01 -0.73977600797E-01  0.99138649126E-01  0.88897642887E+00  0.88000000000E+00 0. -1.
        -11    1    4    4    0    0  0.32712808173E-02  0.78606800515E-01 -0.73606483607E-01  0.10773999218E+00  0.51100000000E-03 0.  1.
         11    1    4    4    0    0  0.14626711414E-02  0.88386434608E-02 -0.21544490275E-01  0.23338534815E-01  0.51100000000E-03 0. -1.
</event>
<event>
 8    1  0.1054833E+005  0.1043930E+01  0.7957747E-01            NaN
         13   -1    0    0    0    0  0.00000000000E+00  0.00000000000E+00  0.74505805969E-08  0.10566000000E+00  0.10566000000E+00 0. -1.
     999900   -1    0    0    0    0 -0.00000000000E+00 -0.00000000000E+00 -0.74505805969E-08  0.93827000000E+00  0.93827000000E+00 0.  1.
     999902    2    1    2    0    0  0.13079218540E-01  0.15399724823E-01 -0.12284360139E-01  0.10202842184E+01  0.10200101781E+01 0.  0.
     999903    2    3    3    0    0  0.12018147041E-01 -0.75018501505E-01 -0.10480505011E+00  0.13082558555E+00  0.18947925466E-01 0.  0.
         14    1    1    2    0    0 -0.13079218540E-01 -0.15399724823E-01  0.12284360139E-01  0.23645781575E-01  0.00000000000E+00 0.  1.
     999901    1    3    3    0    0  0.10610714985E-02  0.90418226329E-01  0.92520689970E-01  0.88945863288E+00  0.88000000000E+00 0. -1.
        -11    1    4    4    0    0 -0.47123140150E-02 -0.10360620010E-01 -0.17939460770E-01  0.21251675795E-01  0.51100000000E-03 0.  1.
         11    1    4    4    0    0  0.16730461056E-01 -0.64657881495E-01 -0.86865589340E-01  0.10957390975E+00  0.51100000000E-03 0. -1.
</event>
<event>
 7    1  0.1116394E+005  0.1043930E+01  0.7957747E-01            NaN
         13   -1    0    0    0    0  0.00000000000E+00  0.00000000000E+00  0.74505805969E-08  0.10566000000E+00  0.10566000000E+00 0. -1.
     999900   -1    0    0    0    0 -0.00000000000E+00 -0.00000000000E+00 -0.74505805969E-08  0.93827000000E+00  0.93827000000E+00 0. -1.
     999903    2    1    2    0    0  0.51072118705E-01  0.61509247182E-01 -0.84928837144E-01  0.11831940446E+00  0.19870211251E-01 0.  0.
         14    1    1    2    0    0 -0.37125222174E-01 -0.15099173708E-02 -0.96866025575E-02  0.38397815577E-01  0.00000000000E+00 0. -1.
     999901    1    1    2    0    0 -0.13946896531E-01 -0.59999329811E-01  0.94615439701E-01  0.88721277996E+00  0.88000000000E+00 0.  1.
        -11    1    3    3    0    0  0.22004571290E-01  0.18305969540E-01 -0.19235208890E-01  0.34490057416E-01  0.51100000000E-03 0.  1.
         11    1    3    3    0    0  0.29067547415E-01  0.43203277641E-01 -0.65693628254E-01  0.83829347044E-01  0.51100000000E-03 0. -1.
</event>
<event>
 8    1  0.1054833E+005  0.1043930E+01  0.7957747E-01            NaN
         13   -1    0    0    0    0  0.00000000000E+00  0.00000000000E+00  0.74505805969E-08  0.10566000000E+00  0.10566000000E+00 0.  1.
     999900   -1    0    0    0    0 -0.00000000000E+00 -0.00000000000E+00 -0.74505805969E-08  0.93827000000E+00  0.93827000000E+00 0.  1.
     999902    2    1    2    0    0  0.18370443338E-01  0.79349346069E-02 -0.50461493058E-02  0.10232926552E+01  0.10230845313E+01 0.  0.
     999903    2    3    3    0    0 -0.40707439811E-01 -0.39710642573E-01  0.11697290236E+00  0.13163748296E+00  0.20291284893E-01 0.  0.
         14    1    1    2    0    0 -0.18370443338E-01 -0.79349346069E-02  0.50461493058E-02  0.20637344754E-01  0.00000000000E+00 0.  1.
     999901    1    3    3    0    0  0.59077883149E-01  0.47645577180E-01 -0.12201905167E+00  0.89165517229E+00  0.88000000000E+00 0.  1.
        -11    1    4    4    0    0 -0.77140373643E-02 -0.74071659366E-02  0.43979537553E-01  0.45264040077E-01  0.51100000000E-03 0.  1.
         11    1    4    4    0    0 -0.32993402447E-01 -0.32303476636E-01  0.72993364808E-01  0.86373442879E-01  0.51100000000E-03 0. -1.
</event>
<event>
 8    1  0.1054833E+005  0.1043930E+01  0.7957747E-01            NaN
         13   -1    0    0    0    0  0.00000000000E+00  0.00000000000E+00  0.74505805969E-08  0.10566000000E+00  0.10566000000E+00 0.  1.
     999900   -1    0    0    0    0 -0.00000000000E+00 -0.00000000000E+00 -0.74505805969E-08  0.93827000000E+00  0.93827000000E+00 0.  1.
     999902    2    1    2    0    0  0.18830123614E-03  0.80516613298E-02 -0.21762882355E-01  0.10207246610E+01  0.10204608498E+01 0.  0.
     999903    2    3    3    0    0 -0.83130805645E-01 -0.39551411856E-01 -0.93413427941E-01  0.13261322275E+00  0.19625322976E-01 0.  0.
         14    1    1    2    0    0 -0.18830123614E-03 -0.80516613298E-02  0.21762882355E-01  0.23205338953E-01  0.00000000000E+00 0.  1.
     999901    1    3    3    0    0  0.83319106881E-01  0.47603073186E-01  0.71650545587E-01  0.88811143830E+00  0.88000000000E+00 0. -1.
        -11    1    4    4    0    0 -0.11189603553E-01 -0.29756937218E-02 -0.42408111424E-02  0.12341295756E-01  0.51100000000E-03 0. -1.
         11    1    4    4    0    0 -0.71941202092E-01 -0.36575718134E-01 -0.89172616799E-01  0.12027192700E+00  0.51100000000E-03 0.  1.
</event>
<event>
 8    1  0.1054833E+005  0.1043930E+01  0.7957747E-01            NaN
         13   -1    0    0    0    0  0.00000000000E+00  0.00000000000E+00  0.74505805969E-08  0.10566000000E+00  0.10566000000E+00 0. -1.
     999900   -1    0    0    0    0 -0.00000000000E+00 -0.00000000000E+00 -0.74505805969E-08  0.93827000000E+00  0.93827000000E+00 0. -1.
     999902    2    1    2    0    0 -0.17295026278E-02 -0.24095481038E-01 -0.44518066708E-02  0.10193657583E+01  0.10190697460E+01 0.  0.
     999903    2    3    3    0    0  0.50260182706E-01  0.11250812577E+00  0.21886818571E-01  0.12692125253E+00  0.21114146554E-01 0.  0.
         14    1    1    2    0    0  0.17295026278E-02  0.24095481038E-01  0.44518066708E-02  0.24564241662E-01  0.00000000000E+00 0.  1.
     999901    1    3    3    0    0 -0.51989685333E-01 -0.13660360681E+00 -0.26338625242E-01  0.89244450581E+00  0.88000000000E+00 0. -1.
        -11    1    4    4    0    0  0.36908852790E-01  0.57249996463E-01  0.13737887275E-01  0.69489683962E-01  0.51100000000E-03 0. -1.
         11    1    4    4    0    0  0.13351329916E-01  0.55258129311E-01  0.81489312967E-02  0.57431568564E-01  0.51100000000E-03 0.  1.
</event>
<event>
 8    1  0.1054833E+005  0.1043930E+01  0.7957747E-01            NaN
         13   -1    0    0    0    0  0.00000000000E+00  0.00000000000E+00  0.74505805969E-08  0.10566000000E+00  0.10566000000E+00 0.  1.
     999900   -1    0    0    0    0 -0.00000000000E+00 -0.00000000000E+00 -0.74505805969E-08  0.93827000000E+00  0.93827000000E+00 0. -1.
     999902    2    1    2    0    0  0.29569180593E-02  0.10576720319E-01 -0.20376301843E-01  0.10207825584E+01  0.10205200769E+01 0.  0.
     999903    2    3    3    0    0 -0.12873419782E+00 -0.84879584662E-02 -0.12266402443E-01  0.13074223207E+00  0.17277948074E-01 0.  0.
         14    1    1    2    0    0 -0.29569180593E-02 -0.10576720319E-01  0.20376301843E-01  0.23147441628E-01  0.00000000000E+00 0.  1.
     999901    1    3    3    0    0  0.13169111588E+00  0.19064678785E-01 -0.81098994007E-02  0.89004032630E+00  0.88000000000E+00 0. -1.
        -11    1    4    4    0    0 -0.26555084408E-01  0.15005714818E-02 -0.87864392500E-02  0.28015832281E-01  0.51100000000E-03 0.  1.
         11    1    4    4    0    0 -0.10217911341E+00 -0.99885299480E-02 -0.34799631928E-02  0.10272639979E+00  0.51100000000E-03 0. -1.
</event>
<event>
 8    1  0.1054833E+005  0.1043930E+01  0.7957747E-01            NaN
         13   -1    0    0    0    0  0.00000000000E+00  0.00000000000E+00  0.74505805969E-08  0.10566000000E+00  0.10566000000E+00 0. -1.
     999900   -1    0    0    0    0 -0.00000000000E+00 -0.00000000000E+00 -0.74505805969E-08  0.93827000000E+00  0.93827000000E+00 0. -1.
     999902    2    1    2    0    0 -0.43334659153E-02  0.13981111992E-01  0.18609620856E-01  0.10202536741E+01  0.10199789170E+01 0.  0.
     999903    2    3    3    0    0 -0.12723549013E+00 -0.11520439165E-02  0.27091466011E-01  0.13154345043E+00  0.19481649513E-01 0.  0.
         14    1    1    2    0    0  0.43334659153E-02 -0.13981111992E-01 -0.18609620856E-01  0.23676325893E-01  0.00000000000E+00 0.  1.
     999901    1    3    3    0    0  0.12290202421E+00  0.15133155908E-01 -0.84818451550E-02  0.88871022367E+00  0.88000000000E+00 0. -1.
        -11    1    4    4    0    0 -0.62012409695E-01 -0.31955195252E-02  0.36506700293E-02  0.62204009629E-01  0.51100000000E-03 0. -1.
         11    1    4    4    0    0 -0.65223080435E-01  0.20434756087E-02  0.23440795982E-01  0.69339440805E-01  0.51100000000E-03 0.  1.
</event>
<event>
 8    1  0.1054833E+005  0.1043930E+01  0.7957747E-01            NaN
         13   -1    0    0    0    0  0.00000000000E+00  0.00000000000E+00  0.74505805969E-08  0.10566000000E+00  0.10566000000E+00 0.  1.
     999900   -1    0    0    0    0 -0.00000000000E+00 -0.00000000000E+00 -0.74505805969E-08  0.93827000000E+00  0.93827000000E+00 0.  1.
     999902    2    1    2    0    0 -0.22855523184E-01  0.37954160008E-02  0.54745150529E-02  0.10201234791E+01  0.10198456560E+01 0.  0.
     999903    2    3    3    0    0 -0.54492013761E-01 -0.11725126290E+00  0.10458259007E-01  0.13126015793E+00  0.20065285029E-01 0.  0.
         14    1    1    2    0    0  0.22855523184E-01 -0.37954160008E-02 -0.54745150529E-02  0.23806520907E-01  0.00000000000E+00 0. -1.
     999901    1    3    3    0    0  0.31636490576E-01  0.12104667890E+00 -0.49837439544E-02  0.88886332116E+00  0.88000000000E+00 0.  1.
        -11    1    4    4    0    0 -0.31827601633E-01 -0.49610328498E-01  0.10772065489E-01  0.59920609437E-01  0.51100000000E-03 0.  1.
         11    1    4    4    0    0 -0.22664412128E-01 -0.67640934399E-01 -0.31380648218E-03  0.71339548491E-01  0.51100000000E-03 0. -1.
</event>
<event>
 8    1  0.1054833E+005  0.1043930E+01  0.7957747E-01            NaN
         13   -1    0    0    0    0  0.00000000000E+00  0.00000000000E+00  0.74505805969E-08  0.10566000000E+00  0.10566000000E+00 0.  1.
     999900   -1    0    0    0    0 -0.00000000000E+00 -0.00000000000E+00 -0.74505805969E-08  0.93827000000E+00  0.93827000000E+00 0.  1.
     999902    2    1    2    0    0  0.75858675366E-02 -0.93623314139E-02 -0.20925330206E-01  0.10197831973E+01  0.10194972788E+01 0.  0.
     999903    2    3    3    0    0 -0.70928630239E-01 -0.28039036989E-01  0.10057968508E+00  0.12777601436E+00  0.19833774530E-01 0.  0.
         14    1    1    2    0    0 -0.75858675366E-02  0.93623314139E-02  0.20925330206E-01  0.24146802687E-01  0.00000000000E+00 0.  1.
     999901    1    3    3    0    0  0.78514497776E-01  0.18676705575E-01 -0.12150501529E+00  0.89200718295E+00  0.88000000000E+00 0.  1.
        -11    1    4    4    0    0 -0.32188980163E-02  0.36829913672E-03  0.13387162116E-01  0.13783112102E-01  0.51100000000E-03 0. -1.
         11    1    4    4    0    0 -0.67709732223E-01 -0.28407336126E-01  0.87192522968E-01  0.11399290226E+00  0.51100000000E-03 0.  1.
</event>
<event>
 8    1  0.1054833E+005  0.1043930E+01  0.7957747E-01            NaN
         13   -1    0    0    0    0  0.00000000000E+00  0.00000000000E+00  0.74505805969E-08  0.10566000000E+00  0.10566000000E+00 0.  1.
     999900   -1    0    0    0    0 -0.00000000000E+00 -0.00000000000E+00 -0.74505805969E-08  0.93827000000E+00  0.93827000000E+00 0.  1.
     999902    2    1    2    0    0 -0.85833357891E-02 -0.18385186402E-01  0.12339953453E-01  0.10201820910E+01  0.10199056503E+01 0.  0.
     999903    2    3    3    0    0 -0.78858254204E-01 -0.46847224605E-01 -0.90977342241E-01  0.13089973121E+00  0.21084973822E-01 0.  0.
         14    1    1    2    0    0  0.85833357891E-02  0.18385186402E-01 -0.12339953453E-01  0.23747909035E-01  0.00000000000E+00 0. -1.
     999901    1    3    3    0    0  0.70274918415E-01  0.28462038203E-01  0.10331729569E+00  0.88928235975E+00  0.88000000000E+00 0.  1.
        -11    1    4    4    0    0 -0.43031033486E-01 -0.19504737246E-01 -0.33796701156E-01  0.58091158948E-01  0.51100000000E-03 0.  1.
         11    1    4    4    0    0 -0.35827220718E-01 -0.27342487359E-01 -0.57180641084E-01  0.72808572264E-01  0.51100000000E-03 0. -1.
</event>
<event>
 8    1  0.1054833E+005  0.1043930E+01  0.7957747E-01            NaN
         13   -1    0    0    0    0  0.00000000000E+00  0.00000000000E+00  0.74505805969E-08  0.10566000000E+00  0.10566000000E+00 0.  1.
     999900   -1    0    0    0    0 -0.00000000000E+00 -0.00000000000E+00 -0.74505805969E-08  0.93827000000E+00  0.93827000000E+00 0.  1.
     999902    2    1    2    0    0  0.14850573554E-01 -0.15648386908E-02  0.17988777402E-01  0.10205508561E+01  0.10202830321E+01 0.  0.
     999903    2    3    3    0    0 -0.39598612588E-02  0.16696687832E-01  0.13035695451E+00  0.13301836489E+00  0.20161595268E-01 0.  0.
         14    1    1    2    0    0 -0.14850573554E-01  0.15648386908E-02 -0.17988777402E-01  0.23379143856E-01  0.00000000000E+00 0. -1.
     999901    1    3    3    0    0  0.18810434813E-01 -0.18261526522E-01 -0.11236817710E+00  0.88753249126E+00  0.88000000000E+00 0.  1.
        -11    1    4    4    0    0 -0.11957550592E-01  0.71991151661E-02  0.63743940410E-01  0.65256121057E-01  0.51100000000E-03 0.  1.
         11    1    4    4    0    0  0.79976893327E-02  0.94975726654E-02  0.66613014096E-01  0.67762243832E-01  0.51100000000E-03 0. -1.
</event>
<event>
 8    1  0.1054833E+005  0.1043930E+01  0.7957747E-01            NaN
         13   -1    0    0    0    0  0.00000000000E+00  0.00000000000E+00  0.74505805969E-08  0.10566000000E+00  0.10566000000E+00 0.  1.
     999900   -1    0    0    0    0 -0.00000000000E+00 -0.00000000000E+00 -0.74505805969E-08  0.93827000000E+00  0.93827000000E+00 0. -1.
     999902    2    1    2    0    0  0.16809595588E-01  0.13691039597E-01 -0.58934713406E-02  0.10214635790E+01  0.10212164820E+01 0.  0.
     999903    2    3    3    0    0 -0.85739610723E-02 -0.12787027587E+00 -0.38533019137E-02  0.12978645508E+00  0.20133448012E-01 0.  0.
         14    1    1    2    0    0 -0.16809595588E-01 -0.13691039597E-01  0.58934713406E-02  0.22466421021E-01  0.00000000000E+00 0.  1.
     999901    1    3    3    0    0  0.25383556660E-01  0.14156131546E+00 -0.20401694269E-02  0.89167712389E+00  0.88000000000E+00 0. -1.
        -11    1    4    4    0    0 -0.61947870205E-02 -0.32226842577E-01 -0.88134915084E-02  0.33983577244E-01  0.51100000000E-03 0. -1.
         11    1    4    4    0    0 -0.23791740518E-02 -0.95643433290E-01  0.49601895947E-02  0.95802877840E-01  0.51100000000E-03 0.  1.
</event>
<event>
 8    1  0.1054833E+005  0.1043930E+01  0.7957747E-01            NaN
         13   -1    0    0    0    0  0.00000000000E+00  0.00000000000E+00  0.74505805969E-08  0.10566000000E+00  0.10566000000E+00 0.  1.
     999900   -1    0    0    0    0 -0.00000000000E+00 -0.00000000000E+00 -0.74505805969E-08  0.93827000000E+00  0.93827000000E+00 0.  1.
     999902    2    1    2    0    0  0.21642249812E-01  0.10154648377E-01  0.14676594426E-02  0.10199788438E+01  0.10196975943E+01 0.  0.
     999903    2    3    3    0    0  0.19359218545E-01 -0.87313067145E-01 -0.92093333079E-01  0.12966495130E+00  0.18261066810E-01 0.  0.
         14    1    1    2    0    0 -0.21642249812E-01 -0.10154648377E-01 -0.14676594426E-02  0.23951156232E-01  0.00000000000E+00 0. -1.
     999901    1    3    3    0    0  0.22830312679E-02  0.97467715522E-01  0.93560992522E-01  0.89031389247E+00  0.88000000000E+00 0. -1.
        -11    1    4    4    0    0  0.14191488957E-01 -0.45478786678E-01 -0.37167669213E-01  0.60426940617E-01  0.51100000000E-03 0. -1.
         11    1    4    4    0    0  0.51677295878E-02 -0.41834280467E-01 -0.54925663866E-01  0.69238010683E-01  0.51100000000E-03 0.  1.
</event>
<event>
 8    1  0.1054833E+005  0.1043930E+01  0.7957747E-01            NaN
         13   -1    0    0    0    0  0.00000000000E+00  0.00000000000E+00  0.74505805969E-08  0.10566000000E+00  0.10566000000E+00 0.  1.
     999900   -1    0    0    0    0 -0.00000000000E+00 -0.00000000000E+00 -0.74505805969E-08  0.93827000000E+00  0.93827000000E+00 0.  1.
     999902    2    1    2    0    0 -0.21965163557E-01  0.63075757945E-02 -0.62345280425E-02  0.10202419595E+01  0.10199669272E+01 0.  0.
     999903    2    3    3    0    0 -0.49250047971E-01  0.97979348747E-01  0.71408838875E-01  0.13166069069E+00  0.14484308618E-01 0.  0.
         14    1    1    2    0    0  0.21965163557E-01 -0.63075757945E-02  0.62345280425E-02  0.23688040493E-01  0.00000000000E+00 0.  1.
     999901    1    3    3    0    0  0.27284884414E-01 -0.91671772953E-01 -0.77643366918E-01  0.88858126882E+00  0.88000000000E+00 0.  1.
        -11    1    4    4    0    0 -0.14316621602E-01  0.28226916926E-01  0.13066878938E-01  0.34245130156E-01  0.51100000000E-03 0. -1.
         11    1    4    4    0    0 -0.34933426369E-01  0.69752431822E-01  0.58341959938E-01  0.97415560530E-01  0.51100000000E-03 0.  1.
</event>
<event>
 8    1  0.1054833E+005  0.1043930E+01  0.7957747E-01            NaN
         13   -1    0    0    0    0  0.00000000000E+00  0.00000000000E+00  0.74505805969E-08  0.10566000000E+00  0.10566000000E+00 0.  1.
     999900   -1    0    0    0    0 -0.00000000000E+00 -0.00000000000E+00 -0.74505805969E-08  0.93827000000E+00  0.93827000000E+00 0.  1.
     999902    2    1    2    0    0  0.32895667940E-03  0.97195386947E-02  0.21713087179E-01  0.10201384931E+01  0.10198610245E+01 0.  0.
     999903    2    3    3    0    0  0.11925326470E+00  0.35143143330E-01  0.38534445065E-01  0.13161595047E+00  0.19531341387E-01 0.  0.
         14    1    1    2    0    0 -0.32895667940E-03 -0.97195386947E-02 -0.21713087179E-01  0.23791506884E-01  0.00000000000E+00 0. -1.
     999901    1    3    3    0    0 -0.11892430802E+00 -0.25423604635E-01 -0.16821357886E-01  0.88852254265E+00  0.88000000000E+00 0.  1.
        -11    1    4    4    0    0  0.10656469161E+00  0.36506955153E-01  0.37816183005E-01  0.11882388687E+00  0.51100000000E-03 0. -1.
         11    1    4    4    0    0  0.12688573090E-01 -0.13638118229E-02  0.71826206069E-03  0.12792063600E-01  0.51100000000E-03 0.  1.
</event>
<event>
 8    1  0.1054833E+005  0.1043930E+01  0.7957747E-01            NaN
         13   -1    0    0    0    0  0.00000000000E+00  0.00000000000E+00  0.74505805969E-08  0.10566000000E+00  0.10566000000E+00 0. -1.
     999900   -1    0    0    0    0 -0.00000000000E+00 -0.00000000000E+00 -0.74505805969E-08  0.93827000000E+00  0.93827000000E+00 0. -1.
     999902    2    1    2    0    0 -0.66387266728E-02  0.37919055073E-02  0.22212712817E-01  0.10204383877E+01  0.10201679505E+01 0.  0.
     999903    2    3    3    0    0  0.11138936269E+00  0.60587505716E-01  0.24865370361E-01  0.13073989567E+00  0.19904715684E-01 0.  0.
         14    1    1    2    0    0  0.66387266728E-02 -0.37919055073E-02 -0.22212712817E-01  0.23491612331E-01  0.00000000000E+00 0.  1.
     999901    1    3    3    0    0 -0.11802808936E+00 -0.56795600209E-01 -0.26526575439E-02  0.88969849200E+00  0.88000000000E+00 0. -1.
        -11    1    4    4    0    0  0.93331545615E-01  0.51802704751E-01  0.13326674048E-01  0.10757396985E+00  0.51100000000E-03 0.  1.
         11    1    4    4    0    0  0.18057817073E-01  0.87848009657E-02  0.11538696313E-01  0.23165925819E-01  0.51100000000E-03 0. -1.
</event>
<event>
 8    1  0.1054833E+005  0.1043930E+01  0.7957747E-01            NaN
         13   -1    0    0    0    0  0.00000000000E+00  0.00000000000E+00  0.74505805969E-08  0.10566000000E+00  0.10566000000E+00 0. -1.
     999900   -1    0    0    0    0 -0.00000000000E+00 -0.00000000000E+00 -0.74505805969E-08  0.93827000000E+00  0.93827000000E+00 0. -1.
     999902    2    1    2    0    0  0.81750297040E-02  0.20832092227E-01 -0.76846252330E-02  0.10202686255E+01  0.10199942194E+01 0.  0.
     999903    2    3    3    0    0 -0.35987511213E-01  0.10088737195E+00  0.74114942672E-01  0.13175844148E+00  0.19846898832E-01 0.  0.
         14    1    1    2    0    0 -0.81750297040E-02 -0.20832092227E-01  0.76846252330E-02  0.23661374478E-01  0.00000000000E+00 0.  1.
     999901    1    3    3    0    0  0.44162540917E-01 -0.80055279720E-01 -0.81799567905E-01  0.88851018404E+00  0.88000000000E+00 0. -1.
        -11    1    4    4    0    0 -0.22286363219E-01  0.40120772268E-01  0.39121304379E-01  0.60308340470E-01  0.51100000000E-03 0. -1.
         11    1    4    4    0    0 -0.13701147994E-01  0.60766599678E-01  0.34993638292E-01  0.71450101013E-01  0.51100000000E-03 0.  1.
</event>
<event>
 8    1  0.1054833E+005  0.1043930E+01  0.7957747E-01            NaN
         13   -1    0    0    0    0  0.00000000000E+00  0.00000000000E+00  0.74505805969E-08  0.10566000000E+00  0.10566000000E+00 0. -1.
     999900   -1    0    0    0    0 -0.00000000000E+00 -0.00000000000E+00 -0.74505805969E-08  0.93827000000E+00  0.93827000000E+00 0. -1.
     999902    2    1    2    0    0  0.22021700050E-01 -0.62071774943E-02 -0.51617819258E-02  0.10204751856E+01  0.10202056048E+01 0.  0.
     999903    2    3    3    0    0  0.92677330719E-01  0.57768326910E-01  0.71360860293E-01  0.13202665132E+00  0.20307561484E-01 0.  0.
         14    1    1    2    0    0 -0.22021700050E-01  0.62071774943E-02  0.51617819258E-02  0.23454814392E-01  0.00000000000E+00 0. -1.
     999901    1    3    3    0    0 -0.70655630670E-01 -0.63975504405E-01 -0.76522642218E-01  0.88844853429E+00  0.88000000000E+00 0. -1.
        -11    1    4    4    0    0  0.73639752769E-01  0.37919509522E-01  0.46731443464E-01  0.95104107795E-01  0.51100000000E-03 0.  1.
         11    1    4    4    0    0  0.19037577950E-01  0.19848817388E-01  0.24629416828E-01  0.36922543524E-01  0.51100000000E-03 0. -1.
</event>
<event>
 8    1  0.1054833E+005  0.1043930E+01  0.7957747E-01            NaN
         13   -1    0    0    0    0  0.00000000000E+00  0.00000000000E+00  0.74505805969E-08  0.10566000000E+00  0.10566000000E+00 0. -1.
     999900   -1    0    0    0    0 -0.00000000000E+00 -0.00000000000E+00 -0.74505805969E-08  0.93827000000E+00  0.93827000000E+00 0.  1.
     999902    2    1    2    0    0  0.58396910097E-02  0.14589320179E-01 -0.16984948613E-01  0.10207904509E+01  0.10205281505E+01 0.  0.
     999903    2    3    3    0    0  0.85856501611E-01 -0.94311338022E-01 -0.17921090075E-01  0.13047426002E+00  0.20890182142E-01 0.  0.
         14    1    1    2    0    0 -0.58396910097E-02 -0.14589320179E-01  0.16984948613E-01  0.23139549126E-01  0.00000000000E+00 0. -1.
     999901    1    3    3    0    0 -0.80016810601E-01  0.10890065820E+00  0.93614146264E-03  0.89031619085E+00  0.88000000000E+00 0.  1.
        -11    1    4    4    0    0  0.40099742678E-01 -0.33380031739E-01 -0.14686149321E-01  0.54204796694E-01  0.51100000000E-03 0.  1.
         11    1    4    4    0    0  0.45756758933E-01 -0.60931306283E-01 -0.32349407543E-02  0.76269463326E-01  0.51100000000E-03 0. -1.
</event>
<event>
 8    1  0.1054833E+005  0.1043930E+01  0.7957747E-01            NaN
         13   -1    0    0    0    0  0.00000000000E+00  0.00000000000E+00  0.74505805969E-08  0.10566000000E+00  0.10566000000E+00 0.  1.
     999900   -1    0    0    0    0 -0.00000000000E+00 -0.00000000000E+00 -0.74505805969E-08  0.93827000000E+00  0.93827000000E+00 0.  1.
     999902    2    1    2    0    0 -0.23336248435E-01 -0.15588916772E-02  0.27977040249E-02  0.10203750052E+01  0.10201030896E+01 0.  0.
     999903    2    3    3    0    0 -0.34574175289E-01 -0.23675638480E-01 -0.12254353435E+00  0.13114732479E+00  0.20658981938E-01 0.  0.
         14    1    1    2    0    0  0.23336248435E-01  0.15588916772E-02 -0.27977040249E-02  0.23554994844E-01  0.00000000000E+00 0. -1.
     999901    1    3    3    0    0  0.11237926854E-01  0.22116746803E-01  0.12534123837E+00  0.88922768036E+00  0.88000000000E+00 0. -1.
        -11    1    4    4    0    0  0.61967289679E-03  0.22492562206E-02 -0.12740075828E-01  0.12962013777E-01  0.51100000000E-03 0.  1.
         11    1    4    4    0    0 -0.35193848186E-01 -0.25924894700E-01 -0.10980345852E+00  0.11818531101E+00  0.51100000000E-03 0. -1.
</event>
<event>
 8    1  0.1054833E+005  0.1043930E+01  0.7957747E-01            NaN
         13   -1    0    0    0    0  0.00000000000E+00  0.00000000000E+00  0.74505805969E-08  0.10566000000E+00  0.10566000000E+00 0.  1.
     999900   -1    0    0    0    0 -0.00000000000E+00 -0.00000000000E+00 -0.74505805969E-08  0.93827000000E+00  0.93827000000E+00 0.  1.
     999902    2    1    2    0    0 -0.10057716359E-01 -0.93261060200E-02  0.33415172604E-02  0.10298126472E+01  0.10297158777E+01 0.  0.
     999903    2    3    3    0    0  0.12029663605E+00  0.34142711898E-02 -0.63889712266E-01  0.13758251288E+00  0.19081787752E-01 0.  0.
         14    1    1    2    0    0  0.10057716359E-01  0.93261060200E-02 -0.33415172604E-02  0.14117352778E-01  0.00000000000E+00 0.  1.
     999901    1    3    3    0    0 -0.13035435241E+00 -0.12740377210E-01  0.67231229526E-01  0.89223013434E+00  0.88000000000E+00 0. -1.
        -11    1    4    4    0    0  0.10255226253E+00  0.95366505388E-02 -0.52270844059E-01  0.11550072083E+00  0.51100000000E-03 0.  1.
         11    1    4    4    0    0  0.17744373527E-01 -0.61223793489E-02 -0.11618868207E-01  0.22081792050E-01  0.51100000000E-03 0. -1.
</event>
<event>
 8    1  0.1054833E+005  0.1043930E+01  0.7957747E-01            NaN
         13   -1    0    0    0    0  0.00000000000E+00  0.00000000000E+00  0.74505805969E-08  0.10566000000E+00  0.10566000000E+00 0. -1.
     999900   -1    0    0    0    0 -0.00000000000E+00 -0.00000000000E+00 -0.74505805969E-08  0.93827000000E+00  0.93827000000E+00 0. -1.
     999902    2    1    2    0    0 -0.95454689092E-02 -0.76926743893E-02  0.19696030494E-01  0.10207302838E+01  0.10204666018E+01 0.  0.
     999903    2    3    3    0    0 -0.48544819462E-01 -0.11017774620E+00 -0.48293740189E-01  0.13132219509E+00  0.20432775839E-01 0.  0.
         14    1    1    2    0    0  0.95454689092E-02  0.76926743893E-02 -0.19696030494E-01  0.23199716230E-01  0.00000000000E+00 0.  1.
     999901    1    3    3    0    0  0.38999350553E-01  0.10248507181E+00  0.67989770683E-01  0.88940808868E+00  0.88000000000E+00 0.  1.
        -11    1    4    4    0    0 -0.13837313169E-01 -0.13384433725E-01 -0.65212456458E-02  0.20332291254E-01  0.51100000000E-03 0. -1.
         11    1    4    4    0    0 -0.34707506293E-01 -0.96793312473E-01 -0.41772494543E-01  0.11098990384E+00  0.51100000000E-03 0.  1.
</event>
<event>
 8    1  0.1054833E+005  0.1043930E+01  0.7957747E-01            NaN
         13   -1    0    0    0    0  0.00000000000E+00  0.00000000000E+00  0.74505805969E-08  0.10566000000E+00  0.10566000000E+00 0.  1.
     999900   -1    0    0    0    0 -0.00000000000E+00 -0.00000000000E+00 -0.74505805969E-08  0.93827000000E+00  0.93827000000E+00 0. -1.
     999902    2    1    2    0    0 -0.62609270600E-02 -0.21800202179E-01  0.27640757386E-02  0.10210807519E+01  0.10208250652E+01 0.  0.
     999903    2    3    3    0    0  0.13321727059E-01 -0.12850078272E+00 -0.28869424919E-01  0.13385520417E+00  0.19845715336E-01 0.  0.
         14    1    1    2    0    0  0.62609270600E-02  0.21800202179E-01 -0.27640757386E-02  0.22849248070E-01  0.00000000000E+00 0.  1.
     999901    1    3    3    0    0 -0.19582654119E-01  0.10670058054E+00  0.31633500658E-01  0.88722554776E+00  0.88000000000E+00 0. -1.
        -11    1    4    4    0    0  0.92533885683E-02 -0.36069554971E-01 -0.15640434121E-01  0.40392106856E-01  0.51100000000E-03 0.  1.
         11    1    4    4    0    0  0.40683384909E-02 -0.92431227749E-01 -0.13228990798E-01  0.93463097316E-01  0.51100000000E-03 0. -1.
</event>
<event>
 8    1  0.1054833E+005  0.1043930E+01  0.7957747E-01            NaN
         13   -1    0    0    0    0  0.00000000000E+00  0.00000000000E+00  0.74505805969E-08  0.10566000000E+00  0.10566000000E+00 0.  1.
     999900   -1    0    0    0    0 -0.00000000000E+00 -0.00000000000E+00 -0.74505805969E-08  0.93827000000E+00  0.93827000000E+00 0.  1.
     999902    2    1    2    0    0  0.68505020047E-02 -0.80134164613E-03 -0.23041351980E-01  0.10198784839E+01  0.10195948443E+01 0.  0.
     999903    2    3    3    0    0  0.51443545038E-01 -0.11647856234E+00  0.18523322729E-01  0.13021709827E+00  0.19992133138E-01 0.  0.
         14    1    1    2    0    0 -0.68505020047E-02  0.80134164613E-03  0.23041351980E-01  0.24051516111E-01  0.00000000000E+00 0.  1.
     999901    1    3    3    0    0 -0.44593043034E-01  0.11567722069E+00 -0.41564674709E-01  0.88966138562E+00  0.88000000000E+00 0. -1.
        -11    1    4    4    0    0  0.34689438002E-01 -0.85279930281E-01  0.46615327399E-02  0.92184676743E-01  0.51100000000E-03 0.  1.
         11    1    4    4    0    0  0.16754107036E-01 -0.31198632056E-01  0.13861789989E-01  0.38032421530E-01  0.51100000000E-03 0. -1.
</event>
<event>
 8    1  0.1054833E+005  0.1043930E+01  0.7957747E-01            NaN
         13   -1    0    0    0    0  0.00000000000E+00  0.00000000000E+00  0.74505805969E-08  0.10566000000E+00  0.10566000000E+00 0.  1.
     999900   -1    0    0    0    0 -0.00000000000E+00 -0.00000000000E+00 -0.74505805969E-08  0.93827000000E+00  0.93827000000E+00 0. -1.
     999902    2    1    2    0    0 -0.20502859225E-01 -0.10899485710E-01  0.70049697576E-02  0.10196764306E+01  0.10193879475E+01 0.  0.
     999903    2    3    3    0    0 -0.12246312404E+00  0.36255638922E-01  0.25298801713E-01  0.13234663532E+00  0.23746882107E-01 0.  0.
         14    1    1    2    0    0  0.20502859225E-01  0.10899485710E-01 -0.70049697576E-02  0.24253569355E-01  0.00000000000E+00 0. -1.
     999901    1    3    3    0    0  0.10196026482E+00 -0.47155124633E-01 -0.18293831955E-01  0.88732979532E+00  0.88000000000E+00 0.  1.
        -11    1    4    4    0    0 -0.41201894634E-01  0.28210732494E-02  0.14690867557E-01  0.43836483507E-01  0.51100000000E-03 0. -1.
         11    1    4    4    0    0 -0.81261229406E-01  0.33434565673E-01  0.10607934156E-01  0.88510151815E-01  0.51100000000E-03 0.  1.
</event>
<event>
 8    1  0.1054833E+005  0.1043930E+01  0.7957747E-01            NaN
         13   -1    0    0    0    0  0.00000000000E+00  0.00000000000E+00  0.74505805969E-08  0.10566000000E+00  0.10566000000E+00 0. -1.
     999900   -1    0    0    0    0 -0.00000000000E+00 -0.00000000000E+00 -0.74505805969E-08  0.93827000000E+00  0.93827000000E+00 0. -1.
     999902    2    1    2    0    0  0.48112288202E-02 -0.68385078644E-02 -0.22834859373E-01  0.10196124361E+01  0.10193224102E+01 0.  0.
     999903    2    3    3    0    0  0.10066244147E+00  0.36585803844E-01 -0.73946763056E-01  0.13187060845E+00  0.21219930291E-01 0.  0.
         14    1    1    2    0    0 -0.48112288202E-02  0.68385078644E-02  0.22834859373E-01  0.24317563923E-01  0.00000000000E+00 0. -1.
     999901    1    3    3    0    0 -0.95851212651E-01 -0.43424311708E-01  0.51111903683E-01  0.88774182762E+00  0.88000000000E+00 0. -1.
        -11    1    4    4    0    0  0.33366787102E-01  0.20534343197E-01 -0.34639735518E-01  0.52298892243E-01  0.51100000000E-03 0.  1.
         11    1    4    4    0    0  0.67295654369E-01  0.16051460647E-01 -0.39307027537E-01  0.79571716211E-01  0.51100000000E-03 0. -1.
</event>
<event>
 8    1  0.1054833E+005  0.1043930E+01  0.7957747E-01            NaN
         13   -1    0    0    0    0  0.00000000000E+00  0.00000000000E+00  0.74505805969E-08  0.10566000000E+00  0.10566000000E+00 0. -1.
     999900   -1    0    0    0    0 -0.00000000000E+00 -0.00000000000E+00 -0.74505805969E-08  0.93827000000E+00  0.93827000000E+00 0. -1.
     999902    2    1    2    0    0  0.73491600918E-02  0.19824797818E-01  0.97577898418E-02  0.10206437975E+01  0.10203781232E+01 0.  0.
     999903    2    3    3    0    0 -0.22765551151E-01  0.10936968381E+00  0.70275891573E-01  0.13352056874E+00  0.20224818483E-01 0.  0.
         14    1    1    2    0    0 -0.73491600918E-02 -0.19824797818E-01 -0.97577898418E-02  0.23286202464E-01  0.00000000000E+00 0.  1.
     999901    1    3    3    0    0  0.30114711242E-01 -0.89544885994E-01 -0.60518101731E-01  0.88712322880E+00  0.88000000000E+00 0. -1.
        -11    1    4    4    0    0 -0.18046487383E-01  0.48263594036E-01  0.24708730938E-01  0.57147464700E-01  0.51100000000E-03 0. -1.
         11    1    4    4    0    0 -0.47190637682E-02  0.61106089776E-01  0.45567160635E-01  0.76373104035E-01  0.51100000000E-03 0.  1.
</event>
<event>
 8    1  0.1054833E+005  0.1043930E+01  0.7957747E-01            NaN
         13   -1    0    0    0    0  0.00000000000E+00  0.00000000000E+00  0.74505805969E-08  0.10566000000E+00  0.10566000000E+00 0.  1.
     999900   -1    0    0    0    0 -0.00000000000E+00 -0.00000000000E+00 -0.74505805969E-08  0.93827000000E+00  0.93827000000E+00 0. -1.
     999902    2    1    2    0    0  0.16407924407E-01  0.15221520892E-01  0.54503248377E-02  0.10208947938E+01  0.10206348805E+01 0.  0.
     999903    2    3    3    0    0 -0.56436854131E-01 -0.64363466843E-01 -0.93986549504E-01  0.12874692269E+00  0.20359868523E-01 0.  0.
         14    1    1    2    0    0 -0.16407924407E-01 -0.15221520892E-01 -0.54503248377E-02  0.23035206151E-01  0.00000000000E+00 0.  1.
     999901    1    3    3    0    0  0.72844778537E-01  0.79584987735E-01  0.99436874342E-01  0.89214787116E+00  0.88000000000E+00 0.  1.
        -11    1    4    4    0    0 -0.20242981040E-01 -0.28728242964E-01 -0.25243699780E-01  0.43273499105E-01  0.51100000000E-03 0. -1.
         11    1    4    4    0    0 -0.36193873091E-01 -0.35635223879E-01 -0.68742849725E-01  0.85473423586E-01  0.51100000000E-03 0.  1.
</event>
<event>
 8    1  0.1054833E+005  0.1043930E+01  0.7957747E-01            NaN
         13   -1    0    0    0    0  0.00000000000E+00  0.00000000000E+00  0.74505805969E-08  0.10566000000E+00  0.10566000000E+00 0. -1.
     999900   -1    0    0    0    0 -0.00000000000E+00 -0.00000000000E+00 -0.74505805969E-08  0.93827000000E+00  0.93827000000E+00 0.  1.
     999902    2    1    2    0    0 -0.22779683023E-01 -0.25116149615E-02 -0.30565968462E-02  0.10208093393E+01  0.10205474718E+01 0.  0.
     999903    2    3    3    0    0 -0.13299557165E-01  0.11178869941E+00  0.62059561237E-01  0.13098095767E+00  0.25120322339E-01 0.  0.
         14    1    1    2    0    0  0.22779683023E-01  0.25116149615E-02  0.30565968462E-02  0.23120660731E-01  0.00000000000E+00 0.  1.
     999901    1    3    3    0    0 -0.94801258579E-02 -0.11430031437E+00 -0.65116158083E-01  0.88982838160E+00  0.88000000000E+00 0.  1.
        -11    1    4    4    0    0 -0.42959044056E-02  0.40197539139E-01  0.36388001772E-01  0.54393425535E-01  0.51100000000E-03 0. -1.
         11    1    4    4    0    0 -0.90036527598E-02  0.71591160274E-01  0.25671559465E-01  0.76587532137E-01  0.51100000000E-03 0.  1.
</event>
<event>
 8    1  0.1054833E+005  0.1043930E+01  0.7957747E-01            NaN
         13   -1    0    0    0    0  0.00000000000E+00  0.00000000000E+00  0.74505805969E-08  0.10566000000E+00  0.10566000000E+00 0. -1.
     999900   -1    0    0    0    0 -0.00000000000E+00 -0.00000000000E+00 -0.74505805969E-08  0.93827000000E+00  0.93827000000E+00 0.  1.
     999902    2    1    2    0    0 -0.15918147824E-01  0.15653073584E-01  0.67857471854E-02  0.10205964939E+01  0.10203297265E+01 0.  0.
     999903    2    3    3    0    0  0.86173403449E-01 -0.88182572316E-01  0.29361347353E-01  0.12834418432E+00  0.20201965455E-01 0.  0.
         14    1    1    2    0    0  0.15918147824E-01 -0.15653073584E-01 -0.67857471854E-02  0.23333506115E-01  0.00000000000E+00 0. -1.
     999901    1    3    3    0    0 -0.10209155127E+00  0.10383564590E+00 -0.22575600167E-01  0.89225230956E+00  0.88000000000E+00 0.  1.
        -11    1    4    4    0    0  0.60023295792E-01 -0.48491680166E-01  0.14282227260E-01  0.78475997729E-01  0.51100000000E-03 0.  1.
         11    1    4    4    0    0  0.26150107657E-01 -0.39690892150E-01  0.15079120093E-01  0.49868186591E-01  0.51100000000E-03 0. -1.
</event>
<event>
 8    1  0.1054833E+005  0.1043930E+01  0.7957747E-01            NaN
         13   -1    0    0    0    0  0.00000000000E+00  0.00000000000E+00  0.74505805969E-08  0.10566000000E+00  0.10566000000E+00 0.  1.
     999900   -1    0    0    0    0 -0.00000000000E+00 -0.00000000000E+00 -0.74505805969E-08  0.93827000000E+00  0.93827000000E+00 0. -1.
     999902    2    1    2    0    0 -0.23065627472E-01 -0.60285332979E-02 -0.26221193197E-02  0.10199457991E+01  0.10196637638E+01 0.  0.
     999903    2    3    3    0    0 -0.44853011838E-01 -0.42121737956E-01 -0.11484458366E+00  0.13181782910E+00  0.20015698699E-01 0.  0.
         14    1    1    2    0    0  0.23065627472E-01  0.60285332979E-02  0.26221193197E-02  0.23984200927E-01  0.00000000000E+00 0. -1.
     999901    1    3    3    0    0  0.21787384366E-01  0.36093204658E-01  0.11222246434E+00  0.88812796997E+00  0.88000000000E+00 0.  1.
        -11    1    4    4    0    0 -0.10716078926E-01 -0.12040234595E-01 -0.14702047320E-01  0.21822303110E-01  0.51100000000E-03 0.  1.
         11    1    4    4    0    0 -0.34136932912E-01 -0.30081503362E-01 -0.10014253634E+00  0.10999552599E+00  0.51100000000E-03 0. -1.
</event>
<event>
 8    1  0.1054833E+005  0.1043930E+01  0.7957747E-01            NaN
         13   -1    0    0    0    0  0.00000000000E+00  0.00000000000E+00  0.74505805969E-08  0.10566000000E+00  0.10566000000E+00 0.  1.
     999900   -1    0    0    0    0 -0.00000000000E+00 -0.00000000000E+00 -0.74505805969E-08  0.93827000000E+00  0.93827000000E+00 0. -1.
     999902    2    1    2    0    0  0.18091007749E-01  0.14797912389E-01  0.36478072100E-02  0.10202747835E+01  0.10200005218E+01 0.  0.
     999903    2    3    3    0    0 -0.71003064649E-01 -0.63651153577E-01  0.84063104902E-01  0.12867025801E+00  0.19912939250E-01 0.  0.
         14    1    1    2    0    0 -0.18091007749E-01 -0.14797912389E-01 -0.36478072100E-02  0.23655216547E-01  0.00000000000E+00 0. -1.
     999901    1    3    3    0    0  0.89094072397E-01  0.78449065966E-01 -0.80415297692E-01  0.89160452544E+00  0.88000000000E+00 0. -1.
        -11    1    4    4    0    0 -0.18571441173E-01 -0.27437107439E-01  0.35412979806E-01  0.48497768522E-01  0.51100000000E-03 0. -1.
         11    1    4    4    0    0 -0.52431623476E-01 -0.36214046138E-01  0.48650125096E-01  0.80172489489E-01  0.51100000000E-03 0.  1.
</event>
<event>
 8    1  0.1054833E+005  0.1043930E+01  0.7957747E-01            NaN
         13   -1    0    0    0    0  0.00000000000E+00  0.00000000000E+00  0.74505805969E-08  0.10566000000E+00  0.10566000000E+00 0.  1.
     999900   -1    0    0    0    0 -0.00000000000E+00 -0.00000000000E+00 -0.74505805969E-08  0.93827000000E+00  0.93827000000E+00 0.  1.
     999902    2    1    2    0    0 -0.45291909398E-02 -0.10602347136E-01 -0.21110441725E-01  0.10198764330E+01  0.10195927444E+01 0.  0.
     999903    2    3    3    0    0 -0.88689120818E-01  0.88128016068E-01 -0.31262912015E-01  0.13030707030E+00  0.19242025211E-01 0.  0.
         14    1    1    2    0    0  0.45291909398E-02  0.10602347136E-01  0.21110441725E-01  0.24053566995E-01  0.00000000000E+00 0. -1.
     999901    1    3    3    0    0  0.84159929878E-01 -0.98730363204E-01  0.10152470290E-01  0.88956936271E+00  0.88000000000E+00 0.  1.
        -11    1    4    4    0    0 -0.18781008997E-01  0.14785997403E-01 -0.13442633871E-01  0.27428407620E-01  0.51100000000E-03 0.  1.
         11    1    4    4    0    0 -0.69908111820E-01  0.73342018665E-01 -0.17820278143E-01  0.10287866268E+00  0.51100000000E-03 0. -1.
</event>
<event>
 8    1  0.1054833E+005  0.1043930E+01  0.7957747E-01            NaN
         13   -1    0    0    0    0  0.00000000000E+00  0.00000000000E+00  0.74505805969E-08  0.10566000000E+00  0.10566000000E+00 0.  1.
     999900   -1    0    0    0    0 -0.00000000000E+00 -0.00000000000E+00 -0.74505805969E-08  0.93827000000E+00  0.93827000000E+00 0.  1.
     999902    2    1    2    0    0 -0.15125547646E-01 -0.15793101787E-01  0.10689737363E-01  0.10195891960E+01  0.10192986088E+01 0.  0.
     999903    2    3    3    0    0  0.11507860282E+00 -0.24418468597E-01 -0.46673197180E-01  0.12811960928E+00  0.19922362076E-01 0.  0.
         14    1    1    2    0    0  0.15125547646E-01  0.15793101787E-01 -0.10689737363E-01  0.24340804024E-01  0.00000000000E+00 0. -1.
     999901    1    3    3    0    0 -0.13020415047E+00  0.86253668098E-02  0.57362934543E-01  0.89146958670E+00  0.88000000000E+00 0. -1.
        -11    1    4    4    0    0  0.57083643049E-01 -0.17232321110E-01 -0.14337786712E-01  0.61329670172E-01  0.51100000000E-03 0.  1.
         11    1    4    4    0    0  0.57994959770E-01 -0.71861474871E-02 -0.32335410468E-01  0.66789939104E-01  0.51100000000E-03 0. -1.
</event>
<event>
 8    1  0.1054833E+005  0.1043930E+01  0.7957747E-01            NaN
         13   -1    0    0    0    0  0.00000000000E+00  0.00000000000E+00  0.74505805969E-08  0.10566000000E+00  0.10566000000E+00 0.  1.
     999900   -1    0    0    0    0 -0.00000000000E+00 -0.00000000000E+00 -0.74505805969E-08  0.93827000000E+00  0.93827000000E+00 0.  1.
     999902    2    1    2    0    0  0.20355926848E-01 -0.57240973662E-02 -0.94536003281E-02  0.10207675388E+01  0.10205047127E+01 0.  0.
     999903    2    3    3    0    0  0.66333565178E-01  0.61962422511E-01  0.92393915208E-01  0.13112248341E+00  0.20420245256E-01 0.  0.
         14    1    1    2    0    0 -0.20355926848E-01  0.57240973662E-02  0.94536003281E-02  0.23162461174E-01  0.00000000000E+00 0. -1.
     999901    1    3    3    0    0 -0.45977638330E-01 -0.67686519877E-01 -0.10184751554E+00  0.88964505541E+00  0.88000000000E+00 0.  1.
        -11    1    4    4    0    0  0.30554847683E-01  0.41344950799E-01  0.45715251042E-01  0.68797884941E-01  0.51100000000E-03 0. -1.
         11    1    4    4    0    0  0.35778717495E-01  0.20617471711E-01  0.46678664166E-01  0.62324598472E-01  0.51100000000E-03 0.  1.
</event>
<event>
 8    1  0.1054833E+005  0.1043930E+01  0.7957747E-01            NaN
         13   -1    0    0    0    0  0.00000000000E+00  0.00000000000E+00  0.74505805969E-08  0.10566000000E+00  0.10566000000E+00 0.  1.
     999900   -1    0    0    0    0 -0.00000000000E+00 -0.00000000000E+00 -0.74505805969E-08  0.93827000000E+00  0.93827000000E+00 0. -1.
     999902    2    1    2    0    0  0.21841478794E-01 -0.48941714386E-02  0.64220808413E-02  0.10206438189E+01  0.10203781450E+01 0.  0.
     999903    2    3    3    0    0  0.18361440608E-01 -0.11603813004E+00  0.57129331147E-01  0.13219780731E+00  0.20261037883E-01 0.  0.
         14    1    1    2    0    0 -0.21841478794E-01  0.48941714386E-02 -0.64220808413E-02  0.23286181145E-01  0.00000000000E+00 0. -1.
     999901    1    3    3    0    0  0.34800381868E-02  0.11114395860E+00 -0.50707250305E-01  0.88844601155E+00  0.88000000000E+00 0. -1.
        -11    1    4    4    0    0  0.10301014038E-01 -0.58050402080E-01  0.17509392667E-01  0.61504471581E-01  0.51100000000E-03 0. -1.
         11    1    4    4    0    0  0.80604265696E-02 -0.57987727958E-01  0.39619938480E-01  0.70693335728E-01  0.51100000000E-03 0.  1.
</event>
<event>
 8    1  0.1054833E+005  0.1043930E+01  0.7957747E-01            NaN
         13   -1    0    0    0    0  0.00000000000E+00  0.00000000000E+00  0.74505805969E-08  0.10566000000E+00  0.10566000000E+00 0. -1.
     999900   -1    0    0    0    0 -0.00000000000E+00 -0.00000000000E+00 -0.74505805969E-08  0.93827000000E+00  0.93827000000E+00 0. -1.
     999902    2    1    2    0    0 -0.14720670124E-01 -0.16470561625E-01 -0.77670809099E-02  0.10205140850E+01  0.10202454080E+01 0.  0.
     999903    2    3    3    0    0 -0.46355109563E-01  0.99213112512E-02 -0.12172410438E+00  0.13221038023E+00  0.20386231970E-01 0.  0.
         14    1    1    2    0    0  0.14720670124E-01  0.16470561625E-01  0.77670809099E-02  0.23415914994E-01  0.00000000000E+00 0. -1.
     999901    1    3    3    0    0  0.31634439439E-01 -0.26391872876E-01  0.11395702347E+00  0.88830370477E+00  0.88000000000E+00 0.  1.
        -11    1    4    4    0    0 -0.25066250863E-03  0.34149936323E-02 -0.20494444311E-01  0.20784811325E-01  0.51100000000E-03 0.  1.
         11    1    4    4    0    0 -0.46104447054E-01  0.65063176188E-02 -0.10122966007E+00  0.11142556891E+00  0.51100000000E-03 0. -1.
</event>
<event>
 8    1  0.1054833E+005  0.1043930E+01  0.7957747E-01            NaN
         13   -1    0    0    0    0  0.00000000000E+00  0.00000000000E+00  0.74505805969E-08  0.10566000000E+00  0.10566000000E+00 0. -1.
     999900   -1    0    0    0    0 -0.00000000000E+00 -0.00000000000E+00 -0.74505805969E-08  0.93827000000E+00  0.93827000000E+00 0. -1.
     999902    2    1    2    0    0  0.17482928900E-02  0.15875630187E-01  0.17995481045E-01  0.10198690462E+01  0.10195851812E+01 0.  0.
     999903    2    3    3    0    0 -0.84715160749E-01 -0.87547698024E-01 -0.34067487421E-01  0.12808271170E+00  0.20083063695E-01 0.  0.
         14    1    1    2    0    0 -0.17482928900E-02 -0.15875630187E-01 -0.17995481045E-01  0.24060953845E-01  0.00000000000E+00 0.  1.
     999901    1    3    3    0    0  0.86463453639E-01  0.10342332821E+00  0.52062968466E-01  0.89178633445E+00  0.88000000000E+00 0.  1.
        -11    1    4    4    0    0 -0.86613611583E-02 -0.17576185606E-01 -0.98500971685E-02  0.21936887035E-01  0.51100000000E-03 0. -1.
         11    1    4    4    0    0 -0.76053799591E-01 -0.69971512418E-01 -0.24217390253E-01  0.10614582467E+00  0.51100000000E-03 0.  1.
</event>
<event>
 8    1  0.1054833E+005  0.1043930E+01  0.7957747E-01            NaN
         13   -1    0    0    0    0  0.00000000000E+00  0.00000000000E+00  0.74505805969E-08  0.10566000000E+00  0.10566000000E+00 0. -1.
     999900   -1    0    0    0    0 -0.00000000000E+00 -0.00000000000E+00 -0.74505805969E-08  0.93827000000E+00  0.93827000000E+00 0.  1.
     999902    2    1    2    0    0  0.17709850968E-01 -0.10167883296E-02 -0.10105643438E-01  0.10235144003E+01  0.10233107695E+01 0.  0.
     999903    2    3    3    0    0  0.10775763364E+00  0.53284146673E-01  0.56997775310E-01  0.13471742493E+00  0.21192694365E-01 0.  0.
         14    1    1    2    0    0 -0.17709850968E-01  0.10167883296E-02  0.10105643438E-01  0.20415599651E-01  0.00000000000E+00 0. -1.
     999901    1    3    3    0    0 -0.90047782675E-01 -0.54300935003E-01 -0.67103418748E-01  0.88879697542E+00  0.88000000000E+00 0.  1.
        -11    1    4    4    0    0  0.10402785895E+00  0.53917485491E-01  0.51418410518E-01  0.12795704256E+00  0.51100000000E-03 0.  1.
         11    1    4    4    0    0  0.37297746957E-02 -0.63333881822E-03  0.55793647920E-02  0.67603823724E-02  0.51100000000E-03 0. -1.
</event>
<event>
 8    1  0.1054833E+005  0.1043930E+01  0.7957747E-01            NaN
         13   -1    0    0    0    0  0.00000000000E+00  0.00000000000E+00  0.74505805969E-08  0.10566000000E+00  0.10566000000E+00 0.  1.
     999900   -1    0    0    0    0 -0.00000000000E+00 -0.00000000000E+00 -0.74505805969E-08  0.93827000000E+00  0.93827000000E+00 0.  1.
     999902    2    1    2    0    0 -0.20606654117E-01 -0.25459983590E-02 -0.11340909984E-01  0.10202713326E+01  0.10199969900E+01 0.  0.
     999903    2    3    3    0    0 -0.53741783282E-01  0.75628352056E-01  0.89286864897E-01  0.13047634788E+00  0.21073827540E-01 0.  0.
         14    1    1    2    0    0  0.20606654117E-01  0.25459983590E-02  0.11340909984E-01  0.23658667351E-01  0.00000000000E+00 0.  1.
     999901    1    3    3    0    0  0.33135129164E-01 -0.78174350415E-01 -0.10062777488E+00  0.88979498477E+00  0.88000000000E+00 0.  1.
        -11    1    4    4    0    0 -0.98812856628E-02  0.90685782037E-02  0.46330726533E-02  0.14198781645E-01  0.51100000000E-03 0. -1.
         11    1    4    4    0    0 -0.43860497619E-01  0.66559773852E-01  0.84653792244E-01  0.11627756623E+00  0.51100000000E-03 0.  1.
</event>
<event>
 8    1  0.1061495E+005  0.1043930E+01  0.7957747E-01            NaN
         13   -1    0    0    0    0  0.00000000000E+00  0.00000000000E+00  0.74505805969E-08  0.10566000000E+00  0.10566000000E+00 0. -1.
     999900   -1    0    0    0    0 -0.00000000000E+00 -0.00000000000E+00 -0.74505805969E-08  0.93827000000E+00  0.93827000000E+00 0. -1.
     999902    2    1    2    0    0  0.80515808715E-02 -0.22287974307E-01  0.44930668939E-02  0.10198101036E+01  0.10195248295E+01 0.  0.
     999903    2    3    3    0    0  0.27952224969E-01  0.54770919670E-01 -0.11139982460E+00  0.12865059425E+00  0.18970344132E-01 0.  0.
         14    1    1    2    0    0 -0.80515808715E-02  0.22287974307E-01 -0.44930668939E-02  0.24119896421E-01  0.00000000000E+00 0. -1.
     999901    1    3    3    0    0 -0.19900644098E-01 -0.77058893977E-01  0.11589289149E+00  0.89115950933E+00  0.88000000000E+00 0.  1.
        -11    1    4    4    0    0  0.22276890079E-01  0.23416271090E-01 -0.51577880186E-01  0.60869700417E-01  0.51100000000E-03 0.  1.
         11    1    4    4    0    0  0.56753348903E-02  0.31354648580E-01 -0.59821944415E-01  0.67780893829E-01  0.51100000000E-03 0. -1.
</event>
<event>
 8    1  0.1054833E+005  0.1043930E+01  0.7957747E-01            NaN
         13   -1    0    0    0    0  0.00000000000E+00  0.00000000000E+00  0.74505805969E-08  0.10566000000E+00  0.10566000000E+00 0.  1.
     999900   -1    0    0    0    0 -0.00000000000E+00 -0.00000000000E+00 -0.74505805969E-08  0.93827000000E+00  0.93827000000E+00 0. -1.
     999902    2    1    2    0    0 -0.24663372601E-01  0.70734530336E-02 -0.43101555387E-02  0.10179128302E+01  0.10175802851E+01 0.  0.
     999903    2    3    3    0    0  0.10894338989E+00 -0.52441152286E-01  0.27468220228E-01  0.12527481820E+00  0.17903639226E-01 0.  0.
         14    1    1    2    0    0  0.24663372601E-01 -0.70734530336E-02  0.43101555387E-02  0.26017169843E-01  0.00000000000E+00 0. -1.
     999901    1    3    3    0    0 -0.13360676249E+00  0.59514605320E-01 -0.31778375766E-01  0.89263801196E+00  0.88000000000E+00 0. -1.
        -11    1    4    4    0    0  0.80444325338E-01 -0.42525460724E-01  0.27625178546E-01  0.95095299040E-01  0.51100000000E-03 0.  1.
         11    1    4    4    0    0  0.28499064554E-01 -0.99156915627E-02 -0.15695831852E-03  0.30179519156E-01  0.51100000000E-03 0. -1.
</event>
<event>
 8    1  0.1054833E+005  0.1043930E+01  0.7957747E-01            NaN
         13   -1    0    0    0    0  0.00000000000E+00  0.00000000000E+00  0.74505805969E-08  0.10566000000E+00  0.10566000000E+00 0.  1.
     999900   -1    0    0    0    0 -0.00000000000E+00 -0.00000000000E+00 -0.74505805969E-08  0.93827000000E+00  0.93827000000E+00 0. -1.
     999902    2    1    2    0    0 -0.10514914288E-01  0.14958861515E-01 -0.19194358535E-01  0.10174204855E+01  0.10170750660E+01 0.  0.
     999903    2    3    3    0    0 -0.69747586882E-01 -0.49570666567E-01  0.89816188334E-01  0.12637847254E+00  0.24136979425E-01 0.  0.
         14    1    1    2    0    0  0.10514914288E-01 -0.14958861515E-01  0.19194358535E-01  0.26509514516E-01  0.00000000000E+00 0.  1.
     999901    1    3    3    0    0  0.59232672594E-01  0.64529528081E-01 -0.10901054687E+00  0.89104201294E+00  0.88000000000E+00 0. -1.
        -11    1    4    4    0    0 -0.50969574510E-02 -0.14161005655E-01  0.12716803239E-01  0.19710181684E-01  0.51100000000E-03 0.  1.
         11    1    4    4    0    0 -0.64650629431E-01 -0.35409660912E-01  0.77099385095E-01  0.10666829086E+00  0.51100000000E-03 0. -1.
</event>
<event>
 8    1  0.1054833E+005  0.1043930E+01  0.7957747E-01            NaN
         13   -1    0    0    0    0  0.00000000000E+00  0.00000000000E+00  0.74505805969E-08  0.10566000000E+00  0.10566000000E+00 0.  1.
     999900   -1    0    0    0    0 -0.00000000000E+00 -0.00000000000E+00 -0.74505805969E-08  0.93827000000E+00  0.93827000000E+00 0. -1.
     999902    2    1    2    0    0 -0.46004547315E-02 -0.22837717264E-01 -0.70869138180E-02  0.10195794382E+01  0.10192886151E+01 0.  0.
     999903    2    3    3    0    0  0.12040889740E+00  0.19972423328E-01  0.35724347759E-01  0.12868502784E+00  0.19657240381E-01 0.  0.
         14    1    1    2    0    0  0.46004547315E-02  0.22837717264E-01  0.70869138180E-02  0.24350561822E-01  0.00000000000E+00 0. -1.
     999901    1    3    3    0    0 -0.12500935213E+00 -0.42810140593E-01 -0.42811261577E-01  0.89089441034E+00  0.88000000000E+00 0. -1.
        -11    1    4    4    0    0  0.51144541761E-01  0.50487833594E-02  0.56295947355E-02  0.51703073634E-01  0.51100000000E-03 0.  1.
         11    1    4    4    0    0  0.69264355642E-01  0.14923639969E-01  0.30094753024E-01  0.76981954203E-01  0.51100000000E-03 0. -1.
</event>
<event>
 8    1  0.1054833E+005  0.1043930E+01  0.7957747E-01            NaN
         13   -1    0    0    0    0  0.00000000000E+00  0.00000000000E+00  0.74505805969E-08  0.10566000000E+00  0.10566000000E+00 0. -1.
     999900   -1    0    0    0    0 -0.00000000000E+00 -0.00000000000E+00 -0.74505805969E-08  0.93827000000E+00  0.93827000000E+00 0.  1.
     999902    2    1    2    0    0 -0.74777884244E-02  0.56165387828E-03  0.21627859034E-01  0.10210390179E+01  0.10207823857E+01 0.  0.
     999903    2    3    3    0    0  0.66509279483E-01  0.30447333792E-01 -0.10378740126E+00  0.12857264454E+00  0.20213259791E-01 0.  0.
         14    1    1    2    0    0  0.74777884244E-02 -0.56165387828E-03 -0.21627859034E-01  0.22890982093E-01  0.00000000000E+00 0.  1.
     999901    1    3    3    0    0 -0.73987067907E-01 -0.29885679914E-01  0.12541526029E+00  0.89246637337E+00  0.88000000000E+00 0. -1.
        -11    1    4    4    0    0  0.21574981187E-01  0.70851515855E-02 -0.48725770609E-01  0.53760031888E-01  0.51100000000E-03 0.  1.
         11    1    4    4    0    0  0.44934298296E-01  0.23362182207E-01 -0.55061630648E-01  0.74812612649E-01  0.51100000000E-03 0. -1.
</event>
<event>
 8    1  0.1054833E+005  0.1043930E+01  0.7957747E-01            NaN
         13   -1    0    0    0    0  0.00000000000E+00  0.00000000000E+00  0.74505805969E-08  0.10566000000E+00  0.10566000000E+00 0. -1.
     999900   -1    0    0    0    0 -0.00000000000E+00 -0.00000000000E+00 -0.74505805969E-08  0.93827000000E+00  0.93827000000E+00 0. -1.
     999902    2    1    2    0    0  0.12470600089E-02 -0.10250520678E-01  0.20690528493E-01  0.10208058502E+01  0.10205439028E+01 0.  0.
     999903    2    3    3    0    0 -0.70046648573E-01 -0.66600526426E-01  0.89511921141E-01  0.13345332722E+00  0.21336434144E-01 0.  0.
         14    1    1    2    0    0 -0.12470600089E-02  0.10250520678E-01 -0.20690528493E-01  0.23124149761E-01  0.00000000000E+00 0.  1.
     999901    1    3    3    0    0  0.71293708582E-01  0.56350005748E-01 -0.68821392647E-01  0.88735252302E+00  0.88000000000E+00 0.  1.
        -11    1    4    4    0    0 -0.24793808029E-01 -0.11816093133E-01  0.19415645204E-01  0.33638985912E-01  0.51100000000E-03 0.  1.
         11    1    4    4    0    0 -0.45252840543E-01 -0.54784433294E-01  0.70096275936E-01  0.99814341303E-01  0.51100000000E-03 0. -1.
</event>
<event>
 8    1  0.1054833E+005  0.1043930E+01  0.7957747E-01            NaN
         13   -1    0    0    0    0  0.00000000000E+00  0.00000000000E+00  0.74505805969E-08  0.10566000000E+00  0.10566000000E+00 0.  1.
     999900   -1    0    0    0    0 -0.00000000000E+00 -0.00000000000E+00 -0.74505805969E-08  0.93827000000E+00  0.93827000000E+00 0.  1.
     999902    2    1    2    0    0  0.12251609052E-01  0.10316954806E-01  0.17354992947E-01  0.10203135383E+01  0.10200401851E+01 0.  0.
     999903    2    3    3    0    0  0.78220418534E-01  0.68298209669E-01 -0.77085735478E-01  0.13091331296E+00  0.20322538602E-01 0.  0.
         14    1    1    2    0    0 -0.12251609052E-01 -0.10316954806E-01 -0.17354992947E-01  0.23616461654E-01  0.00000000000E+00 0. -1.
     999901    1    3    3    0    0 -0.65968809482E-01 -0.57981254863E-01  0.94440728425E-01  0.88940022539E+00  0.88000000000E+00 0. -1.
        -11    1    4    4    0    0  0.26156304878E-01  0.36083225408E-01 -0.33579687181E-01  0.55803296971E-01  0.51100000000E-03 0.  1.
         11    1    4    4    0    0  0.52064113656E-01  0.32214984261E-01 -0.43506048297E-01  0.75110015984E-01  0.51100000000E-03 0. -1.
</event>
<event>
 8    1  0.1054833E+005  0.1043930E+01  0.7957747E-01            NaN
         13   -1    0    0    0    0  0.00000000000E+00  0.00000000000E+00  0.74505805969E-08  0.10566000000E+00  0.10566000000E+00 0. -1.
     999900   -1    0    0    0    0 -0.00000000000E+00 -0.00000000000E+00 -0.74505805969E-08  0.93827000000E+00  0.93827000000E+00 0. -1.
     999902    2    1    2    0    0 -0.21273998635E-01 -0.59493969688E-02  0.91089018718E-02  0.10200354308E+01  0.10197555245E+01 0.  0.
     999903    2    3    3    0    0  0.36045416868E-01 -0.54102876274E-01  0.11177410196E+00  0.13090978377E+00  0.20433509731E-01 0.  0.
         14    1    1    2    0    0  0.21273998635E-01  0.59493969688E-02 -0.91089018718E-02  0.23894569164E-01  0.00000000000E+00 0.  1.
     999901    1    3    3    0    0 -0.57319415503E-01  0.48153479305E-01 -0.10266520009E+00  0.88912564707E+00  0.88000000000E+00 0.  1.
        -11    1    4    4    0    0  0.15912765366E-01 -0.35602848843E-01  0.79913489827E-01  0.88922471427E-01  0.51100000000E-03 0. -1.
         11    1    4    4    0    0  0.20132651502E-01 -0.18500027431E-01  0.31860612130E-01  0.41987312343E-01  0.51100000000E-03 0.  1.
</event>
<event>
 8    1  0.1054833E+005  0.1043930E+01  0.7957747E-01            NaN
         13   -1    0    0    0    0  0.00000000000E+00  0.00000000000E+00  0.74505805969E-08  0.10566000000E+00  0.10566000000E+00 0.  1.
     999900   -1    0    0    0    0 -0.00000000000E+00 -0.00000000000E+00 -0.74505805969E-08  0.93827000000E+00  0.93827000000E+00 0. -1.
     999902    2    1    2    0    0  0.13206260028E-01 -0.13727792816E-01 -0.14009458469E-01  0.10202842282E+01  0.10200101880E+01 0.  0.
     999903    2    3    3    0    0  0.11596052959E+00 -0.28103605259E-01 -0.55582064091E-01  0.13321411512E+00  0.20493354229E-01 0.  0.
         14    1    1    2    0    0 -0.13206260028E-01  0.13727792816E-01  0.14009458469E-01  0.23645771845E-01  0.00000000000E+00 0.  1.
     999901    1    3    3    0    0 -0.10275426956E+00  0.14375812442E-01  0.41572605622E-01  0.88707011303E+00  0.88000000000E+00 0.  1.
        -11    1    4    4    0    0  0.71060615464E-01 -0.71237020664E-02 -0.35240286636E-01  0.79639796110E-01  0.51100000000E-03 0.  1.
         11    1    4    4    0    0  0.44899914129E-01 -0.20979903192E-01 -0.20341777455E-01  0.53574319013E-01  0.51100000000E-03 0. -1.
</event>
<event>
 8    1  0.1054833E+005  0.1043930E+01  0.7957747E-01            NaN
         13   -1    0    0    0    0  0.00000000000E+00  0.00000000000E+00  0.74505805969E-08  0.10566000000E+00  0.10566000000E+00 0. -1.
     999900   -1    0    0    0    0 -0.00000000000E+00 -0.00000000000E+00 -0.74505805969E-08  0.93827000000E+00  0.93827000000E+00 0. -1.
     999902    2    1    2    0    0 -0.22917715997E-01  0.22852320416E-02  0.51772537355E-03  0.10208928120E+01  0.10206328534E+01 0.  0.
     999903    2    3    3    0    0 -0.59823161658E-02 -0.12137697092E+00  0.45388984493E-01  0.13095316341E+00  0.17900109484E-01 0.  0.
         14    1    1    2    0    0  0.22917715997E-01 -0.22852320416E-02 -0.51772537355E-03  0.23037188013E-01  0.00000000000E+00 0.  1.
     999901    1    3    3    0    0 -0.16935399831E-01  0.12366220296E+00 -0.44871259119E-01  0.88993964857E+00  0.88000000000E+00 0.  1.
        -11    1    4    4    0    0  0.43701687849E-02 -0.47283721886E-01  0.23606905081E-01  0.53032026353E-01  0.51100000000E-03 0. -1.
         11    1    4    4    0    0 -0.10352484951E-01 -0.74093249029E-01  0.21782079412E-01  0.77921137061E-01  0.51100000000E-03 0.  1.
</event>
<event>
 8    1  0.1054833E+005  0.1043930E+01  0.7957747E-01            NaN
         13   -1    0    0    0    0  0.00000000000E+00  0.00000000000E+00  0.74505805969E-08  0.10566000000E+00  0.10566000000E+00 0.  1.
     999900   -1    0    0    0    0 -0.00000000000E+00 -0.00000000000E+00 -0.74505805969E-08  0.93827000000E+00  0.93827000000E+00 0. -1.
     999902    2    1    2    0    0 -0.83248637703E-02 -0.17101464449E-01 -0.14379474761E-01  0.10200860755E+01  0.10198073684E+01 0.  0.
     999903    2    3    3    0    0  0.11984631059E+00  0.18323583843E-02  0.43480521399E-01  0.12871964198E+00  0.17654880060E-01 0.  0.
         14    1    1    2    0    0  0.83248637703E-02  0.17101464449E-01  0.14379474761E-01  0.23843924541E-01  0.00000000000E+00 0.  1.
     999901    1    3    3    0    0 -0.12817117436E+00 -0.18933822833E-01 -0.57859996161E-01  0.89136643348E+00  0.88000000000E+00 0.  1.
        -11    1    4    4    0    0  0.66655601737E-01  0.88901622607E-02  0.28250786444E-01  0.72940882115E-01  0.51100000000E-03 0. -1.
         11    1    4    4    0    0  0.53190708853E-01 -0.70578038764E-02  0.15229734955E-01  0.55778759862E-01  0.51100000000E-03 0.  1.
</event>
<event>
 8    1  0.1054833E+005  0.1043930E+01  0.7957747E-01            NaN
         13   -1    0    0    0    0  0.00000000000E+00  0.00000000000E+00  0.74505805969E-08  0.10566000000E+00  0.10566000000E+00 0.  1.
     999900   -1    0    0    0    0 -0.00000000000E+00 -0.00000000000E+00 -0.74505805969E-08  0.93827000000E+00  0.93827000000E+00 0. -1.
     999902    2    1    2    0    0  0.38808619847E-02  0.22887950043E-01 -0.50267554154E-02  0.10201773661E+01  0.10199008141E+01 0.  0.
     999903    2    3    3    0    0 -0.42356673758E-01  0.48113614832E-01 -0.11168516406E+00  0.13217384133E+00  0.29788264757E-01 0.  0.
         14    1    1    2    0    0 -0.38808619847E-02 -0.22887950043E-01  0.50267554154E-02  0.23752633894E-01  0.00000000000E+00 0. -1.
     999901    1    3    3    0    0  0.46237535743E-01 -0.25225664790E-01  0.10665840865E+00  0.88800352477E+00  0.88000000000E+00 0.  1.
        -11    1    4    4    0    0 -0.31849433263E-01  0.41520026374E-01 -0.62845684374E-01  0.81781050096E-01  0.51100000000E-03 0. -1.
         11    1    4    4    0    0 -0.10507240495E-01  0.65935884579E-02 -0.48839479687E-01  0.50392791237E-01  0.51100000000E-03 0.  1.
</event>
<event>
 8    1  0.1054833E+005  0.1043930E+01  0.7957747E-01            NaN
         13   -1    0    0    0    0  0.00000000000E+00  0.00000000000E+00  0.74505805969E-08  0.10566000000E+00  0.10566000000E+00 0. -1.
     999900   -1    0    0    0    0 -0.00000000000E+00 -0.00000000000E+00 -0.74505805969E-08  0.93827000000E+00  0.93827000000E+00 0.  1.
     999902    2    1    2    0    0  0.14666146561E-01  0.14607151874E-01  0.10829142101E-01  0.10205690270E+01  0.10203016239E+01 0.  0.
     999903    2    3    3    0    0  0.63558660247E-01 -0.10538552105E+00 -0.36166520506E-01  0.12984049835E+00  0.20117814674E-01 0.  0.
         14    1    1    2    0    0 -0.14666146561E-01 -0.14607151874E-01 -0.10829142101E-01  0.23360972999E-01  0.00000000000E+00 0.  1.
     999901    1    3    3    0    0 -0.48892513686E-01  0.11999267292E+00  0.46995662607E-01  0.89072852865E+00  0.88000000000E+00 0. -1.
        -11    1    4    4    0    0  0.30203252983E-01 -0.60739433855E-01 -0.28512135438E-01  0.73584769511E-01  0.51100000000E-03 0.  1.
         11    1    4    4    0    0  0.33355407264E-01 -0.44646087192E-01 -0.76543850681E-02  0.56255728838E-01  0.51100000000E-03 0. -1.
</event>
<event>
 8    1  0.1054833E+005  0.1043930E+01  0.7957747E-01            NaN
         13   -1    0    0    0    0  0.00000000000E+00  0.00000000000E+00  0.74505805969E-08  0.10566000000E+00  0.10566000000E+00 0. -1.
     999900   -1    0    0    0    0 -0.00000000000E+00 -0.00000000000E+00 -0.74505805969E-08  0.93827000000E+00  0.93827000000E+00 0.  1.
     999902    2    1    2    0    0  0.17222307598E-01 -0.10782925496E-01 -0.11551326423E-01  0.10205566711E+01  0.10202889818E+01 0.  0.
     999903    2    3    3    0    0 -0.57608267274E-01 -0.10162209886E+00 -0.57183683983E-01  0.13154953818E+00  0.19736865158E-01 0.  0.
         14    1    1    2    0    0 -0.17222307598E-01  0.10782925496E-01  0.11551326423E-01  0.23373328890E-01  0.00000000000E+00 0. -1.
     999901    1    3    3    0    0  0.74830574871E-01  0.90839173359E-01  0.45632357560E-01  0.88900713293E+00  0.88000000000E+00 0.  1.
        -11    1    4    4    0    0 -0.42333177644E-01 -0.55237151685E-01 -0.31972718277E-01  0.76588228147E-01  0.51100000000E-03 0. -1.
         11    1    4    4    0    0 -0.15275089630E-01 -0.46384947170E-01 -0.25210965706E-01  0.54961310028E-01  0.51100000000E-03 0.  1.
</event>
<event>
 8    1  0.1054833E+005  0.1043930E+01  0.7957747E-01            NaN
         13   -1    0    0    0    0  0.00000000000E+00  0.00000000000E+00  0.74505805969E-08  0.10566000000E+00  0.10566000000E+00 0.  1.
     999900   -1    0    0    0    0 -0.00000000000E+00 -0.00000000000E+00 -0.74505805969E-08  0.93827000000E+00  0.93827000000E+00 0.  1.
     999902    2    1    2    0    0 -0.17641272572E-01 -0.12439394244E-01 -0.14255176075E-01  0.10180618135E+01  0.10177331149E+01 0.  0.
     999903    2    3    3    0    0  0.11667889195E+00  0.14443244782E-01  0.39989960078E-01  0.12581346374E+00  0.20180674058E-01 0.  0.
         14    1    1    2    0    0  0.17641272572E-01  0.12439394244E-01  0.14255176075E-01  0.25868186485E-01  0.00000000000E+00 0.  1.
     999901    1    3    3    0    0 -0.13432016452E+00 -0.26882639026E-01 -0.54245136152E-01  0.89224834977E+00  0.88000000000E+00 0.  1.
        -11    1    4    4    0    0  0.38522496607E-01 -0.36004028428E-02  0.17769056600E-01  0.42578705229E-01  0.51100000000E-03 0.  1.
         11    1    4    4    0    0  0.78156395341E-01  0.18043647625E-01  0.22220903478E-01  0.83234758513E-01  0.51100000000E-03 0. -1.
</event>
<event>
 8    1  0.1054833E+005  0.1043930E+01  0.7957747E-01            NaN
         13   -1    0    0    0    0  0.00000000000E+00  0.00000000000E+00  0.74505805969E-08  0.10566000000E+00  0.10566000000E+00 0. -1.
     999900   -1    0    0    0    0 -0.00000000000E+00 -0.00000000000E+00 -0.74505805969E-08  0.93827000000E+00  0.93827000000E+00 0.  1.
     999902    2    1    2    0    0 -0.15877329399E-01  0.84046837108E-02  0.14311416740E-01  0.10209616534E+01  0.10207032638E+01 0.  0.
     999903    2    3    3    0    0 -0.95214414506E-01 -0.77058337925E-01  0.46621309296E-01  0.13268116261E+00  0.20663307012E-01 0.  0.
         14    1    1    2    0    0  0.15877329399E-01 -0.84046837108E-02 -0.14311416740E-01  0.22968346615E-01  0.00000000000E+00 0.  1.
     999901    1    3    3    0    0  0.79337085107E-01  0.85463021636E-01 -0.32309892556E-01  0.88828049078E+00  0.88000000000E+00 0.  1.
        -11    1    4    4    0    0 -0.35050282545E-01 -0.35504386360E-01  0.28053174935E-01  0.57239195506E-01  0.51100000000E-03 0. -1.
         11    1    4    4    0    0 -0.60164131961E-01 -0.41553951565E-01  0.18568134361E-01  0.75441967101E-01  0.51100000000E-03 0.  1.
</event>
<event>
 8    1  0.1054833E+005  0.1043930E+01  0.7957747E-01            NaN
         13   -1    0    0    0    0  0.00000000000E+00  0.00000000000E+00  0.74505805969E-08  0.10566000000E+00  0.10566000000E+00 0. -1.
     999900   -1    0    0    0    0 -0.00000000000E+00 -0.00000000000E+00 -0.74505805969E-08  0.93827000000E+00  0.93827000000E+00 0.  1.
     999902    2    1    2    0    0 -0.17658788783E-01 -0.54774617062E-02  0.15131047166E-01  0.10200389139E+01  0.10197590901E+01 0.  0.
     999903    2    3    3    0    0  0.10682710498E+00 -0.43746636632E-01  0.55396941870E-01  0.12954320374E+00  0.19667788153E-01 0.  0.
         14    1    1    2    0    0  0.17658788783E-01  0.54774617062E-02 -0.15131047166E-01  0.23891086128E-01  0.00000000000E+00 0.  1.
     999901    1    3    3    0    0 -0.12448589376E+00  0.38269174925E-01 -0.40265894704E-01  0.89049571014E+00  0.88000000000E+00 0. -1.
        -11    1    4    4    0    0  0.32715343462E-01 -0.19004773020E-01  0.98369705126E-02  0.39096063808E-01  0.51100000000E-03 0.  1.
         11    1    4    4    0    0  0.74111761516E-01 -0.24741863611E-01  0.45559971358E-01  0.90447139928E-01  0.51100000000E-03 0. -1.
</event>
<event>
 8    1  0.1054833E+005  0.1043930E+01  0.7957747E-01            NaN
         13   -1    0    0    0    0  0.00000000000E+00  0.00000000000E+00  0.74505805969E-08  0.10566000000E+00  0.10566000000E+00 0.  1.
     999900   -1    0    0    0    0 -0.00000000000E+00 -0.00000000000E+00 -0.74505805969E-08  0.93827000000E+00  0.93827000000E+00 0. -1.
     999902    2    1    2    0    0 -0.22448022390E-01 -0.11292609783E-03 -0.30198459276E-02  0.10212794828E+01  0.10210282738E+01 0.  0.
     999903    2    3    3    0    0 -0.61103979431E-01 -0.83351836570E-01 -0.81470746449E-01  0.13303540425E+00  0.19486182139E-01 0.  0.
         14    1    1    2    0    0  0.22448022390E-01  0.11292609783E-03  0.30198459276E-02  0.22650517234E-01  0.00000000000E+00 0.  1.
     999901    1    3    3    0    0  0.38655957041E-01  0.83238910472E-01  0.78450900521E-01  0.88824407852E+00  0.88000000000E+00 0.  1.
        -11    1    4    4    0    0 -0.60339769656E-01 -0.74751192226E-01 -0.71014616199E-01  0.11946533127E+00  0.51100000000E-03 0. -1.
         11    1    4    4    0    0 -0.76420977502E-03 -0.86006443438E-02 -0.10456130250E-01  0.13570072974E-01  0.51100000000E-03 0.  1.
</event>
<event>
 8    1  0.1940763E+005  0.1043930E+01  0.7957747E-01            NaN
         13   -1    0    0    0    0  0.00000000000E+00  0.00000000000E+00  0.74505805969E-08  0.10566000000E+00  0.10566000000E+00 0. -1.
     999900   -1    0    0    0    0 -0.00000000000E+00 -0.00000000000E+00 -0.74505805969E-08  0.93827000000E+00  0.93827000000E+00 0. -1.
     999902    2    1    2    0    0  0.11035310663E-01  0.19400673001E-01 -0.49999997302E-02  0.10210572172E+01  0.10208009976E+01 0.  0.
     999903    2    3    3    0    0  0.25103499658E-01  0.16363465526E-01  0.12614727202E+00  0.13122198222E+00  0.20202120717E-01 0.  0.
         14    1    1    2    0    0 -0.11035310663E-01 -0.19400673001E-01  0.49999997302E-02  0.22872782769E-01  0.00000000000E+00 0. -1.
     999901    1    3    3    0    0 -0.14068188995E-01  0.30372074743E-02 -0.13114727175E+00  0.88983523501E+00  0.88000000000E+00 0. -1.
        -11    1    4    4    0    0  0.33161133413E-02  0.75741042299E-02  0.68047960255E-01  0.68550344116E-01  0.51100000000E-03 0. -1.
         11    1    4    4    0    0  0.21787386316E-01  0.87893612963E-02  0.58099311767E-01  0.62671638109E-01  0.51100000000E-03 0.  1.
</event>
<event>
 8    1  0.1054833E+005  0.1043930E+01  0.7957747E-01            NaN
         13   -1    0    0    0    0  0.00000000000E+00  0.00000000000E+00  0.74505805969E-08  0.10566000000E+00  0.10566000000E+00 0.  1.
     999900   -1    0    0    0    0 -0.00000000000E+00 -0.00000000000E+00 -0.74505805969E-08  0.93827000000E+00  0.93827000000E+00 0.  1.
     999902    2    1    2    0    0  0.11982975275E-01 -0.70017329079E-02 -0.19767422622E-01  0.10197770094E+01  0.10194909425E+01 0.  0.
     999903    2    3    3    0    0 -0.55472953885E-01  0.80501718294E-01  0.79116961175E-01  0.12737279729E+00  0.20163349974E-01 0.  0.
         14    1    1    2    0    0 -0.11982975275E-01  0.70017329079E-02  0.19767422622E-01  0.24152990649E-01  0.00000000000E+00 0.  1.
     999901    1    3    3    0    0  0.67455929160E-01 -0.87503451202E-01 -0.98884383797E-01  0.89240421206E+00  0.88000000000E+00 0.  1.
        -11    1    4    4    0    0 -0.32986258413E-01  0.62216001279E-01  0.61172272137E-01  0.93280394825E-01  0.51100000000E-03 0.  1.
         11    1    4    4    0    0 -0.22486695472E-01  0.18285717015E-01  0.17944689038E-01  0.34092402462E-01  0.51100000000E-03 0. -1.
</event>
<event>
 8    1  0.1054833E+005  0.1043930E+01  0.7957747E-01            NaN
         13   -1    0    0    0    0  0.00000000000E+00  0.00000000000E+00  0.74505805969E-08  0.10566000000E+00  0.10566000000E+00 0.  1.
     999900   -1    0    0    0    0 -0.00000000000E+00 -0.00000000000E+00 -0.74505805969E-08  0.93827000000E+00  0.93827000000E+00 0. -1.
     999902    2    1    2    0    0 -0.10167988469E-01 -0.20473565116E-01 -0.61642290342E-02  0.10202540084E+01  0.10199792592E+01 0.  0.
     999903    2    3    3    0    0 -0.32485644808E-01 -0.12387831324E+00 -0.32137400795E-01  0.13353803056E+00  0.19960948551E-01 0.  0.
         14    1    1    2    0    0  0.10167988469E-01  0.20473565116E-01  0.61642290342E-02  0.23675991588E-01  0.00000000000E+00 0.  1.
     999901    1    3    3    0    0  0.22317656339E-01  0.10340474812E+00  0.25973171761E-01  0.88671597785E+00  0.88000000000E+00 0.  1.
        -11    1    4    4    0    0 -0.25049946164E-01 -0.77774182845E-01 -0.29096919644E-01  0.86736469687E-01  0.51100000000E-03 0. -1.
         11    1    4    4    0    0 -0.74356986443E-02 -0.46104130397E-01 -0.30404811517E-02  0.46801560878E-01  0.51100000000E-03 0.  1.
</event>
<event>
 8    1  0.1054833E+005  0.1043930E+01  0.7957747E-01            NaN
         13   -1    0    0    0    0  0.00000000000E+00  0.00000000000E+00  0.74505805969E-08  0.10566000000E+00  0.10566000000E+00 0. -1.
     999900   -1    0    0    0    0 -0.00000000000E+00 -0.00000000000E+00 -0.74505805969E-08  0.93827000000E+00  0.93827000000E+00 0. -1.
     999902    2    1    2    0    0  0.18710843540E-01  0.12986805353E-01 -0.70825516603E-02  0.10200780542E+01  0.10197991574E+01 0.  0.
     999903    2    3    3    0    0  0.87685599145E-01  0.25320547446E-01  0.92890801861E-01  0.13165005516E+00  0.19316871724E-01 0.  0.
         14    1    1    2    0    0 -0.18710843540E-01 -0.12986805353E-01  0.70825516603E-02  0.23851945775E-01  0.00000000000E+00 0.  1.
     999901    1    3    3    0    0 -0.68974755605E-01 -0.12333742093E-01 -0.99973353522E-01  0.88842799906E+00  0.88000000000E+00 0. -1.
        -11    1    4    4    0    0  0.57524846356E-01  0.88068536337E-02  0.66009289251E-01  0.88000886402E-01  0.51100000000E-03 0.  1.
         11    1    4    4    0    0  0.30160752789E-01  0.16513693813E-01  0.26881512611E-01  0.43649168759E-01  0.51100000000E-03 0. -1.
</event>
<event>
 8    1  0.1054833E+005  0.1043930E+01  0.7957747E-01            NaN
         13   -1    0    0    0    0  0.00000000000E+00  0.00000000000E+00  0.74505805969E-08  0.10566000000E+00  0.10566000000E+00 0. -1.
     999900   -1    0    0    0    0 -0.00000000000E+00 -0.00000000000E+00 -0.74505805969E-08  0.93827000000E+00  0.93827000000E+00 0. -1.
     999902    2    1    2    0    0  0.80382143255E-03 -0.11147771629E-02 -0.23541077245E-01  0.10203488386E+01  0.10200763114E+01 0.  0.
     999903    2    3    3    0    0 -0.18311918780E-01 -0.12788572802E+00 -0.64438321356E-02  0.13089473559E+00  0.20045523987E-01 0.  0.
         14    1    1    2    0    0 -0.80382143255E-03  0.11147771629E-02  0.23541077245E-01  0.23581161440E-01  0.00000000000E+00 0. -1.
     999901    1    3    3    0    0  0.19115740212E-01  0.12677095085E+00 -0.17097245110E-01  0.88945410297E+00  0.88000000000E+00 0. -1.
        -11    1    4    4    0    0 -0.10361608881E-01 -0.47930494208E-01  0.66314283178E-02  0.49486686858E-01  0.51100000000E-03 0.  1.
         11    1    4    4    0    0 -0.79503098990E-02 -0.79955233809E-01 -0.13075260453E-01  0.81408048729E-01  0.51100000000E-03 0. -1.
</event>
<event>
 8    1  0.1054833E+005  0.1043930E+01  0.7957747E-01            NaN
         13   -1    0    0    0    0  0.00000000000E+00  0.00000000000E+00  0.74505805969E-08  0.10566000000E+00  0.10566000000E+00 0. -1.
     999900   -1    0    0    0    0 -0.00000000000E+00 -0.00000000000E+00 -0.74505805969E-08  0.93827000000E+00  0.93827000000E+00 0.  1.
     999902    2    1    2    0    0 -0.10800208633E-02 -0.87033599223E-02  0.22291557227E-01  0.10199752835E+01  0.10196939494E+01 0.  0.
     999903    2    3    3    0    0 -0.38227345051E-01  0.11610566132E+00  0.40284526360E-01  0.13021072902E+00  0.19751870463E-01 0.  0.
         14    1    1    2    0    0  0.10800208633E-02  0.87033599223E-02 -0.22291557227E-01  0.23954716500E-01  0.00000000000E+00 0.  1.
     999901    1    3    3    0    0  0.37147324188E-01 -0.12480902124E+00 -0.17992969133E-01  0.88976455448E+00  0.88000000000E+00 0.  1.
        -11    1    4    4    0    0 -0.19568201810E-02  0.32841269579E-01  0.12995539090E-01  0.35376875074E-01  0.51100000000E-03 0. -1.
         11    1    4    4    0    0 -0.36270524870E-01  0.83264391740E-01  0.27288987270E-01  0.94833853942E-01  0.51100000000E-03 0.  1.
</event>
<event>
 8    1  0.1054833E+005  0.1043930E+01  0.7957747E-01            NaN
         13   -1    0    0    0    0  0.00000000000E+00  0.00000000000E+00  0.74505805969E-08  0.10566000000E+00  0.10566000000E+00 0. -1.
     999900   -1    0    0    0    0 -0.00000000000E+00 -0.00000000000E+00 -0.74505805969E-08  0.93827000000E+00  0.93827000000E+00 0.  1.
     999902    2    1    2    0    0  0.32549620468E-02  0.15801254573E-01  0.17273280366E-01  0.10202944201E+01  0.10200206189E+01 0.  0.
     999903    2    3    3    0    0  0.69704397661E-01 -0.49929207773E-01 -0.94342407305E-01  0.12833361213E+00  0.14744400397E-01 0.  0.
         14    1    1    2    0    0 -0.32549620468E-02 -0.15801254573E-01 -0.17273280366E-01  0.23635579930E-01  0.00000000000E+00 0.  1.
     999901    1    3    3    0    0 -0.66449435614E-01  0.65730462346E-01  0.11161568767E+00  0.89196080794E+00  0.88000000000E+00 0. -1.
        -11    1    4    4    0    0  0.41925357414E-01 -0.33015648268E-01 -0.48423764591E-01  0.72061714683E-01  0.51100000000E-03 0.  1.
         11    1    4    4    0    0  0.27779040247E-01 -0.16913559505E-01 -0.45918642714E-01  0.56271897444E-01  0.51100000000E-03 0. -1.
</event>
<event>
 8    1  0.1416586E+005  0.1043930E+01  0.7957747E-01            NaN
         13   -1    0    0    0    0  0.00000000000E+00  0.00000000000E+00  0.74505805969E-08  0.10566000000E+00  0.10566000000E+00 0.  1.
     999900   -1    0    0    0    0 -0.00000000000E+00 -0.00000000000E+00 -0.74505805969E-08  0.93827000000E+00  0.93827000000E+00 0. -1.
     999902    2    1    2    0    0  0.49522128251E-02 -0.24756305108E-01  0.98422145439E-02  0.10168326156E+01  0.10164714949E+01 0.  0.
     999903    2    3    3    0    0  0.19156723079E-01  0.97302269169E-02 -0.12276433471E+00  0.12611628258E+00  0.19302266662E-01 0.  0.
         14    1    1    2    0    0 -0.49522128251E-02  0.24756305108E-01 -0.98422145439E-02  0.27097384405E-01  0.00000000000E+00 0. -1.
     999901    1    3    3    0    0 -0.14204510254E-01 -0.34486532025E-01  0.13260654926E+00  0.89071633302E+00  0.88000000000E+00 0.  1.
        -11    1    4    4    0    0 -0.25072277452E-02  0.17085448928E-02 -0.41969302296E-01  0.42081929291E-01  0.51100000000E-03 0.  1.
         11    1    4    4    0    0  0.21663950824E-01  0.80216820241E-02 -0.80795032416E-01  0.84034353284E-01  0.51100000000E-03 0. -1.
</event>
<event>
 8    1  0.1054833E+005  0.1043930E+01  0.7957747E-01            NaN
         13   -1    0    0    0    0  0.00000000000E+00  0.00000000000E+00  0.74505805969E-08  0.10566000000E+00  0.10566000000E+00 0. -1.
     999900   -1    0    0    0    0 -0.00000000000E+00 -0.00000000000E+00 -0.74505805969E-08  0.93827000000E+00  0.93827000000E+00 0. -1.
     999902    2    1    2    0    0 -0.11278164767E-01 -0.20640542652E-01 -0.78795978792E-02  0.10191244147E+01  0.10188224848E+01 0.  0.
     999903    2    3    3    0    0 -0.77868604875E-01  0.39474242323E-01  0.92598511180E-01  0.12887505381E+00  0.20311567880E-01 0.  0.
         14    1    1    2    0    0  0.11278164767E-01  0.20640542652E-01  0.78795978792E-02  0.24805585344E-01  0.00000000000E+00 0. -1.
     999901    1    3    3    0    0  0.66590440107E-01 -0.60114784975E-01 -0.10047810906E+00  0.89024936085E+00  0.88000000000E+00 0. -1.
        -11    1    4    4    0    0 -0.25758460783E-01  0.12574948200E-01  0.44943140009E-01  0.53308297469E-01  0.51100000000E-03 0. -1.
         11    1    4    4    0    0 -0.52110144091E-01  0.26899294123E-01  0.47655371171E-01  0.75566756341E-01  0.51100000000E-03 0.  1.
</event>
<event>
 8    1  0.1054833E+005  0.1043930E+01  0.7957747E-01            NaN
         13   -1    0    0    0    0  0.00000000000E+00  0.00000000000E+00  0.74505805969E-08  0.10566000000E+00  0.10566000000E+00 0. -1.
     999900   -1    0    0    0    0 -0.00000000000E+00 -0.00000000000E+00 -0.74505805969E-08  0.93827000000E+00  0.93827000000E+00 0.  1.
     999902    2    1    2    0    0 -0.20599218385E-01  0.67617466945E-02  0.10086706908E-01  0.10200178551E+01  0.10197375320E+01 0.  0.
     999903    2    3    3    0    0  0.97955623864E-01  0.78773869271E-01 -0.16579705636E-01  0.12875353183E+00  0.22404432432E-01 0.  0.
         14    1    1    2    0    0  0.20599218385E-01 -0.67617466945E-02 -0.10086706908E-01  0.23912144878E-01  0.00000000000E+00 0. -1.
     999901    1    3    3    0    0 -0.11855484225E+00 -0.72012122576E-01  0.26666412544E-01  0.89126432329E+00  0.88000000000E+00 0. -1.
        -11    1    4    4    0    0  0.82162399392E-01  0.75323635557E-01 -0.13372684922E-01  0.11226486436E+00  0.51100000000E-03 0.  1.
         11    1    4    4    0    0  0.15793224472E-01  0.34502337138E-02 -0.32070207144E-02  0.16488667465E-01  0.51100000000E-03 0. -1.
</event>
<event>
 8    1  0.1054833E+005  0.1043930E+01  0.7957747E-01            NaN
         13   -1    0    0    0    0  0.00000000000E+00  0.00000000000E+00  0.74505805969E-08  0.10566000000E+00  0.10566000000E+00 0. -1.
     999900   -1    0    0    0    0 -0.00000000000E+00 -0.00000000000E+00 -0.74505805969E-08  0.93827000000E+00  0.93827000000E+00 0. -1.
     999902    2    1    2    0    0  0.23101901097E-01 -0.50909674603E-03  0.99677593507E-02  0.10187642844E+01  0.10184534128E+01 0.  0.
     999903    2    3    3    0    0 -0.31154574414E-01  0.11749134537E+00  0.38103769183E-01  0.12878703499E+00  0.18957304941E-01 0.  0.
         14    1    1    2    0    0 -0.23101901097E-01  0.50909674603E-03 -0.99677593507E-02  0.25165715573E-01  0.00000000000E+00 0.  1.
     999901    1    3    3    0    0  0.54256475511E-01 -0.11800044212E+00 -0.28136009832E-01  0.88997724944E+00  0.88000000000E+00 0. -1.
        -11    1    4    4    0    0 -0.96801344104E-02  0.72717191973E-01  0.22546622855E-01  0.76747028176E-01  0.51100000000E-03 0.  1.
         11    1    4    4    0    0 -0.21474440004E-01  0.44774153397E-01  0.15557146328E-01  0.52040006810E-01  0.51100000000E-03 0. -1.
</event>
<event>
 8    1  0.1054833E+005  0.1043930E+01  0.7957747E-01            NaN
         13   -1    0    0    0    0  0.00000000000E+00  0.00000000000E+00  0.74505805969E-08  0.10566000000E+00  0.10566000000E+00 0.  1.
     999900   -1    0    0    0    0 -0.00000000000E+00 -0.00000000000E+00 -0.74505805969E-08  0.93827000000E+00  0.93827000000E+00 0. -1.
     999902    2    1    2    0    0 -0.37224112895E-03  0.22877967677E-01 -0.70325527864E-02  0.10199926491E+01  0.10197117276E+01 0.  0.
     999903    2    3    3    0    0  0.87020686781E-01 -0.30357686427E-02  0.94130345164E-01  0.12951919219E+00  0.18245093726E-01 0.  0.
         14    1    1    2    0    0  0.37224112895E-03 -0.22877967677E-01  0.70325527864E-02  0.23937350880E-01  0.00000000000E+00 0.  1.
     999901    1    3    3    0    0 -0.87392927910E-01  0.25913736319E-01 -0.10116289795E+00  0.89047345693E+00  0.88000000000E+00 0. -1.
        -11    1    4    4    0    0  0.40777268000E-01  0.76368367396E-02  0.42782312456E-01  0.59596092498E-01  0.51100000000E-03 0.  1.
         11    1    4    4    0    0  0.46243418781E-01 -0.10672605382E-01  0.51348032708E-01  0.69923099690E-01  0.51100000000E-03 0. -1.
</event>
<event>
 8    1  0.1054833E+005  0.1043930E+01  0.7957747E-01            NaN
         13   -1    0    0    0    0  0.00000000000E+00  0.00000000000E+00  0.74505805969E-08  0.10566000000E+00  0.10566000000E+00 0. -1.
     999900   -1    0    0    0    0 -0.00000000000E+00 -0.00000000000E+00 -0.74505805969E-08  0.93827000000E+00  0.93827000000E+00 0.  1.
     999902    2    1    2    0    0 -0.16403918598E-01 -0.15869399021E-01 -0.69743608050E-02  0.10200643745E+01  0.10197851539E+01 0.  0.
     999903    2    3    3    0    0  0.77078785421E-01 -0.10344782973E+00 -0.80481611232E-02  0.13078930430E+00  0.19961878286E-01 0.  0.
         14    1    1    2    0    0  0.16403918598E-01  0.15869399021E-01  0.69743608050E-02  0.23865625474E-01  0.00000000000E+00 0.  1.
     999901    1    3    3    0    0 -0.93482704019E-01  0.87578430707E-01  0.10738003182E-02  0.88927507022E+00  0.88000000000E+00 0.  1.
        -11    1    4    4    0    0  0.50627688267E-01 -0.78841724585E-01 -0.11913656914E-01  0.94453039637E-01  0.51100000000E-03 0. -1.
         11    1    4    4    0    0  0.26451097155E-01 -0.24606105143E-01  0.38654957905E-02  0.36336264664E-01  0.51100000000E-03 0.  1.
</event>
<event>
 8    1  0.1054833E+005  0.1043930E+01  0.7957747E-01            NaN
         13   -1    0    0    0    0  0.00000000000E+00  0.00000000000E+00  0.74505805969E-08  0.10566000000E+00  0.10566000000E+00 0. -1.
     999900   -1    0    0    0    0 -0.00000000000E+00 -0.00000000000E+00 -0.74505805969E-08  0.93827000000E+00  0.93827000000E+00 0.  1.
     999902    2    1    2    0    0  0.14557424333E-01  0.14291840992E-01 -0.14327277336E-01  0.10190011774E+01  0.10186962026E+01 0.  0.
     999903    2    3    3    0    0  0.59884452387E-01 -0.10363742307E+00 -0.45287710129E-01  0.12943926316E+00  0.19408324518E-01 0.  0.
         14    1    1    2    0    0 -0.14557424333E-01 -0.14291840992E-01  0.14327277336E-01  0.24928822636E-01  0.00000000000E+00 0. -1.
     999901    1    3    3    0    0 -0.45327028054E-01  0.11792926407E+00  0.30960432793E-01  0.88956191420E+00  0.88000000000E+00 0.  1.
        -11    1    4    4    0    0  0.76107338049E-02 -0.23317685388E-01 -0.30925189169E-02  0.24727768099E-01  0.51100000000E-03 0.  1.
         11    1    4    4    0    0  0.52273718582E-01 -0.80319737687E-01 -0.42195191212E-01  0.10471149507E+00  0.51100000000E-03 0. -1.
</event>
<event>
 8    1  0.1054833E+005  0.1043930E+01  0.7957747E-01            NaN
         13   -1    0    0    0    0  0.00000000000E+00  0.00000000000E+00  0.74505805969E-08  0.10566000000E+00  0.10566000000E+00 0.  1.
     999900   -1    0    0    0    0 -0.00000000000E+00 -0.00000000000E+00 -0.74505805969E-08  0.93827000000E+00  0.93827000000E+00 0.  1.
     999902    2    1    2    0    0 -0.94048019847E-02 -0.25375967768E-01  0.87197157936E-02  0.10154972111E+01  0.10150990899E+01 0.  0.
     999903    2    3    3    0    0 -0.34310153120E-01 -0.60641805142E-01  0.10669085811E+00  0.12900846300E+00  0.20140237884E-01 0.  0.
         14    1    1    2    0    0  0.94048019847E-02  0.25375967768E-01 -0.87197157936E-02  0.28432788890E-01  0.00000000000E+00 0.  1.
     999901    1    3    3    0    0  0.24905351135E-01  0.35265837374E-01 -0.97971142321E-01  0.88648874811E+00  0.88000000000E+00 0.  1.
        -11    1    4    4    0    0 -0.20035232457E-01 -0.25921507561E-01  0.65734451831E-01  0.73448038588E-01  0.51100000000E-03 0.  1.
         11    1    4    4    0    0 -0.14274920662E-01 -0.34720297581E-01  0.40956406284E-01  0.55560424411E-01  0.51100000000E-03 0. -1.
</event>
<event>
 8    1  0.1054833E+005  0.1043930E+01  0.7957747E-01            NaN
         13   -1    0    0    0    0  0.00000000000E+00  0.00000000000E+00  0.74505805969E-08  0.10566000000E+00  0.10566000000E+00 0. -1.
     999900   -1    0    0    0    0 -0.00000000000E+00 -0.00000000000E+00 -0.74505805969E-08  0.93827000000E+00  0.93827000000E+00 0.  1.
     999902    2    1    2    0    0  0.22763944404E-01 -0.13866801376E-02  0.89650730412E-02  0.10194250499E+01  0.10191304822E+01 0.  0.
     999903    2    3    3    0    0 -0.11700505573E+00 -0.36895192121E-01 -0.27457530066E-01  0.12694377060E+00  0.17588822258E-01 0.  0.
         14    1    1    2    0    0 -0.22763944404E-01  0.13866801376E-02 -0.89650730412E-02  0.24504950138E-01  0.00000000000E+00 0.  1.
     999901    1    3    3    0    0  0.13976900013E+00  0.35508511983E-01  0.36422603107E-01  0.89248127926E+00  0.88000000000E+00 0.  1.
        -11    1    4    4    0    0 -0.76056686287E-01 -0.26985321495E-01 -0.25987242192E-01  0.84784579866E-01  0.51100000000E-03 0.  1.
         11    1    4    4    0    0 -0.40948369441E-01 -0.99098706254E-02 -0.14702878735E-02  0.42159190732E-01  0.51100000000E-03 0. -1.
</event>
<event>
 8    1  0.1054833E+005  0.1043930E+01  0.7957747E-01            NaN
         13   -1    0    0    0    0  0.00000000000E+00  0.00000000000E+00  0.74505805969E-08  0.10566000000E+00  0.10566000000E+00 0. -1.
     999900   -1    0    0    0    0 -0.00000000000E+00 -0.00000000000E+00 -0.74505805969E-08  0.93827000000E+00  0.93827000000E+00 0.  1.
     999902    2    1    2    0    0  0.11723051281E-01 -0.31966336432E-02 -0.19339934333E-01  0.10210896528E+01  0.10208341676E+01 0.  0.
     999903    2    3    3    0    0  0.10015915788E+00 -0.56637437521E-01  0.60271510614E-01  0.13147465374E+00  0.20329125609E-01 0.  0.
         14    1    1    2    0    0 -0.11723051281E-01  0.31966336432E-02  0.19339934333E-01  0.22840347151E-01  0.00000000000E+00 0. -1.
     999901    1    3    3    0    0 -0.88436106603E-01  0.53440803878E-01 -0.79611444946E-01  0.88961499911E+00  0.88000000000E+00 0. -1.
        -11    1    4    4    0    0  0.53478437741E-01 -0.26681651375E-01  0.20359646487E-01  0.63139766783E-01  0.51100000000E-03 0.  1.
         11    1    4    4    0    0  0.46680720143E-01 -0.29955786146E-01  0.39911864126E-01  0.68334886959E-01  0.51100000000E-03 0. -1.
</event>
<event>
 8    1  0.1054833E+005  0.1043930E+01  0.7957747E-01            NaN
         13   -1    0    0    0    0  0.00000000000E+00  0.00000000000E+00  0.74505805969E-08  0.10566000000E+00  0.10566000000E+00 0. -1.
     999900   -1    0    0    0    0 -0.00000000000E+00 -0.00000000000E+00 -0.74505805969E-08  0.93827000000E+00  0.93827000000E+00 0. -1.
     999902    2    1    2    0    0  0.20061185756E-01  0.10468084375E-01 -0.20385117665E-03  0.10213009585E+01  0.10210502310E+01 0.  0.
     999903    2    3    3    0    0 -0.12155215489E+00 -0.27616829808E-01 -0.25878106587E-01  0.12879663563E+00  0.19526425676E-01 0.  0.
         14    1    1    2    0    0 -0.20061185756E-01 -0.10468084375E-01  0.20385117665E-03  0.22629041511E-01  0.00000000000E+00 0. -1.
     999901    1    3    3    0    0  0.14161334065E+00  0.38084914183E-01  0.25674255410E-01  0.89250432286E+00  0.88000000000E+00 0.  1.
        -11    1    4    4    0    0 -0.10129957719E+00 -0.28060868040E-01 -0.16258948169E-01  0.10636555443E+00  0.51100000000E-03 0. -1.
         11    1    4    4    0    0 -0.20252577710E-01  0.44403823189E-03 -0.96191584185E-02  0.22431081194E-01  0.51100000000E-03 0.  1.
</event>
<event>
 8    1  0.1054833E+005  0.1043930E+01  0.7957747E-01            NaN
         13   -1    0    0    0    0  0.00000000000E+00  0.00000000000E+00  0.74505805969E-08  0.10566000000E+00  0.10566000000E+00 0.  1.
     999900   -1    0    0    0    0 -0.00000000000E+00 -0.00000000000E+00 -0.74505805969E-08  0.93827000000E+00  0.93827000000E+00 0. -1.
     999902    2    1    2    0    0  0.13655176056E-01 -0.15924732694E-01  0.12766388996E-01  0.10193730940E+01  0.10190772606E+01 0.  0.
     999903    2    3    3    0    0 -0.53042830148E-01 -0.89267098378E-01  0.78094039548E-01  0.13140044320E+00  0.19627551480E-01 0.  0.
         14    1    1    2    0    0 -0.13655176056E-01  0.15924732694E-01 -0.12766388996E-01  0.24556906005E-01  0.00000000000E+00 0.  1.
     999901    1    3    3    0    0  0.66698006204E-01  0.73342365684E-01 -0.65327650552E-01  0.88797265080E+00  0.88000000000E+00 0. -1.
        -11    1    4    4    0    0 -0.35478665395E-01 -0.47285172711E-01  0.34874174408E-01  0.68637398102E-01  0.51100000000E-03 0.  1.
         11    1    4    4    0    0 -0.17564164752E-01 -0.41981925667E-01  0.43219865140E-01  0.62763045097E-01  0.51100000000E-03 0. -1.
</event>
<event>
 8    1  0.1054833E+005  0.1043930E+01  0.7957747E-01            NaN
         13   -1    0    0    0    0  0.00000000000E+00  0.00000000000E+00  0.74505805969E-08  0.10566000000E+00  0.10566000000E+00 0. -1.
     999900   -1    0    0    0    0 -0.00000000000E+00 -0.00000000000E+00 -0.74505805969E-08  0.93827000000E+00  0.93827000000E+00 0. -1.
     999902    2    1    2    0    0  0.15898577037E-02 -0.12450860867E-01 -0.20207702118E-01  0.10201412882E+01  0.10198638856E+01 0.  0.
     999903    2    3    3    0    0  0.50391799987E-01  0.87239036733E-02 -0.12096243080E+00  0.13279608167E+00  0.19683740504E-01 0.  0.
         14    1    1    2    0    0 -0.15898577037E-02  0.12450860867E-01  0.20207702118E-01  0.23788711792E-01  0.00000000000E+00 0. -1.
     999901    1    3    3    0    0 -0.48801942283E-01 -0.21174764540E-01  0.10075472868E+00  0.88734520654E+00  0.88000000000E+00 0.  1.
        -11    1    4    4    0    0  0.23985383848E-01  0.12861650194E-01 -0.49401958466E-01  0.56405099994E-01  0.51100000000E-03 0. -1.
         11    1    4    4    0    0  0.26406416139E-01 -0.41377465204E-02 -0.71560472330E-01  0.76390981671E-01  0.51100000000E-03 0.  1.
</event>
<event>
 8    1  0.1054833E+005  0.1043930E+01  0.7957747E-01            NaN
         13   -1    0    0    0    0  0.00000000000E+00  0.00000000000E+00  0.74505805969E-08  0.10566000000E+00  0.10566000000E+00 0. -1.
     999900   -1    0    0    0    0 -0.00000000000E+00 -0.00000000000E+00 -0.74505805969E-08  0.93827000000E+00  0.93827000000E+00 0.  1.
     999902    2    1    2    0    0 -0.83904583648E-02 -0.18837058368E-01 -0.12341854184E-01  0.10198976068E+01  0.10196144234E+01 0.  0.
     999903    2    3    3    0    0  0.10605768305E+00 -0.58035084391E-01  0.43124225631E-01  0.12989123133E+00  0.19892963213E-01 0.  0.
         14    1    1    2    0    0  0.83904583648E-02  0.18837058368E-01  0.12341854184E-01  0.24032393228E-01  0.00000000000E+00 0. -1.
     999901    1    3    3    0    0 -0.11444814142E+00  0.39198026023E-01 -0.55466079816E-01  0.89000637544E+00  0.88000000000E+00 0.  1.
        -11    1    4    4    0    0  0.80143439213E-01 -0.42815918288E-01  0.23036920834E-01  0.93739717037E-01  0.51100000000E-03 0.  1.
         11    1    4    4    0    0  0.25914243840E-01 -0.15219166103E-01  0.20087304797E-01  0.36151514293E-01  0.51100000000E-03 0. -1.
</event>
<event>
 8    1  0.1054833E+005  0.1043930E+01  0.7957747E-01            NaN
         13   -1    0    0    0    0  0.00000000000E+00  0.00000000000E+00  0.74505805969E-08  0.10566000000E+00  0.10566000000E+00 0. -1.
     999900   -1    0    0    0    0 -0.00000000000E+00 -0.00000000000E+00 -0.74505805969E-08  0.93827000000E+00  0.93827000000E+00 0.  1.
     999902    2    1    2    0    0  0.23760134634E-01  0.77287734904E-03 -0.27197655265E-02  0.10200022241E+01  0.10197215299E+01 0.  0.
     999903    2    3    3    0    0  0.11975138744E+00  0.22493898196E-02 -0.54951593415E-01  0.13324145330E+00  0.19701591535E-01 0.  0.
         14    1    1    2    0    0 -0.23760134634E-01 -0.77287734904E-03  0.27197655265E-02  0.23927775946E-01  0.00000000000E+00 0.  1.
     999901    1    3    3    0    0 -0.95991252810E-01 -0.14765124705E-02  0.52231827888E-01  0.88676077075E+00  0.88000000000E+00 0. -1.
        -11    1    4    4    0    0  0.50086511954E-01 -0.33281201080E-02 -0.13497167378E-01  0.51982398092E-01  0.51100000000E-03 0.  1.
         11    1    4    4    0    0  0.69664875490E-01  0.55775099276E-02 -0.41454426037E-01  0.81259055207E-01  0.51100000000E-03 0. -1.
</event>
<event>
 8    1  0.1054833E+005  0.1043930E+01  0.7957747E-01            NaN
         13   -1    0    0    0    0  0.00000000000E+00  0.00000000000E+00  0.74505805969E-08  0.10566000000E+00  0.10566000000E+00 0. -1.
     999900   -1    0    0    0    0 -0.00000000000E+00 -0.00000000000E+00 -0.74505805969E-08  0.93827000000E+00  0.93827000000E+00 0. -1.
     999902    2    1    2    0    0  0.11239398607E-01  0.15444851808E-01  0.12674854614E-01  0.10210057886E+01  0.10207484024E+01 0.  0.
     999903    2    3    3    0    0 -0.10468471017E+00 -0.20605609127E-01 -0.69057721251E-01  0.12891933053E+00  0.21627418896E-01 0.  0.
         14    1    1    2    0    0 -0.11239398607E-01 -0.15444851808E-01 -0.12674854614E-01  0.22924211391E-01  0.00000000000E+00 0.  1.
     999901    1    3    3    0    0  0.11592410878E+00  0.36050460935E-01  0.81732575865E-01  0.89208645808E+00  0.88000000000E+00 0.  1.
        -11    1    4    4    0    0 -0.17177333192E-01 -0.11882303511E-01 -0.12118081824E-01  0.24152824688E-01  0.51100000000E-03 0. -1.
         11    1    4    4    0    0 -0.87507376982E-01 -0.87233056159E-02 -0.56939639427E-01  0.10476650584E+00  0.51100000000E-03 0.  1.
</event>
<event>
 8    1  0.1054833E+005  0.1043930E+01  0.7957747E-01            NaN
         13   -1    0    0    0    0  0.00000000000E+00  0.00000000000E+00  0.74505805969E-08  0.10566000000E+00  0.10566000000E+00 0. -1.
     999900   -1    0    0    0    0 -0.00000000000E+00 -0.00000000000E+00 -0.74505805969E-08  0.93827000000E+00  0.93827000000E+00 0. -1.
     999902    2    1    2    0    0  0.22065389202E-01  0.81939412712E-02 -0.37564511669E-02  0.10200944593E+01  0.10198159505E+01 0.  0.
     999903    2    3    3    0    0 -0.96310986477E-01  0.65182858793E-01  0.51340499027E-01  0.12863701392E+00  0.19672908099E-01 0.  0.
         14    1    1    2    0    0 -0.22065389202E-01 -0.81939412712E-02  0.37564511669E-02  0.23835540681E-01  0.00000000000E+00 0.  1.
     999901    1    3    3    0    0  0.11837637568E+00 -0.56988917522E-01 -0.55096950194E-01  0.89145744540E+00  0.88000000000E+00 0. -1.
        -11    1    4    4    0    0 -0.63322600657E-01  0.41025553989E-01  0.22982952815E-01  0.78875376862E-01  0.51100000000E-03 0.  1.
         11    1    4    4    0    0 -0.32988385820E-01  0.24157304804E-01  0.28357546212E-01  0.49761637057E-01  0.51100000000E-03 0. -1.
</event>
<event>
 8    1  0.1054833E+005  0.1043930E+01  0.7957747E-01            NaN
         13   -1    0    0    0    0  0.00000000000E+00  0.00000000000E+00  0.74505805969E-08  0.10566000000E+00  0.10566000000E+00 0. -1.
     999900   -1    0    0    0    0 -0.00000000000E+00 -0.00000000000E+00 -0.74505805969E-08  0.93827000000E+00  0.93827000000E+00 0.  1.
     999902    2    1    2    0    0 -0.95557507949E-02 -0.21332986000E-01 -0.31723101870E-02  0.10203403367E+01  0.10200676107E+01 0.  0.
     999903    2    3    3    0    0  0.10454267247E+00 -0.21195876551E-02 -0.74354550524E-01  0.12991655204E+00  0.20397261824E-01 0.  0.
         14    1    1    2    0    0  0.95557507949E-02  0.21332986000E-01  0.31723101870E-02  0.23589663348E-01  0.00000000000E+00 0.  1.
     999901    1    3    3    0    0 -0.11409842327E+00 -0.19213398345E-01  0.71182240337E-01  0.89042378461E+00  0.88000000000E+00 0. -1.
        -11    1    4    4    0    0  0.29660534572E-01 -0.95396362317E-02 -0.24653976764E-01  0.39734514742E-01  0.51100000000E-03 0.  1.
         11    1    4    4    0    0  0.74882137902E-01  0.74200485767E-02 -0.49700573760E-01  0.90182037295E-01  0.51100000000E-03 0. -1.
</event>
<event>
 8    1  0.1054833E+005  0.1043930E+01  0.7957747E-01            NaN
         13   -1    0    0    0    0  0.00000000000E+00  0.00000000000E+00  0.74505805969E-08  0.10566000000E+00  0.10566000000E+00 0.  1.
     999900   -1    0    0    0    0 -0.00000000000E+00 -0.00000000000E+00 -0.74505805969E-08  0.93827000000E+00  0.93827000000E+00 0. -1.
     999902    2    1    2    0    0 -0.13695577260E-01 -0.13390790901E-01 -0.90836958169E-03  0.10247543057E+01  0.10245748776E+01 0.  0.
     999903    2    3    3    0    0  0.12592262091E+00 -0.78018906327E-02 -0.35468692556E-01  0.13305991129E+00  0.23011646711E-01 0.  0.
         14    1    1    2    0    0  0.13695577260E-01  0.13390790901E-01  0.90836958169E-03  0.19175694322E-01  0.00000000000E+00 0. -1.
     999901    1    3    3    0    0 -0.13961819817E+00 -0.55889002678E-02  0.34560322974E-01  0.89169439439E+00  0.88000000000E+00 0.  1.
        -11    1    4    4    0    0  0.27492030110E-01 -0.14569800006E-02 -0.17978623994E-01  0.32885050585E-01  0.51100000000E-03 0. -1.
         11    1    4    4    0    0  0.98430590804E-01 -0.63449106321E-02 -0.17490068562E-01  0.10017486070E+00  0.51100000000E-03 0.  1.
</event>
<event>
 8    1  0.1054833E+005  0.1043930E+01  0.7957747E-01            NaN
         13   -1    0    0    0    0  0.00000000000E+00  0.00000000000E+00  0.74505805969E-08  0.10566000000E+00  0.10566000000E+00 0.  1.
     999900   -1    0    0    0    0 -0.00000000000E+00 -0.00000000000E+00 -0.74505805969E-08  0.93827000000E+00  0.93827000000E+00 0. -1.
     999902    2    1    2    0    0  0.15301230724E-01 -0.16421445423E-01  0.73781435627E-02  0.10203031396E+01  0.10200295427E+01 0.  0.
     999903    2    3    3    0    0 -0.33027522344E-01 -0.94196002293E-01 -0.82344639678E-01  0.13101425068E+00  0.20503417202E-01 0.  0.
         14    1    1    2    0    0 -0.15301230724E-01  0.16421445423E-01 -0.73781435627E-02  0.23626860432E-01  0.00000000000E+00 0. -1.
     999901    1    3    3    0    0  0.48328753068E-01  0.77774556870E-01  0.89722783241E-01  0.88928888889E+00  0.88000000000E+00 0.  1.
        -11    1    4    4    0    0 -0.24134955767E-01 -0.48477006667E-01 -0.34333282755E-01  0.64121382479E-01  0.51100000000E-03 0.  1.
         11    1    4    4    0    0 -0.88925665772E-02 -0.45718995626E-01 -0.48011356923E-01  0.66892868200E-01  0.51100000000E-03 0. -1.
</event>
<event>
 8    1  0.1054833E+005  0.1043930E+01  0.7957747E-01            NaN
         13   -1    0    0    0    0  0.00000000000E+00  0.00000000000E+00  0.74505805969E-08  0.10566000000E+00  0.10566000000E+00 0.  1.
     999900   -1    0    0    0    0 -0.00000000000E+00 -0.00000000000E+00 -0.74505805969E-08  0.93827000000E+00  0.93827000000E+00 0. -1.
     999902    2    1    2    0    0  0.75745373991E-02 -0.19579852108E-01  0.11241708063E-01  0.10201157138E+01  0.10198377074E+01 0.  0.
     999903    2    3    3    0    0 -0.43556045644E-01  0.93183614735E-01 -0.72625546865E-01  0.12749952956E+00  0.20033592132E-01 0.  0.
         14    1    1    2    0    0 -0.75745373991E-02  0.19579852108E-01 -0.11241708063E-01  0.23814286165E-01  0.00000000000E+00 0. -1.
     999901    1    3    3    0    0  0.51130583043E-01 -0.11276346684E+00  0.83867254929E-01  0.89261618427E+00  0.88000000000E+00 0.  1.
        -11    1    4    4    0    0 -0.37748224140E-01  0.59862555430E-01 -0.45464179823E-01  0.84117220213E-01  0.51100000000E-03 0. -1.
         11    1    4    4    0    0 -0.58078215042E-02  0.33321059305E-01 -0.27161367042E-01  0.43382309349E-01  0.51100000000E-03 0.  1.
</event>
<event>
 8    1  0.1054833E+005  0.1043930E+01  0.7957747E-01            NaN
         13   -1    0    0    0    0  0.00000000000E+00  0.00000000000E+00  0.74505805969E-08  0.10566000000E+00  0.10566000000E+00 0.  1.
     999900   -1    0    0    0    0 -0.00000000000E+00 -0.00000000000E+00 -0.74505805969E-08  0.93827000000E+00  0.93827000000E+00 0. -1.
     999902    2    1    2    0    0  0.10587993783E-03 -0.19559030100E-01  0.13850801367E-01  0.10199631152E+01  0.10196814918E+01 0.  0.
     999903    2    3    3    0    0  0.12439845481E+00 -0.96141917793E-02 -0.30947449615E-01  0.13004490138E+00  0.19660200790E-01 0.  0.
         14    1    1    2    0    0 -0.10587993783E-03  0.19559030100E-01 -0.13850801367E-01  0.23966884811E-01  0.00000000000E+00 0. -1.
     999901    1    3    3    0    0 -0.12429257487E+00 -0.99448383211E-02  0.44798250982E-01  0.88991821381E+00  0.88000000000E+00 0.  1.
        -11    1    4    4    0    0  0.70833738513E-01  0.13065768405E-02 -0.24654486735E-01  0.75014868473E-01  0.51100000000E-03 0. -1.
         11    1    4    4    0    0  0.53564716295E-01 -0.10920768620E-01 -0.62929628800E-02  0.55030032908E-01  0.51100000000E-03 0.  1.
</event>
<event>
 8    1  0.1054833E+005  0.1043930E+01  0.7957747E-01            NaN
         13   -1    0    0    0    0  0.00000000000E+00  0.00000000000E+00  0.74505805969E-08  0.10566000000E+00  0.10566000000E+00 0.  1.
     999900   -1    0    0    0    0 -0.00000000000E+00 -0.00000000000E+00 -0.74505805969E-08  0.93827000000E+00  0.93827000000E+00 0. -1.
     999902    2    1    2    0    0  0.76596882494E-03  0.15964011191E-01 -0.16702018774E-01  0.10208130410E+01  0.10205512583E+01 0.  0.
     999903    2    3    3    0    0  0.53318160231E-01 -0.10293133882E+00  0.52164429851E-01  0.12860206551E+00  0.19485296742E-01 0.  0.
         14    1    1    2    0    0 -0.76596882494E-03 -0.15964011191E-01  0.16702018774E-01  0.23116958984E-01  0.00000000000E+00 0. -1.
     999901    1    3    3    0    0 -0.52552191406E-01  0.11889535001E+00 -0.68866448625E-01  0.89221097551E+00  0.88000000000E+00 0. -1.
        -11    1    4    4    0    0  0.66982495697E-02 -0.29846345979E-01  0.17452678432E-01  0.35221130320E-01  0.51100000000E-03 0. -1.
         11    1    4    4    0    0  0.46619910661E-01 -0.73084992840E-01  0.34711751419E-01  0.93380935185E-01  0.51100000000E-03 0.  1.
</event>
<event>
 8    1  0.1054833E+005  0.1043930E+01  0.7957747E-01            NaN
         13   -1    0    0    0    0  0.00000000000E+00  0.00000000000E+00  0.74505805969E-08  0.10566000000E+00  0.10566000000E+00 0. -1.
     999900   -1    0    0    0    0 -0.00000000000E+00 -0.00000000000E+00 -0.74505805969E-08  0.93827000000E+00  0.93827000000E+00 0.  1.
     999902    2    1    2    0    0 -0.41110080609E-02 -0.58134492014E-02 -0.22490818841E-01  0.10203390375E+01  0.10200662812E+01 0.  0.
     999903    2    3    3    0    0 -0.10297015098E+00 -0.68194869222E-01 -0.43398031781E-01  0.13236286483E+00  0.19574131943E-01 0.  0.
         14    1    1    2    0    0  0.41110080609E-02  0.58134492014E-02  0.22490818841E-01  0.23590962486E-01  0.00000000000E+00 0. -1.
     999901    1    3    3    0    0  0.98859142923E-01  0.62381420021E-01  0.20907212941E-01  0.88797617269E+00  0.88000000000E+00 0. -1.
        -11    1    4    4    0    0 -0.35863999072E-01 -0.30592716605E-01 -0.24598913827E-01  0.53174321069E-01  0.51100000000E-03 0. -1.
         11    1    4    4    0    0 -0.67106151913E-01 -0.37602152617E-01 -0.18799117954E-01  0.79188543760E-01  0.51100000000E-03 0.  1.
</event>
<event>
 8    1  0.1054833E+005  0.1043930E+01  0.7957747E-01            NaN
         13   -1    0    0    0    0  0.00000000000E+00  0.00000000000E+00  0.74505805969E-08  0.10566000000E+00  0.10566000000E+00 0. -1.
     999900   -1    0    0    0    0 -0.00000000000E+00 -0.00000000000E+00 -0.74505805969E-08  0.93827000000E+00  0.93827000000E+00 0. -1.
     999902    2    1    2    0    0 -0.16679624432E-01 -0.70756876869E-03 -0.16347668977E-01  0.10205642814E+01  0.10202967684E+01 0.  0.
     999903    2    3    3    0    0  0.77376082191E-02 -0.11843399239E+00  0.48736007640E-01  0.13000737865E+00  0.20981871461E-01 0.  0.
         14    1    1    2    0    0  0.16679624432E-01  0.70756876869E-03  0.16347668977E-01  0.23365718601E-01  0.00000000000E+00 0. -1.
     999901    1    3    3    0    0 -0.24417232651E-01  0.11772642362E+00 -0.65083676618E-01  0.89055690275E+00  0.88000000000E+00 0. -1.
        -11    1    4    4    0    0 -0.60373655178E-02 -0.57454244285E-01  0.19350465902E-01  0.60927347065E-01  0.51100000000E-03 0.  1.
         11    1    4    4    0    0  0.13774973737E-01 -0.60979748101E-01  0.29385541738E-01  0.69080031587E-01  0.51100000000E-03 0. -1.
</event>
<event>
 8    1  0.1054833E+005  0.1043930E+01  0.7957747E-01            NaN
         13   -1    0    0    0    0  0.00000000000E+00  0.00000000000E+00  0.74505805969E-08  0.10566000000E+00  0.10566000000E+00 0.  1.
     999900   -1    0    0    0    0 -0.00000000000E+00 -0.00000000000E+00 -0.74505805969E-08  0.93827000000E+00  0.93827000000E+00 0.  1.
     999902    2    1    2    0    0 -0.14656962408E-01  0.11729146518E-01 -0.98705190982E-02  0.10227208847E+01  0.10225009445E+01 0.  0.
     999903    2    3    3    0    0 -0.10486728580E+00  0.57150399874E-01 -0.60474251653E-01  0.13549953099E+00  0.20968355916E-01 0.  0.
         14    1    1    2    0    0  0.14656962408E-01 -0.11729146518E-01  0.98705190982E-02  0.21209115312E-01  0.00000000000E+00 0.  1.
     999901    1    3    3    0    0  0.90210323391E-01 -0.45421253356E-01  0.50603732554E-01  0.88722135369E+00  0.88000000000E+00 0. -1.
        -11    1    4    4    0    0 -0.79030312245E-01  0.51132834658E-01 -0.41462076903E-01  0.10285777548E+00  0.51100000000E-03 0. -1.
         11    1    4    4    0    0 -0.25836973555E-01  0.60175652164E-02 -0.19012174749E-01  0.32641755518E-01  0.51100000000E-03 0.  1.
</event>
<event>
 8    1  0.1054833E+005  0.1043930E+01  0.7957747E-01            NaN
         13   -1    0    0    0    0  0.00000000000E+00  0.00000000000E+00  0.74505805969E-08  0.10566000000E+00  0.10566000000E+00 0. -1.
     999900   -1    0    0    0    0 -0.00000000000E+00 -0.00000000000E+00 -0.74505805969E-08  0.93827000000E+00  0.93827000000E+00 0.  1.
     999902    2    1    2    0    0 -0.58090915090E-02  0.83660895106E-02  0.20427601877E-01  0.10211040517E+01  0.10208488921E+01 0.  0.
     999903    2    3    3    0    0 -0.11949707434E+00  0.29354535927E-01 -0.41456314050E-01  0.13138775344E+00  0.20071776815E-01 0.  0.
         14    1    1    2    0    0  0.58090915090E-02 -0.83660895106E-02 -0.20427601877E-01  0.22825948311E-01  0.00000000000E+00 0.  1.
     999901    1    3    3    0    0  0.11368798283E+00 -0.20988446416E-01  0.61883915927E-01  0.88971629825E+00  0.88000000000E+00 0. -1.
        -11    1    4    4    0    0 -0.93517189619E-01  0.15110702163E-01 -0.35483746551E-01  0.10115906022E+00  0.51100000000E-03 0. -1.
         11    1    4    4    0    0 -0.25979884718E-01  0.14243833764E-01 -0.59725674995E-02  0.30228693220E-01  0.51100000000E-03 0.  1.
</event>
<event>
 8    1  0.1054833E+005  0.1043930E+01  0.7957747E-01            NaN
         13   -1    0    0    0    0  0.00000000000E+00  0.00000000000E+00  0.74505805969E-08  0.10566000000E+00  0.10566000000E+00 0.  1.
     999900   -1    0    0    0    0 -0.00000000000E+00 -0.00000000000E+00 -0.74505805969E-08  0.93827000000E+00  0.93827000000E+00 0. -1.
     999902    2    1    2    0    0 -0.15932417736E-01  0.14591669341E-01  0.11217172837E-01  0.10195869576E+01  0.10192963162E+01 0.  0.
     999903    2    3    3    0    0 -0.37091575239E-01  0.85182071490E-01 -0.89877368442E-01  0.13073892718E+00  0.19569247950E-01 0.  0.
         14    1    1    2    0    0  0.15932417736E-01 -0.14591669341E-01 -0.11217172837E-01  0.24343042446E-01  0.00000000000E+00 0. -1.
     999901    1    3    3    0    0  0.21159157503E-01 -0.70590402150E-01  0.10109454128E+00  0.88884803037E+00  0.88000000000E+00 0.  1.
        -11    1    4    4    0    0 -0.22488348898E-01  0.49409707031E-01 -0.38974290498E-01  0.66830392980E-01  0.51100000000E-03 0.  1.
         11    1    4    4    0    0 -0.14603226341E-01  0.35772364460E-01 -0.50903077944E-01  0.63908534201E-01  0.51100000000E-03 0. -1.
</event>
<event>
 8    1  0.1054833E+005  0.1043930E+01  0.7957747E-01            NaN
         13   -1    0    0    0    0  0.00000000000E+00  0.00000000000E+00  0.74505805969E-08  0.10566000000E+00  0.10566000000E+00 0.  1.
     999900   -1    0    0    0    0 -0.00000000000E+00 -0.00000000000E+00 -0.74505805969E-08  0.93827000000E+00  0.93827000000E+00 0.  1.
     999902    2    1    2    0    0 -0.85878789338E-02 -0.16819140818E-02  0.22047752453E-01  0.10202090412E+01  0.10199332350E+01 0.  0.
     999903    2    3    3    0    0 -0.92265459714E-01  0.51715327694E-01 -0.72123510834E-01  0.12963538909E+00  0.20399586125E-01 0.  0.
         14    1    1    2    0    0  0.85878789338E-02  0.16819140818E-02 -0.22047752453E-01  0.23720958830E-01  0.00000000000E+00 0. -1.
     999901    1    3    3    0    0  0.83677580780E-01 -0.53397241775E-01  0.94171263288E-01  0.89057365208E+00  0.88000000000E+00 0. -1.
        -11    1    4    4    0    0 -0.46373053687E-01  0.34189264867E-01 -0.30200359717E-01  0.65051431871E-01  0.51100000000E-03 0. -1.
         11    1    4    4    0    0 -0.45892406027E-01  0.17526062827E-01 -0.41923151118E-01  0.64583957217E-01  0.51100000000E-03 0.  1.
</event>
<event>
 8    1  0.1712509E+005  0.1043930E+01  0.7957747E-01            NaN
         13   -1    0    0    0    0  0.00000000000E+00  0.00000000000E+00  0.74505805969E-08  0.10566000000E+00  0.10566000000E+00 0.  1.
     999900   -1    0    0    0    0 -0.00000000000E+00 -0.00000000000E+00 -0.74505805969E-08  0.93827000000E+00  0.93827000000E+00 0. -1.
     999902    2    1    2    0    0 -0.13409027044E-01 -0.17216609117E-01 -0.10350992568E-01  0.10197772220E+01  0.10194911603E+01 0.  0.
     999903    2    3    3    0    0 -0.14667335004E-01 -0.50815685255E-01  0.11708155712E+00  0.12996289536E+00  0.19618831980E-01 0.  0.
         14    1    1    2    0    0  0.13409027044E-01  0.17216609117E-01  0.10350992568E-01  0.24152777955E-01  0.00000000000E+00 0. -1.
     999901    1    3    3    0    0  0.12583079591E-02  0.33599076137E-01 -0.12743254969E+00  0.88981432669E+00  0.88000000000E+00 0. -1.
        -11    1    4    4    0    0 -0.17851888688E-01 -0.27966266604E-01  0.64289353633E-01  0.72347661393E-01  0.51100000000E-03 0.  1.
         11    1    4    4    0    0  0.31845536848E-02 -0.22849418650E-01  0.52792203488E-01  0.57615233966E-01  0.51100000000E-03 0. -1.
</event>
<event>
 8    1  0.1054833E+005  0.1043930E+01  0.7957747E-01            NaN
         13   -1    0    0    0    0  0.00000000000E+00  0.00000000000E+00  0.74505805969E-08  0.10566000000E+00  0.10566000000E+00 0. -1.
     999900   -1    0    0    0    0 -0.00000000000E+00 -0.00000000000E+00 -0.74505805969E-08  0.93827000000E+00  0.93827000000E+00 0. -1.
     999902    2    1    2    0    0  0.20758451775E-01 -0.42636093639E-02 -0.86806445065E-02  0.10210292298E+01  0.10207723757E+01 0.  0.
     999903    2    3    3    0    0 -0.11035703783E+00  0.25495657427E-01  0.56982709154E-01  0.12839909278E+00  0.20263107820E-01 0.  0.
         14    1    1    2    0    0 -0.20758451775E-01  0.42636093639E-02  0.86806445065E-02  0.22900770161E-01  0.00000000000E+00 0. -1.
     999901    1    3    3    0    0  0.13111548960E+00 -0.29759266791E-01 -0.65663353660E-01  0.89263013706E+00  0.88000000000E+00 0.  1.
        -11    1    4    4    0    0 -0.24156101798E-01  0.11158024178E-01  0.61924499750E-02  0.27324463679E-01  0.51100000000E-03 0.  1.
         11    1    4    4    0    0 -0.86200936028E-01  0.14337633250E-01  0.50790259179E-01  0.10107462910E+00  0.51100000000E-03 0. -1.
</event>
<event>
 8    1  0.1054833E+005  0.1043930E+01  0.7957747E-01            NaN
         13   -1    0    0    0    0  0.00000000000E+00  0.00000000000E+00  0.74505805969E-08  0.10566000000E+00  0.10566000000E+00 0.  1.
     999900   -1    0    0    0    0 -0.00000000000E+00 -0.00000000000E+00 -0.74505805969E-08  0.93827000000E+00  0.93827000000E+00 0. -1.
     999902    2    1    2    0    0  0.14100024496E-01 -0.42130193679E-02 -0.18426048244E-01  0.10203486625E+01  0.10200761313E+01 0.  0.
     999903    2    3    3    0    0 -0.11048072548E+00  0.59394713112E-01  0.19310232473E-01  0.12850207607E+00  0.20153804319E-01 0.  0.
         14    1    1    2    0    0 -0.14100024496E-01  0.42130193679E-02  0.18426048244E-01  0.23581337470E-01  0.00000000000E+00 0.  1.
     999901    1    3    3    0    0  0.12458074997E+00 -0.63607732480E-01 -0.37736280717E-01  0.89184658646E+00  0.88000000000E+00 0.  1.
        -11    1    4    4    0    0 -0.88971844236E-01  0.39237904314E-01  0.10939050449E-01  0.97854617405E-01  0.51100000000E-03 0. -1.
         11    1    4    4    0    0 -0.21508881243E-01  0.20156808798E-01  0.83711820243E-02  0.30647458667E-01  0.51100000000E-03 0.  1.
</event>
<event>
 8    1  0.1054833E+005  0.1043930E+01  0.7957747E-01            NaN
         13   -1    0    0    0    0  0.00000000000E+00  0.00000000000E+00  0.74505805969E-08  0.10566000000E+00  0.10566000000E+00 0. -1.
     999900   -1    0    0    0    0 -0.00000000000E+00 -0.00000000000E+00 -0.74505805969E-08  0.93827000000E+00  0.93827000000E+00 0.  1.
     999902    2    1    2    0    0 -0.13050663325E-01  0.73396882032E-02 -0.18171787248E-01  0.10203842002E+01  0.10201124994E+01 0.  0.
     999903    2    3    3    0    0  0.10900168482E+00 -0.13629632582E-01 -0.67085014403E-01  0.13036791278E+00  0.20694427927E-01 0.  0.
         14    1    1    2    0    0  0.13050663325E-01 -0.73396882032E-02  0.18171787248E-01  0.23545799793E-01  0.00000000000E+00 0. -1.
     999901    1    3    3    0    0 -0.12205234814E+00  0.20969320785E-01  0.48913227155E-01  0.89001628743E+00  0.88000000000E+00 0. -1.
        -11    1    4    4    0    0  0.97852790858E-02  0.38953758874E-02 -0.10171884644E-01  0.14651074988E-01  0.51100000000E-03 0. -1.
         11    1    4    4    0    0  0.99216405730E-01 -0.17525008469E-01 -0.56913129759E-01  0.11571683779E+00  0.51100000000E-03 0.  1.
</event>
<event>
 8    1  0.1054833E+005  0.1043930E+01  0.7957747E-01            NaN
         13   -1    0    0    0    0  0.00000000000E+00  0.00000000000E+00  0.74505805969E-08  0.10566000000E+00  0.10566000000E+00 0.  1.
     999900   -1    0    0    0    0 -0.00000000000E+00 -0.00000000000E+00 -0.74505805969E-08  0.93827000000E+00  0.93827000000E+00 0.  1.
     999902    2    1    2    0    0  0.50560504432E-02  0.16255801895E-01 -0.66274231534E-02  0.10256615168E+01  0.10254988101E+01 0.  0.
     999903    2    3    3    0    0  0.42805868153E-02 -0.42192791693E-01  0.12530760192E+00  0.13390836132E+00  0.20758107787E-01 0.  0.
         14    1    1    2    0    0 -0.50560504432E-02 -0.16255801895E-01  0.66274231534E-02  0.18268483215E-01  0.00000000000E+00 0.  1.
     999901    1    3    3    0    0  0.77546362791E-03  0.58448593588E-01 -0.13193502507E+00  0.89175315546E+00  0.88000000000E+00 0.  1.
        -11    1    4    4    0    0  0.11075693907E-01 -0.37068091127E-01  0.10276567153E+00  0.10980782641E+00  0.51100000000E-03 0.  1.
         11    1    4    4    0    0 -0.67951070917E-02 -0.51247005663E-02  0.22541930393E-01  0.24100534914E-01  0.51100000000E-03 0. -1.
</event>
<event>
 8    1  0.1054833E+005  0.1043930E+01  0.7957747E-01            NaN
         13   -1    0    0    0    0  0.00000000000E+00  0.00000000000E+00  0.74505805969E-08  0.10566000000E+00  0.10566000000E+00 0.  1.
     999900   -1    0    0    0    0 -0.00000000000E+00 -0.00000000000E+00 -0.74505805969E-08  0.93827000000E+00  0.93827000000E+00 0. -1.
     999902    2    1    2    0    0  0.11736853925E-01  0.13084753069E-01  0.12684913486E-01  0.10222534797E+01  0.10220236324E+01 0.  0.
     999903    2    3    3    0    0 -0.52660068003E-01 -0.84717155183E-01  0.83558458446E-01  0.13167207622E+00  0.20135554001E-01 0.  0.
         14    1    1    2    0    0 -0.11736853925E-01 -0.13084753069E-01 -0.12684913486E-01  0.21676520317E-01  0.00000000000E+00 0. -1.
     999901    1    3    3    0    0  0.64396921928E-01  0.97801908251E-01 -0.70873544960E-01  0.89058140346E+00  0.88000000000E+00 0. -1.
        -11    1    4    4    0    0 -0.13926553517E-01 -0.99101355433E-02  0.18819059365E-01  0.25427894049E-01  0.51100000000E-03 0. -1.
         11    1    4    4    0    0 -0.38733514486E-01 -0.74807019639E-01  0.64739399080E-01  0.10624418217E+00  0.51100000000E-03 0.  1.
</event>
<event>
 8    1  0.1054833E+005  0.1043930E+01  0.7957747E-01            NaN
         13   -1    0    0    0    0  0.00000000000E+00  0.00000000000E+00  0.74505805969E-08  0.10566000000E+00  0.10566000000E+00 0.  1.
     999900   -1    0    0    0    0 -0.00000000000E+00 -0.00000000000E+00 -0.74505805969E-08  0.93827000000E+00  0.93827000000E+00 0.  1.
     999902    2    1    2    0    0 -0.11215231050E-01 -0.18898097514E-01  0.78396877347E-02  0.10205980434E+01  0.10203313118E+01 0.  0.
     999903    2    3    3    0    0 -0.12449875272E+00 -0.15323162788E-01  0.38173503433E-01  0.13281086344E+00  0.21136942489E-01 0.  0.
         14    1    1    2    0    0  0.11215231050E-01  0.18898097514E-01 -0.78396877347E-02  0.23331956647E-01  0.00000000000E+00 0.  1.
     999901    1    3    3    0    0  0.11328352167E+00 -0.35749347261E-02 -0.30333815698E-01  0.88778717991E+00  0.88000000000E+00 0.  1.
        -11    1    4    4    0    0 -0.63934371158E-01 -0.17905604018E-01  0.23563323683E-01  0.70453572050E-01  0.51100000000E-03 0. -1.
         11    1    4    4    0    0 -0.60564381560E-01  0.25824412302E-02  0.14610179750E-01  0.62357291392E-01  0.51100000000E-03 0.  1.
</event>
<event>
 8    1  0.1054833E+005  0.1043930E+01  0.7957747E-01            NaN
         13   -1    0    0    0    0  0.00000000000E+00  0.00000000000E+00  0.74505805969E-08  0.10566000000E+00  0.10566000000E+00 0. -1.
     999900   -1    0    0    0    0 -0.00000000000E+00 -0.00000000000E+00 -0.74505805969E-08  0.93827000000E+00  0.93827000000E+00 0. -1.
     999902    2    1    2    0    0  0.23117390889E-01  0.17209198583E-01 -0.45808504334E-02  0.10147485938E+01  0.10143289181E+01 0.  0.
     999903    2    3    3    0    0 -0.40954354790E-01  0.94815308336E-01 -0.70211403613E-01  0.12658460760E+00  0.20659617917E-01 0.  0.
         14    1    1    2    0    0 -0.23117390889E-01 -0.17209198583E-01  0.45808504334E-02  0.29181406205E-01  0.00000000000E+00 0.  1.
     999901    1    3    3    0    0  0.64071745679E-01 -0.77606109753E-01  0.65630553180E-01  0.88816398620E+00  0.88000000000E+00 0. -1.
        -11    1    4    4    0    0 -0.23929059677E-01  0.77197074588E-01 -0.53990027134E-01  0.97196565644E-01  0.51100000000E-03 0. -1.
         11    1    4    4    0    0 -0.17025295113E-01  0.17618233748E-01 -0.16221376479E-01  0.29388041955E-01  0.51100000000E-03 0.  1.
</event>
<event>
 8    1  0.1054833E+005  0.1043930E+01  0.7957747E-01            NaN
         13   -1    0    0    0    0  0.00000000000E+00  0.00000000000E+00  0.74505805969E-08  0.10566000000E+00  0.10566000000E+00 0.  1.
     999900   -1    0    0    0    0 -0.00000000000E+00 -0.00000000000E+00 -0.74505805969E-08  0.93827000000E+00  0.93827000000E+00 0.  1.
     999902    2    1    2    0    0 -0.65531456335E-02 -0.17363104987E-01  0.14626553367E-01  0.10203004169E+01  0.10200267563E+01 0.  0.
     999903    2    3    3    0    0  0.52208897535E-01  0.10684392152E+00  0.46087360490E-01  0.12908206797E+00  0.19918406726E-01 0.  0.
         14    1    1    2    0    0  0.65531456335E-02  0.17363104987E-01 -0.14626553367E-01  0.23629583066E-01  0.00000000000E+00 0. -1.
     999901    1    3    3    0    0 -0.58762043169E-01 -0.12420702651E+00 -0.31460807123E-01  0.89121834897E+00  0.88000000000E+00 0.  1.
        -11    1    4    4    0    0  0.27529984618E-01  0.51938768754E-01  0.12332913715E-01  0.60065777564E-01  0.51100000000E-03 0. -1.
         11    1    4    4    0    0  0.24678912917E-01  0.54905152765E-01  0.33754446775E-01  0.69016290403E-01  0.51100000000E-03 0.  1.
</event>
<event>
 8    1  0.1054833E+005  0.1043930E+01  0.7957747E-01            NaN
         13   -1    0    0    0    0  0.00000000000E+00  0.00000000000E+00  0.74505805969E-08  0.10566000000E+00  0.10566000000E+00 0.  1.
     999900   -1    0    0    0    0 -0.00000000000E+00 -0.00000000000E+00 -0.74505805969E-08  0.93827000000E+00  0.93827000000E+00 0. -1.
     999902    2    1    2    0    0  0.26039097119E-01 -0.81280214824E-02  0.25762934758E-01  0.10064089643E+01  0.10057092897E+01 0.  0.
     999903    2    3    3    0    0  0.36945071366E-01 -0.70143383048E-01  0.90357196217E-01  0.12179760108E+00  0.19626518707E-01 0.  0.
         14    1    1    2    0    0 -0.26039097119E-01  0.81280214824E-02 -0.25762934758E-01  0.37521035691E-01  0.00000000000E+00 0.  1.
     999901    1    3    3    0    0 -0.10905974248E-01  0.62015361566E-01 -0.64594261459E-01  0.88461136323E+00  0.88000000000E+00 0. -1.
        -11    1    4    4    0    0  0.64971874934E-02 -0.12125084729E-01  0.60890240891E-02  0.15052191214E-01  0.51100000000E-03 0. -1.
         11    1    4    4    0    0  0.30447883873E-01 -0.58018298319E-01  0.84268172127E-01  0.10674540986E+00  0.51100000000E-03 0.  1.
</event>
<event>
 8    1  0.1054833E+005  0.1043930E+01  0.7957747E-01            NaN
         13   -1    0    0    0    0  0.00000000000E+00  0.00000000000E+00  0.74505805969E-08  0.10566000000E+00  0.10566000000E+00 0.  1.
     999900   -1    0    0    0    0 -0.00000000000E+00 -0.00000000000E+00 -0.74505805969E-08  0.93827000000E+00  0.93827000000E+00 0. -1.
     999902    2    1    2    0    0 -0.13650523230E-01  0.10752570355E-01  0.16564297982E-01  0.10199231151E+01  0.10196405397E+01 0.  0.
     999903    2    3    3    0    0  0.79432083627E-01 -0.89835656359E-01 -0.37255976152E-01  0.12769053056E+00  0.23172457207E-01 0.  0.
         14    1    1    2    0    0  0.13650523230E-01 -0.10752570355E-01 -0.16564297982E-01  0.24006884874E-01  0.00000000000E+00 0. -1.
     999901    1    3    3    0    0 -0.93082606857E-01  0.10058822671E+00  0.53820274134E-01  0.89223258457E+00  0.88000000000E+00 0.  1.
        -11    1    4    4    0    0  0.51326629350E-01 -0.41874995538E-01 -0.15795471439E-01  0.68100632674E-01  0.51100000000E-03 0.  1.
         11    1    4    4    0    0  0.28105454278E-01 -0.47960660822E-01 -0.21460504712E-01  0.59589897886E-01  0.51100000000E-03 0. -1.
</event>
<event>
 8    1  0.1054833E+005  0.1043930E+01  0.7957747E-01            NaN
         13   -1    0    0    0    0  0.00000000000E+00  0.00000000000E+00  0.74505805969E-08  0.10566000000E+00  0.10566000000E+00 0. -1.
     999900   -1    0    0    0    0 -0.00000000000E+00 -0.00000000000E+00 -0.74505805969E-08  0.93827000000E+00  0.93827000000E+00 0. -1.
     999902    2    1    2    0    0  0.14325944598E-01  0.22570043021E-02 -0.18641290587E-01  0.10203116920E+01  0.10200382956E+01 0.  0.
     999903    2    3    3    0    0 -0.28910474498E-01 -0.81855591163E-01  0.92395287775E-01  0.12830640146E+00  0.19735503857E-01 0.  0.
         14    1    1    2    0    0 -0.14325944598E-01 -0.22570043021E-02  0.18641290587E-01  0.23618307979E-01  0.00000000000E+00 0.  1.
     999901    1    3    3    0    0  0.43236419096E-01  0.84112595465E-01 -0.11103657836E+00  0.89200529056E+00  0.88000000000E+00 0. -1.
        -11    1    4    4    0    0 -0.15532949966E-01 -0.22934033610E-01  0.20932816665E-01  0.34722994784E-01  0.51100000000E-03 0. -1.
         11    1    4    4    0    0 -0.13377524533E-01 -0.58921557553E-01  0.71462471110E-01  0.93583406677E-01  0.51100000000E-03 0.  1.
</event>
<event>
 8    1  0.1054833E+005  0.1043930E+01  0.7957747E-01            NaN
         13   -1    0    0    0    0  0.00000000000E+00  0.00000000000E+00  0.74505805969E-08  0.10566000000E+00  0.10566000000E+00 0. -1.
     999900   -1    0    0    0    0 -0.00000000000E+00 -0.00000000000E+00 -0.74505805969E-08  0.93827000000E+00  0.93827000000E+00 0.  1.
     999902    2    1    2    0    0  0.18978706115E-01 -0.10348680482E-01  0.88565834151E-02  0.10205692307E+01  0.10203018323E+01 0.  0.
     999903    2    3    3    0    0  0.10200456306E+00 -0.20752039973E-01  0.81044101642E-01  0.13365741962E+00  0.21461159358E-01 0.  0.
         14    1    1    2    0    0 -0.18978706115E-01  0.10348680482E-01 -0.88565834151E-02  0.23360769321E-01  0.00000000000E+00 0.  1.
     999901    1    3    3    0    0 -0.83025856941E-01  0.10403359491E-01 -0.72187518227E-01  0.88691181106E+00  0.88000000000E+00 0.  1.
        -11    1    4    4    0    0  0.48378919173E-01 -0.18920840752E-01  0.47389243338E-01  0.70317277679E-01  0.51100000000E-03 0. -1.
         11    1    4    4    0    0  0.53625643883E-01 -0.18311992209E-02  0.33654858304E-01  0.63340141940E-01  0.51100000000E-03 0.  1.
</event>
<event>
 8    1  0.1054833E+005  0.1043930E+01  0.7957747E-01            NaN
         13   -1    0    0    0    0  0.00000000000E+00  0.00000000000E+00  0.74505805969E-08  0.10566000000E+00  0.10566000000E+00 0. -1.
     999900   -1    0    0    0    0 -0.00000000000E+00 -0.00000000000E+00 -0.74505805969E-08  0.93827000000E+00  0.93827000000E+00 0.  1.
     999902    2    1    2    0    0 -0.10470633140E-01  0.20761663133E-01  0.19954491118E-02  0.10205919917E+01  0.10203251202E+01 0.  0.
     999903    2    3    3    0    0 -0.70402298803E-02  0.13103095077E+00 -0.14620704930E-01  0.13354792287E+00  0.20065088975E-01 0.  0.
         14    1    1    2    0    0  0.10470633140E-01 -0.20761663133E-01 -0.19954491118E-02  0.23338008303E-01  0.00000000000E+00 0. -1.
     999901    1    3    3    0    0 -0.34304032593E-02 -0.11026928763E+00  0.16616154042E-01  0.88704406882E+00  0.88000000000E+00 0. -1.
        -11    1    4    4    0    0 -0.12900151735E-02  0.11992844816E+00 -0.15827049302E-01  0.12097625150E+00  0.51100000000E-03 0.  1.
         11    1    4    4    0    0 -0.57502147068E-02  0.11102502610E-01  0.12063443714E-02  0.12571671374E-01  0.51100000000E-03 0. -1.
</event>
<event>
 8    1  0.1054833E+005  0.1043930E+01  0.7957747E-01            NaN
         13   -1    0    0    0    0  0.00000000000E+00  0.00000000000E+00  0.74505805969E-08  0.10566000000E+00  0.10566000000E+00 0.  1.
     999900   -1    0    0    0    0 -0.00000000000E+00 -0.00000000000E+00 -0.74505805969E-08  0.93827000000E+00  0.93827000000E+00 0. -1.
     999902    2    1    2    0    0 -0.23885988864E-01 -0.70984239283E-02  0.74439201498E-02  0.10179234617E+01  0.10175911919E+01 0.  0.
     999903    2    3    3    0    0 -0.98244416583E-01 -0.37288166888E-01 -0.74626252190E-01  0.13046861242E+00  0.20263477764E-01 0.  0.
         14    1    1    2    0    0  0.23885988864E-01  0.70984239283E-02 -0.74439201498E-02  0.26006538284E-01  0.00000000000E+00 0.  1.
     999901    1    3    3    0    0  0.74358427719E-01  0.30189742959E-01  0.82070172340E-01  0.88745484930E+00  0.88000000000E+00 0. -1.
        -11    1    4    4    0    0 -0.92079378205E-01 -0.34163950411E-01 -0.74926941051E-01  0.12353175711E+00  0.51100000000E-03 0. -1.
         11    1    4    4    0    0 -0.61650383780E-02 -0.31242164768E-02  0.30068886097E-03  0.69368553097E-02  0.51100000000E-03 0.  1.
</event>
<event>
 8    1  0.1054833E+005  0.1043930E+01  0.7957747E-01            NaN
         13   -1    0    0    0    0  0.00000000000E+00  0.00000000000E+00  0.74505805969E-08  0.10566000000E+00  0.10566000000E+00 0. -1.
     999900   -1    0    0    0    0 -0.00000000000E+00 -0.00000000000E+00 -0.74505805969E-08  0.93827000000E+00  0.93827000000E+00 0.  1.
     999902    2    1    2    0    0  0.94217991804E-02 -0.12461675841E-01  0.17685288089E-01  0.10203326892E+01  0.10200597843E+01 0.  0.
     999903    2    3    3    0    0  0.10466465636E+00  0.47479158665E-01  0.61994893974E-01  0.13206051990E+00  0.19688911570E-01 0.  0.
         14    1    1    2    0    0 -0.94217991804E-02  0.12461675841E-01 -0.17685288089E-01  0.23597310850E-01  0.00000000000E+00 0.  1.
     999901    1    3    3    0    0 -0.95242857183E-01 -0.59940834506E-01 -0.44309605885E-01  0.88827216925E+00  0.88000000000E+00 0.  1.
        -11    1    4    4    0    0  0.78707183583E-01  0.39717446922E-01  0.55560923545E-01  0.10420927830E+00  0.51100000000E-03 0.  1.
         11    1    4    4    0    0  0.25957472781E-01  0.77617117430E-02  0.64339704290E-02  0.27851241603E-01  0.51100000000E-03 0. -1.
</event>
<event>
 8    1  0.1054833E+005  0.1043930E+01  0.7957747E-01            NaN
         13   -1    0    0    0    0  0.00000000000E+00  0.00000000000E+00  0.74505805969E-08  0.10566000000E+00  0.10566000000E+00 0.  1.
     999900   -1    0    0    0    0 -0.00000000000E+00 -0.00000000000E+00 -0.74505805969E-08  0.93827000000E+00  0.93827000000E+00 0. -1.
     999902    2    1    2    0    0 -0.14885190385E-01 -0.57145277996E-02 -0.18233181474E-01  0.10197086535E+01  0.10194209456E+01 0.  0.
     999903    2    3    3    0    0 -0.87538975458E-01  0.32938719422E-01 -0.92063235535E-01  0.13279066240E+00  0.20240781184E-01 0.  0.
         14    1    1    2    0    0  0.14885190385E-01  0.57145277996E-02  0.18233181474E-01  0.24221346524E-01  0.00000000000E+00 0.  1.
     999901    1    3    3    0    0  0.72653785073E-01 -0.38653247221E-01  0.73830054061E-01  0.88691799107E+00  0.88000000000E+00 0.  1.
        -11    1    4    4    0    0 -0.27879083572E-01  0.13445670841E-01 -0.43699323953E-01  0.53552977509E-01  0.51100000000E-03 0.  1.
         11    1    4    4    0    0 -0.59659891886E-01  0.19493048581E-01 -0.48363911582E-01  0.79237684894E-01  0.51100000000E-03 0. -1.
</event>
<event>
 8    1  0.1054833E+005  0.1043930E+01  0.7957747E-01            NaN
         13   -1    0    0    0    0  0.00000000000E+00  0.00000000000E+00  0.74505805969E-08  0.10566000000E+00  0.10566000000E+00 0. -1.
     999900   -1    0    0    0    0 -0.00000000000E+00 -0.00000000000E+00 -0.74505805969E-08  0.93827000000E+00  0.93827000000E+00 0. -1.
     999902    2    1    2    0    0 -0.15300116078E-01 -0.17005208307E-01  0.50780364761E-02  0.10204980322E+01  0.10202289824E+01 0.  0.
     999903    2    3    3    0    0  0.13121261586E-01 -0.12801913457E+00 -0.24548566735E-01  0.13257370987E+00  0.20300002397E-01 0.  0.
         14    1    1    2    0    0  0.15300116078E-01  0.17005208307E-01 -0.50780364761E-02  0.23431967822E-01  0.00000000000E+00 0.  1.
     999901    1    3    3    0    0 -0.28421377663E-01  0.11101392626E+00  0.29626603211E-01  0.88792432231E+00  0.88000000000E+00 0.  1.
        -11    1    4    4    0    0  0.11641125437E-01 -0.12009120708E+00 -0.17631738328E-01  0.12193667675E+00  0.51100000000E-03 0.  1.
         11    1    4    4    0    0  0.14801361486E-02 -0.79279274893E-02 -0.69168284067E-02  0.10637033116E-01  0.51100000000E-03 0. -1.
</event>
<event>
 8    1  0.1054833E+005  0.1043930E+01  0.7957747E-01            NaN
         13   -1    0    0    0    0  0.00000000000E+00  0.00000000000E+00  0.74505805969E-08  0.10566000000E+00  0.10566000000E+00 0.  1.
     999900   -1    0    0    0    0 -0.00000000000E+00 -0.00000000000E+00 -0.74505805969E-08  0.93827000000E+00  0.93827000000E+00 0. -1.
     999902    2    1    2    0    0 -0.82899151515E-02 -0.13571120492E-01 -0.17886774296E-01  0.10199960346E+01  0.10197151935E+01 0.  0.
     999903    2    3    3    0    0  0.12111433528E+00 -0.12133779214E-01 -0.41712217957E-01  0.13021225315E+00  0.19985267935E-01 0.  0.
         14    1    1    2    0    0  0.82899151515E-02  0.13571120492E-01  0.17886774296E-01  0.23933965391E-01  0.00000000000E+00 0.  1.
     999901    1    3    3    0    0 -0.12940425044E+00 -0.14373412778E-02  0.23825443662E-01  0.88978378146E+00  0.88000000000E+00 0. -1.
        -11    1    4    4    0    0  0.22118910487E-01 -0.35671118082E-03  0.39561055764E-04  0.22127723111E-01  0.51100000000E-03 0.  1.
         11    1    4    4    0    0  0.98995424797E-01 -0.11777068033E-01 -0.41751779013E-01  0.10808453004E+00  0.51100000000E-03 0. -1.
</event>
<event>
 8    1  0.1054833E+005  0.1043930E+01  0.7957747E-01            NaN
         13   -1    0    0    0    0  0.00000000000E+00  0.00000000000E+00  0.74505805969E-08  0.10566000000E+00  0.10566000000E+00 0. -1.
     999900   -1    0    0    0    0 -0.00000000000E+00 -0.00000000000E+00 -0.74505805969E-08  0.93827000000E+00  0.93827000000E+00 0.  1.
     999902    2    1    2    0    0  0.93797340990E-02 -0.40181507862E-02  0.21246110998E-01  0.10203604820E+01  0.10200882271E+01 0.  0.
     999903    2    3    3    0    0  0.15454837590E-01  0.16532257559E-01  0.12990598671E+00  0.13341843496E+00  0.20316147762E-01 0.  0.
         14    1    1    2    0    0 -0.93797340990E-02  0.40181507862E-02 -0.21246110998E-01  0.23569518028E-01  0.00000000000E+00 0.  1.
     999901    1    3    3    0    0 -0.60751034914E-02 -0.20550408345E-01 -0.10865987571E+00  0.88694204701E+00  0.88000000000E+00 0.  1.
        -11    1    4    4    0    0 -0.49040528733E-02  0.42125910470E-02  0.23143312415E-01  0.24034760004E-01  0.51100000000E-03 0. -1.
         11    1    4    4    0    0  0.20358890464E-01  0.12319666512E-01  0.10676267429E+00  0.10938367496E+00  0.51100000000E-03 0.  1.
</event>
<event>
 8    1  0.1054833E+005  0.1043930E+01  0.7957747E-01            NaN
         13   -1    0    0    0    0  0.00000000000E+00  0.00000000000E+00  0.74505805969E-08  0.10566000000E+00  0.10566000000E+00 0.  1.
     999900   -1    0    0    0    0 -0.00000000000E+00 -0.00000000000E+00 -0.74505805969E-08  0.93827000000E+00  0.93827000000E+00 0.  1.
     999902    2    1    2    0    0  0.22094329285E-01 -0.51474457942E-02  0.68788789232E-02  0.10202239974E+01  0.10199485430E+01 0.  0.
     999903    2    3    3    0    0 -0.63520447842E-01  0.79433373710E-01  0.77208201670E-01  0.12925260686E+00  0.20015539530E-01 0.  0.
         14    1    1    2    0    0 -0.22094329285E-01  0.51474457942E-02 -0.68788789232E-02  0.23706002615E-01  0.00000000000E+00 0.  1.
     999901    1    3    3    0    0  0.85614777127E-01 -0.84580819504E-01 -0.70329322747E-01  0.89097139052E+00  0.88000000000E+00 0.  1.
        -11    1    4    4    0    0 -0.45831660795E-01  0.68625684786E-01  0.56979599348E-01  0.10028440361E+00  0.51100000000E-03 0.  1.
         11    1    4    4    0    0 -0.17688787047E-01  0.10807688924E-01  0.20228602322E-01  0.28968203258E-01  0.51100000000E-03 0. -1.
</event>
<event>
 8    1  0.1054833E+005  0.1043930E+01  0.7957747E-01            NaN
         13   -1    0    0    0    0  0.00000000000E+00  0.00000000000E+00  0.74505805969E-08  0.10566000000E+00  0.10566000000E+00 0. -1.
     999900   -1    0    0    0    0 -0.00000000000E+00 -0.00000000000E+00 -0.74505805969E-08  0.93827000000E+00  0.93827000000E+00 0. -1.
     999902    2    1    2    0    0  0.54067359277E-02 -0.53862446282E-02  0.22364777130E-01  0.10202989255E+01  0.10200252300E+01 0.  0.
     999903    2    3    3    0    0 -0.76223407933E-02 -0.12726069215E+00  0.26695825652E-01  0.13179349742E+00  0.20086687380E-01 0.  0.
         14    1    1    2    0    0 -0.54067359277E-02  0.53862446282E-02 -0.22364777130E-01  0.23631074471E-01  0.00000000000E+00 0. -1.
     999901    1    3    3    0    0  0.13029076721E-01  0.12187444752E+00 -0.43310485218E-02  0.88850542811E+00  0.88000000000E+00 0.  1.
        -11    1    4    4    0    0 -0.12142962193E-01 -0.48423500013E-01  0.70762304459E-02  0.50424409195E-01  0.51100000000E-03 0. -1.
         11    1    4    4    0    0  0.45206214002E-02 -0.78837192135E-01  0.19619595206E-01  0.81369088225E-01  0.51100000000E-03 0.  1.
</event>
<event>
 8    1  0.1054833E+005  0.1043930E+01  0.7957747E-01            NaN
         13   -1    0    0    0    0  0.00000000000E+00  0.00000000000E+00  0.74505805969E-08  0.10566000000E+00  0.10566000000E+00 0.  1.
     999900   -1    0    0    0    0 -0.00000000000E+00 -0.00000000000E+00 -0.74505805969E-08  0.93827000000E+00  0.93827000000E+00 0. -1.
     999902    2    1    2    0    0  0.17045697196E-01 -0.86569052154E-02  0.13266365639E-01  0.10206599708E+01  0.10203946696E+01 0.  0.
     999903    2    3    3    0    0  0.70147796162E-01 -0.86649179970E-01 -0.67526906099E-01  0.13193606510E+00  0.20456014554E-01 0.  0.
         14    1    1    2    0    0 -0.17045697196E-01  0.86569052154E-02 -0.13266365639E-01  0.23270029181E-01  0.00000000000E+00 0. -1.
     999901    1    3    3    0    0 -0.53102098966E-01  0.77992274755E-01  0.80793271738E-01  0.88872390572E+00  0.88000000000E+00 0.  1.
        -11    1    4    4    0    0  0.34040762229E-01 -0.40923132586E-01 -0.44139110293E-01  0.69151995287E-01  0.51100000000E-03 0.  1.
         11    1    4    4    0    0  0.36107033932E-01 -0.45726047385E-01 -0.23387795806E-01  0.62784069815E-01  0.51100000000E-03 0. -1.
</event>
<event>
 8    1  0.1054833E+005  0.1043930E+01  0.7957747E-01            NaN
         13   -1    0    0    0    0  0.00000000000E+00  0.00000000000E+00  0.74505805969E-08  0.10566000000E+00  0.10566000000E+00 0. -1.
     999900   -1    0    0    0    0 -0.00000000000E+00 -0.00000000000E+00 -0.74505805969E-08  0.93827000000E+00  0.93827000000E+00 0. -1.
     999902    2    1    2    0    0 -0.32310294306E-02  0.19613102713E-01  0.11853864045E-01  0.10207863736E+01  0.10205239797E+01 0.  0.
     999903    2    3    3    0    0  0.86177272510E-01 -0.80972672426E-01  0.49436256540E-01  0.12976236786E+00  0.20278872623E-01 0.  0.
         14    1    1    2    0    0  0.32310294306E-02 -0.19613102713E-01 -0.11853864045E-01  0.23143626379E-01  0.00000000000E+00 0.  1.
     999901    1    3    3    0    0 -0.89408301941E-01  0.10058577514E+00 -0.37582392495E-01  0.89102400576E+00  0.88000000000E+00 0.  1.
        -11    1    4    4    0    0  0.56781815031E-01 -0.54341883120E-01  0.42952896626E-01  0.89568003376E-01  0.51100000000E-03 0.  1.
         11    1    4    4    0    0  0.29395457479E-01 -0.26630789307E-01  0.64833599135E-02  0.40194364484E-01  0.51100000000E-03 0. -1.
</event>
<event>
 8    1  0.1054833E+005  0.1043930E+01  0.7957747E-01            NaN
         13   -1    0    0    0    0  0.00000000000E+00  0.00000000000E+00  0.74505805969E-08  0.10566000000E+00  0.10566000000E+00 0. -1.
     999900   -1    0    0    0    0 -0.00000000000E+00 -0.00000000000E+00 -0.74505805969E-08  0.93827000000E+00  0.93827000000E+00 0. -1.
     999902    2    1    2    0    0 -0.38262683803E-02 -0.17171357641E-01  0.14663626916E-01  0.10210276462E+01  0.10207707561E+01 0.  0.
     999903    2    3    3    0    0 -0.82958177803E-01 -0.99107471065E-01 -0.23221294087E-01  0.13287751648E+00  0.20318853343E-01 0.  0.
         14    1    1    2    0    0  0.38262683803E-02  0.17171357641E-01 -0.14663626916E-01  0.22902353750E-01  0.00000000000E+00 0. -1.
     999901    1    3    3    0    0  0.79131909423E-01  0.81936113424E-01  0.37884921003E-01  0.88815012977E+00  0.88000000000E+00 0.  1.
        -11    1    4    4    0    0 -0.25770054200E-01 -0.35131049888E-01  0.14266706760E-02  0.43595674899E-01  0.51100000000E-03 0.  1.
         11    1    4    4    0    0 -0.57188123603E-01 -0.63976421177E-01 -0.24647964763E-01  0.89281841580E-01  0.51100000000E-03 0. -1.
</event>
<event>
 8    1  0.1054833E+005  0.1043930E+01  0.7957747E-01            NaN
         13   -1    0    0    0    0  0.00000000000E+00  0.00000000000E+00  0.74505805969E-08  0.10566000000E+00  0.10566000000E+00 0.  1.
     999900   -1    0    0    0    0 -0.00000000000E+00 -0.00000000000E+00 -0.74505805969E-08  0.93827000000E+00  0.93827000000E+00 0. -1.
     999902    2    1    2    0    0 -0.15701560553E-01 -0.43672911962E-02  0.16069667173E-01  0.10210423081E+01  0.10207857506E+01 0.  0.
     999903    2    3    3    0    0  0.12158390067E+00 -0.39917361966E-01  0.73224691122E-02  0.12964586497E+00  0.19452276528E-01 0.  0.
         14    1    1    2    0    0  0.15701560553E-01  0.43672911962E-02 -0.16069667173E-01  0.22887691873E-01  0.00000000000E+00 0. -1.
     999901    1    3    3    0    0 -0.13728546122E+00  0.35550070770E-01  0.87471980605E-02  0.89139644315E+00  0.88000000000E+00 0.  1.
        -11    1    4    4    0    0  0.66594214038E-01 -0.19713976859E-01  0.13440737777E-01  0.70741393681E-01  0.51100000000E-03 0.  1.
         11    1    4    4    0    0  0.54989686633E-01 -0.20203385107E-01 -0.61182686652E-02  0.58904471292E-01  0.51100000000E-03 0. -1.
</event>
<event>
 8    1  0.1054833E+005  0.1043930E+01  0.7957747E-01            NaN
         13   -1    0    0    0    0  0.00000000000E+00  0.00000000000E+00  0.74505805969E-08  0.10566000000E+00  0.10566000000E+00 0. -1.
     999900   -1    0    0    0    0 -0.00000000000E+00 -0.00000000000E+00 -0.74505805969E-08  0.93827000000E+00  0.93827000000E+00 0.  1.
     999902    2    1    2    0    0 -0.54570757881E-02  0.10184476775E-02  0.22010107525E-01  0.10212306224E+01  0.10209783163E+01 0.  0.
     999903    2    3    3    0    0 -0.38911553860E-01  0.52941381443E-01 -0.10946350990E+00  0.12932227212E+00  0.20617739280E-01 0.  0.
         14    1    1    2    0    0  0.54570757881E-02 -0.10184476775E-02 -0.22010107525E-01  0.22699377637E-01  0.00000000000E+00 0.  1.
     999901    1    3    3    0    0  0.33454478072E-01 -0.51922933766E-01  0.13147361743E+00  0.89190835024E+00  0.88000000000E+00 0. -1.
        -11    1    4    4    0    0 -0.34635545915E-01  0.54169112679E-01 -0.10382199354E+00  0.12211953682E+00  0.51100000000E-03 0.  1.
         11    1    4    4    0    0 -0.42760079453E-02 -0.12277312360E-02 -0.56415163589E-02  0.72027352974E-02  0.51100000000E-03 0. -1.
</event>
<event>
 8    1  0.1054833E+005  0.1043930E+01  0.7957747E-01            NaN
         13   -1    0    0    0    0  0.00000000000E+00  0.00000000000E+00  0.74505805969E-08  0.10566000000E+00  0.10566000000E+00 0. -1.
     999900   -1    0    0    0    0 -0.00000000000E+00 -0.00000000000E+00 -0.74505805969E-08  0.93827000000E+00  0.93827000000E+00 0.  1.
     999902    2    1    2    0    0 -0.17803990518E-01 -0.15671471030E-01 -0.14527961811E-01  0.10161156376E+01  0.10157348818E+01 0.  0.
     999903    2    3    3    0    0  0.53177824115E-01 -0.68794068462E-01  0.88696784711E-01  0.12565745402E+00  0.19030798721E-01 0.  0.
         14    1    1    2    0    0  0.17803990518E-01  0.15671471030E-01  0.14527961811E-01  0.27814362423E-01  0.00000000000E+00 0. -1.
     999901    1    3    3    0    0 -0.70981814632E-01  0.53122597431E-01 -0.10322474652E+00  0.89045818356E+00  0.88000000000E+00 0.  1.
        -11    1    4    4    0    0  0.42338172676E-01 -0.63956728467E-01  0.72282754648E-01  0.10539469494E+00  0.51100000000E-03 0.  1.
         11    1    4    4    0    0  0.10839651438E-01 -0.48373399950E-02  0.16414030064E-01  0.20262759078E-01  0.51100000000E-03 0. -1.
</event>
<event>
 8    1  0.1054833E+005  0.1043930E+01  0.7957747E-01            NaN
         13   -1    0    0    0    0  0.00000000000E+00  0.00000000000E+00  0.74505805969E-08  0.10566000000E+00  0.10566000000E+00 0.  1.
     999900   -1    0    0    0    0 -0.00000000000E+00 -0.00000000000E+00 -0.74505805969E-08  0.93827000000E+00  0.93827000000E+00 0. -1.
     999902    2    1    2    0    0  0.14562828209E-01 -0.27518291601E-02 -0.22335305668E-01  0.10171248809E+01  0.10167716110E+01 0.  0.
     999903    2    3    3    0    0  0.65610605920E-01  0.81773937660E-01  0.69428703894E-01  0.12686024931E+00  0.16776454937E-01 0.  0.
         14    1    1    2    0    0 -0.14562828209E-01  0.27518291601E-02  0.22335305668E-01  0.26805119072E-01  0.00000000000E+00 0.  1.
     999901    1    3    3    0    0 -0.51047777711E-01 -0.84525766820E-01 -0.91764009562E-01  0.89026463162E+00  0.88000000000E+00 0. -1.
        -11    1    4    4    0    0  0.19582051127E-01  0.37208808451E-01  0.29520968781E-01  0.51378019341E-01  0.51100000000E-03 0. -1.
         11    1    4    4    0    0  0.46028554792E-01  0.44565129209E-01  0.39907735113E-01  0.75482229965E-01  0.51100000000E-03 0.  1.
</event>
<event>
 8    1  0.1054833E+005  0.1043930E+01  0.7957747E-01            NaN
         13   -1    0    0    0    0  0.00000000000E+00  0.00000000000E+00  0.74505805969E-08  0.10566000000E+00  0.10566000000E+00 0.  1.
     999900   -1    0    0    0    0 -0.00000000000E+00 -0.00000000000E+00 -0.74505805969E-08  0.93827000000E+00  0.93827000000E+00 0. -1.
     999902    2    1    2    0    0  0.20049726369E-01 -0.24758735227E-02 -0.11003856506E-01  0.10209255149E+01  0.10206663023E+01 0.  0.
     999903    2    3    3    0    0  0.89981124885E-01  0.20373237032E-01 -0.94992507308E-01  0.13387051332E+00  0.19648569121E-01 0.  0.
         14    1    1    2    0    0 -0.20049726369E-01  0.24758735227E-02  0.11003856506E-01  0.23004485110E-01  0.00000000000E+00 0. -1.
     999901    1    3    3    0    0 -0.69931398516E-01 -0.22849110554E-01  0.83988650801E-01  0.88705500157E+00  0.88000000000E+00 0.  1.
        -11    1    4    4    0    0  0.48961517022E-01  0.39565018156E-02 -0.59751203063E-01  0.77352126307E-01  0.51100000000E-03 0. -1.
         11    1    4    4    0    0  0.41019607863E-01  0.16416735216E-01 -0.35241304244E-01  0.56518387010E-01  0.51100000000E-03 0.  1.
</event>
<event>
 8    1  0.1054833E+005  0.1043930E+01  0.7957747E-01            NaN
         13   -1    0    0    0    0  0.00000000000E+00  0.00000000000E+00  0.74505805969E-08  0.10566000000E+00  0.10566000000E+00 0.  1.
     999900   -1    0    0    0    0 -0.00000000000E+00 -0.00000000000E+00 -0.74505805969E-08  0.93827000000E+00  0.93827000000E+00 0.  1.
     999902    2    1    2    0    0 -0.11777299166E-01 -0.22094193779E-01  0.11718712676E-01  0.10162860784E+01  0.10159100387E+01 0.  0.
     999903    2    3    3    0    0  0.46821647284E-01 -0.86612543155E-01  0.81517587874E-01  0.12923008417E+00  0.19007846677E-01 0.  0.
         14    1    1    2    0    0  0.11777299166E-01  0.22094193779E-01 -0.11718712676E-01  0.27643921595E-01  0.00000000000E+00 0.  1.
     999901    1    3    3    0    0 -0.58598946450E-01  0.64518349376E-01 -0.69798875198E-01  0.88705599424E+00  0.88000000000E+00 0.  1.
        -11    1    4    4    0    0  0.20827480922E-01 -0.55508477022E-01  0.42355685273E-01  0.72864533065E-01  0.51100000000E-03 0.  1.
         11    1    4    4    0    0  0.25994166362E-01 -0.31104066133E-01  0.39161902602E-01  0.56365551104E-01  0.51100000000E-03 0. -1.
</event>
<event>
 8    1  0.1054833E+005  0.1043930E+01  0.7957747E-01            NaN
         13   -1    0    0    0    0  0.00000000000E+00  0.00000000000E+00  0.74505805969E-08  0.10566000000E+00  0.10566000000E+00 0. -1.
     999900   -1    0    0    0    0 -0.00000000000E+00 -0.00000000000E+00 -0.74505805969E-08  0.93827000000E+00  0.93827000000E+00 0.  1.
     999902    2    1    2    0    0  0.75155206248E-02  0.46485767304E-02 -0.19916977769E-01  0.10221405916E+01  0.10219083181E+01 0.  0.
     999903    2    3    3    0    0 -0.49310544577E-01 -0.11945139190E+00 -0.13975105335E-01  0.13159844785E+00  0.20559257636E-01 0.  0.
         14    1    1    2    0    0 -0.75155206248E-02 -0.46485767304E-02  0.19916977769E-01  0.21789408421E-01  0.00000000000E+00 0. -1.
     999901    1    3    3    0    0  0.56826065202E-01  0.12409996863E+00 -0.59418724338E-02  0.89054214372E+00  0.88000000000E+00 0. -1.
        -11    1    4    4    0    0 -0.40124649277E-01 -0.10695883973E+00 -0.66242340033E-02  0.11443042635E+00  0.51100000000E-03 0.  1.
         11    1    4    4    0    0 -0.91858952995E-02 -0.12492552171E-01 -0.73508713322E-02  0.17168021509E-01  0.51100000000E-03 0. -1.
</event>
<event>
 8    1  0.1054833E+005  0.1043930E+01  0.7957747E-01            NaN
         13   -1    0    0    0    0  0.00000000000E+00  0.00000000000E+00  0.74505805969E-08  0.10566000000E+00  0.10566000000E+00 0. -1.
     999900   -1    0    0    0    0 -0.00000000000E+00 -0.00000000000E+00 -0.74505805969E-08  0.93827000000E+00  0.93827000000E+00 0.  1.
     999902    2    1    2    0    0  0.21466138830E-02  0.22511699657E-01 -0.35148661918E-02  0.10210446585E+01  0.10207881542E+01 0.  0.
     999903    2    3    3    0    0  0.11116300041E+00 -0.64300835639E-01 -0.49183245656E-02  0.13007723005E+00  0.20101883868E-01 0.  0.
         14    1    1    2    0    0 -0.21466138830E-02 -0.22511699657E-01  0.35148661918E-02  0.22885341530E-01  0.00000000000E+00 0. -1.
     999901    1    3    3    0    0 -0.10901638653E+00  0.86812535295E-01  0.14034583738E-02  0.89096742842E+00  0.88000000000E+00 0. -1.
        -11    1    4    4    0    0  0.29808777981E-01 -0.74406713532E-02 -0.10969614587E-02  0.30747215814E-01  0.51100000000E-03 0.  1.
         11    1    4    4    0    0  0.81354222433E-01 -0.56860164285E-01 -0.38213631069E-02  0.99330014232E-01  0.51100000000E-03 0. -1.
</event>
<event>
 8    1  0.1054833E+005  0.1043930E+01  0.7957747E-01            NaN
         13   -1    0    0    0    0  0.00000000000E+00  0.00000000000E+00  0.74505805969E-08  0.10566000000E+00  0.10566000000E+00 0. -1.
     999900   -1    0    0    0    0 -0.00000000000E+00 -0.00000000000E+00 -0.74505805969E-08  0.93827000000E+00  0.93827000000E+00 0.  1.
     999902    2    1    2    0    0 -0.19921914730E-01 -0.12590962831E-01 -0.68518880724E-03  0.10203527967E+01  0.10200803621E+01 0.  0.
     999903    2    3    3    0    0  0.11608918917E-01 -0.81864477030E-01  0.99497782700E-01  0.13140418119E+00  0.23036720141E-01 0.  0.
         14    1    1    2    0    0  0.19921914730E-01  0.12590962831E-01  0.68518880724E-03  0.23577203296E-01  0.00000000000E+00 0. -1.
     999901    1    3    3    0    0 -0.31530833647E-01  0.69273514200E-01 -0.10018297151E+00  0.88894861551E+00  0.88000000000E+00 0. -1.
        -11    1    4    4    0    0  0.73712702524E-03 -0.42863768899E-01  0.66728058542E-01  0.79314191405E-01  0.51100000000E-03 0.  1.
         11    1    4    4    0    0  0.10871791891E-01 -0.39000708132E-01  0.32769724158E-01  0.52089989788E-01  0.51100000000E-03 0. -1.
</event>
<event>
 8    1  0.1054833E+005  0.1043930E+01  0.7957747E-01            NaN
         13   -1    0    0    0    0  0.00000000000E+00  0.00000000000E+00  0.74505805969E-08  0.10566000000E+00  0.10566000000E+00 0.  1.
     999900   -1    0    0    0    0 -0.00000000000E+00 -0.00000000000E+00 -0.74505805969E-08  0.93827000000E+00  0.93827000000E+00 0. -1.
     999902    2    1    2    0    0  0.11710705333E-01  0.20866506515E-01  0.19648235850E-03  0.10200011405E+01  0.10197204206E+01 0.  0.
     999903    2    3    3    0    0 -0.85300155177E-01  0.75936586712E-01 -0.60508588300E-01  0.13088420417E+00  0.20661654560E-01 0.  0.
         14    1    1    2    0    0 -0.11710705333E-01 -0.20866506515E-01 -0.19648235850E-03  0.23928859539E-01  0.00000000000E+00 0.  1.
     999901    1    3    3    0    0  0.97010860511E-01 -0.55070080197E-01  0.60705070659E-01  0.88911693629E+00  0.88000000000E+00 0. -1.
        -11    1    4    4    0    0 -0.49147229863E-01  0.30605433994E-01 -0.33806010212E-01  0.67046627362E-01  0.51100000000E-03 0.  1.
         11    1    4    4    0    0 -0.36152925314E-01  0.45331152718E-01 -0.26702578088E-01  0.63837576811E-01  0.51100000000E-03 0. -1.
</event>
<event>
 8    1  0.1054833E+005  0.1043930E+01  0.7957747E-01            NaN
         13   -1    0    0    0    0  0.00000000000E+00  0.00000000000E+00  0.74505805969E-08  0.10566000000E+00  0.10566000000E+00 0. -1.
     999900   -1    0    0    0    0 -0.00000000000E+00 -0.00000000000E+00 -0.74505805969E-08  0.93827000000E+00  0.93827000000E+00 0. -1.
     999902    2    1    2    0    0 -0.22640691697E-01 -0.24627652308E-02 -0.51307924662E-02  0.10205849542E+01  0.10203179198E+01 0.  0.
     999903    2    3    3    0    0  0.83078963500E-01 -0.34269054106E-01  0.90142638965E-01  0.12858421862E+00  0.18213282839E-01 0.  0.
         14    1    1    2    0    0  0.22640691697E-01  0.24627652308E-02  0.51307924662E-02  0.23345045822E-01  0.00000000000E+00 0. -1.
     999901    1    3    3    0    0 -0.10571965520E+00  0.31806288875E-01 -0.95273431431E-01  0.89200073556E+00  0.88000000000E+00 0.  1.
        -11    1    4    4    0    0  0.76103385222E-01 -0.26353458598E-01  0.83967090422E-01  0.11634845688E+00  0.51100000000E-03 0. -1.
         11    1    4    4    0    0  0.69755782783E-02 -0.79155955074E-02  0.61755485435E-02  0.12235761740E-01  0.51100000000E-03 0.  1.
</event>
<event>
 8    1  0.1054833E+005  0.1043930E+01  0.7957747E-01            NaN
         13   -1    0    0    0    0  0.00000000000E+00  0.00000000000E+00  0.74505805969E-08  0.10566000000E+00  0.10566000000E+00 0.  1.
     999900   -1    0    0    0    0 -0.00000000000E+00 -0.00000000000E+00 -0.74505805969E-08  0.93827000000E+00  0.93827000000E+00 0.  1.
     999902    2    1    2    0    0 -0.19475141093E-01  0.71747951681E-02  0.15160493747E-01  0.10182278721E+01  0.10179034336E+01 0.  0.
     999903    2    3    3    0    0 -0.88595159634E-01  0.72519956500E-01  0.62269704549E-01  0.13184937238E+00  0.19962326826E-01 0.  0.
         14    1    1    2    0    0  0.19475141093E-01 -0.71747951681E-02 -0.15160493747E-01  0.25702127868E-01  0.00000000000E+00 0.  1.
     999901    1    3    3    0    0  0.69120018541E-01 -0.65345161332E-01 -0.47109210802E-01  0.88637849975E+00  0.88000000000E+00 0.  1.
        -11    1    4    4    0    0 -0.34224385557E-01  0.40204652551E-01  0.31846184587E-01  0.61661683785E-01  0.51100000000E-03 0.  1.
         11    1    4    4    0    0 -0.54370774077E-01  0.32315303949E-01  0.30423519962E-01  0.70187688599E-01  0.51100000000E-03 0. -1.
</event>
<event>
 8    1  0.1054833E+005  0.1043930E+01  0.7957747E-01            NaN
         13   -1    0    0    0    0  0.00000000000E+00  0.00000000000E+00  0.74505805969E-08  0.10566000000E+00  0.10566000000E+00 0.  1.
     999900   -1    0    0    0    0 -0.00000000000E+00 -0.00000000000E+00 -0.74505805969E-08  0.93827000000E+00  0.93827000000E+00 0.  1.
     999902    2    1    2    0    0 -0.69449249770E-02  0.15899949735E-01  0.17603541328E-01  0.10192131019E+01  0.10189133535E+01 0.  0.
     999903    2    3    3    0    0  0.47578479703E-01 -0.50508606680E-01 -0.10406232299E+00  0.12669672638E+00  0.20205502474E-01 0.  0.
         14    1    1    2    0    0  0.69449249770E-02 -0.15899949735E-01 -0.17603541328E-01  0.24716898103E-01  0.00000000000E+00 0.  1.
     999901    1    3    3    0    0 -0.54523404680E-01  0.66408556415E-01  0.12166586432E+00  0.89251637552E+00  0.88000000000E+00 0. -1.
        -11    1    4    4    0    0  0.36276943317E-01 -0.33549818881E-01 -0.87252998340E-01  0.10027439256E+00  0.51100000000E-03 0.  1.
         11    1    4    4    0    0  0.11301536386E-01 -0.16958787799E-01 -0.16809324650E-01  0.26422333820E-01  0.51100000000E-03 0. -1.
</event>
<event>
 8    1  0.1054833E+005  0.1043930E+01  0.7957747E-01            NaN
         13   -1    0    0    0    0  0.00000000000E+00  0.00000000000E+00  0.74505805969E-08  0.10566000000E+00  0.10566000000E+00 0. -1.
     999900   -1    0    0    0    0 -0.00000000000E+00 -0.00000000000E+00 -0.74505805969E-08  0.93827000000E+00  0.93827000000E+00 0. -1.
     999902    2    1    2    0    0 -0.16758732911E-01 -0.28142652808E-02  0.15908734940E-01  0.10206520477E+01  0.10203865637E+01 0.  0.
     999903    2    3    3    0    0  0.73670691400E-01 -0.70124321478E-01 -0.76314831101E-01  0.12868046146E+00  0.19746303003E-01 0.  0.
         14    1    1    2    0    0  0.16758732911E-01  0.28142652808E-02 -0.15908734940E-01  0.23277952342E-01  0.00000000000E+00 0.  1.
     999901    1    3    3    0    0 -0.90429424311E-01  0.67310056197E-01  0.92223566041E-01  0.89197158620E+00  0.88000000000E+00 0.  1.
        -11    1    4    4    0    0  0.56702558330E-01 -0.51696548993E-01 -0.46448462602E-01  0.89696343838E-01  0.51100000000E-03 0.  1.
         11    1    4    4    0    0  0.16968133070E-01 -0.18427772485E-01 -0.29866368498E-01  0.38984117624E-01  0.51100000000E-03 0. -1.
</event>
<event>
 8    1  0.1054833E+005  0.1043930E+01  0.7957747E-01            NaN
         13   -1    0    0    0    0  0.00000000000E+00  0.00000000000E+00  0.74505805969E-08  0.10566000000E+00  0.10566000000E+00 0.  1.
     999900   -1    0    0    0    0 -0.00000000000E+00 -0.00000000000E+00 -0.74505805969E-08  0.93827000000E+00  0.93827000000E+00 0.  1.
     999902    2    1    2    0    0 -0.24680655006E-02  0.19979157750E-01  0.12112123728E-01  0.10204361363E+01  0.10201656466E+01 0.  0.
     999903    2    3    3    0    0  0.43911747068E-01  0.34122507438E-01 -0.11501485117E+00  0.12997985486E+00  0.23953280298E-01 0.  0.
         14    1    1    2    0    0  0.24680655006E-02 -0.19979157750E-01 -0.12112123728E-01  0.23493863729E-01  0.00000000000E+00 0. -1.
     999901    1    3    3    0    0 -0.46379812568E-01 -0.14143349689E-01  0.12712697489E+00  0.89045628141E+00  0.88000000000E+00 0. -1.
        -11    1    4    4    0    0  0.33446413688E-01  0.36550044154E-01 -0.98716578024E-01  0.11045266957E+00  0.51100000000E-03 0. -1.
         11    1    4    4    0    0  0.10465333380E-01 -0.24275367156E-02 -0.16298273141E-01  0.19527185298E-01  0.51100000000E-03 0.  1.
</event>
<event>
 8    1  0.1054833E+005  0.1043930E+01  0.7957747E-01            NaN
         13   -1    0    0    0    0  0.00000000000E+00  0.00000000000E+00  0.74505805969E-08  0.10566000000E+00  0.10566000000E+00 0.  1.
     999900   -1    0    0    0    0 -0.00000000000E+00 -0.00000000000E+00 -0.74505805969E-08  0.93827000000E+00  0.93827000000E+00 0.  1.
     999902    2    1    2    0    0  0.18874789892E-01 -0.36747052370E-02  0.13792503230E-01  0.10202658014E+01  0.10199913289E+01 0.  0.
     999903    2    3    3    0    0 -0.44880828650E-01 -0.16625940931E-01 -0.11728443843E+00  0.12818190506E+00  0.19602310957E-01 0.  0.
         14    1    1    2    0    0 -0.18874789892E-01  0.36747052370E-02 -0.13792503230E-01  0.23664198643E-01  0.00000000000E+00 0. -1.
     999901    1    3    3    0    0  0.63755618542E-01  0.12951235694E-01  0.13107694166E+00  0.89208389630E+00  0.88000000000E+00 0. -1.
        -11    1    4    4    0    0 -0.25470029065E-01 -0.85585371670E-02 -0.88798381835E-01  0.92775991918E-01  0.51100000000E-03 0. -1.
         11    1    4    4    0    0 -0.19410799585E-01 -0.80674037638E-02 -0.28486056593E-01  0.35405913140E-01  0.51100000000E-03 0.  1.
</event>
<event>
 8    1  0.1054833E+005  0.1043930E+01  0.7957747E-01            NaN
         13   -1    0    0    0    0  0.00000000000E+00  0.00000000000E+00  0.74505805969E-08  0.10566000000E+00  0.10566000000E+00 0.  1.
     999900   -1    0    0    0    0 -0.00000000000E+00 -0.00000000000E+00 -0.74505805969E-08  0.93827000000E+00  0.93827000000E+00 0. -1.
     999902    2    1    2    0    0 -0.10582182206E-01 -0.17774717471E-01  0.10102385417E-01  0.10209086761E+01  0.10206490796E+01 0.  0.
     999903    2    3    3    0    0 -0.95101202066E-01  0.77853488490E-01 -0.38427917879E-01  0.13037882889E+00  0.20409062845E-01 0.  0.
         14    1    1    2    0    0  0.10582182206E-01  0.17774717471E-01 -0.10102385417E-01  0.23021323865E-01  0.00000000000E+00 0. -1.
     999901    1    3    3    0    0  0.84519019860E-01 -0.95628205960E-01  0.48530303296E-01  0.89052984724E+00  0.88000000000E+00 0. -1.
        -11    1    4    4    0    0 -0.37134747802E-01  0.23786314931E-01 -0.51303282318E-02  0.44399996184E-01  0.51100000000E-03 0. -1.
         11    1    4    4    0    0 -0.57966454263E-01  0.54067173558E-01 -0.33297589647E-01  0.85978832707E-01  0.51100000000E-03 0.  1.
</event>
<event>
 8    1  0.1054833E+005  0.1043930E+01  0.7957747E-01            NaN
         13   -1    0    0    0    0  0.00000000000E+00  0.00000000000E+00  0.74505805969E-08  0.10566000000E+00  0.10566000000E+00 0. -1.
     999900   -1    0    0    0    0 -0.00000000000E+00 -0.00000000000E+00 -0.74505805969E-08  0.93827000000E+00  0.93827000000E+00 0. -1.
     999902    2    1    2    0    0  0.22195331759E-01  0.91233619616E-02 -0.23041395465E-02  0.10198223758E+01  0.10195373954E+01 0.  0.
     999903    2    3    3    0    0 -0.57954799718E-01  0.94258937107E-01  0.64290344125E-01  0.12959379000E+00  0.20440059274E-01 0.  0.
         14    1    1    2    0    0 -0.22195331759E-01 -0.91233619616E-02  0.23041395465E-02  0.24107624197E-01  0.00000000000E+00 0.  1.
     999901    1    3    3    0    0  0.80150131477E-01 -0.85135575146E-01 -0.66594483672E-01  0.89022858581E+00  0.88000000000E+00 0. -1.
        -11    1    4    4    0    0 -0.39029988214E-01  0.69888927732E-01  0.55827472150E-01  0.97594927979E-01  0.51100000000E-03 0.  1.
         11    1    4    4    0    0 -0.18924811504E-01  0.24370009375E-01  0.84628719756E-02  0.31998862018E-01  0.51100000000E-03 0. -1.
</event>
<event>
 8    1  0.1054833E+005  0.1043930E+01  0.7957747E-01            NaN
         13   -1    0    0    0    0  0.00000000000E+00  0.00000000000E+00  0.74505805969E-08  0.10566000000E+00  0.10566000000E+00 0. -1.
     999900   -1    0    0    0    0 -0.00000000000E+00 -0.00000000000E+00 -0.74505805969E-08  0.93827000000E+00  0.93827000000E+00 0.  1.
     999902    2    1    2    0    0  0.15671207760E-01 -0.13638658147E-01 -0.98674326755E-02  0.10209307397E+01  0.10206716461E+01 0.  0.
     999903    2    3    3    0    0  0.59922789129E-01  0.69535785849E-01 -0.92805894245E-01  0.13202411970E+00  0.19785550448E-01 0.  0.
         14    1    1    2    0    0 -0.15671207760E-01  0.13638658147E-01  0.98674326755E-02  0.22999260343E-01  0.00000000000E+00 0. -1.
     999901    1    3    3    0    0 -0.44251581369E-01 -0.83174443996E-01  0.82938461570E-01  0.88890661995E+00  0.88000000000E+00 0. -1.
        -11    1    4    4    0    0  0.14430452003E-01  0.17585060945E-01 -0.11977721816E-01  0.25713795020E-01  0.51100000000E-03 0.  1.
         11    1    4    4    0    0  0.45492337126E-01  0.51950724904E-01 -0.80828172430E-01  0.10631032468E+00  0.51100000000E-03 0. -1.
</event>
<event>
 8    1  0.1054833E+005  0.1043930E+01  0.7957747E-01            NaN
         13   -1    0    0    0    0  0.00000000000E+00  0.00000000000E+00  0.74505805969E-08  0.10566000000E+00  0.10566000000E+00 0. -1.
     999900   -1    0    0    0    0 -0.00000000000E+00 -0.00000000000E+00 -0.74505805969E-08  0.93827000000E+00  0.93827000000E+00 0.  1.
     999902    2    1    2    0    0  0.14307505730E-01 -0.18060538069E-01  0.72042524165E-02  0.10197889766E+01  0.10195031966E+01 0.  0.
     999903    2    3    3    0    0 -0.11331497792E+00 -0.40810986931E-01  0.43277906398E-01  0.12956069707E+00  0.20178606692E-01 0.  0.
         14    1    1    2    0    0 -0.14307505730E-01  0.18060538069E-01 -0.72042524165E-02  0.24141023351E-01  0.00000000000E+00 0. -1.
     999901    1    3    3    0    0  0.12762248365E+00  0.22750448862E-01 -0.36073653981E-01  0.89022827958E+00  0.88000000000E+00 0.  1.
        -11    1    4    4    0    0 -0.47014064417E-01 -0.27530638683E-01  0.20315757120E-01  0.58148511827E-01  0.51100000000E-03 0. -1.
         11    1    4    4    0    0 -0.66300913498E-01 -0.13280348247E-01  0.22962149278E-01  0.71412185240E-01  0.51100000000E-03 0.  1.
</event>
<event>
 8    1  0.1054833E+005  0.1043930E+01  0.7957747E-01            NaN
         13   -1    0    0    0    0  0.00000000000E+00  0.00000000000E+00  0.74505805969E-08  0.10566000000E+00  0.10566000000E+00 0.  1.
     999900   -1    0    0    0    0 -0.00000000000E+00 -0.00000000000E+00 -0.74505805969E-08  0.93827000000E+00  0.93827000000E+00 0.  1.
     999902    2    1    2    0    0 -0.16603718042E-01  0.67660185970E-02 -0.14710675390E-01  0.10207380525E+01  0.10204745491E+01 0.  0.
     999903    2    3    3    0    0  0.69267526637E-01  0.27270900745E-02  0.10610797464E+00  0.12833269064E+00  0.20123367972E-01 0.  0.
         14    1    1    2    0    0  0.16603718042E-01 -0.67660185970E-02  0.14710675390E-01  0.23191947544E-01  0.00000000000E+00 0. -1.
     999901    1    3    3    0    0 -0.85871244679E-01  0.40389285225E-02 -0.12081865003E+00  0.89240536182E+00  0.88000000000E+00 0.  1.
        -11    1    4    4    0    0  0.60943526884E-01  0.88031046637E-02  0.94600889984E-01  0.11287691362E+00  0.51100000000E-03 0.  1.
         11    1    4    4    0    0  0.83239997531E-02 -0.60760145892E-02  0.11507084652E-01  0.15455777022E-01  0.51100000000E-03 0. -1.
</event>
<event>
 8    1  0.1054833E+005  0.1043930E+01  0.7957747E-01            NaN
         13   -1    0    0    0    0  0.00000000000E+00  0.00000000000E+00  0.74505805969E-08  0.10566000000E+00  0.10566000000E+00 0.  1.
     999900   -1    0    0    0    0 -0.00000000000E+00 -0.00000000000E+00 -0.74505805969E-08  0.93827000000E+00  0.93827000000E+00 0. -1.
     999902    2    1    2    0    0  0.13275297298E-02 -0.20273782138E-01 -0.16452644493E-02  0.10235462939E+01  0.10233433052E+01 0.  0.
     999903    2    3    3    0    0  0.13334590756E-01  0.10857786559E+00 -0.70209135889E-01  0.13144320511E+00  0.19519969280E-01 0.  0.
         14    1    1    2    0    0 -0.13275297298E-02  0.20273782138E-01  0.16452644493E-02  0.20383706053E-01  0.00000000000E+00 0.  1.
     999901    1    3    3    0    0 -0.12007061027E-01 -0.12885164773E+00  0.68563871440E-01  0.89210308883E+00  0.88000000000E+00 0. -1.
        -11    1    4    4    0    0  0.51535719851E-02  0.54347680972E-01 -0.23636187292E-01  0.59490841328E-01  0.51100000000E-03 0. -1.
         11    1    4    4    0    0  0.81810187713E-02  0.54230184622E-01 -0.46572948598E-01  0.71952363786E-01  0.51100000000E-03 0.  1.
</event>
<event>
 8    1  0.1054833E+005  0.1043930E+01  0.7957747E-01            NaN
         13   -1    0    0    0    0  0.00000000000E+00  0.00000000000E+00  0.74505805969E-08  0.10566000000E+00  0.10566000000E+00 0.  1.
     999900   -1    0    0    0    0 -0.00000000000E+00 -0.00000000000E+00 -0.74505805969E-08  0.93827000000E+00  0.93827000000E+00 0. -1.
     999902    2    1    2    0    0 -0.19724459349E-01  0.13564954117E-01 -0.17153945434E-02  0.10199298988E+01  0.10196474850E+01 0.  0.
     999903    2    3    3    0    0 -0.13028045796E+00  0.23139864088E-02  0.15474943941E-01  0.13277448922E+00  0.20279024535E-01 0.  0.
         14    1    1    2    0    0  0.19724459349E-01 -0.13564954117E-01  0.17153945434E-02  0.24000101151E-01  0.00000000000E+00 0.  1.
     999901    1    3    3    0    0  0.11055599861E+00  0.11250967708E-01 -0.17190338485E-01  0.88715540963E+00  0.88000000000E+00 0.  1.
        -11    1    4    4    0    0 -0.61310303297E-01  0.10800171203E-01  0.10153010859E-01  0.63078853342E-01  0.51100000000E-03 0. -1.
         11    1    4    4    0    0 -0.68970154667E-01 -0.84861847944E-02  0.53219330822E-02  0.69695635874E-01  0.51100000000E-03 0.  1.
</event>
<event>
 8    1  0.1054833E+005  0.1043930E+01  0.7957747E-01            NaN
         13   -1    0    0    0    0  0.00000000000E+00  0.00000000000E+00  0.74505805969E-08  0.10566000000E+00  0.10566000000E+00 0. -1.
     999900   -1    0    0    0    0 -0.00000000000E+00 -0.00000000000E+00 -0.74505805969E-08  0.93827000000E+00  0.93827000000E+00 0. -1.
     999902    2    1    2    0    0 -0.15639606874E-01 -0.16012211083E-01 -0.44185253916E-02  0.10211152773E+01  0.10208603714E+01 0.  0.
     999903    2    3    3    0    0 -0.85853303782E-01 -0.96108171851E-01  0.30535074878E-01  0.13400362683E+00  0.20420840788E-01 0.  0.
         14    1    1    2    0    0  0.15639606874E-01  0.16012211083E-01  0.44185253916E-02  0.22814722737E-01  0.00000000000E+00 0. -1.
     999901    1    3    3    0    0  0.70213696908E-01  0.80095960768E-01 -0.34953600270E-01  0.88711165043E+00  0.88000000000E+00 0. -1.
        -11    1    4    4    0    0 -0.20267202655E-01 -0.13848793164E-01  0.35820628493E-03  0.24554796034E-01  0.51100000000E-03 0. -1.
         11    1    4    4    0    0 -0.65586101128E-01 -0.82259378687E-01  0.30176868593E-01  0.10944883079E+00  0.51100000000E-03 0.  1.
</event>
<event>
 8    1  0.1054833E+005  0.1043930E+01  0.7957747E-01            NaN
         13   -1    0    0    0    0  0.00000000000E+00  0.00000000000E+00  0.74505805969E-08  0.10566000000E+00  0.10566000000E+00 0.  1.
     999900   -1    0    0    0    0 -0.00000000000E+00 -0.00000000000E+00 -0.74505805969E-08  0.93827000000E+00  0.93827000000E+00 0.  1.
     999902    2    1    2    0    0 -0.87073532951E-02 -0.20032122343E-01  0.91297856366E-02  0.10202560288E+01  0.10199813270E+01 0.  0.
     999903    2    3    3    0    0  0.61562899191E-01  0.29051904849E-01 -0.10711962299E+00  0.12848191215E+00  0.19974593559E-01 0.  0.
         14    1    1    2    0    0  0.87073532951E-02  0.20032122343E-01 -0.91297856366E-02  0.23673971208E-01  0.00000000000E+00 0. -1.
     999901    1    3    3    0    0 -0.70270252486E-01 -0.49084027192E-01  0.11624940863E+00  0.89177411664E+00  0.88000000000E+00 0. -1.
        -11    1    4    4    0    0  0.17788128906E-01  0.91492647755E-02 -0.49747631544E-01  0.53621027043E-01  0.51100000000E-03 0. -1.
         11    1    4    4    0    0  0.43774770286E-01  0.19902640073E-01 -0.57371991445E-01  0.74860885106E-01  0.51100000000E-03 0.  1.
</event>
<event>
 8    1  0.1054833E+005  0.1043930E+01  0.7957747E-01            NaN
         13   -1    0    0    0    0  0.00000000000E+00  0.00000000000E+00  0.74505805969E-08  0.10566000000E+00  0.10566000000E+00 0.  1.
     999900   -1    0    0    0    0 -0.00000000000E+00 -0.00000000000E+00 -0.74505805969E-08  0.93827000000E+00  0.93827000000E+00 0.  1.
     999902    2    1    2    0    0  0.11428489690E-01  0.77814114788E-02  0.19658121745E-01  0.10198966379E+01  0.10196134315E+01 0.  0.
     999903    2    3    3    0    0  0.10336931913E+00 -0.59716191680E-01 -0.47634886619E-01  0.12998799571E+00  0.19405074534E-01 0.  0.
         14    1    1    2    0    0 -0.11428489690E-01 -0.77814114788E-02 -0.19658121745E-01  0.24033362057E-01  0.00000000000E+00 0. -1.
     999901    1    3    3    0    0 -0.91940829445E-01  0.67497603159E-01  0.67293008364E-01  0.88990864224E+00  0.88000000000E+00 0. -1.
        -11    1    4    4    0    0  0.14711848433E-01 -0.16804620027E-01 -0.10958892611E-01  0.24883572630E-01  0.51100000000E-03 0.  1.
         11    1    4    4    0    0  0.88657470702E-01 -0.42911571653E-01 -0.36675994008E-01  0.10510442308E+00  0.51100000000E-03 0. -1.
</event>
<event>
 8    1  0.1054833E+005  0.1043930E+01  0.7957747E-01            NaN
         13   -1    0    0    0    0  0.00000000000E+00  0.00000000000E+00  0.74505805969E-08  0.10566000000E+00  0.10566000000E+00 0. -1.
     999900   -1    0    0    0    0 -0.00000000000E+00 -0.00000000000E+00 -0.74505805969E-08  0.93827000000E+00  0.93827000000E+00 0. -1.
     999902    2    1    2    0    0  0.12931035426E-01  0.20736445381E-01  0.47929540292E-02  0.10190265012E+01  0.10187221534E+01 0.  0.
     999903    2    3    3    0    0  0.48619803547E-01  0.86704372904E-01  0.84863107195E-01  0.13221384620E+00  0.19930393561E-01 0.  0.
         14    1    1    2    0    0 -0.12931035426E-01 -0.20736445381E-01 -0.47929540292E-02  0.24903498801E-01  0.00000000000E+00 0.  1.
     999901    1    3    3    0    0 -0.35688768121E-01 -0.65967927523E-01 -0.80070153166E-01  0.88681265500E+00  0.88000000000E+00 0. -1.
        -11    1    4    4    0    0  0.19658814421E-01  0.17357804670E-01  0.21678665974E-01  0.34029223424E-01  0.51100000000E-03 0.  1.
         11    1    4    4    0    0  0.28960989125E-01  0.69346568234E-01  0.63184441221E-01  0.98184622779E-01  0.51100000000E-03 0. -1.
</event>
<event>
 8    1  0.1054833E+005  0.1043930E+01  0.7957747E-01            NaN
         13   -1    0    0    0    0  0.00000000000E+00  0.00000000000E+00  0.74505805969E-08  0.10566000000E+00  0.10566000000E+00 0.  1.
     999900   -1    0    0    0    0 -0.00000000000E+00 -0.00000000000E+00 -0.74505805969E-08  0.93827000000E+00  0.93827000000E+00 0. -1.
     999902    2    1    2    0    0 -0.91864948552E-02  0.70880711146E-02 -0.18939907962E-01  0.10217184590E+01  0.10214769977E+01 0.  0.
     999903    2    3    3    0    0 -0.10653645285E+00  0.31915546477E-01 -0.72656291285E-01  0.13437474449E+00  0.20224178594E-01 0.  0.
         14    1    1    2    0    0  0.91864948552E-02 -0.70880711146E-02  0.18939907962E-01  0.22211540997E-01  0.00000000000E+00 0.  1.
     999901    1    3    3    0    0  0.97349957995E-01 -0.24827475363E-01  0.53716383323E-01  0.88734371452E+00  0.88000000000E+00 0. -1.
        -11    1    4    4    0    0 -0.98839192832E-01  0.25580142666E-01 -0.60619100872E-01  0.11873696244E+00  0.51100000000E-03 0. -1.
         11    1    4    4    0    0 -0.76972600178E-02  0.63354038110E-02 -0.12037190412E-01  0.15637782044E-01  0.51100000000E-03 0.  1.
</event>
<event>
 8    1  0.1054833E+005  0.1043930E+01  0.7957747E-01            NaN
         13   -1    0    0    0    0  0.00000000000E+00  0.00000000000E+00  0.74505805969E-08  0.10566000000E+00  0.10566000000E+00 0. -1.
     999900   -1    0    0    0    0 -0.00000000000E+00 -0.00000000000E+00 -0.74505805969E-08  0.93827000000E+00  0.93827000000E+00 0. -1.
     999902    2    1    2    0    0 -0.89688184793E-02  0.12099940066E-01 -0.21014910045E-01  0.10180751223E+01  0.10177467662E+01 0.  0.
     999903    2    3    3    0    0 -0.34506066537E-01 -0.51329989868E-01 -0.11336607211E+00  0.13060442188E+00  0.19499031257E-01 0.  0.
         14    1    1    2    0    0  0.89688184793E-02 -0.12099940066E-01  0.21014910045E-01  0.25854877658E-01  0.00000000000E+00 0. -1.
     999901    1    3    3    0    0  0.25537248058E-01  0.63429929933E-01  0.92351162068E-01  0.88747070047E+00  0.88000000000E+00 0.  1.
        -11    1    4    4    0    0 -0.86132999147E-02 -0.28562441578E-01 -0.44337998082E-01  0.53442690794E-01  0.51100000000E-03 0. -1.
         11    1    4    4    0    0 -0.25892766622E-01 -0.22767548290E-01 -0.69028074030E-01  0.77161731083E-01  0.51100000000E-03 0.  1.
</event>
<event>
 8    1  0.1401014E+005  0.1043930E+01  0.7957747E-01            NaN
         13   -1    0    0    0    0  0.00000000000E+00  0.00000000000E+00  0.74505805969E-08  0.10566000000E+00  0.10566000000E+00 0. -1.
     999900   -1    0    0    0    0 -0.00000000000E+00 -0.00000000000E+00 -0.74505805969E-08  0.93827000000E+00  0.93827000000E+00 0. -1.
     999902    2    1    2    0    0 -0.10483381367E-01  0.21068783664E-01  0.35768189354E-02  0.10201268791E+01  0.10198491364E+01 0.  0.
     999903    2    3    3    0    0  0.86765699837E-01  0.95789304194E-01 -0.12736148822E-01  0.13147247335E+00  0.20467640183E-01 0.  0.
         14    1    1    2    0    0  0.10483381367E-01 -0.21068783664E-01 -0.35768189354E-02  0.23803120881E-01  0.00000000000E+00 0. -1.
     999901    1    3    3    0    0 -0.97249081204E-01 -0.74720520530E-01  0.16312967757E-01  0.88865440577E+00  0.88000000000E+00 0.  1.
        -11    1    4    4    0    0  0.30979519109E-01  0.27772911724E-01  0.44287173063E-02  0.41844233628E-01  0.51100000000E-03 0.  1.
         11    1    4    4    0    0  0.55786180727E-01  0.68016392470E-01 -0.17164866128E-01  0.89628239718E-01  0.51100000000E-03 0. -1.
</event>
<event>
 8    1  0.1054833E+005  0.1043930E+01  0.7957747E-01            NaN
         13   -1    0    0    0    0  0.00000000000E+00  0.00000000000E+00  0.74505805969E-08  0.10566000000E+00  0.10566000000E+00 0.  1.
     999900   -1    0    0    0    0 -0.00000000000E+00 -0.00000000000E+00 -0.74505805969E-08  0.93827000000E+00  0.93827000000E+00 0.  1.
     999902    2    1    2    0    0 -0.16679524747E-01 -0.16356763003E-01  0.72124015927E-02  0.10194806855E+01  0.10191874701E+01 0.  0.
     999903    2    3    3    0    0  0.25738673611E-02  0.11468720406E+00 -0.52159071509E-01  0.12759045336E+00  0.19974370530E-01 0.  0.
         14    1    1    2    0    0  0.16679524747E-01  0.16356763003E-01 -0.72124015927E-02  0.24449314479E-01  0.00000000000E+00 0. -1.
     999901    1    3    3    0    0 -0.19253392109E-01 -0.13104396707E+00  0.59371473101E-01  0.89189023216E+00  0.88000000000E+00 0. -1.
        -11    1    4    4    0    0 -0.29082361005E-02  0.62578079114E-01 -0.18539671417E-01  0.65333409218E-01  0.51100000000E-03 0. -1.
         11    1    4    4    0    0  0.54821034616E-02  0.52109124950E-01 -0.33619400092E-01  0.62257044139E-01  0.51100000000E-03 0.  1.
</event>
<event>
 8    1  0.1054833E+005  0.1043930E+01  0.7957747E-01            NaN
         13   -1    0    0    0    0  0.00000000000E+00  0.00000000000E+00  0.74505805969E-08  0.10566000000E+00  0.10566000000E+00 0. -1.
     999900   -1    0    0    0    0 -0.00000000000E+00 -0.00000000000E+00 -0.74505805969E-08  0.93827000000E+00  0.93827000000E+00 0.  1.
     999902    2    1    2    0    0 -0.51470828393E-02 -0.15492837842E-01 -0.16839136449E-01  0.10204762796E+01  0.10202067242E+01 0.  0.
     999903    2    3    3    0    0 -0.11577939763E+00 -0.60609402897E-01  0.42309022865E-03  0.13223475948E+00  0.20186232299E-01 0.  0.
         14    1    1    2    0    0  0.51470828393E-02  0.15492837842E-01  0.16839136449E-01  0.23453720440E-01  0.00000000000E+00 0. -1.
     999901    1    3    3    0    0  0.11063231479E+00  0.45116565055E-01 -0.17262226677E-01  0.88824152008E+00  0.88000000000E+00 0. -1.
        -11    1    4    4    0    0 -0.56216610689E-01 -0.18121784867E-01  0.46206521142E-03  0.59069290070E-01  0.51100000000E-03 0.  1.
         11    1    4    4    0    0 -0.59562786944E-01 -0.42487618029E-01 -0.38974982763E-04  0.73165469412E-01  0.51100000000E-03 0. -1.
</event>
<event>
 8    1  0.1054833E+005  0.1043930E+01  0.7957747E-01            NaN
         13   -1    0    0    0    0  0.00000000000E+00  0.00000000000E+00  0.74505805969E-08  0.10566000000E+00  0.10566000000E+00 0.  1.
     999900   -1    0    0    0    0 -0.00000000000E+00 -0.00000000000E+00 -0.74505805969E-08  0.93827000000E+00  0.93827000000E+00 0. -1.
     999902    2    1    2    0    0 -0.98375067702E-02  0.18140182637E-01 -0.11575180190E-01  0.10202693246E+01  0.10199949348E+01 0.  0.
     999903    2    3    3    0    0  0.75231060782E-01 -0.10166223175E+00  0.19902046744E-03  0.12800932239E+00  0.19784467141E-01 0.  0.
         14    1    1    2    0    0  0.98375067702E-02 -0.18140182637E-01  0.11575180190E-01  0.23660675434E-01  0.00000000000E+00 0. -1.
     999901    1    3    3    0    0 -0.85068567553E-01  0.11980241438E+00 -0.11774200657E-01  0.89226000217E+00  0.88000000000E+00 0. -1.
        -11    1    4    4    0    0  0.48608918359E-01 -0.49855032465E-01 -0.27402133614E-02  0.69685874440E-01  0.51100000000E-03 0. -1.
         11    1    4    4    0    0  0.26622142423E-01 -0.51807199282E-01  0.29392338289E-02  0.58323447953E-01  0.51100000000E-03 0.  1.
</event>
<event>
 8    1  0.1054833E+005  0.1043930E+01  0.7957747E-01            NaN
         13   -1    0    0    0    0  0.00000000000E+00  0.00000000000E+00  0.74505805969E-08  0.10566000000E+00  0.10566000000E+00 0.  1.
     999900   -1    0    0    0    0 -0.00000000000E+00 -0.00000000000E+00 -0.74505805969E-08  0.93827000000E+00  0.93827000000E+00 0. -1.
     999902    2    1    2    0    0  0.11879135121E-01 -0.15820676774E-01  0.12881161301E-01  0.10203221204E+01  0.10200489681E+01 0.  0.
     999903    2    3    3    0    0  0.10883163638E+00 -0.45335279624E-01  0.58789323028E-01  0.13331678858E+00  0.20434504165E-01 0.  0.
         14    1    1    2    0    0 -0.11879135121E-01  0.15820676774E-01 -0.12881161301E-01  0.23607879644E-01  0.00000000000E+00 0. -1.
     999901    1    3    3    0    0 -0.96952501257E-01  0.29514602850E-01 -0.45908161727E-01  0.88700533177E+00  0.88000000000E+00 0. -1.
        -11    1    4    4    0    0  0.83592707617E-01 -0.41552756172E-01  0.39703698885E-01  0.10144465061E+00  0.51100000000E-03 0. -1.
         11    1    4    4    0    0  0.25238928762E-01 -0.37825234515E-02  0.19085624143E-01  0.31872137968E-01  0.51100000000E-03 0.  1.
</event>
<event>
 8    1  0.1054833E+005  0.1043930E+01  0.7957747E-01            NaN
         13   -1    0    0    0    0  0.00000000000E+00  0.00000000000E+00  0.74505805969E-08  0.10566000000E+00  0.10566000000E+00 0. -1.
     999900   -1    0    0    0    0 -0.00000000000E+00 -0.00000000000E+00 -0.74505805969E-08  0.93827000000E+00  0.93827000000E+00 0.  1.
     999902    2    1    2    0    0  0.10988311227E-01  0.18216278266E-01  0.10757942980E-01  0.10200907652E+01  0.10198121691E+01 0.  0.
     999903    2    3    3    0    0 -0.67443105856E-01 -0.10293317631E+00  0.26400726027E-01  0.12819762466E+00  0.24368449297E-01 0.  0.
         14    1    1    2    0    0 -0.10988311227E-01 -0.18216278266E-01 -0.10757942980E-01  0.23839234775E-01  0.00000000000E+00 0. -1.
     999901    1    3    3    0    0  0.78431417083E-01  0.12114945457E+00 -0.15642783047E-01  0.89189314057E+00  0.88000000000E+00 0.  1.
        -11    1    4    4    0    0 -0.58310757701E-01 -0.96423593688E-01  0.17859985307E-01  0.11409160390E+00  0.51100000000E-03 0. -1.
         11    1    4    4    0    0 -0.91323481544E-02 -0.65095826186E-02  0.85407407205E-02  0.14106020762E-01  0.51100000000E-03 0.  1.
</event>
<event>
 8    1  0.1054833E+005  0.1043930E+01  0.7957747E-01            NaN
         13   -1    0    0    0    0  0.00000000000E+00  0.00000000000E+00  0.74505805969E-08  0.10566000000E+00  0.10566000000E+00 0. -1.
     999900   -1    0    0    0    0 -0.00000000000E+00 -0.00000000000E+00 -0.74505805969E-08  0.93827000000E+00  0.93827000000E+00 0.  1.
     999902    2    1    2    0    0  0.16425243408E-01  0.11279142099E-02 -0.12515933758E-01  0.10232488634E+01  0.10230398463E+01 0.  0.
     999903    2    3    3    0    0 -0.14006127820E-01 -0.43660195192E-01 -0.12413389905E+00  0.13454721875E+00  0.24317584584E-01 0.  0.
         14    1    1    2    0    0 -0.16425243408E-01 -0.11279142099E-02  0.12515933758E-01  0.20681136557E-01  0.00000000000E+00 0. -1.
     999901    1    3    3    0    0  0.30431371227E-01  0.44788109402E-01  0.11161796529E+00  0.88870164469E+00  0.88000000000E+00 0.  1.
        -11    1    4    4    0    0 -0.75719351514E-02 -0.13325004761E-01 -0.16462719473E-01  0.22498271206E-01  0.51100000000E-03 0.  1.
         11    1    4    4    0    0 -0.64341926682E-02 -0.30335190431E-01 -0.10767117958E+00  0.11204894755E+00  0.51100000000E-03 0. -1.
</event>
<event>
 8    1  0.1242223E+005  0.1043930E+01  0.7957747E-01            NaN
         13   -1    0    0    0    0  0.00000000000E+00  0.00000000000E+00  0.74505805969E-08  0.10566000000E+00  0.10566000000E+00 0. -1.
     999900   -1    0    0    0    0 -0.00000000000E+00 -0.00000000000E+00 -0.74505805969E-08  0.93827000000E+00  0.93827000000E+00 0.  1.
     999902    2    1    2    0    0 -0.19927182278E-01 -0.11473036381E-01  0.58199952119E-02  0.10202109043E+01  0.10199351419E+01 0.  0.
     999903    2    3    3    0    0 -0.32633090450E-01 -0.65026499532E-01 -0.10740628336E+00  0.13125106060E+00  0.19934065582E-01 0.  0.
         14    1    1    2    0    0  0.19927182278E-01  0.11473036381E-01 -0.58199952119E-02  0.23719095716E-01  0.00000000000E+00 0. -1.
     999901    1    3    3    0    0  0.12705908173E-01  0.53553463150E-01  0.11322627857E+00  0.88895984368E+00  0.88000000000E+00 0. -1.
        -11    1    4    4    0    0 -0.14720285331E-01 -0.49355277328E-01 -0.69879243095E-01  0.86810137293E-01  0.51100000000E-03 0.  1.
         11    1    4    4    0    0 -0.17912805119E-01 -0.15671222203E-01 -0.37527040265E-01  0.44440923310E-01  0.51100000000E-03 0. -1.
</event>
<event>
 8    1  0.1054833E+005  0.1043930E+01  0.7957747E-01            NaN
         13   -1    0    0    0    0  0.00000000000E+00  0.00000000000E+00  0.74505805969E-08  0.10566000000E+00  0.10566000000E+00 0.  1.
     999900   -1    0    0    0    0 -0.00000000000E+00 -0.00000000000E+00 -0.74505805969E-08  0.93827000000E+00  0.93827000000E+00 0. -1.
     999902    2    1    2    0    0 -0.93316875032E-02  0.18944074852E-01  0.10165787420E-01  0.10204928159E+01  0.10202236450E+01 0.  0.
     999903    2    3    3    0    0 -0.12791625355E+00 -0.16889234980E-01 -0.14668921428E-01  0.13146914460E+00  0.20521806591E-01 0.  0.
         14    1    1    2    0    0  0.93316875032E-02 -0.18944074852E-01 -0.10165787420E-01  0.23437184079E-01  0.00000000000E+00 0.  1.
     999901    1    3    3    0    0  0.11858456605E+00  0.35833309832E-01  0.24834708849E-01  0.88902367132E+00  0.88000000000E+00 0. -1.
        -11    1    4    4    0    0 -0.10264936346E+00 -0.13148229643E-01 -0.33955870630E-02  0.10354496074E+00  0.51100000000E-03 0.  1.
         11    1    4    4    0    0 -0.25266890089E-01 -0.37410053373E-02 -0.11273334365E-01  0.27924183863E-01  0.51100000000E-03 0. -1.
</event>
<event>
 8    1  0.1054833E+005  0.1043930E+01  0.7957747E-01            NaN
         13   -1    0    0    0    0  0.00000000000E+00  0.00000000000E+00  0.74505805969E-08  0.10566000000E+00  0.10566000000E+00 0. -1.
     999900   -1    0    0    0    0 -0.00000000000E+00 -0.00000000000E+00 -0.74505805969E-08  0.93827000000E+00  0.93827000000E+00 0.  1.
     999902    2    1    2    0    0 -0.22191511077E-01 -0.58120305610E-02 -0.32424042511E-02  0.10207620038E+01  0.10204990506E+01 0.  0.
     999903    2    3    3    0    0  0.10278209679E+00 -0.36747765907E-01  0.65269449082E-01  0.12875903494E+00  0.20105481240E-01 0.  0.
         14    1    1    2    0    0  0.22191511077E-01  0.58120305610E-02  0.32424042511E-02  0.23167996212E-01  0.00000000000E+00 0. -1.
     999901    1    3    3    0    0 -0.12497360787E+00  0.30935735346E-01 -0.68511853333E-01  0.89200296885E+00  0.88000000000E+00 0.  1.
        -11    1    4    4    0    0  0.32593301909E-01 -0.22758756235E-02  0.21931774618E-01  0.39354374574E-01  0.51100000000E-03 0. -1.
         11    1    4    4    0    0  0.70188794880E-01 -0.34471890283E-01  0.43337674464E-01  0.89404660368E-01  0.51100000000E-03 0.  1.
</event>
<event>
 8    1  0.1054833E+005  0.1043930E+01  0.7957747E-01            NaN
         13   -1    0    0    0    0  0.00000000000E+00  0.00000000000E+00  0.74505805969E-08  0.10566000000E+00  0.10566000000E+00 0.  1.
     999900   -1    0    0    0    0 -0.00000000000E+00 -0.00000000000E+00 -0.74505805969E-08  0.93827000000E+00  0.93827000000E+00 0. -1.
     999902    2    1    2    0    0 -0.67748912788E-02 -0.21052824795E-01 -0.81895516245E-02  0.10203463332E+01  0.10200737475E+01 0.  0.
     999903    2    3    3    0    0 -0.79467728579E-01 -0.79065720309E-01 -0.69127866375E-01  0.13334958978E+00  0.20903185686E-01 0.  0.
         14    1    1    2    0    0  0.67748912788E-02  0.21052824795E-01  0.81895516245E-02  0.23583666795E-01  0.00000000000E+00 0. -1.
     999901    1    3    3    0    0  0.72692837300E-01  0.58012895514E-01  0.60938314750E-01  0.88699674342E+00  0.88000000000E+00 0.  1.
        -11    1    4    4    0    0 -0.41605062103E-01 -0.48528426035E-01 -0.28583486402E-01  0.70023325699E-01  0.51100000000E-03 0. -1.
         11    1    4    4    0    0 -0.37862666476E-01 -0.30537294274E-01 -0.40544379973E-01  0.63326264083E-01  0.51100000000E-03 0.  1.
</event>
<event>
 8    1  0.1054833E+005  0.1043930E+01  0.7957747E-01            NaN
         13   -1    0    0    0    0  0.00000000000E+00  0.00000000000E+00  0.74505805969E-08  0.10566000000E+00  0.10566000000E+00 0.  1.
     999900   -1    0    0    0    0 -0.00000000000E+00 -0.00000000000E+00 -0.74505805969E-08  0.93827000000E+00  0.93827000000E+00 0.  1.
     999902    2    1    2    0    0  0.10264002395E-01  0.19761410650E-01 -0.59483426238E-02  0.10208812283E+01  0.10206210053E+01 0.  0.
     999903    2    3    3    0    0 -0.36495829760E-01 -0.11915481945E+00 -0.24271502116E-01  0.12856965770E+00  0.20278917108E-01 0.  0.
         14    1    1    2    0    0 -0.10264002395E-01 -0.19761410650E-01  0.59483426238E-02  0.23048771682E-01  0.00000000000E+00 0. -1.
     999901    1    3    3    0    0  0.46759832155E-01  0.13891623010E+00  0.18323159493E-01  0.89231157062E+00  0.88000000000E+00 0. -1.
        -11    1    4    4    0    0 -0.14749125189E-01 -0.42688803296E-01 -0.18664679028E-01  0.48872302840E-01  0.51100000000E-03 0.  1.
         11    1    4    4    0    0 -0.21746704571E-01 -0.76466016149E-01 -0.56068230888E-02  0.79697354859E-01  0.51100000000E-03 0. -1.
</event>
<event>
 7    1  0.1054833E+005  0.1043930E+01  0.7957747E-01            NaN
         13   -1    0    0    0    0  0.00000000000E+00  0.00000000000E+00  0.74505805969E-08  0.10566000000E+00  0.10566000000E+00 0.  1.
     999900   -1    0    0    0    0 -0.00000000000E+00 -0.00000000000E+00 -0.74505805969E-08  0.93827000000E+00  0.93827000000E+00 0.  1.
     999903    2    1    2    0    0  0.82033165774E-01  0.27095815330E-01 -0.81317685555E-01  0.12026290625E+00  0.19671734536E-01 0.  0.
         14    1    1    2    0    0 -0.32705239306E-01  0.17070433129E-01  0.10424972603E-01  0.38336828495E-01  0.00000000000E+00 0.  1.
     999901    1    1    2    0    0 -0.49327926468E-01 -0.44166248459E-01  0.70892712952E-01  0.88533026526E+00  0.88000000000E+00 0. -1.
        -11    1    3    3    0    0  0.27663810515E-01  0.82893185739E-02 -0.15270627360E-01  0.32671889992E-01  0.51100000000E-03 0. -1.
         11    1    3    3    0    0  0.54369355259E-01  0.18806496756E-01 -0.66047058194E-01  0.87591016255E-01  0.51100000000E-03 0.  1.
</event>
<event>
 8    1  0.1054833E+005  0.1043930E+01  0.7957747E-01            NaN
         13   -1    0    0    0    0  0.00000000000E+00  0.00000000000E+00  0.74505805969E-08  0.10566000000E+00  0.10566000000E+00 0. -1.
     999900   -1    0    0    0    0 -0.00000000000E+00 -0.00000000000E+00 -0.74505805969E-08  0.93827000000E+00  0.93827000000E+00 0.  1.
     999902    2    1    2    0    0 -0.17456182955E-01  0.10062652347E-01  0.12073887368E-01  0.10204405545E+01  0.10201701677E+01 0.  0.
     999903    2    3    3    0    0  0.14710116850E-01  0.12886194618E+00 -0.10293548659E-01  0.13159397307E+00  0.19728859393E-01 0.  0.
         14    1    1    2    0    0  0.17456182955E-01 -0.10062652347E-01 -0.12073887368E-01  0.23489445540E-01  0.00000000000E+00 0. -1.
     999901    1    3    3    0    0 -0.32166299805E-01 -0.11879929383E+00  0.22367436027E-01  0.88884658139E+00  0.88000000000E+00 0. -1.
        -11    1    4    4    0    0  0.11838293735E-01  0.43228113445E-01  0.28267816765E-02  0.44911766901E-01  0.51100000000E-03 0. -1.
         11    1    4    4    0    0  0.28718231154E-02  0.85633832734E-01 -0.13120330336E-01  0.86682206167E-01  0.51100000000E-03 0.  1.
</event>
<event>
 8    1  0.1054833E+005  0.1043930E+01  0.7957747E-01            NaN
         13   -1    0    0    0    0  0.00000000000E+00  0.00000000000E+00  0.74505805969E-08  0.10566000000E+00  0.10566000000E+00 0. -1.
     999900   -1    0    0    0    0 -0.00000000000E+00 -0.00000000000E+00 -0.74505805969E-08  0.93827000000E+00  0.93827000000E+00 0.  1.
     999902    2    1    2    0    0 -0.34254992574E-03 -0.19169854372E-01  0.13651278032E-01  0.10203936866E+01  0.10201222072E+01 0.  0.
     999903    2    3    3    0    0  0.11188734124E+00 -0.11836950885E-01  0.66881754876E-01  0.13164017542E+00  0.14038380015E-01 0.  0.
         14    1    1    2    0    0  0.34254992574E-03  0.19169854372E-01 -0.13651278032E-01  0.23536313411E-01  0.00000000000E+00 0.  1.
     999901    1    3    3    0    0 -0.11222989117E+00 -0.73329034867E-02 -0.53230476844E-01  0.88875351117E+00  0.88000000000E+00 0.  1.
        -11    1    4    4    0    0  0.61573576085E-01 -0.40011594648E-02  0.29047367619E-01  0.68200624891E-01  0.51100000000E-03 0.  1.
         11    1    4    4    0    0  0.50313765157E-01 -0.78357914205E-02  0.37834387258E-01  0.63439550532E-01  0.51100000000E-03 0. -1.
</event>
<event>
 8    1  0.1054833E+005  0.1043930E+01  0.7957747E-01            NaN
         13   -1    0    0    0    0  0.00000000000E+00  0.00000000000E+00  0.74505805969E-08  0.10566000000E+00  0.10566000000E+00 0.  1.
     999900   -1    0    0    0    0 -0.00000000000E+00 -0.00000000000E+00 -0.74505805969E-08  0.93827000000E+00  0.93827000000E+00 0. -1.
     999902    2    1    2    0    0 -0.55249208920E-02 -0.15793547239E-01  0.16635756538E-01  0.10203353124E+01  0.10200624689E+01 0.  0.
     999903    2    3    3    0    0 -0.91136005220E-01 -0.93238454535E-01  0.91207220812E-02  0.13276365496E+00  0.23319941160E-01 0.  0.
         14    1    1    2    0    0  0.55249208920E-02  0.15793547239E-01 -0.16635756538E-01  0.23594687555E-01  0.00000000000E+00 0. -1.
     999901    1    3    3    0    0  0.85611084328E-01  0.77444907296E-01  0.75150344565E-02  0.88757165748E+00  0.88000000000E+00 0.  1.
        -11    1    4    4    0    0 -0.38484061324E-01 -0.35488281464E-01  0.14809013629E-01  0.54405965693E-01  0.51100000000E-03 0.  1.
         11    1    4    4    0    0 -0.52651943895E-01 -0.57750173071E-01 -0.56882915474E-02  0.78357689268E-01  0.51100000000E-03 0. -1.
</event>
<event>
 8    1  0.1054833E+005  0.1043930E+01  0.7957747E-01            NaN
         13   -1    0    0    0    0  0.00000000000E+00  0.00000000000E+00  0.74505805969E-08  0.10566000000E+00  0.10566000000E+00 0.  1.
     999900   -1    0    0    0    0 -0.00000000000E+00 -0.00000000000E+00 -0.74505805969E-08  0.93827000000E+00  0.93827000000E+00 0. -1.
     999902    2    1    2    0    0  0.22911259919E-01 -0.41157447024E-02 -0.53049717029E-02  0.10200551616E+01  0.10197757228E+01 0.  0.
     999903    2    3    3    0    0  0.25291283851E-01 -0.97955019623E-01 -0.82049591340E-01  0.13174147222E+00  0.19719157077E-01 0.  0.
         14    1    1    2    0    0 -0.22911259919E-01  0.41157447024E-02  0.53049717029E-02  0.23874838435E-01  0.00000000000E+00 0.  1.
     999901    1    3    3    0    0 -0.23800239319E-02  0.93839274921E-01  0.76744619637E-01  0.88831368934E+00  0.88000000000E+00 0.  1.
        -11    1    4    4    0    0  0.86537031659E-02 -0.58082621928E-01 -0.56782925311E-01  0.81688672877E-01  0.51100000000E-03 0. -1.
         11    1    4    4    0    0  0.16637580685E-01 -0.39872397695E-01 -0.25266666029E-01  0.50052799345E-01  0.51100000000E-03 0.  1.
</event>
<event>
 8    1  0.1054833E+005  0.1043930E+01  0.7957747E-01            NaN
         13   -1    0    0    0    0  0.00000000000E+00  0.00000000000E+00  0.74505805969E-08  0.10566000000E+00  0.10566000000E+00 0.  1.
     999900   -1    0    0    0    0 -0.00000000000E+00 -0.00000000000E+00 -0.74505805969E-08  0.93827000000E+00  0.93827000000E+00 0.  1.
     999902    2    1    2    0    0  0.22195913261E-01  0.69865074913E-02  0.73252128472E-02  0.10195347424E+01  0.10192428377E+01 0.  0.
     999903    2    3    3    0    0 -0.10900414376E+00 -0.43539050517E-01  0.45566936917E-01  0.12755452036E+00  0.20402393179E-01 0.  0.
         14    1    1    2    0    0 -0.22195913261E-01 -0.69865074913E-02 -0.73252128472E-02  0.24395257647E-01  0.00000000000E+00 0.  1.
     999901    1    3    3    0    0  0.13120005702E+00  0.50525558009E-01 -0.38241724070E-01  0.89198022200E+00  0.88000000000E+00 0.  1.
        -11    1    4    4    0    0 -0.25470091864E-01 -0.10544585656E-01  0.17660072450E-02  0.27627771694E-01  0.51100000000E-03 0.  1.
         11    1    4    4    0    0 -0.83534051891E-01 -0.32994464862E-01  0.43800929672E-01  0.99926748662E-01  0.51100000000E-03 0. -1.
</event>
<event>
 8    1  0.1054833E+005  0.1043930E+01  0.7957747E-01            NaN
         13   -1    0    0    0    0  0.00000000000E+00  0.00000000000E+00  0.74505805969E-08  0.10566000000E+00  0.10566000000E+00 0. -1.
     999900   -1    0    0    0    0 -0.00000000000E+00 -0.00000000000E+00 -0.74505805969E-08  0.93827000000E+00  0.93827000000E+00 0.  1.
     999902    2    1    2    0    0 -0.64754684922E-02 -0.11493781895E-01 -0.19468386625E-01  0.10204128405E+01  0.10201418079E+01 0.  0.
     999903    2    3    3    0    0  0.11367988333E+00 -0.52763240917E-01 -0.33133053896E-01  0.13118441091E+00  0.20111562324E-01 0.  0.
         14    1    1    2    0    0  0.64754684922E-02  0.11493781895E-01  0.19468386625E-01  0.23517159527E-01  0.00000000000E+00 0. -1.
     999901    1    3    3    0    0 -0.12015535182E+00  0.41269459023E-01  0.13664667272E-01  0.88922842957E+00  0.88000000000E+00 0.  1.
        -11    1    4    4    0    0  0.86631801836E-01 -0.37893849049E-01 -0.33485774324E-01  0.10031236757E+00  0.51100000000E-03 0. -1.
         11    1    4    4    0    0  0.27048081490E-01 -0.14869391868E-01  0.35272042777E-03  0.30872043333E-01  0.51100000000E-03 0.  1.
</event>
<event>
 8    1  0.1070824E+005  0.1043930E+01  0.7957747E-01            NaN
         13   -1    0    0    0    0  0.00000000000E+00  0.00000000000E+00  0.74505805969E-08  0.10566000000E+00  0.10566000000E+00 0. -1.
     999900   -1    0    0    0    0 -0.00000000000E+00 -0.00000000000E+00 -0.74505805969E-08  0.93827000000E+00  0.93827000000E+00 0. -1.
     999902    2    1    2    0    0  0.23584334219E-01 -0.48239287041E-02  0.64518220169E-03  0.10198487341E+01  0.10195643839E+01 0.  0.
     999903    2    3    3    0    0  0.44857760421E-02  0.34634918002E-01 -0.12356557828E+00  0.13004534650E+00  0.20582523628E-01 0.  0.
         14    1    1    2    0    0 -0.23584334219E-01  0.48239287041E-02 -0.64518220169E-03  0.24081265930E-01  0.00000000000E+00 0.  1.
     999901    1    3    3    0    0  0.19098558177E-01 -0.39458846706E-01  0.12421076048E+00  0.88980338757E+00  0.88000000000E+00 0.  1.
        -11    1    4    4    0    0  0.16329873530E-02  0.27708837277E-01 -0.60871041064E-01  0.66902848012E-01  0.51100000000E-03 0.  1.
         11    1    4    4    0    0  0.28527886891E-02  0.69260807247E-02 -0.62694537219E-01  0.63142498490E-01  0.51100000000E-03 0. -1.
</event>
<event>
 8    1  0.1054833E+005  0.1043930E+01  0.7957747E-01            NaN
         13   -1    0    0    0    0  0.00000000000E+00  0.00000000000E+00  0.74505805969E-08  0.10566000000E+00  0.10566000000E+00 0.  1.
     999900   -1    0    0    0    0 -0.00000000000E+00 -0.00000000000E+00 -0.74505805969E-08  0.93827000000E+00  0.93827000000E+00 0. -1.
     999902    2    1    2    0    0  0.13818209922E-01  0.15908697474E-01  0.12118424788E-01  0.10196218573E+01  0.10193320588E+01 0.  0.
     999903    2    3    3    0    0  0.12279189326E+00  0.21547314845E-01  0.38654256029E-01  0.13248533570E+00  0.22717324684E-01 0.  0.
         14    1    1    2    0    0 -0.13818209922E-01 -0.15908697474E-01 -0.12118424788E-01  0.24308142670E-01  0.00000000000E+00 0. -1.
     999901    1    3    3    0    0 -0.10897368333E+00 -0.56386173711E-02 -0.26535831242E-01  0.88713652163E+00  0.88000000000E+00 0. -1.
        -11    1    4    4    0    0  0.89083212257E-01  0.82947106540E-02  0.35020241090E-01  0.96079651009E-01  0.51100000000E-03 0. -1.
         11    1    4    4    0    0  0.33708680998E-01  0.13252604191E-01  0.36340149392E-02  0.36405684694E-01  0.51100000000E-03 0.  1.
</event>
<event>
 8    1  0.1054833E+005  0.1043930E+01  0.7957747E-01            NaN
         13   -1    0    0    0    0  0.00000000000E+00  0.00000000000E+00  0.74505805969E-08  0.10566000000E+00  0.10566000000E+00 0. -1.
     999900   -1    0    0    0    0 -0.00000000000E+00 -0.00000000000E+00 -0.74505805969E-08  0.93827000000E+00  0.93827000000E+00 0. -1.
     999902    2    1    2    0    0 -0.27505668835E-03 -0.12154378158E-01 -0.20781099148E-01  0.10198538989E+01  0.10195696721E+01 0.  0.
     999903    2    3    3    0    0 -0.11475222865E+00  0.54813142632E-01  0.12359892983E-01  0.12929901728E+00  0.19822066738E-01 0.  0.
         14    1    1    2    0    0  0.27505668835E-03  0.12154378158E-01  0.20781099148E-01  0.24076101146E-01  0.00000000000E+00 0. -1.
     999901    1    3    3    0    0  0.11447717196E+00 -0.66967520790E-01 -0.33140992131E-01  0.89055488158E+00  0.88000000000E+00 0. -1.
        -11    1    4    4    0    0 -0.71113806891E-01  0.44200769538E-01  0.61432347526E-02  0.83957620336E-01  0.51100000000E-03 0. -1.
         11    1    4    4    0    0 -0.43638421756E-01  0.10612373093E-01  0.62166582301E-02  0.45341396941E-01  0.51100000000E-03 0.  1.
</event>
<event>
 8    1  0.1054833E+005  0.1043930E+01  0.7957747E-01            NaN
         13   -1    0    0    0    0  0.00000000000E+00  0.00000000000E+00  0.74505805969E-08  0.10566000000E+00  0.10566000000E+00 0. -1.
     999900   -1    0    0    0    0 -0.00000000000E+00 -0.00000000000E+00 -0.74505805969E-08  0.93827000000E+00  0.93827000000E+00 0. -1.
     999902    2    1    2    0    0  0.28176433073E-02  0.22872623622E-01  0.47319188877E-02  0.10204036938E+01  0.10201324479E+01 0.  0.
     999903    2    3    3    0    0  0.49805732950E-01  0.61729342525E-01 -0.10341042239E+00  0.13168974034E+00  0.18903689809E-01 0.  0.
         14    1    1    2    0    0 -0.28176433073E-02 -0.22872623622E-01 -0.47319188877E-02  0.23526306160E-01  0.00000000000E+00 0.  1.
     999901    1    3    3    0    0 -0.46988089643E-01 -0.38856718904E-01  0.10814234128E+00  0.88871395350E+00  0.88000000000E+00 0.  1.
        -11    1    4    4    0    0  0.32601860127E-01  0.28542751199E-01 -0.64729616784E-01  0.77895791541E-01  0.51100000000E-03 0. -1.
         11    1    4    4    0    0  0.17203872823E-01  0.33186591327E-01 -0.38680805605E-01  0.53793948798E-01  0.51100000000E-03 0.  1.
</event>
<event>
 8    1  0.1054833E+005  0.1043930E+01  0.7957747E-01            NaN
         13   -1    0    0    0    0  0.00000000000E+00  0.00000000000E+00  0.74505805969E-08  0.10566000000E+00  0.10566000000E+00 0. -1.
     999900   -1    0    0    0    0 -0.00000000000E+00 -0.00000000000E+00 -0.74505805969E-08  0.93827000000E+00  0.93827000000E+00 0.  1.
     999902    2    1    2    0    0  0.36255301406E-02  0.11262120277E-02 -0.22917495776E-01  0.10207001822E+01  0.10204358076E+01 0.  0.
     999903    2    3    3    0    0  0.28904159781E-02  0.41283199207E-01 -0.12563371324E+00  0.13381589136E+00  0.20253538896E-01 0.  0.
         14    1    1    2    0    0 -0.36255301406E-02 -0.11262120277E-02  0.22917495776E-01  0.23229817799E-01  0.00000000000E+00 0. -1.
     999901    1    3    3    0    0  0.73511416254E-03 -0.40156987179E-01  0.10271621746E+00  0.88688429084E+00  0.88000000000E+00 0. -1.
        -11    1    4    4    0    0 -0.86531580554E-02  0.14344268347E-01 -0.46318413408E-01  0.49257402696E-01  0.51100000000E-03 0. -1.
         11    1    4    4    0    0  0.11543574034E-01  0.26938930860E-01 -0.79315299828E-01  0.84558488664E-01  0.51100000000E-03 0.  1.
</event>
<event>
 8    1  0.1054833E+005  0.1043930E+01  0.7957747E-01            NaN
         13   -1    0    0    0    0  0.00000000000E+00  0.00000000000E+00  0.74505805969E-08  0.10566000000E+00  0.10566000000E+00 0.  1.
     999900   -1    0    0    0    0 -0.00000000000E+00 -0.00000000000E+00 -0.74505805969E-08  0.93827000000E+00  0.93827000000E+00 0. -1.
     999902    2    1    2    0    0 -0.28046957884E-01 -0.43338716771E-02  0.30341586303E-02  0.10153884442E+01  0.10149872276E+01 0.  0.
     999903    2    3    3    0    0  0.67277320888E-02  0.80482213253E-01  0.94528423319E-01  0.12590868173E+00  0.19867669497E-01 0.  0.
         14    1    1    2    0    0  0.28046957884E-01  0.43338716771E-02 -0.30341586303E-02  0.28541555824E-01  0.00000000000E+00 0. -1.
     999901    1    3    3    0    0 -0.34774689973E-01 -0.84816084930E-01 -0.91494264689E-01  0.88947976244E+00  0.88000000000E+00 0. -1.
        -11    1    4    4    0    0  0.75762421694E-02  0.34046208125E-01  0.53884274170E-01  0.64189717688E-01  0.51100000000E-03 0.  1.
         11    1    4    4    0    0 -0.84851008055E-03  0.46436005129E-01  0.40644149149E-01  0.61718964045E-01  0.51100000000E-03 0. -1.
</event>
<event>
 8    1  0.1054833E+005  0.1043930E+01  0.7957747E-01            NaN
         13   -1    0    0    0    0  0.00000000000E+00  0.00000000000E+00  0.74505805969E-08  0.10566000000E+00  0.10566000000E+00 0. -1.
     999900   -1    0    0    0    0 -0.00000000000E+00 -0.00000000000E+00 -0.74505805969E-08  0.93827000000E+00  0.93827000000E+00 0.  1.
     999902    2    1    2    0    0 -0.10287666151E-01 -0.18059012907E-01 -0.10908361469E-01  0.10204575401E+01  0.10201875489E+01 0.  0.
     999903    2    3    3    0    0  0.11363477709E+00  0.42589855411E-01  0.36971592662E-01  0.12842192024E+00  0.19963280931E-01 0.  0.
         14    1    1    2    0    0  0.10287666151E-01  0.18059012907E-01  0.10908361469E-01  0.23472459861E-01  0.00000000000E+00 0. -1.
     999901    1    3    3    0    0 -0.12392244324E+00 -0.60648868318E-01 -0.47879954131E-01  0.89203561990E+00  0.88000000000E+00 0.  1.
        -11    1    4    4    0    0  0.47914247141E-01  0.23630889772E-01  0.24971617872E-01  0.58974883219E-01  0.51100000000E-03 0. -1.
         11    1    4    4    0    0  0.65720529947E-01  0.18958965639E-01  0.11999974790E-01  0.69447037018E-01  0.51100000000E-03 0.  1.
</event>
<event>
 8    1  0.1054833E+005  0.1043930E+01  0.7957747E-01            NaN
         13   -1    0    0    0    0  0.00000000000E+00  0.00000000000E+00  0.74505805969E-08  0.10566000000E+00  0.10566000000E+00 0.  1.
     999900   -1    0    0    0    0 -0.00000000000E+00 -0.00000000000E+00 -0.74505805969E-08  0.93827000000E+00  0.93827000000E+00 0. -1.
     999902    2    1    2    0    0  0.14372898130E-01  0.12185756175E-01  0.14391049155E-01  0.10202197670E+01  0.10199442131E+01 0.  0.
     999903    2    3    3    0    0 -0.51264568563E-01  0.73979972777E-01  0.95190411982E-01  0.13193189738E+00  0.15611490998E-01 0.  0.
         14    1    1    2    0    0 -0.14372898130E-01 -0.12185756175E-01 -0.14391049155E-01  0.23710233023E-01  0.00000000000E+00 0. -1.
     999901    1    3    3    0    0  0.65637466693E-01 -0.61794216602E-01 -0.80799362827E-01  0.88828786960E+00  0.88000000000E+00 0. -1.
        -11    1    4    4    0    0 -0.29197434218E-01  0.28833363306E-01  0.40453064824E-01  0.57624340162E-01  0.51100000000E-03 0. -1.
         11    1    4    4    0    0 -0.22067134345E-01  0.45146609471E-01  0.54737347158E-01  0.74307557219E-01  0.51100000000E-03 0.  1.
</event>
<event>
 8    1  0.1054833E+005  0.1043930E+01  0.7957747E-01            NaN
         13   -1    0    0    0    0  0.00000000000E+00  0.00000000000E+00  0.74505805969E-08  0.10566000000E+00  0.10566000000E+00 0. -1.
     999900   -1    0    0    0    0 -0.00000000000E+00 -0.00000000000E+00 -0.74505805969E-08  0.93827000000E+00  0.93827000000E+00 0.  1.
     999902    2    1    2    0    0  0.18107374526E-01  0.14233955249E-01  0.79651883632E-02  0.10195593882E+01  0.10192680802E+01 0.  0.
     999903    2    3    3    0    0 -0.24630168900E-01 -0.89128455179E-01 -0.85863448155E-01  0.12753130649E+00  0.18470941071E-01 0.  0.
         14    1    1    2    0    0 -0.18107374526E-01 -0.14233955249E-01 -0.79651883632E-02  0.24370611809E-01  0.00000000000E+00 0.  1.
     999901    1    3    3    0    0  0.42737543426E-01  0.10336241043E+00  0.93828636518E-01  0.89202808170E+00  0.88000000000E+00 0. -1.
        -11    1    4    4    0    0 -0.21501783985E-01 -0.53067818335E-01 -0.60691199411E-01  0.83439815821E-01  0.51100000000E-03 0.  1.
         11    1    4    4    0    0 -0.31283849143E-02 -0.36060636845E-01 -0.25172248744E-01  0.44091490672E-01  0.51100000000E-03 0. -1.
</event>
<event>
 8    1  0.1054833E+005  0.1043930E+01  0.7957747E-01            NaN
         13   -1    0    0    0    0  0.00000000000E+00  0.00000000000E+00  0.74505805969E-08  0.10566000000E+00  0.10566000000E+00 0. -1.
     999900   -1    0    0    0    0 -0.00000000000E+00 -0.00000000000E+00 -0.74505805969E-08  0.93827000000E+00  0.93827000000E+00 0.  1.
     999902    2    1    2    0    0 -0.12508551125E-01 -0.16016565964E-01 -0.12565227734E-01  0.10200369218E+01  0.10197570508E+01 0.  0.
     999903    2    3    3    0    0 -0.71085243603E-01  0.10596824643E+00 -0.11086839102E-01  0.12969220825E+00  0.20365897258E-01 0.  0.
         14    1    1    2    0    0  0.12508551125E-01  0.16016565964E-01  0.12565227734E-01  0.23893078172E-01  0.00000000000E+00 0. -1.
     999901    1    3    3    0    0  0.58576692478E-01 -0.12198481239E+00 -0.14783886320E-02  0.89034471357E+00  0.88000000000E+00 0. -1.
        -11    1    4    4    0    0 -0.36668098906E-01  0.38662680111E-01 -0.71653319668E-05  0.53288023824E-01  0.51100000000E-03 0.  1.
         11    1    4    4    0    0 -0.34417144697E-01  0.67305566319E-01 -0.11079673770E-01  0.76404184431E-01  0.51100000000E-03 0. -1.
</event>
<event>
 8    1  0.1054833E+005  0.1043930E+01  0.7957747E-01            NaN
         13   -1    0    0    0    0  0.00000000000E+00  0.00000000000E+00  0.74505805969E-08  0.10566000000E+00  0.10566000000E+00 0. -1.
     999900   -1    0    0    0    0 -0.00000000000E+00 -0.00000000000E+00 -0.74505805969E-08  0.93827000000E+00  0.93827000000E+00 0.  1.
     999902    2    1    2    0    0  0.14637648860E-01  0.14714484150E-01 -0.97316365808E-02  0.10210066155E+01  0.10207492480E+01 0.  0.
     999903    2    3    3    0    0 -0.56185844742E-01  0.11006482822E+00 -0.43194118071E-01  0.13239680625E+00  0.19800679519E-01 0.  0.
         14    1    1    2    0    0 -0.14637648860E-01 -0.14714484150E-01  0.97316365808E-02  0.22923384534E-01  0.00000000000E+00 0.  1.
     999901    1    3    3    0    0  0.70823493603E-01 -0.95350344072E-01  0.33462481490E-01  0.88860980921E+00  0.88000000000E+00 0. -1.
        -11    1    4    4    0    0 -0.34468284936E-01  0.82960973460E-01 -0.25348405295E-01  0.93345533133E-01  0.51100000000E-03 0.  1.
         11    1    4    4    0    0 -0.21717559807E-01  0.27103854762E-01 -0.17845712776E-01  0.39051273121E-01  0.51100000000E-03 0. -1.
</event>
<event>
 8    1  0.1054833E+005  0.1043930E+01  0.7957747E-01            NaN
         13   -1    0    0    0    0  0.00000000000E+00  0.00000000000E+00  0.74505805969E-08  0.10566000000E+00  0.10566000000E+00 0. -1.
     999900   -1    0    0    0    0 -0.00000000000E+00 -0.00000000000E+00 -0.74505805969E-08  0.93827000000E+00  0.93827000000E+00 0.  1.
     999902    2    1    2    0    0 -0.10505777158E-01 -0.18617772082E-01  0.57848142499E-03  0.10225447847E+01  0.10223211381E+01 0.  0.
     999903    2    3    3    0    0  0.88815859752E-02 -0.11812948497E+00 -0.60581712667E-01  0.13461515904E+00  0.20436226315E-01 0.  0.
         14    1    1    2    0    0  0.10505777158E-01  0.18617772082E-01 -0.57848142499E-03  0.21385215261E-01  0.00000000000E+00 0. -1.
     999901    1    3    3    0    0 -0.19387363133E-01  0.99511712886E-01  0.61160194091E-01  0.88792962570E+00  0.88000000000E+00 0. -1.
        -11    1    4    4    0    0  0.14233236843E-01 -0.59650130109E-01 -0.34415096803E-01  0.70323417593E-01  0.51100000000E-03 0.  1.
         11    1    4    4    0    0 -0.53516508677E-02 -0.58479354858E-01 -0.26166615864E-01  0.64291741448E-01  0.51100000000E-03 0. -1.
</event>
<event>
 8    1  0.1054833E+005  0.1043930E+01  0.7957747E-01            NaN
         13   -1    0    0    0    0  0.00000000000E+00  0.00000000000E+00  0.74505805969E-08  0.10566000000E+00  0.10566000000E+00 0.  1.
     999900   -1    0    0    0    0 -0.00000000000E+00 -0.00000000000E+00 -0.74505805969E-08  0.93827000000E+00  0.93827000000E+00 0.  1.
     999902    2    1    2    0    0  0.10192707651E-01 -0.14197403232E-01  0.16006131968E-01  0.10202307635E+01  0.10199554682E+01 0.  0.
     999903    2    3    3    0    0 -0.21988694182E-01 -0.41898887103E-01 -0.11907398922E+00  0.12891171070E+00  0.14163150609E-01 0.  0.
         14    1    1    2    0    0 -0.10192707651E-01  0.14197403232E-01 -0.16006131968E-01  0.23699236451E-01  0.00000000000E+00 0. -1.
     999901    1    3    3    0    0  0.32181401833E-01  0.27701483871E-01  0.13508012118E+00  0.89131905285E+00  0.88000000000E+00 0. -1.
        -11    1    4    4    0    0 -0.12286258016E-01 -0.27145288339E-01 -0.56315130184E-01  0.63714000217E-01  0.51100000000E-03 0.  1.
         11    1    4    4    0    0 -0.97024361661E-02 -0.14753598764E-01 -0.62758859033E-01  0.65197710482E-01  0.51100000000E-03 0. -1.
</event>
<event>
 8    1  0.1054833E+005  0.1043930E+01  0.7957747E-01            NaN
         13   -1    0    0    0    0  0.00000000000E+00  0.00000000000E+00  0.74505805969E-08  0.10566000000E+00  0.10566000000E+00 0.  1.
     999900   -1    0    0    0    0 -0.00000000000E+00 -0.00000000000E+00 -0.74505805969E-08  0.93827000000E+00  0.93827000000E+00 0.  1.
     999902    2    1    2    0    0 -0.19358832827E-01 -0.87866481209E-02  0.89577882767E-02  0.10208602890E+01  0.10205995876E+01 0.  0.
     999903    2    3    3    0    0 -0.89234362358E-01  0.50081361862E-01  0.82839726268E-01  0.13305030204E+00  0.19210632318E-01 0.  0.
         14    1    1    2    0    0  0.19358832827E-01  0.87866481209E-02 -0.89577882767E-02  0.23069710974E-01  0.00000000000E+00 0. -1.
     999901    1    3    3    0    0  0.69875529531E-01 -0.58868009982E-01 -0.73881937991E-01  0.88780998698E+00  0.88000000000E+00 0.  1.
        -11    1    4    4    0    0 -0.58546973165E-01  0.40229254856E-01  0.64571637296E-01  0.95999471234E-01  0.51100000000E-03 0.  1.
         11    1    4    4    0    0 -0.30687389192E-01  0.98521070056E-02  0.18268088972E-01  0.37050830808E-01  0.51100000000E-03 0. -1.
</event>
<event>
 8    1  0.1054833E+005  0.1043930E+01  0.7957747E-01            NaN
         13   -1    0    0    0    0  0.00000000000E+00  0.00000000000E+00  0.74505805969E-08  0.10566000000E+00  0.10566000000E+00 0. -1.
     999900   -1    0    0    0    0 -0.00000000000E+00 -0.00000000000E+00 -0.74505805969E-08  0.93827000000E+00  0.93827000000E+00 0.  1.
     999902    2    1    2    0    0 -0.38767055982E-02  0.21283924009E-01  0.64336852155E-02  0.10213595199E+01  0.10211101029E+01 0.  0.
     999903    2    3    3    0    0 -0.38088710807E-02  0.10589080936E+00  0.79844039280E-01  0.13425895639E+00  0.20567589990E-01 0.  0.
         14    1    1    2    0    0  0.38767055982E-02 -0.21283924009E-01 -0.64336852155E-02  0.22570480122E-01  0.00000000000E+00 0. -1.
     999901    1    3    3    0    0 -0.67834517482E-04 -0.84606885349E-01 -0.73410354064E-01  0.88710056348E+00  0.88000000000E+00 0. -1.
        -11    1    4    4    0    0  0.39196023374E-02  0.95408542001E-02  0.13602098391E-01  0.17078330802E-01  0.51100000000E-03 0. -1.
         11    1    4    4    0    0 -0.77284734181E-02  0.96349955158E-01  0.66241940889E-01  0.11718062559E+00  0.51100000000E-03 0.  1.
</event>
<event>
 8    1  0.1054833E+005  0.1043930E+01  0.7957747E-01            NaN
         13   -1    0    0    0    0  0.00000000000E+00  0.00000000000E+00  0.74505805969E-08  0.10566000000E+00  0.10566000000E+00 0. -1.
     999900   -1    0    0    0    0 -0.00000000000E+00 -0.00000000000E+00 -0.74505805969E-08  0.93827000000E+00  0.93827000000E+00 0.  1.
     999902    2    1    2    0    0  0.22138098105E-01  0.40658253619E-02  0.72133794685E-02  0.10202940281E+01  0.10200202178E+01 0.  0.
     999903    2    3    3    0    0  0.77103321008E-01  0.10593411343E+00 -0.38695635993E-02  0.13264479814E+00  0.20315276378E-01 0.  0.
         14    1    1    2    0    0 -0.22138098105E-01 -0.40658253619E-02 -0.72133794685E-02  0.23635971885E-01  0.00000000000E+00 0.  1.
     999901    1    3    3    0    0 -0.54965222903E-01 -0.10186828806E+00  0.11082943068E-01  0.88764922997E+00  0.88000000000E+00 0.  1.
        -11    1    4    4    0    0  0.59403145873E-01  0.94076733313E-01 -0.25250649875E-02  0.11129152063E+00  0.51100000000E-03 0. -1.
         11    1    4    4    0    0  0.17700175135E-01  0.11857380112E-01 -0.13444986118E-02  0.21353277511E-01  0.51100000000E-03 0.  1.
</event>
<event>
 8    1  0.1054833E+005  0.1043930E+01  0.7957747E-01            NaN
         13   -1    0    0    0    0  0.00000000000E+00  0.00000000000E+00  0.74505805969E-08  0.10566000000E+00  0.10566000000E+00 0.  1.
     999900   -1    0    0    0    0 -0.00000000000E+00 -0.00000000000E+00 -0.74505805969E-08  0.93827000000E+00  0.93827000000E+00 0.  1.
     999902    2    1    2    0    0 -0.13879444122E-01  0.12409843795E-01 -0.14636955840E-01  0.10202470173E+01  0.10199721039E+01 0.  0.
     999903    2    3    3    0    0  0.22526285926E-01  0.19894816911E-01 -0.12788687277E+00  0.13221157564E+00  0.14886611727E-01 0.  0.
         14    1    1    2    0    0  0.13879444122E-01 -0.12409843795E-01  0.14636955840E-01  0.23682982676E-01  0.00000000000E+00 0.  1.
     999901    1    3    3    0    0 -0.36405730049E-01 -0.74849731161E-02  0.11324991693E+00  0.88803544168E+00  0.88000000000E+00 0. -1.
        -11    1    4    4    0    0  0.15993701292E-01  0.18000256163E-01 -0.72260147158E-01  0.76168219693E-01  0.51100000000E-03 0. -1.
         11    1    4    4    0    0  0.65325846347E-02  0.18945607480E-02 -0.55626725612E-01  0.56043355946E-01  0.51100000000E-03 0.  1.
</event>
<event>
 8    1  0.1054833E+005  0.1043930E+01  0.7957747E-01            NaN
         13   -1    0    0    0    0  0.00000000000E+00  0.00000000000E+00  0.74505805969E-08  0.10566000000E+00  0.10566000000E+00 0.  1.
     999900   -1    0    0    0    0 -0.00000000000E+00 -0.00000000000E+00 -0.74505805969E-08  0.93827000000E+00  0.93827000000E+00 0. -1.
     999902    2    1    2    0    0  0.23590747702E-01 -0.11190631986E-01 -0.73265650742E-02  0.10168111472E+01  0.10164494463E+01 0.  0.
     999903    2    3    3    0    0  0.82674619449E-01 -0.96360504849E-01  0.19726698803E-01  0.13031428300E+00  0.21730856248E-01 0.  0.
         14    1    1    2    0    0 -0.23590747702E-01  0.11190631986E-01  0.73265650742E-02  0.27118852799E-01  0.00000000000E+00 0.  1.
     999901    1    3    3    0    0 -0.59083871747E-01  0.85169872864E-01 -0.27053263877E-01  0.88649686420E+00  0.88000000000E+00 0. -1.
        -11    1    4    4    0    0  0.45594854032E-01 -0.45526186666E-01  0.21204993071E-03  0.64434699291E-01  0.51100000000E-03 0. -1.
         11    1    4    4    0    0  0.37079765417E-01 -0.50834318183E-01  0.19514648872E-01  0.65879583713E-01  0.51100000000E-03 0.  1.
</event>
<event>
 8    1  0.1054833E+005  0.1043930E+01  0.7957747E-01            NaN
         13   -1    0    0    0    0  0.00000000000E+00  0.00000000000E+00  0.74505805969E-08  0.10566000000E+00  0.10566000000E+00 0. -1.
     999900   -1    0    0    0    0 -0.00000000000E+00 -0.00000000000E+00 -0.74505805969E-08  0.93827000000E+00  0.93827000000E+00 0.  1.
     999902    2    1    2    0    0 -0.18546300795E-01 -0.49542366789E-02  0.11128751381E-01  0.10217408395E+01  0.10214998700E+01 0.  0.
     999903    2    3    3    0    0 -0.54769151165E-02  0.28252496310E-01 -0.12573848370E+00  0.13044619915E+00  0.19438221171E-01 0.  0.
         14    1    1    2    0    0  0.18546300795E-01  0.49542366789E-02 -0.11128751381E-01  0.22189160452E-01  0.00000000000E+00 0.  1.
     999901    1    3    3    0    0 -0.13069385679E-01 -0.33206732989E-01  0.13686723508E+00  0.89129464040E+00  0.88000000000E+00 0. -1.
        -11    1    4    4    0    0  0.58055585481E-03  0.27917018537E-01 -0.91377620129E-01  0.95550131086E-01  0.51100000000E-03 0.  1.
         11    1    4    4    0    0 -0.60574709713E-02  0.33547777288E-03 -0.34360863574E-01  0.34896068066E-01  0.51100000000E-03 0. -1.
</event>
<event>
 8    1  0.1054833E+005  0.1043930E+01  0.7957747E-01            NaN
         13   -1    0    0    0    0  0.00000000000E+00  0.00000000000E+00  0.74505805969E-08  0.10566000000E+00  0.10566000000E+00 0. -1.
     999900   -1    0    0    0    0 -0.00000000000E+00 -0.00000000000E+00 -0.74505805969E-08  0.93827000000E+00  0.93827000000E+00 0. -1.
     999902    2    1    2    0    0 -0.10761429338E-01  0.19560276618E-01 -0.14864707082E-01  0.10171088833E+01  0.10167551860E+01 0.  0.
     999903    2    3    3    0    0 -0.12627295788E+00 -0.82039807749E-02  0.10959254995E-01  0.12875048480E+00  0.21081197163E-01 0.  0.
         14    1    1    2    0    0  0.10761429338E-01 -0.19560276618E-01  0.14864707082E-01  0.26821116670E-01  0.00000000000E+00 0. -1.
     999901    1    3    3    0    0  0.11551152855E+00  0.27764257393E-01 -0.25823962077E-01  0.88835839853E+00  0.88000000000E+00 0. -1.
        -11    1    4    4    0    0 -0.68719996783E-01  0.22091923022E-02  0.14054023134E-01  0.70179022334E-01  0.51100000000E-03 0.  1.
         11    1    4    4    0    0 -0.57552961101E-01 -0.10413173077E-01 -0.30947681390E-02  0.58571462470E-01  0.51100000000E-03 0. -1.
</event>
<event>
 8    1  0.1054833E+005  0.1043930E+01  0.7957747E-01            NaN
         13   -1    0    0    0    0  0.00000000000E+00  0.00000000000E+00  0.74505805969E-08  0.10566000000E+00  0.10566000000E+00 0.  1.
     999900   -1    0    0    0    0 -0.00000000000E+00 -0.00000000000E+00 -0.74505805969E-08  0.93827000000E+00  0.93827000000E+00 0. -1.
     999902    2    1    2    0    0  0.10597903767E-01 -0.13525762848E-01 -0.19023568189E-01  0.10182949074E+01  0.10179721806E+01 0.  0.
     999903    2    3    3    0    0 -0.12394026684E+00  0.13265676120E-02  0.25640042844E-01  0.12682648441E+00  0.80371527478E-02 0.  0.
         14    1    1    2    0    0 -0.10597903767E-01  0.13525762848E-01  0.19023568189E-01  0.25635092578E-01  0.00000000000E+00 0. -1.
     999901    1    3    3    0    0  0.13453817061E+00 -0.14852330460E-01 -0.44663611032E-01  0.89146842301E+00  0.88000000000E+00 0. -1.
        -11    1    4    4    0    0 -0.91287419226E-01  0.40952121676E-02  0.20499836855E-01  0.93651845170E-01  0.51100000000E-03 0. -1.
         11    1    4    4    0    0 -0.32652847619E-01 -0.27686445555E-02  0.51402059887E-02  0.33174639243E-01  0.51100000000E-03 0.  1.
</event>
<event>
 8    1  0.1054833E+005  0.1043930E+01  0.7957747E-01            NaN
         13   -1    0    0    0    0  0.00000000000E+00  0.00000000000E+00  0.74505805969E-08  0.10566000000E+00  0.10566000000E+00 0. -1.
     999900   -1    0    0    0    0 -0.00000000000E+00 -0.00000000000E+00 -0.74505805969E-08  0.93827000000E+00  0.93827000000E+00 0. -1.
     999902    2    1    2    0    0 -0.60012622334E-02 -0.20253092330E-01  0.10698897700E-01  0.10202515434E+01  0.10199767362E+01 0.  0.
     999903    2    3    3    0    0 -0.91814215853E-02  0.12361373484E+00  0.26838276383E-01  0.12841733403E+00  0.20151046021E-01 0.  0.
         14    1    1    2    0    0  0.60012622334E-02  0.20253092330E-01 -0.10698897700E-01  0.23678456650E-01  0.00000000000E+00 0. -1.
     999901    1    3    3    0    0  0.31801593519E-02 -0.14386682717E+00 -0.16139378683E-01  0.89183420932E+00  0.88000000000E+00 0.  1.
        -11    1    4    4    0    0 -0.37599192766E-02  0.10132763760E+00  0.14688674016E-01  0.10245704173E+00  0.51100000000E-03 0.  1.
         11    1    4    4    0    0 -0.54215023087E-02  0.22286097242E-01  0.12149602366E-01  0.25960292298E-01  0.51100000000E-03 0. -1.
</event>
<event>
 8    1  0.1054833E+005  0.1043930E+01  0.7957747E-01            NaN
         13   -1    0    0    0    0  0.00000000000E+00  0.00000000000E+00  0.74505805969E-08  0.10566000000E+00  0.10566000000E+00 0.  1.
     999900   -1    0    0    0    0 -0.00000000000E+00 -0.00000000000E+00 -0.74505805969E-08  0.93827000000E+00  0.93827000000E+00 0. -1.
     999902    2    1    2    0    0  0.93886360478E-02  0.19789980451E-01 -0.12035540112E-01  0.10189371202E+01  0.10186305567E+01 0.  0.
     999903    2    3    3    0    0 -0.80356815310E-01 -0.52189814429E-01  0.79338001149E-01  0.12675750774E+00  0.24330081082E-01 0.  0.
         14    1    1    2    0    0 -0.93886360478E-02 -0.19789980451E-01  0.12035540112E-01  0.24992879763E-01  0.00000000000E+00 0.  1.
     999901    1    3    3    0    0  0.89745451358E-01  0.71979794880E-01 -0.91373541261E-01  0.89217961250E+00  0.88000000000E+00 0. -1.
        -11    1    4    4    0    0 -0.39485001358E-01 -0.36585713301E-01  0.53752500850E-01  0.76073465930E-01  0.51100000000E-03 0.  1.
         11    1    4    4    0    0 -0.40871813952E-01 -0.15604101128E-01  0.25585500299E-01  0.50684041811E-01  0.51100000000E-03 0. -1.
</event>
<event>
 8    1  0.1054833E+005  0.1043930E+01  0.7957747E-01            NaN
         13   -1    0    0    0    0  0.00000000000E+00  0.00000000000E+00  0.74505805969E-08  0.10566000000E+00  0.10566000000E+00 0. -1.
     999900   -1    0    0    0    0 -0.00000000000E+00 -0.00000000000E+00 -0.74505805969E-08  0.93827000000E+00  0.93827000000E+00 0. -1.
     999902    2    1    2    0    0  0.15947963832E-01  0.17171537022E-01 -0.93030438550E-03  0.10204765418E+01  0.10202069926E+01 0.  0.
     999903    2    3    3    0    0 -0.10486409834E+00 -0.64426874025E-01 -0.28189900511E-01  0.12806579523E+00  0.21421395893E-01 0.  0.
         14    1    1    2    0    0 -0.15947963832E-01 -0.17171537022E-01  0.93030438550E-03  0.23453458174E-01  0.00000000000E+00 0. -1.
     999901    1    3    3    0    0  0.12081206217E+00  0.81598411047E-01  0.27259596125E-01  0.89241074659E+00  0.88000000000E+00 0.  1.
        -11    1    4    4    0    0 -0.77612947358E-01 -0.57617130085E-01 -0.19047903168E-01  0.98522012834E-01  0.51100000000E-03 0.  1.
         11    1    4    4    0    0 -0.27251150978E-01 -0.68097439407E-02 -0.91419973432E-02  0.29543782401E-01  0.51100000000E-03 0. -1.
</event>
<event>
 8    1  0.1054833E+005  0.1043930E+01  0.7957747E-01            NaN
         13   -1    0    0    0    0  0.00000000000E+00  0.00000000000E+00  0.74505805969E-08  0.10566000000E+00  0.10566000000E+00 0.  1.
     999900   -1    0    0    0    0 -0.00000000000E+00 -0.00000000000E+00 -0.74505805969E-08  0.93827000000E+00  0.93827000000E+00 0. -1.
     999902    2    1    2    0    0  0.70325795602E-02  0.21958618352E-01 -0.50384646401E-02  0.10203286394E+01  0.10200556398E+01 0.  0.
     999903    2    3    3    0    0  0.84888507911E-02 -0.21878475825E-01  0.12571773465E+00  0.12958681644E+00  0.20906121080E-01 0.  0.
         14    1    1    2    0    0 -0.70325795602E-02 -0.21958618352E-01  0.50384646401E-02  0.23601360578E-01  0.00000000000E+00 0. -1.
     999901    1    3    3    0    0 -0.14562712309E-02  0.43837094177E-01 -0.13075619929E+00  0.89074182298E+00  0.88000000000E+00 0. -1.
        -11    1    4    4    0    0  0.12000712852E-01 -0.13968614270E-01  0.48452351894E-01  0.51836577999E-01  0.51100000000E-03 0.  1.
         11    1    4    4    0    0 -0.35118620613E-02 -0.79098615549E-02  0.77265382754E-01  0.77750238444E-01  0.51100000000E-03 0. -1.
</event>
<event>
 8    1  0.1054833E+005  0.1043930E+01  0.7957747E-01            NaN
         13   -1    0    0    0    0  0.00000000000E+00  0.00000000000E+00  0.74505805969E-08  0.10566000000E+00  0.10566000000E+00 0. -1.
     999900   -1    0    0    0    0 -0.00000000000E+00 -0.00000000000E+00 -0.74505805969E-08  0.93827000000E+00  0.93827000000E+00 0. -1.
     999902    2    1    2    0    0  0.22899737523E-01 -0.11224080545E-02 -0.84461608752E-03  0.10209872200E+01  0.10207294119E+01 0.  0.
     999903    2    3    3    0    0 -0.28100098414E-01  0.99466591705E-01 -0.77181833212E-01  0.13051178469E+00  0.19826047761E-01 0.  0.
         14    1    1    2    0    0 -0.22899737523E-01  0.11224080545E-02  0.84461608752E-03  0.22942780015E-01  0.00000000000E+00 0. -1.
     999901    1    3    3    0    0  0.50999835937E-01 -0.10058899976E+00  0.76337217125E-01  0.89047543529E+00  0.88000000000E+00 0.  1.
        -11    1    4    4    0    0 -0.25000387068E-01  0.61398256949E-01 -0.41319646526E-01  0.78117473205E-01  0.51100000000E-03 0. -1.
         11    1    4    4    0    0 -0.30997113466E-02  0.38068334756E-01 -0.35862186686E-01  0.52394311489E-01  0.51100000000E-03 0.  1.
</event>
<event>
 8    1  0.1054833E+005  0.1043930E+01  0.7957747E-01            NaN
         13   -1    0    0    0    0  0.00000000000E+00  0.00000000000E+00  0.74505805969E-08  0.10566000000E+00  0.10566000000E+00 0. -1.
     999900   -1    0    0    0    0 -0.00000000000E+00 -0.00000000000E+00 -0.74505805969E-08  0.93827000000E+00  0.93827000000E+00 0. -1.
     999902    2    1    2    0    0 -0.72995593680E-02 -0.21766259712E-01  0.54195760036E-02  0.10203413283E+01  0.10200686255E+01 0.  0.
     999903    2    3    3    0    0  0.11073349639E+00  0.61900860802E-01  0.68617518239E-02  0.12852628627E+00  0.19449905736E-01 0.  0.
         14    1    1    2    0    0  0.72995593680E-02  0.21766259712E-01 -0.54195760036E-02  0.23588671707E-01  0.00000000000E+00 0. -1.
     999901    1    3    3    0    0 -0.11803305576E+00 -0.83667120514E-01 -0.14421758203E-02  0.89181504202E+00  0.88000000000E+00 0. -1.
        -11    1    4    4    0    0  0.56892407179E-01  0.24231336108E-01 -0.37915089413E-02  0.61955954559E-01  0.51100000000E-03 0. -1.
         11    1    4    4    0    0  0.53841089213E-01  0.37669524693E-01  0.10653260765E-01  0.66570331712E-01  0.51100000000E-03 0.  1.
</event>
<event>
 8    1  0.1054833E+005  0.1043930E+01  0.7957747E-01            NaN
         13   -1    0    0    0    0  0.00000000000E+00  0.00000000000E+00  0.74505805969E-08  0.10566000000E+00  0.10566000000E+00 0.  1.
     999900   -1    0    0    0    0 -0.00000000000E+00 -0.00000000000E+00 -0.74505805969E-08  0.93827000000E+00  0.93827000000E+00 0. -1.
     999902    2    1    2    0    0 -0.13176924506E-01  0.17513442479E-01  0.75764582568E-02  0.10207404608E+01  0.10204770128E+01 0.  0.
     999903    2    3    3    0    0 -0.66549319959E-02  0.28015870024E-01 -0.12598374106E+00  0.13057690047E+00  0.18688146825E-01 0.  0.
         14    1    1    2    0    0  0.13176924506E-01 -0.17513442479E-01 -0.75764582568E-02  0.23189539164E-01  0.00000000000E+00 0.  1.
     999901    1    3    3    0    0 -0.65219925105E-02 -0.10502427545E-01  0.13356019931E+00  0.89016356037E+00  0.88000000000E+00 0.  1.
        -11    1    4    4    0    0 -0.25212960998E-02 -0.18722953998E-02 -0.24371805664E-01  0.24578617871E-01  0.51100000000E-03 0.  1.
         11    1    4    4    0    0 -0.41336358961E-02  0.29888165423E-01 -0.10161193539E+00  0.10599828260E+00  0.51100000000E-03 0. -1.
</event>
<event>
 8    1  0.1200542E+005  0.1043930E+01  0.7957747E-01            NaN
         13   -1    0    0    0    0  0.00000000000E+00  0.00000000000E+00  0.74505805969E-08  0.10566000000E+00  0.10566000000E+00 0.  1.
     999900   -1    0    0    0    0 -0.00000000000E+00 -0.00000000000E+00 -0.74505805969E-08  0.93827000000E+00  0.93827000000E+00 0. -1.
     999902    2    1    2    0    0  0.16835647501E-01  0.16321588918E-01  0.54850585438E-02  0.10198484893E+01  0.10195641333E+01 0.  0.
     999903    2    3    3    0    0  0.10314581953E+00  0.59739875129E-01  0.55548647434E-01  0.13314619633E+00  0.20840935694E-01 0.  0.
         14    1    1    2    0    0 -0.16835647501E-01 -0.16321588918E-01 -0.54850585438E-02  0.24081510725E-01  0.00000000000E+00 0. -1.
     999901    1    3    3    0    0 -0.86310172025E-01 -0.43418286211E-01 -0.50063588890E-01  0.88670229294E+00  0.88000000000E+00 0. -1.
        -11    1    4    4    0    0  0.80704173781E-01  0.37353155278E-01  0.36274649109E-01  0.96044433278E-01  0.51100000000E-03 0. -1.
         11    1    4    4    0    0  0.22441645745E-01  0.22386719851E-01  0.19273998325E-01  0.37101763056E-01  0.51100000000E-03 0.  1.
</event>
<event>
 8    1  0.1054833E+005  0.1043930E+01  0.7957747E-01            NaN
         13   -1    0    0    0    0  0.00000000000E+00  0.00000000000E+00  0.74505805969E-08  0.10566000000E+00  0.10566000000E+00 0. -1.
     999900   -1    0    0    0    0 -0.00000000000E+00 -0.00000000000E+00 -0.74505805969E-08  0.93827000000E+00  0.93827000000E+00 0. -1.
     999902    2    1    2    0    0  0.19506656516E-01 -0.58497501401E-02  0.11129547268E-01  0.10207223278E+01  0.10204584629E+01 0.  0.
     999903    2    3    3    0    0 -0.11143747952E-01  0.73079931470E-01 -0.10417391324E+00  0.12917074215E+00  0.19183767205E-01 0.  0.
         14    1    1    2    0    0 -0.19506656516E-01  0.58497501401E-02 -0.11129547268E-01  0.23207672169E-01  0.00000000000E+00 0. -1.
     999901    1    3    3    0    0  0.30650404468E-01 -0.78929681610E-01  0.11530346051E+00  0.89155158569E+00  0.88000000000E+00 0.  1.
        -11    1    4    4    0    0  0.39167649115E-03  0.44440964416E-01 -0.71708227478E-01  0.84365180837E-01  0.51100000000E-03 0.  1.
         11    1    4    4    0    0 -0.11535424443E-01  0.28638967053E-01 -0.32465685764E-01  0.44805561308E-01  0.51100000000E-03 0. -1.
</event>
<event>
 8    1  0.1054833E+005  0.1043930E+01  0.7957747E-01            NaN
         13   -1    0    0    0    0  0.00000000000E+00  0.00000000000E+00  0.74505805969E-08  0.10566000000E+00  0.10566000000E+00 0.  1.
     999900   -1    0    0    0    0 -0.00000000000E+00 -0.00000000000E+00 -0.74505805969E-08  0.93827000000E+00  0.93827000000E+00 0. -1.
     999902    2    1    2    0    0  0.16717566508E-01 -0.11103848181E-01 -0.59894576673E-02  0.10229861208E+01  0.10227717034E+01 0.  0.
     999903    2    3    3    0    0 -0.43662200590E-01  0.11558304355E+00  0.37795324011E-01  0.13079085519E+00  0.20296146576E-01 0.  0.
         14    1    1    2    0    0 -0.16717566508E-01  0.11103848181E-01  0.59894576673E-02  0.20943879238E-01  0.00000000000E+00 0.  1.
     999901    1    3    3    0    0  0.60379767098E-01 -0.12668689173E+00 -0.43784781678E-01  0.89219526558E+00  0.88000000000E+00 0.  1.
        -11    1    4    4    0    0 -0.37437698290E-01  0.76864400006E-01  0.31243697577E-01  0.91028275832E-01  0.51100000000E-03 0.  1.
         11    1    4    4    0    0 -0.62245023000E-02  0.38718643546E-01  0.65516264337E-02  0.39762579354E-01  0.51100000000E-03 0. -1.
</event>
<event>
 8    1  0.1054833E+005  0.1043930E+01  0.7957747E-01            NaN
         13   -1    0    0    0    0  0.00000000000E+00  0.00000000000E+00  0.74505805969E-08  0.10566000000E+00  0.10566000000E+00 0.  1.
     999900   -1    0    0    0    0 -0.00000000000E+00 -0.00000000000E+00 -0.74505805969E-08  0.93827000000E+00  0.93827000000E+00 0.  1.
     999902    2    1    2    0    0  0.17203914401E-01 -0.14197603350E-02  0.11671502861E-01  0.10230921890E+01  0.10228799601E+01 0.  0.
     999903    2    3    3    0    0 -0.57351425969E-01  0.49316601598E-01 -0.10495980119E+00  0.13082791292E+00  0.19444013964E-01 0.  0.
         14    1    1    2    0    0 -0.17203914401E-01  0.14197603350E-02 -0.11671502861E-01  0.20837811045E-01  0.00000000000E+00 0. -1.
     999901    1    3    3    0    0  0.74555340370E-01 -0.50736361933E-01  0.11663130405E+00  0.89226427603E+00  0.88000000000E+00 0. -1.
        -11    1    4    4    0    0 -0.30530942811E-01  0.37719934292E-01 -0.71334168545E-01  0.86277208085E-01  0.51100000000E-03 0. -1.
         11    1    4    4    0    0 -0.26820483158E-01  0.11596667306E-01 -0.33625632648E-01  0.44550704837E-01  0.51100000000E-03 0.  1.
</event>
<event>
 8    1  0.1054833E+005  0.1043930E+01  0.7957747E-01            NaN
         13   -1    0    0    0    0  0.00000000000E+00  0.00000000000E+00  0.74505805969E-08  0.10566000000E+00  0.10566000000E+00 0. -1.
     999900   -1    0    0    0    0 -0.00000000000E+00 -0.00000000000E+00 -0.74505805969E-08  0.93827000000E+00  0.93827000000E+00 0.  1.
     999902    2    1    2    0    0  0.15670695393E-01  0.17373711629E-01 -0.30758515525E-02  0.10203317498E+01  0.10200588229E+01 0.  0.
     999903    2    3    3    0    0  0.63243331568E-01 -0.12813313049E-02 -0.11410141385E+00  0.13188487923E+00  0.19316519553E-01 0.  0.
         14    1    1    2    0    0 -0.15670695393E-01 -0.17373711629E-01  0.30758515525E-02  0.23598250203E-01  0.00000000000E+00 0.  1.
     999901    1    3    3    0    0 -0.47572636175E-01  0.18655042934E-01  0.11102556230E+00  0.88844687057E+00  0.88000000000E+00 0. -1.
        -11    1    4    4    0    0  0.32993292247E-01 -0.49586623550E-03 -0.78520773372E-01  0.85173799895E-01  0.51100000000E-03 0. -1.
         11    1    4    4    0    0  0.30250039321E-01 -0.78546506938E-03 -0.35580640482E-01  0.46711079333E-01  0.51100000000E-03 0.  1.
</event>
<event>
 8    1  0.1070995E+005  0.1043930E+01  0.7957747E-01            NaN
         13   -1    0    0    0    0  0.00000000000E+00  0.00000000000E+00  0.74505805969E-08  0.10566000000E+00  0.10566000000E+00 0.  1.
     999900   -1    0    0    0    0 -0.00000000000E+00 -0.00000000000E+00 -0.74505805969E-08  0.93827000000E+00  0.93827000000E+00 0.  1.
     999902    2    1    2    0    0 -0.17072325997E-01  0.14463345391E-01  0.66234722659E-02  0.10205949821E+01  0.10203281798E+01 0.  0.
     999903    2    3    3    0    0 -0.12189803265E+00  0.42080165216E-01 -0.28013767147E-01  0.13326705183E+00  0.18586696462E-01 0.  0.
         14    1    1    2    0    0  0.17072325997E-01 -0.14463345391E-01 -0.66234722659E-02  0.23335017886E-01  0.00000000000E+00 0.  1.
     999901    1    3    3    0    0  0.10482570665E+00 -0.27616819824E-01  0.34637239413E-01  0.88732793029E+00  0.88000000000E+00 0.  1.
        -11    1    4    4    0    0 -0.55690534192E-01  0.24138230577E-01 -0.49676465597E-02  0.60901793137E-01  0.51100000000E-03 0. -1.
         11    1    4    4    0    0 -0.66207498455E-01  0.17941934638E-01 -0.23046120588E-01  0.72365258691E-01  0.51100000000E-03 0.  1.
</event>
<event>
 8    1  0.1054833E+005  0.1043930E+01  0.7957747E-01            NaN
         13   -1    0    0    0    0  0.00000000000E+00  0.00000000000E+00  0.74505805969E-08  0.10566000000E+00  0.10566000000E+00 0. -1.
     999900   -1    0    0    0    0 -0.00000000000E+00 -0.00000000000E+00 -0.74505805969E-08  0.93827000000E+00  0.93827000000E+00 0. -1.
     999902    2    1    2    0    0 -0.20309121011E-02 -0.12995567930E-01  0.19233144537E-01  0.10206292867E+01  0.10203632773E+01 0.  0.
     999903    2    3    3    0    0 -0.12597045894E+00  0.13080544474E-01 -0.23301783580E-01  0.13054491151E+00  0.21432303508E-01 0.  0.
         14    1    1    2    0    0  0.20309121011E-02  0.12995567930E-01 -0.19233144537E-01  0.23300713263E-01  0.00000000000E+00 0.  1.
     999901    1    3    3    0    0  0.12393954684E+00 -0.26076112403E-01  0.42534928117E-01  0.89008437522E+00  0.88000000000E+00 0.  1.
        -11    1    4    4    0    0 -0.74805338144E-01 -0.15305223755E-02 -0.18758880866E-01  0.77138433001E-01  0.51100000000E-03 0. -1.
         11    1    4    4    0    0 -0.51165120799E-01  0.14611066849E-01 -0.45429027140E-02  0.53406478511E-01  0.51100000000E-03 0.  1.
</event>
<event>
 8    1  0.1054833E+005  0.1043930E+01  0.7957747E-01            NaN
         13   -1    0    0    0    0  0.00000000000E+00  0.00000000000E+00  0.74505805969E-08  0.10566000000E+00  0.10566000000E+00 0. -1.
     999900   -1    0    0    0    0 -0.00000000000E+00 -0.00000000000E+00 -0.74505805969E-08  0.93827000000E+00  0.93827000000E+00 0.  1.
     999902    2    1    2    0    0 -0.19635599319E-01 -0.12432132611E-01 -0.54241831014E-02  0.10200650373E+01  0.10197858324E+01 0.  0.
     999903    2    3    3    0    0  0.28595326875E-01 -0.11788611018E+00  0.45161972267E-01  0.13101738800E+00  0.20276205923E-01 0.  0.
         14    1    1    2    0    0  0.19635599319E-01  0.12432132611E-01  0.54241831014E-02  0.23864962690E-01  0.00000000000E+00 0.  1.
     999901    1    3    3    0    0 -0.48230926194E-01  0.10545397757E+00 -0.50586155369E-01  0.88904764931E+00  0.88000000000E+00 0. -1.
        -11    1    4    4    0    0  0.25609487066E-01 -0.91793165019E-01  0.43322357103E-01  0.10468485429E+00  0.51100000000E-03 0.  1.
         11    1    4    4    0    0  0.29858398087E-02 -0.26092945162E-01  0.18396151646E-02  0.26332533710E-01  0.51100000000E-03 0. -1.
</event>
<event>
 8    1  0.1054833E+005  0.1043930E+01  0.7957747E-01            NaN
         13   -1    0    0    0    0  0.00000000000E+00  0.00000000000E+00  0.74505805969E-08  0.10566000000E+00  0.10566000000E+00 0. -1.
     999900   -1    0    0    0    0 -0.00000000000E+00 -0.00000000000E+00 -0.74505805969E-08  0.93827000000E+00  0.93827000000E+00 0.  1.
     999902    2    1    2    0    0 -0.11418655916E-01  0.56424765354E-02  0.21284358958E-01  0.10191258233E+01  0.10188239282E+01 0.  0.
     999903    2    3    3    0    0  0.46623335566E-01 -0.92938231619E-01 -0.69998793713E-01  0.12703858389E+00  0.20681401304E-01 0.  0.
         14    1    1    2    0    0  0.11418655916E-01 -0.56424765354E-02 -0.21284358958E-01  0.24804176677E-01  0.00000000000E+00 0.  1.
     999901    1    3    3    0    0 -0.58041991483E-01  0.98580708154E-01  0.91283152671E-01  0.89208723943E+00  0.88000000000E+00 0. -1.
        -11    1    4    4    0    0  0.46023156509E-01 -0.87935728510E-01 -0.60401268316E-01  0.11618690812E+00  0.51100000000E-03 0.  1.
         11    1    4    4    0    0  0.60017905741E-03 -0.50025031086E-02 -0.95975253970E-02  0.10851675769E-01  0.51100000000E-03 0. -1.
</event>
<event>
 8    1  0.1054833E+005  0.1043930E+01  0.7957747E-01            NaN
         13   -1    0    0    0    0  0.00000000000E+00  0.00000000000E+00  0.74505805969E-08  0.10566000000E+00  0.10566000000E+00 0.  1.
     999900   -1    0    0    0    0 -0.00000000000E+00 -0.00000000000E+00 -0.74505805969E-08  0.93827000000E+00  0.93827000000E+00 0. -1.
     999902    2    1    2    0    0 -0.20972658959E-01 -0.46524859991E-02 -0.35383550416E-02  0.10221580454E+01  0.10219261479E+01 0.  0.
     999903    2    3    3    0    0 -0.92202215406E-01  0.85889163755E-01  0.39771839148E-01  0.13359335280E+00  0.19677086847E-01 0.  0.
         14    1    1    2    0    0  0.20972658959E-01  0.46524859991E-02  0.35383550416E-02  0.21771954579E-01  0.00000000000E+00 0.  1.
     999901    1    3    3    0    0  0.71229556447E-01 -0.90541649755E-01 -0.43310194189E-01  0.88856469262E+00  0.88000000000E+00 0.  1.
        -11    1    4    4    0    0 -0.57943006908E-01  0.45015219491E-01  0.30480818146E-01  0.79455040313E-01  0.51100000000E-03 0. -1.
         11    1    4    4    0    0 -0.34259208499E-01  0.40873944264E-01  0.92910210015E-02  0.54138312487E-01  0.51100000000E-03 0.  1.
</event>
<event>
 8    1  0.1054833E+005  0.1043930E+01  0.7957747E-01            NaN
         13   -1    0    0    0    0  0.00000000000E+00  0.00000000000E+00  0.74505805969E-08  0.10566000000E+00  0.10566000000E+00 0.  1.
     999900   -1    0    0    0    0 -0.00000000000E+00 -0.00000000000E+00 -0.74505805969E-08  0.93827000000E+00  0.93827000000E+00 0.  1.
     999902    2    1    2    0    0  0.14604724452E-01 -0.10494160253E-01  0.15207015908E-01  0.10203783820E+01  0.10201065453E+01 0.  0.
     999903    2    3    3    0    0 -0.91550508169E-01  0.27042895796E-01  0.86316091659E-01  0.13035902009E+00  0.20741086776E-01 0.  0.
         14    1    1    2    0    0 -0.14604724452E-01  0.10494160253E-01 -0.15207015908E-01  0.23551617961E-01  0.00000000000E+00 0. -1.
     999901    1    3    3    0    0  0.10615523262E+00 -0.37537056050E-01 -0.71109075751E-01  0.89001936195E+00  0.88000000000E+00 0.  1.
        -11    1    4    4    0    0 -0.23455067715E-01  0.43443011769E-02  0.10861115990E-01  0.26215226793E-01  0.51100000000E-03 0.  1.
         11    1    4    4    0    0 -0.68095440453E-01  0.22698594619E-01  0.75454975669E-01  0.10414379330E+00  0.51100000000E-03 0. -1.
</event>
<event>
 8    1  0.1098679E+005  0.1043930E+01  0.7957747E-01            NaN
         13   -1    0    0    0    0  0.00000000000E+00  0.00000000000E+00  0.74505805969E-08  0.10566000000E+00  0.10566000000E+00 0. -1.
     999900   -1    0    0    0    0 -0.00000000000E+00 -0.00000000000E+00 -0.74505805969E-08  0.93827000000E+00  0.93827000000E+00 0.  1.
     999902    2    1    2    0    0  0.72387314053E-02  0.19549456884E-01  0.10029456059E-01  0.10207962479E+01  0.10205340804E+01 0.  0.
     999903    2    3    3    0    0  0.30118182743E-01 -0.11947321773E+00 -0.30875160165E-01  0.12865054177E+00  0.20414007353E-01 0.  0.
         14    1    1    2    0    0 -0.72387314053E-02 -0.19549456884E-01 -0.10029456059E-01  0.23133752088E-01  0.00000000000E+00 0.  1.
     999901    1    3    3    0    0 -0.22879451338E-01  0.13902267462E+00  0.40904616225E-01  0.89214570614E+00  0.88000000000E+00 0.  1.
        -11    1    4    4    0    0  0.14752391273E-01 -0.47857258456E-01 -0.26472950854E-02  0.50151964343E-01  0.51100000000E-03 0.  1.
         11    1    4    4    0    0  0.15365791470E-01 -0.71615959278E-01 -0.28227865080E-01  0.78498577431E-01  0.51100000000E-03 0. -1.
</event>
<event>
 8    1  0.1054833E+005  0.1043930E+01  0.7957747E-01            NaN
         13   -1    0    0    0    0  0.00000000000E+00  0.00000000000E+00  0.74505805969E-08  0.10566000000E+00  0.10566000000E+00 0. -1.
     999900   -1    0    0    0    0 -0.00000000000E+00 -0.00000000000E+00 -0.74505805969E-08  0.93827000000E+00  0.93827000000E+00 0. -1.
     999902    2    1    2    0    0  0.11900780404E-01 -0.39081915338E-02 -0.20763747205E-01  0.10196805519E+01  0.10193921680E+01 0.  0.
     999903    2    3    3    0    0  0.57031194502E-01  0.37554703124E-01  0.10674129034E+00  0.12838180259E+00  0.20622107063E-01 0.  0.
         14    1    1    2    0    0 -0.11900780404E-01  0.39081915338E-02  0.20763747205E-01  0.24249448103E-01  0.00000000000E+00 0. -1.
     999901    1    3    3    0    0 -0.45130414097E-01 -0.41462894658E-01 -0.12750503755E+00  0.89129874930E+00  0.88000000000E+00 0.  1.
        -11    1    4    4    0    0  0.18433957792E-01  0.20339552034E-02  0.33475464809E-01  0.38272909987E-01  0.51100000000E-03 0.  1.
         11    1    4    4    0    0  0.38597236710E-01  0.35520747921E-01  0.73265825534E-01  0.90108892606E-01  0.51100000000E-03 0. -1.
</event>
<event>
 8    1  0.1054833E+005  0.1043930E+01  0.7957747E-01            NaN
         13   -1    0    0    0    0  0.00000000000E+00  0.00000000000E+00  0.74505805969E-08  0.10566000000E+00  0.10566000000E+00 0.  1.
     999900   -1    0    0    0    0 -0.00000000000E+00 -0.00000000000E+00 -0.74505805969E-08  0.93827000000E+00  0.93827000000E+00 0. -1.
     999902    2    1    2    0    0  0.14780204627E-01  0.14074483972E-02  0.18477151318E-01  0.10202268255E+01  0.10199514376E+01 0.  0.
     999903    2    3    3    0    0 -0.87293038932E-01 -0.73278735010E-01  0.60797035884E-01  0.13017741921E+00  0.16125546449E-01 0.  0.
         14    1    1    2    0    0 -0.14780204627E-01 -0.14074483972E-02 -0.18477151318E-01  0.23703174484E-01  0.00000000000E+00 0. -1.
     999901    1    3    3    0    0  0.10207324356E+00  0.74686183407E-01 -0.42319884566E-01  0.89004940631E+00  0.88000000000E+00 0. -1.
        -11    1    4    4    0    0 -0.59187763866E-01 -0.41928426757E-01  0.32764035030E-01  0.79592257628E-01  0.51100000000E-03 0. -1.
         11    1    4    4    0    0 -0.28105275066E-01 -0.31350308252E-01  0.28033000854E-01  0.50585161579E-01  0.51100000000E-03 0.  1.
</event>
<event>
 7    1  0.1054833E+005  0.1043930E+01  0.7957747E-01            NaN
         13   -1    0    0    0    0  0.00000000000E+00  0.00000000000E+00  0.74505805969E-08  0.10566000000E+00  0.10566000000E+00 0.  1.
     999900   -1    0    0    0    0 -0.00000000000E+00 -0.00000000000E+00 -0.74505805969E-08  0.93827000000E+00  0.93827000000E+00 0.  1.
     999903    2    1    2    0    0 -0.53838325868E-01 -0.65441493937E-01 -0.31790105106E-01  0.92621635359E-01  0.19672368769E-01 0.  0.
         14    1    1    2    0    0 -0.81348700224E-02 -0.35561383383E-01  0.51542479441E-01  0.63145983921E-01  0.00000000000E+00 0.  1.
     999901    1    1    2    0    0  0.61973195890E-01  0.10100287732E+00 -0.19752374335E-01  0.88816238072E+00  0.88000000000E+00 0.  1.
        -11    1    3    3    0    0 -0.31279957552E-01 -0.22716504305E-01 -0.15013479607E-01  0.41474582617E-01  0.51100000000E-03 0. -1.
         11    1    3    3    0    0 -0.22558368316E-01 -0.42724989631E-01 -0.16776625499E-01  0.51147052742E-01  0.51100000000E-03 0.  1.
</event>
<event>
 8    1  0.1054833E+005  0.1043930E+01  0.7957747E-01            NaN
         13   -1    0    0    0    0  0.00000000000E+00  0.00000000000E+00  0.74505805969E-08  0.10566000000E+00  0.10566000000E+00 0.  1.
     999900   -1    0    0    0    0 -0.00000000000E+00 -0.00000000000E+00 -0.74505805969E-08  0.93827000000E+00  0.93827000000E+00 0. -1.
     999902    2    1    2    0    0  0.22401500185E-01 -0.66244963537E-02 -0.22310760648E-02  0.10204632392E+01  0.10201933805E+01 0.  0.
     999903    2    3    3    0    0 -0.47897479877E-02 -0.26567906951E-01  0.12614746486E+00  0.13050922163E+00  0.19765593187E-01 0.  0.
         14    1    1    2    0    0 -0.22401500185E-01  0.66244963537E-02  0.22310760648E-02  0.23466760809E-01  0.00000000000E+00 0. -1.
     999901    1    3    3    0    0  0.27191248173E-01  0.19943410597E-01 -0.12837854093E+00  0.88995401756E+00  0.88000000000E+00 0. -1.
        -11    1    4    4    0    0  0.47626334894E-02 -0.22597672240E-01  0.86508456291E-01  0.89539441585E-01  0.51100000000E-03 0.  1.
         11    1    4    4    0    0 -0.95523814771E-02 -0.39702347109E-02  0.39639008569E-01  0.40969780045E-01  0.51100000000E-03 0. -1.
</event>
<event>
 8    1  0.1054833E+005  0.1043930E+01  0.7957747E-01            NaN
         13   -1    0    0    0    0  0.00000000000E+00  0.00000000000E+00  0.74505805969E-08  0.10566000000E+00  0.10566000000E+00 0. -1.
     999900   -1    0    0    0    0 -0.00000000000E+00 -0.00000000000E+00 -0.74505805969E-08  0.93827000000E+00  0.93827000000E+00 0. -1.
     999902    2    1    2    0    0  0.89629708625E-02 -0.21042109560E-01 -0.27713627858E-02  0.10208912137E+01  0.10206312187E+01 0.  0.
     999903    2    3    3    0    0  0.51625806882E-01  0.23943152112E-01  0.11599804993E+00  0.13075079517E+00  0.20043063149E-01 0.  0.
         14    1    1    2    0    0 -0.89629708625E-02  0.21042109560E-01  0.27713627858E-02  0.23038786277E-01  0.00000000000E+00 0. -1.
     999901    1    3    3    0    0 -0.42662836019E-01 -0.44985261672E-01 -0.11876941272E+00  0.89014041855E+00  0.88000000000E+00 0. -1.
        -11    1    4    4    0    0 -0.51512467597E-03  0.37652689676E-02  0.13024831733E-01  0.13577553775E-01  0.51100000000E-03 0. -1.
         11    1    4    4    0    0  0.52140931558E-01  0.20177883144E-01  0.10297321820E+00  0.11717324139E+00  0.51100000000E-03 0.  1.
</event>
<event>
 8    1  0.1054833E+005  0.1043930E+01  0.7957747E-01            NaN
         13   -1    0    0    0    0  0.00000000000E+00  0.00000000000E+00  0.74505805969E-08  0.10566000000E+00  0.10566000000E+00 0.  1.
     999900   -1    0    0    0    0 -0.00000000000E+00 -0.00000000000E+00 -0.74505805969E-08  0.93827000000E+00  0.93827000000E+00 0.  1.
     999902    2    1    2    0    0 -0.18556185001E-01  0.13389234067E-01  0.28627676245E-02  0.10208692318E+01  0.10206087347E+01 0.  0.
     999903    2    3    3    0    0  0.19295617690E-01 -0.76348472248E-03 -0.12724067110E+00  0.13038623749E+00  0.20915993283E-01 0.  0.
         14    1    1    2    0    0  0.18556185001E-01 -0.13389234067E-01 -0.28627676245E-02  0.23060768183E-01  0.00000000000E+00 0. -1.
     999901    1    3    3    0    0 -0.37851802691E-01  0.14152718789E-01  0.13010343872E+00  0.89048299433E+00  0.88000000000E+00 0. -1.
        -11    1    4    4    0    0  0.19376407967E-01  0.68021125783E-02 -0.83263894733E-01  0.85760429152E-01  0.51100000000E-03 0. -1.
         11    1    4    4    0    0 -0.80790277227E-04 -0.75655973008E-02 -0.43976776364E-01  0.44625808340E-01  0.51100000000E-03 0.  1.
</event>
<event>
 8    1  0.1054833E+005  0.1043930E+01  0.7957747E-01            NaN
         13   -1    0    0    0    0  0.00000000000E+00  0.00000000000E+00  0.74505805969E-08  0.10566000000E+00  0.10566000000E+00 0. -1.
     999900   -1    0    0    0    0 -0.00000000000E+00 -0.00000000000E+00 -0.74505805969E-08  0.93827000000E+00  0.93827000000E+00 0.  1.
     999902    2    1    2    0    0 -0.16512710214E-01  0.58932801859E-02  0.14269199629E-01  0.10213244607E+01  0.10210742596E+01 0.  0.
     999903    2    3    3    0    0  0.53447092805E-01 -0.10385546024E+00  0.55309890824E-01  0.13080579249E+00  0.20209477364E-01 0.  0.
         14    1    1    2    0    0  0.16512710214E-01 -0.58932801859E-02 -0.14269199629E-01  0.22605539321E-01  0.00000000000E+00 0.  1.
     999901    1    3    3    0    0 -0.69959803019E-01  0.10974874042E+00 -0.41040691195E-01  0.89051866819E+00  0.88000000000E+00 0. -1.
        -11    1    4    4    0    0  0.28028703163E-01 -0.65825799972E-01  0.42839578787E-01  0.83391455045E-01  0.51100000000E-03 0. -1.
         11    1    4    4    0    0  0.25418389642E-01 -0.38029660264E-01  0.12470312036E-01  0.47414337442E-01  0.51100000000E-03 0.  1.
</event>
<event>
 8    1  0.1054833E+005  0.1043930E+01  0.7957747E-01            NaN
         13   -1    0    0    0    0  0.00000000000E+00  0.00000000000E+00  0.74505805969E-08  0.10566000000E+00  0.10566000000E+00 0.  1.
     999900   -1    0    0    0    0 -0.00000000000E+00 -0.00000000000E+00 -0.74505805969E-08  0.93827000000E+00  0.93827000000E+00 0. -1.
     999902    2    1    2    0    0 -0.11102664950E-01 -0.14026262444E-01  0.15665047102E-01  0.10201518817E+01  0.10198747290E+01 0.  0.
     999903    2    3    3    0    0  0.10973396038E+00 -0.67360607714E-01  0.69826653751E-02  0.13025220978E+00  0.18381703000E-01 0.  0.
         14    1    1    2    0    0  0.11102664950E-01  0.14026262444E-01 -0.15665047102E-01  0.23778118257E-01  0.00000000000E+00 0. -1.
     999901    1    3    3    0    0 -0.12083662533E+00  0.53334345270E-01  0.86823817268E-02  0.88989967196E+00  0.88000000000E+00 0.  1.
        -11    1    4    4    0    0  0.65163881509E-01 -0.50049939254E-01  0.22044435721E-02  0.82197618975E-01  0.51100000000E-03 0. -1.
         11    1    4    4    0    0  0.44570078869E-01 -0.17310668459E-01  0.47782218031E-02  0.48054590806E-01  0.51100000000E-03 0.  1.
</event>
<event>
 8    1  0.1054833E+005  0.1043930E+01  0.7957747E-01            NaN
         13   -1    0    0    0    0  0.00000000000E+00  0.00000000000E+00  0.74505805969E-08  0.10566000000E+00  0.10566000000E+00 0.  1.
     999900   -1    0    0    0    0 -0.00000000000E+00 -0.00000000000E+00 -0.74505805969E-08  0.93827000000E+00  0.93827000000E+00 0. -1.
     999902    2    1    2    0    0 -0.94050838479E-02  0.75826931981E-02 -0.20448671999E-01  0.10201791890E+01  0.10199026800E+01 0.  0.
     999903    2    3    3    0    0  0.10279450311E+00  0.30449578590E-01  0.66778174903E-01  0.12848408155E+00  0.23557331402E-01 0.  0.
         14    1    1    2    0    0  0.94050838479E-02 -0.75826931981E-02  0.20448671999E-01  0.23750811035E-01  0.00000000000E+00 0.  1.
     999901    1    3    3    0    0 -0.11219958696E+00 -0.22866885392E-01 -0.87226846901E-01  0.89169510741E+00  0.88000000000E+00 0. -1.
        -11    1    4    4    0    0  0.43203480701E-01  0.75488673827E-02  0.15232584585E-01  0.46430796866E-01  0.51100000000E-03 0.  1.
         11    1    4    4    0    0  0.59591022412E-01  0.22900711207E-01  0.51545590317E-01  0.82053284688E-01  0.51100000000E-03 0. -1.
</event>
<event>
 8    1  0.1054833E+005  0.1043930E+01  0.7957747E-01            NaN
         13   -1    0    0    0    0  0.00000000000E+00  0.00000000000E+00  0.74505805969E-08  0.10566000000E+00  0.10566000000E+00 0.  1.
     999900   -1    0    0    0    0 -0.00000000000E+00 -0.00000000000E+00 -0.74505805969E-08  0.93827000000E+00  0.93827000000E+00 0. -1.
     999902    2    1    2    0    0 -0.12065579070E-02 -0.55941205223E-03  0.23374040452E-01  0.10205181549E+01  0.10202495724E+01 0.  0.
     999903    2    3    3    0    0  0.19452821742E-01  0.12439216841E+00 -0.25870908303E-01  0.13008861114E+00  0.20047918014E-01 0.  0.
         14    1    1    2    0    0  0.12065579070E-02  0.55941205223E-03 -0.23374040452E-01  0.23411845098E-01  0.00000000000E+00 0. -1.
     999901    1    3    3    0    0 -0.20659379649E-01 -0.12495158046E+00  0.49244948755E-01  0.89042954376E+00  0.88000000000E+00 0. -1.
        -11    1    4    4    0    0  0.12261161494E-01  0.54096387001E-01 -0.20800008064E-01  0.59242354985E-01  0.51100000000E-03 0. -1.
         11    1    4    4    0    0  0.71916602483E-02  0.70295781408E-01 -0.50709002387E-02  0.70846256155E-01  0.51100000000E-03 0.  1.
</event>
<event>
 8    1  0.1054833E+005  0.1043930E+01  0.7957747E-01            NaN
         13   -1    0    0    0    0  0.00000000000E+00  0.00000000000E+00  0.74505805969E-08  0.10566000000E+00  0.10566000000E+00 0. -1.
     999900   -1    0    0    0    0 -0.00000000000E+00 -0.00000000000E+00 -0.74505805969E-08  0.93827000000E+00  0.93827000000E+00 0. -1.
     999902    2    1    2    0    0 -0.65700702808E-02 -0.37514634337E-02  0.22108129780E-01  0.10205631709E+01  0.10202956322E+01 0.  0.
     999903    2    3    3    0    0 -0.11701958035E-01 -0.92639904823E-01 -0.87178494879E-01  0.12934431020E+00  0.20267531258E-01 0.  0.
         14    1    1    2    0    0  0.65700702808E-02  0.37514634337E-02 -0.22108129780E-01  0.23366829134E-01  0.00000000000E+00 0.  1.
     999901    1    3    3    0    0  0.51318877541E-02  0.88888441389E-01  0.10928662466E+00  0.89121886067E+00  0.88000000000E+00 0. -1.
        -11    1    4    4    0    0 -0.69528348536E-02 -0.83202987510E-01 -0.83663477303E-01  0.11819863620E+00  0.51100000000E-03 0. -1.
         11    1    4    4    0    0 -0.47491231812E-02 -0.94369173128E-02 -0.35150175757E-02  0.11145674000E-01  0.51100000000E-03 0.  1.
</event>
<event>
 8    1  0.1054833E+005  0.1043930E+01  0.7957747E-01            NaN
         13   -1    0    0    0    0  0.00000000000E+00  0.00000000000E+00  0.74505805969E-08  0.10566000000E+00  0.10566000000E+00 0. -1.
     999900   -1    0    0    0    0 -0.00000000000E+00 -0.00000000000E+00 -0.74505805969E-08  0.93827000000E+00  0.93827000000E+00 0. -1.
     999902    2    1    2    0    0 -0.11215427193E-01 -0.32787229739E-02 -0.17627652527E-01  0.10227812420E+01  0.10225625648E+01 0.  0.
     999903    2    3    3    0    0 -0.28908271718E-01 -0.46736053080E-01  0.11747591259E+00  0.13123508526E+00  0.20052698918E-01 0.  0.
         14    1    1    2    0    0  0.11215427193E-01  0.32787229739E-02  0.17627652527E-01  0.21148758003E-01  0.00000000000E+00 0. -1.
     999901    1    3    3    0    0  0.17692844525E-01  0.43457330107E-01 -0.13510356511E+00  0.89154615674E+00  0.88000000000E+00 0. -1.
        -11    1    4    4    0    0 -0.15936278034E-01 -0.41298713766E-01  0.84903275970E-01  0.95751637624E-01  0.51100000000E-03 0.  1.
         11    1    4    4    0    0 -0.12971993683E-01 -0.54373393141E-02  0.32572636616E-01  0.35483447635E-01  0.51100000000E-03 0. -1.
</event>
<event>
 8    1  0.1054833E+005  0.1043930E+01  0.7957747E-01            NaN
         13   -1    0    0    0    0  0.00000000000E+00  0.00000000000E+00  0.74505805969E-08  0.10566000000E+00  0.10566000000E+00 0.  1.
     999900   -1    0    0    0    0 -0.00000000000E+00 -0.00000000000E+00 -0.74505805969E-08  0.93827000000E+00  0.93827000000E+00 0. -1.
     999902    2    1    2    0    0  0.22074234186E-01  0.80509084088E-02  0.12244215300E-02  0.10204015460E+01  0.10201302499E+01 0.  0.
     999903    2    3    3    0    0 -0.11203689498E+00 -0.20131024006E-01 -0.57706099722E-01  0.12784744530E+00  0.75796676332E-02 0.  0.
         14    1    1    2    0    0 -0.22074234186E-01 -0.80509084088E-02 -0.12244215300E-02  0.23528454033E-01  0.00000000000E+00 0.  1.
     999901    1    3    3    0    0  0.13411112916E+00  0.28181932415E-01  0.58930521252E-01  0.89255410067E+00  0.88000000000E+00 0. -1.
        -11    1    4    4    0    0 -0.61157223532E-01 -0.14696892342E-01 -0.30929801717E-01  0.70093640153E-01  0.51100000000E-03 0. -1.
         11    1    4    4    0    0 -0.50879671444E-01 -0.54341316638E-02 -0.26776298004E-01  0.57753805148E-01  0.51100000000E-03 0.  1.
</event>
<event>
 7    1  0.1102818E+005  0.1043930E+01  0.7957747E-01            NaN
         13   -1    0    0    0    0  0.00000000000E+00  0.00000000000E+00  0.74505805969E-08  0.10566000000E+00  0.10566000000E+00 0. -1.
     999900   -1    0    0    0    0 -0.00000000000E+00 -0.00000000000E+00 -0.74505805969E-08  0.93827000000E+00  0.93827000000E+00 0. -1.
     999902    2    1    2    0    0 -0.18922238457E-01  0.91571533504E-02  0.28700258888E-02  0.10227134589E+01  0.10224933631E+01 0.  0.
         14    1    1    2    0    0  0.18922238457E-01 -0.91571533504E-02 -0.28700258888E-02  0.21216541055E-01  0.00000000000E+00 0.  1.
     999901    1    3    3    0    0  0.12441038531E-01 -0.92465577731E-01 -0.79003224003E-01  0.88845155856E+00  0.88000000000E+00 0. -1.
        -11    1    3    3    0    0 -0.22565398202E-01  0.71566035439E-01  0.59560897022E-01  0.95805303609E-01  0.51100000000E-03 0. -1.
         11    1    3    3    0    0 -0.87978787868E-02  0.30056695642E-01  0.22312352869E-01  0.38456596777E-01  0.51100000000E-03 0.  1.
</event>
<event>
 8    1  0.1054833E+005  0.1043930E+01  0.7957747E-01            NaN
         13   -1    0    0    0    0  0.00000000000E+00  0.00000000000E+00  0.74505805969E-08  0.10566000000E+00  0.10566000000E+00 0. -1.
     999900   -1    0    0    0    0 -0.00000000000E+00 -0.00000000000E+00 -0.74505805969E-08  0.93827000000E+00  0.93827000000E+00 0. -1.
     999902    2    1    2    0    0 -0.15355874824E-01 -0.14447003218E-01  0.10545395427E-01  0.10203561976E+01  0.10200838426E+01 0.  0.
     999903    2    3    3    0    0 -0.29609855172E-01  0.62131947261E-01 -0.10728132341E+00  0.12909268593E+00  0.20457683524E-01 0.  0.
         14    1    1    2    0    0  0.15355874824E-01  0.14447003218E-01 -0.10545395427E-01  0.23573802373E-01  0.00000000000E+00 0.  1.
     999901    1    3    3    0    0  0.14253980348E-01 -0.76578950479E-01  0.11782671883E+00  0.89126351170E+00  0.88000000000E+00 0.  1.
        -11    1    4    4    0    0 -0.10156697458E-01  0.49651906617E-02 -0.19489463453E-01  0.22536901479E-01  0.51100000000E-03 0. -1.
         11    1    4    4    0    0 -0.19453157714E-01  0.57166756600E-01 -0.87791859952E-01  0.10655578445E+00  0.51100000000E-03 0.  1.
</event>
<event>
 8    1  0.1054833E+005  0.1043930E+01  0.7957747E-01            NaN
         13   -1    0    0    0    0  0.00000000000E+00  0.00000000000E+00  0.74505805969E-08  0.10566000000E+00  0.10566000000E+00 0. -1.
     999900   -1    0    0    0    0 -0.00000000000E+00 -0.00000000000E+00 -0.74505805969E-08  0.93827000000E+00  0.93827000000E+00 0. -1.
     999902    2    1    2    0    0 -0.12668767783E-01  0.79977526975E-02 -0.15765635311E-01  0.10221810464E+01  0.10219496439E+01 0.  0.
     999903    2    3    3    0    0  0.12173874365E-01 -0.57850330974E-01  0.11409285151E+00  0.12987148489E+00  0.18829758612E-01 0.  0.
         14    1    1    2    0    0  0.12668767783E-01 -0.79977526975E-02  0.15765635311E-01  0.21748953587E-01  0.00000000000E+00 0. -1.
     999901    1    3    3    0    0 -0.24842642148E-01  0.65848083672E-01 -0.12985848682E+00  0.89230956153E+00  0.88000000000E+00 0. -1.
        -11    1    4    4    0    0 -0.49479313069E-02 -0.17650163170E-01  0.34715022546E-01  0.39260720772E-01  0.51100000000E-03 0.  1.
         11    1    4    4    0    0  0.17121805672E-01 -0.40200167804E-01  0.79377828967E-01  0.90610764115E-01  0.51100000000E-03 0. -1.
</event>
<event>
 8    1  0.1054833E+005  0.1043930E+01  0.7957747E-01            NaN
         13   -1    0    0    0    0  0.00000000000E+00  0.00000000000E+00  0.74505805969E-08  0.10566000000E+00  0.10566000000E+00 0.  1.
     999900   -1    0    0    0    0 -0.00000000000E+00 -0.00000000000E+00 -0.74505805969E-08  0.93827000000E+00  0.93827000000E+00 0.  1.
     999902    2    1    2    0    0 -0.12324662905E-01  0.21800631633E-02 -0.18819816703E-01  0.10213283299E+01  0.10210782154E+01 0.  0.
     999903    2    3    3    0    0 -0.68119515327E-01  0.98657394462E-01  0.50418194676E-01  0.13160093162E+00  0.20081359469E-01 0.  0.
         14    1    1    2    0    0  0.12324662905E-01 -0.21800631633E-02  0.18819816703E-01  0.22601670112E-01  0.00000000000E+00 0.  1.
     999901    1    3    3    0    0  0.55794852422E-01 -0.96477331299E-01 -0.69238011379E-01  0.88972739827E+00  0.88000000000E+00 0.  1.
        -11    1    4    4    0    0 -0.10798750204E-01  0.69848334476E-02  0.95022124333E-02  0.15998564510E-01  0.51100000000E-03 0. -1.
         11    1    4    4    0    0 -0.57320765123E-01  0.91672561014E-01  0.40915982242E-01  0.11560236711E+00  0.51100000000E-03 0.  1.
</event>
<event>
 8    1  0.1054833E+005  0.1043930E+01  0.7957747E-01            NaN
         13   -1    0    0    0    0  0.00000000000E+00  0.00000000000E+00  0.74505805969E-08  0.10566000000E+00  0.10566000000E+00 0.  1.
     999900   -1    0    0    0    0 -0.00000000000E+00 -0.00000000000E+00 -0.74505805969E-08  0.93827000000E+00  0.93827000000E+00 0. -1.
     999902    2    1    2    0    0 -0.64089056095E-02 -0.54164671178E-02 -0.21965883716E-01  0.10204159141E+01  0.10201449532E+01 0.  0.
     999903    2    3    3    0    0 -0.11963386886E+00  0.26115918618E-01 -0.45345108246E-01  0.13229386632E+00  0.21241102639E-01 0.  0.
         14    1    1    2    0    0  0.64089056095E-02  0.54164671178E-02  0.21965883716E-01  0.23514085876E-01  0.00000000000E+00 0.  1.
     999901    1    3    3    0    0  0.11322496325E+00 -0.31532385736E-01  0.23379224530E-01  0.88812204780E+00  0.88000000000E+00 0. -1.
        -11    1    4    4    0    0 -0.70817429507E-01  0.22191115007E-01 -0.35790249799E-01  0.82393913664E-01  0.51100000000E-03 0.  1.
         11    1    4    4    0    0 -0.48816439351E-01  0.39248036113E-02 -0.95548584474E-02  0.49899952658E-01  0.51100000000E-03 0. -1.
</event>
<event>
 8    1  0.1054833E+005  0.1043930E+01  0.7957747E-01            NaN
         13   -1    0    0    0    0  0.00000000000E+00  0.00000000000E+00  0.74505805969E-08  0.10566000000E+00  0.10566000000E+00 0.  1.
     999900   -1    0    0    0    0 -0.00000000000E+00 -0.00000000000E+00 -0.74505805969E-08  0.93827000000E+00  0.93827000000E+00 0.  1.
     999902    2    1    2    0    0 -0.70918598664E-02 -0.21740101082E-01  0.11436359633E-01  0.10183621140E+01  0.10180410986E+01 0.  0.
     999903    2    3    3    0    0 -0.12329369075E+00 -0.37184725092E-01  0.55918398263E-02  0.13056959304E+00  0.20811342934E-01 0.  0.
         14    1    1    2    0    0  0.70918598664E-02  0.21740101082E-01 -0.11436359633E-01  0.25567885972E-01  0.00000000000E+00 0.  1.
     999901    1    3    3    0    0  0.11620183088E+00  0.15444624010E-01  0.58445198066E-02  0.88779252099E+00  0.88000000000E+00 0.  1.
        -11    1    4    4    0    0 -0.49339889326E-01 -0.14605724838E-01  0.12440776050E-01  0.52941344018E-01  0.51100000000E-03 0. -1.
         11    1    4    4    0    0 -0.73953801425E-01 -0.22579000255E-01 -0.68489362240E-02  0.77628249021E-01  0.51100000000E-03 0.  1.
</event>
<event>
 8    1  0.1054833E+005  0.1043930E+01  0.7957747E-01            NaN
         13   -1    0    0    0    0  0.00000000000E+00  0.00000000000E+00  0.74505805969E-08  0.10566000000E+00  0.10566000000E+00 0. -1.
     999900   -1    0    0    0    0 -0.00000000000E+00 -0.00000000000E+00 -0.74505805969E-08  0.93827000000E+00  0.93827000000E+00 0. -1.
     999902    2    1    2    0    0  0.15518943372E-01  0.14427831684E-01 -0.13009721768E-01  0.10190653104E+01  0.10187619221E+01 0.  0.
     999903    2    3    3    0    0 -0.10808516438E+00 -0.59460710874E-01 -0.23195283293E-01  0.12730231615E+00  0.21210366168E-01 0.  0.
         14    1    1    2    0    0 -0.15518943372E-01 -0.14427831684E-01  0.13009721768E-01  0.24864689642E-01  0.00000000000E+00 0.  1.
     999901    1    3    3    0    0  0.12360410775E+00  0.73888542558E-01  0.10185561525E-01  0.89176299421E+00  0.88000000000E+00 0.  1.
        -11    1    4    4    0    0 -0.39377556194E-01 -0.16666637502E-01  0.11377379327E-02  0.42777614544E-01  0.51100000000E-03 0.  1.
         11    1    4    4    0    0 -0.68707608188E-01 -0.42794073372E-01 -0.24333021226E-01  0.84524701606E-01  0.51100000000E-03 0. -1.
</event>
<event>
 8    1  0.1054833E+005  0.1043930E+01  0.7957747E-01            NaN
         13   -1    0    0    0    0  0.00000000000E+00  0.00000000000E+00  0.74505805969E-08  0.10566000000E+00  0.10566000000E+00 0. -1.
     999900   -1    0    0    0    0 -0.00000000000E+00 -0.00000000000E+00 -0.74505805969E-08  0.93827000000E+00  0.93827000000E+00 0.  1.
     999902    2    1    2    0    0  0.11999488172E-01 -0.14634189655E-01 -0.14491754747E-01  0.10200939311E+01  0.10198154098E+01 0.  0.
     999903    2    3    3    0    0  0.12904835964E+00  0.80608395723E-02 -0.17691033657E-01  0.13204790865E+00  0.20130108013E-01 0.  0.
         14    1    1    2    0    0 -0.11999488172E-01  0.14634189655E-01  0.14491754747E-01  0.23836068864E-01  0.00000000000E+00 0. -1.
     999901    1    3    3    0    0 -0.11704887146E+00 -0.22695029227E-01  0.31992789098E-02  0.88804602248E+00  0.88000000000E+00 0. -1.
        -11    1    4    4    0    0  0.10811153921E+00  0.15642594863E-02 -0.91315950207E-02  0.10850898104E+00  0.51100000000E-03 0. -1.
         11    1    4    4    0    0  0.20936820428E-01  0.64965800860E-02 -0.85594386363E-02  0.23538927614E-01  0.51100000000E-03 0.  1.
</event>
<event>
 8    1  0.1054833E+005  0.1043930E+01  0.7957747E-01            NaN
         13   -1    0    0    0    0  0.00000000000E+00  0.00000000000E+00  0.74505805969E-08  0.10566000000E+00  0.10566000000E+00 0.  1.
     999900   -1    0    0    0    0 -0.00000000000E+00 -0.00000000000E+00 -0.74505805969E-08  0.93827000000E+00  0.93827000000E+00 0.  1.
     999902    2    1    2    0    0  0.11994991242E-01  0.24301052008E-02  0.18783513864E-01  0.10215111325E+01  0.10212650920E+01 0.  0.
     999903    2    3    3    0    0 -0.70592172294E-01  0.84348524602E-01 -0.65956791771E-01  0.12982049871E+00  0.20127968426E-01 0.  0.
         14    1    1    2    0    0 -0.11994991242E-01 -0.24301052008E-02 -0.18783513864E-01  0.22418867484E-01  0.00000000000E+00 0. -1.
     999901    1    3    3    0    0  0.82587163536E-01 -0.81918419401E-01  0.84740305635E-01  0.89169063381E+00  0.88000000000E+00 0. -1.
        -11    1    4    4    0    0 -0.58578129058E-01  0.67103602322E-01 -0.43748378428E-01  0.99239469893E-01  0.51100000000E-03 0.  1.
         11    1    4    4    0    0 -0.12014043236E-01  0.17244922280E-01 -0.22208413343E-01  0.30581028817E-01  0.51100000000E-03 0. -1.
</event>
<event>
 8    1  0.1054833E+005  0.1043930E+01  0.7957747E-01            NaN
         13   -1    0    0    0    0  0.00000000000E+00  0.00000000000E+00  0.74505805969E-08  0.10566000000E+00  0.10566000000E+00 0.  1.
     999900   -1    0    0    0    0 -0.00000000000E+00 -0.00000000000E+00 -0.74505805969E-08  0.93827000000E+00  0.93827000000E+00 0. -1.
     999902    2    1    2    0    0  0.15525287944E-01 -0.34490241929E-02 -0.19985065997E-01  0.10183891857E+01  0.10180688583E+01 0.  0.
     999903    2    3    3    0    0  0.28381228748E-01  0.12112893260E+00  0.23972965582E-01  0.12843567505E+00  0.21054858990E-01 0.  0.
         14    1    1    2    0    0 -0.15525287944E-01  0.34490241929E-02  0.19985065997E-01  0.25540814327E-01  0.00000000000E+00 0.  1.
     999901    1    3    3    0    0 -0.12855940805E-01 -0.12457795680E+00 -0.43958031578E-01  0.88995351063E+00  0.88000000000E+00 0. -1.
        -11    1    4    4    0    0  0.62686306723E-02  0.14198123689E-01 -0.33249933841E-02  0.15880779225E-01  0.51100000000E-03 0.  1.
         11    1    4    4    0    0  0.22112598076E-01  0.10693080892E+00  0.27297958966E-01  0.11255489582E+00  0.51100000000E-03 0. -1.
</event>
<event>
 8    1  0.1054833E+005  0.1043930E+01  0.7957747E-01            NaN
         13   -1    0    0    0    0  0.00000000000E+00  0.00000000000E+00  0.74505805969E-08  0.10566000000E+00  0.10566000000E+00 0.  1.
     999900   -1    0    0    0    0 -0.00000000000E+00 -0.00000000000E+00 -0.74505805969E-08  0.93827000000E+00  0.93827000000E+00 0. -1.
     999902    2    1    2    0    0 -0.51600978218E-02  0.97937442806E-02  0.20537978633E-01  0.10205986348E+01  0.10203319169E+01 0.  0.
     999903    2    3    3    0    0 -0.43668231968E-01 -0.19406622243E-01 -0.11764146065E+00  0.12850609741E+00  0.19767962387E-01 0.  0.
         14    1    1    2    0    0  0.51600978218E-02 -0.97937442806E-02 -0.20537978633E-01  0.23331365217E-01  0.00000000000E+00 0. -1.
     999901    1    3    3    0    0  0.38508134146E-01  0.29200366524E-01  0.13817943928E+00  0.89209253738E+00  0.88000000000E+00 0.  1.
        -11    1    4    4    0    0 -0.35029690323E-01 -0.13671780532E-01 -0.10791574581E+00  0.11428064622E+00  0.51100000000E-03 0. -1.
         11    1    4    4    0    0 -0.86385416456E-02 -0.57348417115E-02 -0.97257148447E-02  0.14225451186E-01  0.51100000000E-03 0.  1.
</event>
<event>
 8    1  0.1054833E+005  0.1043930E+01  0.7957747E-01            NaN
         13   -1    0    0    0    0  0.00000000000E+00  0.00000000000E+00  0.74505805969E-08  0.10566000000E+00  0.10566000000E+00 0. -1.
     999900   -1    0    0    0    0 -0.00000000000E+00 -0.00000000000E+00 -0.74505805969E-08  0.93827000000E+00  0.93827000000E+00 0. -1.
     999902    2    1    2    0    0  0.14992524213E-01  0.23957091651E-01 -0.73770207573E-02  0.10147214660E+01  0.10143009983E+01 0.  0.
     999903    2    3    3    0    0 -0.10000817948E+00 -0.15406313579E-01  0.67556253839E-01  0.12321171555E+00  0.19449651817E-01 0.  0.
         14    1    1    2    0    0 -0.14992524213E-01 -0.23957091651E-01  0.73770207573E-02  0.29208533991E-01  0.00000000000E+00 0. -1.
     999901    1    3    3    0    0  0.11500070369E+00  0.39363405230E-01 -0.74933274596E-01  0.89150975046E+00  0.88000000000E+00 0.  1.
        -11    1    4    4    0    0 -0.28906484065E-01 -0.13445093718E-01  0.19656442207E-01  0.37456537577E-01  0.51100000000E-03 0. -1.
         11    1    4    4    0    0 -0.71101695412E-01 -0.19612198614E-02  0.47899811632E-01  0.85755177973E-01  0.51100000000E-03 0.  1.
</event>
<event>
 8    1  0.1054833E+005  0.1043930E+01  0.7957747E-01            NaN
         13   -1    0    0    0    0  0.00000000000E+00  0.00000000000E+00  0.74505805969E-08  0.10566000000E+00  0.10566000000E+00 0.  1.
     999900   -1    0    0    0    0 -0.00000000000E+00 -0.00000000000E+00 -0.74505805969E-08  0.93827000000E+00  0.93827000000E+00 0.  1.
     999902    2    1    2    0    0 -0.79252248081E-02 -0.97211726404E-02  0.12826015159E-01  0.10259907400E+01  0.10258338956E+01 0.  0.
     999903    2    3    3    0    0 -0.39120948301E-01  0.11188663362E+00  0.63116138453E-01  0.13565893204E+00  0.19251792899E-01 0.  0.
         14    1    1    2    0    0  0.79252248081E-02  0.97211726404E-02 -0.12826015159E-01  0.17939260036E-01  0.00000000000E+00 0.  1.
     999901    1    3    3    0    0  0.31195723493E-01 -0.12160780626E+00 -0.50290123293E-01  0.89033180793E+00  0.88000000000E+00 0. -1.
        -11    1    4    4    0    0 -0.14975119601E-01  0.52277315198E-01  0.39209821731E-01  0.67043591287E-01  0.51100000000E-03 0.  1.
         11    1    4    4    0    0 -0.24145828700E-01  0.59609318419E-01  0.23906316721E-01  0.68615340750E-01  0.51100000000E-03 0. -1.
</event>
<event>
 8    1  0.1054833E+005  0.1043930E+01  0.7957747E-01            NaN
         13   -1    0    0    0    0  0.00000000000E+00  0.00000000000E+00  0.74505805969E-08  0.10566000000E+00  0.10566000000E+00 0. -1.
     999900   -1    0    0    0    0 -0.00000000000E+00 -0.00000000000E+00 -0.74505805969E-08  0.93827000000E+00  0.93827000000E+00 0.  1.
     999902    2    1    2    0    0 -0.20601018255E-01  0.11553211110E-01  0.18949038307E-03  0.10203097852E+01  0.10200363441E+01 0.  0.
     999903    2    3    3    0    0  0.10579957056E+00  0.58396787260E-01  0.40436645125E-01  0.12913569282E+00  0.20908634557E-01 0.  0.
         14    1    1    2    0    0  0.20601018255E-01 -0.11553211110E-01 -0.18949038307E-03  0.23620214790E-01  0.00000000000E+00 0. -1.
     999901    1    3    3    0    0 -0.12640058881E+00 -0.46843576150E-01 -0.40247154742E-01  0.89117409239E+00  0.88000000000E+00 0.  1.
        -11    1    4    4    0    0  0.10285174831E+00  0.56243577035E-01  0.42756224308E-01  0.12478051902E+00  0.51100000000E-03 0.  1.
         11    1    4    4    0    0  0.29478222461E-02  0.21532102252E-02 -0.23195791831E-02  0.43551738031E-02  0.51100000000E-03 0. -1.
</event>
<event>
 8    1  0.1054833E+005  0.1043930E+01  0.7957747E-01            NaN
         13   -1    0    0    0    0  0.00000000000E+00  0.00000000000E+00  0.74505805969E-08  0.10566000000E+00  0.10566000000E+00 0. -1.
     999900   -1    0    0    0    0 -0.00000000000E+00 -0.00000000000E+00 -0.74505805969E-08  0.93827000000E+00  0.93827000000E+00 0.  1.
     999902    2    1    2    0    0  0.75325278240E-02 -0.23886616675E-01 -0.67884325740E-02  0.10179801975E+01  0.10176493946E+01 0.  0.
     999903    2    3    3    0    0  0.11871648331E+00 -0.46915319353E-01  0.17339884884E-01  0.13035732220E+00  0.19942648847E-01 0.  0.
         14    1    1    2    0    0 -0.75325278240E-02  0.23886616675E-01  0.67884325740E-02  0.25949802473E-01  0.00000000000E+00 0. -1.
     999901    1    3    3    0    0 -0.11118395549E+00  0.23028702678E-01 -0.24128317458E-01  0.88762287533E+00  0.88000000000E+00 0. -1.
        -11    1    4    4    0    0  0.51614427180E-01 -0.15630848352E-01  0.16192625642E-01  0.56310165685E-01  0.51100000000E-03 0. -1.
         11    1    4    4    0    0  0.67102056130E-01 -0.31284471002E-01  0.11472592425E-02  0.74047156512E-01  0.51100000000E-03 0.  1.
</event>
<event>
 8    1  0.1054833E+005  0.1043930E+01  0.7957747E-01            NaN
         13   -1    0    0    0    0  0.00000000000E+00  0.00000000000E+00  0.74505805969E-08  0.10566000000E+00  0.10566000000E+00 0. -1.
     999900   -1    0    0    0    0 -0.00000000000E+00 -0.00000000000E+00 -0.74505805969E-08  0.93827000000E+00  0.93827000000E+00 0.  1.
     999902    2    1    2    0    0 -0.18731987132E-01 -0.44307533074E-02 -0.14373686054E-01  0.10199066412E+01  0.10196236732E+01 0.  0.
     999903    2    3    3    0    0 -0.81574494897E-01  0.73785959021E-01  0.67111964284E-01  0.13046471164E+00  0.20451387881E-01 0.  0.
         14    1    1    2    0    0  0.18731987132E-01  0.44307533074E-02  0.14373686054E-01  0.24023358790E-01  0.00000000000E+00 0. -1.
     999901    1    3    3    0    0  0.62842507765E-01 -0.78216712328E-01 -0.81485650339E-01  0.88944192957E+00  0.88000000000E+00 0.  1.
        -11    1    4    4    0    0 -0.67031396684E-01  0.49932131259E-01  0.54671507432E-01  0.99878229456E-01  0.51100000000E-03 0. -1.
         11    1    4    4    0    0 -0.14543098213E-01  0.23853827762E-01  0.12440456852E-01  0.30586482181E-01  0.51100000000E-03 0.  1.
</event>
<event>
 8    1  0.1054833E+005  0.1043930E+01  0.7957747E-01            NaN
         13   -1    0    0    0    0  0.00000000000E+00  0.00000000000E+00  0.74505805969E-08  0.10566000000E+00  0.10566000000E+00 0.  1.
     999900   -1    0    0    0    0 -0.00000000000E+00 -0.00000000000E+00 -0.74505805969E-08  0.93827000000E+00  0.93827000000E+00 0.  1.
     999902    2    1    2    0    0 -0.23130285738E-01 -0.12522366109E-01 -0.75650686631E-03  0.10176166560E+01  0.10172763963E+01 0.  0.
     999903    2    3    3    0    0 -0.10523960761E+00 -0.53180751936E-01 -0.54164400124E-01  0.13124909782E+00  0.19722475828E-01 0.  0.
         14    1    1    2    0    0  0.23130285738E-01  0.12522366109E-01  0.75650686631E-03  0.26313344028E-01  0.00000000000E+00 0.  1.
     999901    1    3    3    0    0  0.82109321869E-01  0.40658385827E-01  0.53407893258E-01  0.88636755815E+00  0.88000000000E+00 0.  1.
        -11    1    4    4    0    0 -0.67273637656E-01 -0.40357840048E-01 -0.43814264137E-01  0.89857934762E-01  0.51100000000E-03 0.  1.
         11    1    4    4    0    0 -0.37965969951E-01 -0.12822911888E-01 -0.10350135988E-01  0.41391163061E-01  0.51100000000E-03 0. -1.
</event>
<event>
 8    1  0.1054833E+005  0.1043930E+01  0.7957747E-01            NaN
         13   -1    0    0    0    0  0.00000000000E+00  0.00000000000E+00  0.74505805969E-08  0.10566000000E+00  0.10566000000E+00 0. -1.
     999900   -1    0    0    0    0 -0.00000000000E+00 -0.00000000000E+00 -0.74505805969E-08  0.93827000000E+00  0.93827000000E+00 0. -1.
     999902    2    1    2    0    0  0.14918743715E-01  0.33371959678E-02  0.17707497915E-01  0.10205363839E+01  0.10202682244E+01 0.  0.
     999903    2    3    3    0    0  0.90084737322E-01 -0.67971654132E-01  0.67706559144E-01  0.13304847706E+00  0.19552836950E-01 0.  0.
         14    1    1    2    0    0 -0.14918743715E-01 -0.33371959678E-02 -0.17707497915E-01  0.23393616082E-01  0.00000000000E+00 0.  1.
     999901    1    3    3    0    0 -0.75165993607E-01  0.71308850100E-01 -0.49999061228E-01  0.88748790686E+00  0.88000000000E+00 0. -1.
        -11    1    4    4    0    0  0.15091368882E-01 -0.11392315023E-01  0.20560204172E-01  0.27937741013E-01  0.51100000000E-03 0.  1.
         11    1    4    4    0    0  0.74993368440E-01 -0.56579339110E-01  0.47146354972E-01  0.10511073605E+00  0.51100000000E-03 0. -1.
</event>
<event>
 8    1  0.1054833E+005  0.1043930E+01  0.7957747E-01            NaN
         13   -1    0    0    0    0  0.00000000000E+00  0.00000000000E+00  0.74505805969E-08  0.10566000000E+00  0.10566000000E+00 0. -1.
     999900   -1    0    0    0    0 -0.00000000000E+00 -0.00000000000E+00 -0.74505805969E-08  0.93827000000E+00  0.93827000000E+00 0.  1.
     999902    2    1    2    0    0  0.14570748678E-01  0.48365654122E-02 -0.17907446415E-01  0.10203423821E+01  0.10200697040E+01 0.  0.
     999903    2    3    3    0    0  0.11742993811E+00  0.21746438357E-01 -0.55790828621E-01  0.13338065387E+00  0.20373618327E-01 0.  0.
         14    1    1    2    0    0 -0.14570748678E-01 -0.48365654122E-02  0.17907446415E-01  0.23587617920E-01  0.00000000000E+00 0. -1.
     999901    1    3    3    0    0 -0.10285918943E+00 -0.16909872945E-01  0.37883382206E-01  0.88696172821E+00  0.88000000000E+00 0. -1.
        -11    1    4    4    0    0  0.54201396426E-01  0.19993708895E-02 -0.32110744826E-01  0.63032927211E-01  0.51100000000E-03 0.  1.
         11    1    4    4    0    0  0.63228541685E-01  0.19747067468E-01 -0.23680083795E-01  0.70347726664E-01  0.51100000000E-03 0. -1.
</event>
<event>
 8    1  0.1054833E+005  0.1043930E+01  0.7957747E-01            NaN
         13   -1    0    0    0    0  0.00000000000E+00  0.00000000000E+00  0.74505805969E-08  0.10566000000E+00  0.10566000000E+00 0. -1.
     999900   -1    0    0    0    0 -0.00000000000E+00 -0.00000000000E+00 -0.74505805969E-08  0.93827000000E+00  0.93827000000E+00 0. -1.
     999902    2    1    2    0    0 -0.13156751384E-02 -0.15987846850E-01  0.17864393474E-01  0.10199200270E+01  0.10196373781E+01 0.  0.
     999903    2    3    3    0    0 -0.11943160716E+00  0.43483984450E-01 -0.15575229645E-01  0.12941091393E+00  0.18703774300E-01 0.  0.
         14    1    1    2    0    0  0.13156751384E-02  0.15987846850E-01 -0.17864393474E-01  0.24009972973E-01  0.00000000000E+00 0.  1.
     999901    1    3    3    0    0  0.11811593202E+00 -0.59471831300E-01  0.33439623119E-01  0.89050911310E+00  0.88000000000E+00 0.  1.
        -11    1    4    4    0    0 -0.41802664247E-01  0.59251665163E-02 -0.44605957345E-02  0.42458548865E-01  0.51100000000E-03 0.  1.
         11    1    4    4    0    0 -0.77628942913E-01  0.37558817934E-01 -0.11114633910E-01  0.86952365065E-01  0.51100000000E-03 0. -1.
</event>
<event>
 8    1  0.1054833E+005  0.1043930E+01  0.7957747E-01            NaN
         13   -1    0    0    0    0  0.00000000000E+00  0.00000000000E+00  0.74505805969E-08  0.10566000000E+00  0.10566000000E+00 0.  1.
     999900   -1    0    0    0    0 -0.00000000000E+00 -0.00000000000E+00 -0.74505805969E-08  0.93827000000E+00  0.93827000000E+00 0.  1.
     999902    2    1    2    0    0  0.10544832767E-01 -0.41154840436E-02  0.20409115858E-01  0.10205919899E+01  0.10203251183E+01 0.  0.
     999903    2    3    3    0    0  0.12377810221E+00 -0.58804230498E-02 -0.39151278711E-01  0.13133818531E+00  0.19007849264E-01 0.  0.
         14    1    1    2    0    0 -0.10544832767E-01  0.41154840436E-02 -0.20409115858E-01  0.23338010136E-01  0.00000000000E+00 0. -1.
     999901    1    3    3    0    0 -0.11323326944E+00  0.17649390062E-02  0.59560394569E-01  0.88925380456E+00  0.88000000000E+00 0.  1.
        -11    1    4    4    0    0  0.77307318327E-01 -0.12831172991E-01 -0.23673337779E-01  0.81864207745E-01  0.51100000000E-03 0. -1.
         11    1    4    4    0    0  0.46470783881E-01  0.69507499412E-02 -0.15477940933E-01  0.49473977562E-01  0.51100000000E-03 0.  1.
</event>
<event>
 8    1  0.1054833E+005  0.1043930E+01  0.7957747E-01            NaN
         13   -1    0    0    0    0  0.00000000000E+00  0.00000000000E+00  0.74505805969E-08  0.10566000000E+00  0.10566000000E+00 0.  1.
     999900   -1    0    0    0    0 -0.00000000000E+00 -0.00000000000E+00 -0.74505805969E-08  0.93827000000E+00  0.93827000000E+00 0. -1.
     999902    2    1    2    0    0  0.46187941743E-02  0.91972379778E-02  0.21086860920E-01  0.10204655982E+01  0.10201957945E+01 0.  0.
     999903    2    3    3    0    0  0.41910775671E-01  0.11373119319E+00 -0.45608779817E-01  0.13099027641E+00  0.19672170591E-01 0.  0.
         14    1    1    2    0    0 -0.46187941743E-02 -0.91972379778E-02 -0.21086860920E-01  0.23464401750E-01  0.00000000000E+00 0. -1.
     999901    1    3    3    0    0 -0.37291981497E-01 -0.10453395521E+00  0.66695640737E-01  0.88947532184E+00  0.88000000000E+00 0.  1.
        -11    1    4    4    0    0  0.24253653493E-01  0.60145266048E-01 -0.14108505681E-01  0.66370202571E-01  0.51100000000E-03 0.  1.
         11    1    4    4    0    0  0.17657122178E-01  0.53585927138E-01 -0.31500274136E-01  0.64620073835E-01  0.51100000000E-03 0. -1.
</event>
<event>
 8    1  0.1054833E+005  0.1043930E+01  0.7957747E-01            NaN
         13   -1    0    0    0    0  0.00000000000E+00  0.00000000000E+00  0.74505805969E-08  0.10566000000E+00  0.10566000000E+00 0. -1.
     999900   -1    0    0    0    0 -0.00000000000E+00 -0.00000000000E+00 -0.74505805969E-08  0.93827000000E+00  0.93827000000E+00 0.  1.
     999902    2    1    2    0    0 -0.13491572249E-01  0.14497062904E-02 -0.20018190021E-01  0.10197462844E+01  0.10194594805E+01 0.  0.
     999903    2    3    3    0    0 -0.15509755328E-01 -0.56407325682E-01 -0.11732459237E+00  0.13249206761E+00  0.19150694597E-01 0.  0.
         14    1    1    2    0    0  0.13491572249E-01 -0.14497062904E-02  0.20018190021E-01  0.24183715632E-01  0.00000000000E+00 0. -1.
     999901    1    3    3    0    0  0.20181830785E-02  0.57857031972E-01  0.97306402353E-01  0.88725421676E+00  0.88000000000E+00 0. -1.
        -11    1    4    4    0    0  0.37185471245E-02 -0.43211937199E-02 -0.15326283719E-01  0.16360207869E-01  0.51100000000E-03 0. -1.
         11    1    4    4    0    0 -0.19228302452E-01 -0.52086131962E-01 -0.10199830865E+00  0.11613185974E+00  0.51100000000E-03 0.  1.
</event>
<event>
 8    1  0.1054833E+005  0.1043930E+01  0.7957747E-01            NaN
         13   -1    0    0    0    0  0.00000000000E+00  0.00000000000E+00  0.74505805969E-08  0.10566000000E+00  0.10566000000E+00 0. -1.
     999900   -1    0    0    0    0 -0.00000000000E+00 -0.00000000000E+00 -0.74505805969E-08  0.93827000000E+00  0.93827000000E+00 0.  1.
     999902    2    1    2    0    0 -0.14767334274E-01 -0.14347125922E-02 -0.15942064459E-01  0.10221519840E+01  0.10219199560E+01 0.  0.
     999903    2    3    3    0    0  0.14689313896E-01  0.77315414694E-01  0.10193953258E+00  0.13031940577E+00  0.19950687319E-01 0.  0.
         14    1    1    2    0    0  0.14767334274E-01  0.14347125922E-02  0.15942064459E-01  0.21778016003E-01  0.00000000000E+00 0. -1.
     999901    1    3    3    0    0 -0.29456648170E-01 -0.78750127287E-01 -0.11788159704E+00  0.89183257823E+00  0.88000000000E+00 0.  1.
        -11    1    4    4    0    0  0.77431166734E-02  0.44060097443E-01  0.73338458424E-01  0.85907151318E-01  0.51100000000E-03 0. -1.
         11    1    4    4    0    0  0.69461972225E-02  0.33255317252E-01  0.28601074159E-01  0.44412254451E-01  0.51100000000E-03 0.  1.
</event>
<event>
 8    1  0.1054833E+005  0.1043930E+01  0.7957747E-01            NaN
         13   -1    0    0    0    0  0.00000000000E+00  0.00000000000E+00  0.74505805969E-08  0.10566000000E+00  0.10566000000E+00 0.  1.
     999900   -1    0    0    0    0 -0.00000000000E+00 -0.00000000000E+00 -0.74505805969E-08  0.93827000000E+00  0.93827000000E+00 0.  1.
     999902    2    1    2    0    0 -0.34709578572E-02  0.95049776591E-02  0.21114454709E-01  0.10205160651E+01  0.10202474341E+01 0.  0.
     999903    2    3    3    0    0 -0.82564983586E-01  0.93497351944E-01  0.40019992648E-01  0.13278412179E+00  0.21709257330E-01 0.  0.
         14    1    1    2    0    0  0.34709578572E-02 -0.95049776591E-02 -0.21114454709E-01  0.23413934877E-01  0.00000000000E+00 0. -1.
     999901    1    3    3    0    0  0.79094025729E-01 -0.83992374284E-01 -0.18905537938E-01  0.88773194333E+00  0.88000000000E+00 0.  1.
        -11    1    4    4    0    0 -0.10612218648E-01  0.11912765746E-01 -0.21661856774E-02  0.16108589440E-01  0.51100000000E-03 0. -1.
         11    1    4    4    0    0 -0.71952764938E-01  0.81584586198E-01  0.42186178325E-01  0.11667553235E+00  0.51100000000E-03 0.  1.
</event>
<event>
 8    1  0.1054833E+005  0.1043930E+01  0.7957747E-01            NaN
         13   -1    0    0    0    0  0.00000000000E+00  0.00000000000E+00  0.74505805969E-08  0.10566000000E+00  0.10566000000E+00 0.  1.
     999900   -1    0    0    0    0 -0.00000000000E+00 -0.00000000000E+00 -0.74505805969E-08  0.93827000000E+00  0.93827000000E+00 0.  1.
     999902    2    1    2    0    0 -0.16164288925E-01 -0.18330282081E-01 -0.41963293901E-03  0.10194870139E+01  0.10191939521E+01 0.  0.
     999903    2    3    3    0    0  0.67628542990E-01  0.98129394313E-01 -0.37908445126E-01  0.12708043283E+00  0.22569633145E-01 0.  0.
         14    1    1    2    0    0  0.16164288925E-01  0.18330282081E-01  0.41963293901E-03  0.24442986099E-01  0.00000000000E+00 0. -1.
     999901    1    3    3    0    0 -0.83792831915E-01 -0.11645967639E+00  0.37488812187E-01  0.89240658107E+00  0.88000000000E+00 0. -1.
        -11    1    4    4    0    0  0.24233750014E-01  0.37462582151E-01 -0.25713084017E-01  0.51498966124E-01  0.51100000000E-03 0.  1.
         11    1    4    4    0    0  0.43394792976E-01  0.60666812162E-01 -0.12195361109E-01  0.75581466703E-01  0.51100000000E-03 0. -1.
</event>
<event>
 8    1  0.1054833E+005  0.1043930E+01  0.7957747E-01            NaN
         13   -1    0    0    0    0  0.00000000000E+00  0.00000000000E+00  0.74505805969E-08  0.10566000000E+00  0.10566000000E+00 0. -1.
     999900   -1    0    0    0    0 -0.00000000000E+00 -0.00000000000E+00 -0.74505805969E-08  0.93827000000E+00  0.93827000000E+00 0.  1.
     999902    2    1    2    0    0 -0.24149059569E-01  0.19302565354E-03  0.11352677154E-01  0.10172448428E+01  0.10168947697E+01 0.  0.
     999903    2    3    3    0    0 -0.74995364157E-01 -0.84824907957E-01  0.61635447895E-01  0.13026020213E+00  0.18687486907E-01 0.  0.
         14    1    1    2    0    0  0.24149059569E-01 -0.19302565354E-03 -0.11352677154E-01  0.26685157214E-01  0.00000000000E+00 0. -1.
     999901    1    3    3    0    0  0.50846304587E-01  0.85017933610E-01 -0.50282770741E-01  0.88698464066E+00  0.88000000000E+00 0.  1.
        -11    1    4    4    0    0 -0.37661638773E-01 -0.45723281387E-01  0.42504964679E-01  0.72910566033E-01  0.51100000000E-03 0.  1.
         11    1    4    4    0    0 -0.37333725383E-01 -0.39101626570E-01  0.19130483216E-01  0.57349636098E-01  0.51100000000E-03 0. -1.
</event>
<event>
 8    1  0.1054833E+005  0.1043930E+01  0.7957747E-01            NaN
         13   -1    0    0    0    0  0.00000000000E+00  0.00000000000E+00  0.74505805969E-08  0.10566000000E+00  0.10566000000E+00 0.  1.
     999900   -1    0    0    0    0 -0.00000000000E+00 -0.00000000000E+00 -0.74505805969E-08  0.93827000000E+00  0.93827000000E+00 0. -1.
     999902    2    1    2    0    0 -0.38571666541E-02  0.34382562912E-02 -0.22482734380E-01  0.10208611317E+01  0.10206004495E+01 0.  0.
     999903    2    3    3    0    0  0.60864511369E-01 -0.11368806184E+00 -0.20136714126E-02  0.13050926159E+00  0.19978697177E-01 0.  0.
         14    1    1    2    0    0  0.38571666541E-02 -0.34382562912E-02  0.22482734380E-01  0.23068868332E-01  0.00000000000E+00 0.  1.
     999901    1    3    3    0    0 -0.64721678023E-01  0.11712631813E+00 -0.20469062967E-01  0.89035187007E+00  0.88000000000E+00 0. -1.
        -11    1    4    4    0    0  0.17218809049E-02 -0.12016628234E-01  0.38346234179E-02  0.12740866757E-01  0.51100000000E-03 0.  1.
         11    1    4    4    0    0  0.59142630464E-01 -0.10167143360E+00 -0.58482948305E-02  0.11776839484E+00  0.51100000000E-03 0. -1.
</event>
<event>
 8    1  0.1054833E+005  0.1043930E+01  0.7957747E-01            NaN
         13   -1    0    0    0    0  0.00000000000E+00  0.00000000000E+00  0.74505805969E-08  0.10566000000E+00  0.10566000000E+00 0.  1.
     999900   -1    0    0    0    0 -0.00000000000E+00 -0.00000000000E+00 -0.74505805969E-08  0.93827000000E+00  0.93827000000E+00 0. -1.
     999902    2    1    2    0    0  0.11992296250E-01  0.10421944087E-01  0.11801446429E-01  0.10241384304E+01  0.10239471756E+01 0.  0.
     999903    2    3    3    0    0 -0.28477211291E-01 -0.12500056564E+00  0.27707032662E-01  0.13271820133E+00  0.20257056360E-01 0.  0.
         14    1    1    2    0    0 -0.11992296250E-01 -0.10421944087E-01 -0.11801446429E-01  0.19791569561E-01  0.00000000000E+00 0. -1.
     999901    1    3    3    0    0  0.40469507541E-01  0.13542250973E+00 -0.15905586234E-01  0.89142022910E+00  0.88000000000E+00 0.  1.
        -11    1    4    4    0    0 -0.18383634564E-03 -0.37985423589E-01  0.12288379840E-01  0.39927329001E-01  0.51100000000E-03 0. -1.
         11    1    4    4    0    0 -0.28293374946E-01 -0.87015142055E-01  0.15418652822E-01  0.92790872334E-01  0.51100000000E-03 0.  1.
</event>
<event>
 8    1  0.1054833E+005  0.1043930E+01  0.7957747E-01            NaN
         13   -1    0    0    0    0  0.00000000000E+00  0.00000000000E+00  0.74505805969E-08  0.10566000000E+00  0.10566000000E+00 0.  1.
     999900   -1    0    0    0    0 -0.00000000000E+00 -0.00000000000E+00 -0.74505805969E-08  0.93827000000E+00  0.93827000000E+00 0. -1.
     999902    2    1    2    0    0  0.24600982945E-03  0.16081967164E-01 -0.16901687121E-01  0.10205985359E+01  0.10203318158E+01 0.  0.
     999903    2    3    3    0    0 -0.12733756437E+00  0.26184855686E-01  0.29400087181E-04  0.13117945670E+00  0.17537018826E-01 0.  0.
         14    1    1    2    0    0 -0.24600982945E-03 -0.16081967164E-01  0.16901687121E-01  0.23331464082E-01  0.00000000000E+00 0.  1.
     999901    1    3    3    0    0  0.12758357420E+00 -0.10102888522E-01 -0.16931087208E-01  0.88941907922E+00  0.88000000000E+00 0. -1.
        -11    1    4    4    0    0 -0.61997683077E-01  0.92822248324E-02 -0.80476422782E-02  0.63205206051E-01  0.51100000000E-03 0. -1.
         11    1    4    4    0    0 -0.65339881292E-01  0.16902630854E-01  0.80770423654E-02  0.67974250649E-01  0.51100000000E-03 0.  1.
</event>
<event>
 8    1  0.1054833E+005  0.1043930E+01  0.7957747E-01            NaN
         13   -1    0    0    0    0  0.00000000000E+00  0.00000000000E+00  0.74505805969E-08  0.10566000000E+00  0.10566000000E+00 0. -1.
     999900   -1    0    0    0    0 -0.00000000000E+00 -0.00000000000E+00 -0.74505805969E-08  0.93827000000E+00  0.93827000000E+00 0. -1.
     999902    2    1    2    0    0  0.11750920935E-01 -0.15616741356E-01  0.12402981806E-01  0.10207826306E+01  0.10205201508E+01 0.  0.
     999903    2    3    3    0    0 -0.54634099504E-01  0.11222043383E+00 -0.21179556236E-01  0.12843903019E+00  0.21672569641E-01 0.  0.
         14    1    1    2    0    0 -0.11750920935E-01  0.15616741356E-01 -0.12402981806E-01  0.23147369421E-01  0.00000000000E+00 0.  1.
     999901    1    3    3    0    0  0.66385020439E-01 -0.12783717519E+00  0.33582538041E-01  0.89234360039E+00  0.88000000000E+00 0. -1.
        -11    1    4    4    0    0  0.17964290311E-04  0.11466371530E-01  0.15559068139E-02  0.11582744312E-01  0.51100000000E-03 0.  1.
         11    1    4    4    0    0 -0.54652063794E-01  0.10075406230E+00 -0.22735463049E-01  0.11685628588E+00  0.51100000000E-03 0. -1.
</event>
<event>
 8    1  0.1054833E+005  0.1043930E+01  0.7957747E-01            NaN
         13   -1    0    0    0    0  0.00000000000E+00  0.00000000000E+00  0.74505805969E-08  0.10566000000E+00  0.10566000000E+00 0. -1.
     999900   -1    0    0    0    0 -0.00000000000E+00 -0.00000000000E+00 -0.74505805969E-08  0.93827000000E+00  0.93827000000E+00 0. -1.
     999902    2    1    2    0    0  0.15782327726E-01 -0.10718332880E-01  0.13629046513E-01  0.10204839889E+01  0.10202146128E+01 0.  0.
     999903    2    3    3    0    0  0.98706314153E-01 -0.44808197168E-01 -0.72106570260E-01  0.13178319427E+00  0.20414255562E-01 0.  0.
         14    1    1    2    0    0 -0.15782327726E-01  0.10718332880E-01 -0.13629046513E-01  0.23446011111E-01  0.00000000000E+00 0.  1.
     999901    1    3    3    0    0 -0.82923986428E-01  0.34089864288E-01  0.85735616773E-01  0.88870079462E+00  0.88000000000E+00 0. -1.
        -11    1    4    4    0    0  0.87811096928E-01 -0.36821793379E-01 -0.69814345357E-01  0.11807174577E+00  0.51100000000E-03 0. -1.
         11    1    4    4    0    0  0.10895217225E-01 -0.79864037894E-02 -0.22922249034E-02  0.13711448497E-01  0.51100000000E-03 0.  1.
</event>
<event>
 8    1  0.1054833E+005  0.1043930E+01  0.7957747E-01            NaN
         13   -1    0    0    0    0  0.00000000000E+00  0.00000000000E+00  0.74505805969E-08  0.10566000000E+00  0.10566000000E+00 0. -1.
     999900   -1    0    0    0    0 -0.00000000000E+00 -0.00000000000E+00 -0.74505805969E-08  0.93827000000E+00  0.93827000000E+00 0.  1.
     999902    2    1    2    0    0  0.38430456706E-02 -0.19553739624E-01  0.30486773624E-03  0.10239998551E+01  0.10238058861E+01 0.  0.
     999903    2    3    3    0    0 -0.24491783600E-01 -0.86315820806E-02  0.12994308214E+00  0.13398399974E+00  0.19802926958E-01 0.  0.
         14    1    1    2    0    0 -0.38430456706E-02  0.19553739624E-01 -0.30486773624E-03  0.19930144947E-01  0.00000000000E+00 0. -1.
     999901    1    3    3    0    0  0.28334829271E-01 -0.10922157543E-01 -0.12963821441E+00  0.89001585531E+00  0.88000000000E+00 0.  1.
        -11    1    4    4    0    0 -0.12286745597E-01 -0.13627536671E-01  0.91939328234E-01  0.93753800297E-01  0.51100000000E-03 0. -1.
         11    1    4    4    0    0 -0.12205038003E-01  0.49959545907E-02  0.38003753909E-01  0.40230199441E-01  0.51100000000E-03 0.  1.
</event>
<event>
 8    1  0.1054833E+005  0.1043930E+01  0.7957747E-01            NaN
         13   -1    0    0    0    0  0.00000000000E+00  0.00000000000E+00  0.74505805969E-08  0.10566000000E+00  0.10566000000E+00 0. -1.
     999900   -1    0    0    0    0 -0.00000000000E+00 -0.00000000000E+00 -0.74505805969E-08  0.93827000000E+00  0.93827000000E+00 0. -1.
     999902    2    1    2    0    0 -0.13370910862E-01  0.67196341238E-02  0.51483737091E-03  0.10289566972E+01  0.10288477462E+01 0.  0.
     999903    2    3    3    0    0  0.48737345496E-01  0.65957721281E-01 -0.10906605474E+00  0.13801643072E+00  0.20673195404E-01 0.  0.
         14    1    1    2    0    0  0.13370910862E-01 -0.67196341238E-02 -0.51483737091E-03  0.14973302827E-01  0.00000000000E+00 0.  1.
     999901    1    3    3    0    0 -0.62108256358E-01 -0.59238087157E-01  0.10958089211E+00  0.89094026646E+00  0.88000000000E+00 0.  1.
        -11    1    4    4    0    0  0.18591846456E-01  0.42317463202E-01 -0.61719218025E-01  0.77109969790E-01  0.51100000000E-03 0.  1.
         11    1    4    4    0    0  0.30145499040E-01  0.23640258079E-01 -0.47346836717E-01  0.60906460926E-01  0.51100000000E-03 0. -1.
</event>
<event>
 8    1  0.1054833E+005  0.1043930E+01  0.7957747E-01            NaN
         13   -1    0    0    0    0  0.00000000000E+00  0.00000000000E+00  0.74505805969E-08  0.10566000000E+00  0.10566000000E+00 0.  1.
     999900   -1    0    0    0    0 -0.00000000000E+00 -0.00000000000E+00 -0.74505805969E-08  0.93827000000E+00  0.93827000000E+00 0. -1.
     999902    2    1    2    0    0  0.18827969129E-01  0.19964490778E-02  0.12549446835E-01  0.10212150964E+01  0.10209624411E+01 0.  0.
     999903    2    3    3    0    0 -0.17829502009E-01  0.17770465356E-01  0.12867868644E+00  0.13268901907E+00  0.20359048532E-01 0.  0.
         14    1    1    2    0    0 -0.18827969129E-01 -0.19964490778E-02 -0.12549446835E-01  0.22714903617E-01  0.00000000000E+00 0. -1.
     999901    1    3    3    0    0  0.36657471138E-01 -0.15774016278E-01 -0.11612923960E+00  0.88852607732E+00  0.88000000000E+00 0. -1.
        -11    1    4    4    0    0 -0.76035955796E-02  0.23084786390E-02  0.11121877813E-01  0.13678487726E-01  0.51100000000E-03 0.  1.
         11    1    4    4    0    0 -0.10225906429E-01  0.15461986717E-01  0.11755680862E+00  0.11901053134E+00  0.51100000000E-03 0. -1.
</event>
<event>
 8    1  0.1054833E+005  0.1043930E+01  0.7957747E-01            NaN
         13   -1    0    0    0    0  0.00000000000E+00  0.00000000000E+00  0.74505805969E-08  0.10566000000E+00  0.10566000000E+00 0. -1.
     999900   -1    0    0    0    0 -0.00000000000E+00 -0.00000000000E+00 -0.74505805969E-08  0.93827000000E+00  0.93827000000E+00 0. -1.
     999902    2    1    2    0    0  0.20354706330E-02 -0.20755352730E-01  0.11096334705E-01  0.10203067815E+01  0.10200332700E+01 0.  0.
     999903    2    3    3    0    0  0.17675901600E-01 -0.92839802029E-01 -0.91053387947E-01  0.13133245301E+00  0.50820682596E-02 0.  0.
         14    1    1    2    0    0 -0.20354706330E-02  0.20755352730E-01 -0.11096334705E-01  0.23623218484E-01  0.00000000000E+00 0. -1.
     999901    1    3    3    0    0 -0.15640430967E-01  0.72084449299E-01  0.10214972265E+00  0.88897432851E+00  0.88000000000E+00 0.  1.
        -11    1    4    4    0    0  0.14785730149E-01 -0.80108594184E-01 -0.76145366556E-01  0.11150956303E+00  0.51100000000E-03 0.  1.
         11    1    4    4    0    0  0.28901714516E-02 -0.12731207845E-01 -0.14908021392E-01  0.19822889977E-01  0.51100000000E-03 0. -1.
</event>
<event>
 8    1  0.1054833E+005  0.1043930E+01  0.7957747E-01            NaN
         13   -1    0    0    0    0  0.00000000000E+00  0.00000000000E+00  0.74505805969E-08  0.10566000000E+00  0.10566000000E+00 0.  1.
     999900   -1    0    0    0    0 -0.00000000000E+00 -0.00000000000E+00 -0.74505805969E-08  0.93827000000E+00  0.93827000000E+00 0.  1.
     999902    2    1    2    0    0  0.10064896370E-01 -0.19852839777E-01 -0.34996781282E-02  0.10213981307E+01  0.10211495759E+01 0.  0.
     999903    2    3    3    0    0  0.26042283309E-01  0.10012833845E+00 -0.76403058663E-01  0.13012619527E+00  0.19786728950E-01 0.  0.
         14    1    1    2    0    0 -0.10064896370E-01  0.19852839777E-01  0.34996781282E-02  0.22531869278E-01  0.00000000000E+00 0.  1.
     999901    1    3    3    0    0 -0.15977386939E-01 -0.11998117823E+00  0.72903380535E-01  0.89127193545E+00  0.88000000000E+00 0. -1.
        -11    1    4    4    0    0  0.89291657196E-02  0.15778554789E-01 -0.65713147165E-02  0.19290829163E-01  0.51100000000E-03 0. -1.
         11    1    4    4    0    0  0.17113117589E-01  0.84349783663E-01 -0.69831743947E-01  0.11083536611E+00  0.51100000000E-03 0.  1.
</event>
<event>
 8    1  0.1054833E+005  0.1043930E+01  0.7957747E-01            NaN
         13   -1    0    0    0    0  0.00000000000E+00  0.00000000000E+00  0.74505805969E-08  0.10566000000E+00  0.10566000000E+00 0.  1.
     999900   -1    0    0    0    0 -0.00000000000E+00 -0.00000000000E+00 -0.74505805969E-08  0.93827000000E+00  0.93827000000E+00 0.  1.
     999902    2    1    2    0    0 -0.22551678469E-01 -0.53590383552E-02  0.17416564959E-02  0.10206849820E+01  0.10204202574E+01 0.  0.
     999903    2    3    3    0    0  0.84707651791E-01  0.71930622969E-01  0.62035249750E-01  0.12876930603E+00  0.19589823160E-01 0.  0.
         14    1    1    2    0    0  0.22551678469E-01  0.53590383552E-02 -0.17416564959E-02  0.23245017987E-01  0.00000000000E+00 0. -1.
     999901    1    3    3    0    0 -0.10725933026E+00 -0.77289661324E-01 -0.60293593254E-01  0.89191567598E+00  0.88000000000E+00 0. -1.
        -11    1    4    4    0    0  0.26459076187E-01  0.34357494561E-01  0.27187880249E-01  0.51185565335E-01  0.51100000000E-03 0. -1.
         11    1    4    4    0    0  0.58248575604E-01  0.37573128407E-01  0.34847369500E-01  0.77583740696E-01  0.51100000000E-03 0.  1.
</event>
<event>
 8    1  0.1054833E+005  0.1043930E+01  0.7957747E-01            NaN
         13   -1    0    0    0    0  0.00000000000E+00  0.00000000000E+00  0.74505805969E-08  0.10566000000E+00  0.10566000000E+00 0.  1.
     999900   -1    0    0    0    0 -0.00000000000E+00 -0.00000000000E+00 -0.74505805969E-08  0.93827000000E+00  0.93827000000E+00 0.  1.
     999902    2    1    2    0    0  0.16231471064E-01 -0.39640532386E-02 -0.16195911355E-01  0.10206602360E+01  0.10203949409E+01 0.  0.
     999903    2    3    3    0    0  0.79211627744E-02  0.66530012705E-01 -0.11248071271E+00  0.13256720175E+00  0.20812612416E-01 0.  0.
         14    1    1    2    0    0 -0.16231471064E-01  0.39640532386E-02  0.16195911355E-01  0.23269763979E-01  0.00000000000E+00 0. -1.
     999901    1    3    3    0    0  0.83103082901E-02 -0.70494065944E-01  0.96284801359E-01  0.88809303428E+00  0.88000000000E+00 0. -1.
        -11    1    4    4    0    0  0.50073706747E-02  0.14904780839E-01 -0.44197057912E-01  0.46913402158E-01  0.51100000000E-03 0. -1.
         11    1    4    4    0    0  0.29137920996E-02  0.51625231866E-01 -0.68283654802E-01  0.85653799587E-01  0.51100000000E-03 0.  1.
</event>
<event>
 8    1  0.1054833E+005  0.1043930E+01  0.7957747E-01            NaN
         13   -1    0    0    0    0  0.00000000000E+00  0.00000000000E+00  0.74505805969E-08  0.10566000000E+00  0.10566000000E+00 0.  1.
     999900   -1    0    0    0    0 -0.00000000000E+00 -0.00000000000E+00 -0.74505805969E-08  0.93827000000E+00  0.93827000000E+00 0. -1.
     999902    2    1    2    0    0 -0.14220092717E-01  0.14592506960E-01  0.13227267392E-01  0.10196377605E+01  0.10193483457E+01 0.  0.
     999903    2    3    3    0    0  0.63587475164E-01  0.38133457855E-01  0.10625817411E+00  0.13100794806E+00  0.19358597133E-01 0.  0.
         14    1    1    2    0    0  0.14220092717E-01 -0.14592506960E-01 -0.13227267392E-01  0.24292239479E-01  0.00000000000E+00 0. -1.
     999901    1    3    3    0    0 -0.77807567881E-01 -0.23540950895E-01 -0.93030906723E-01  0.88862981246E+00  0.88000000000E+00 0. -1.
        -11    1    4    4    0    0  0.28187360083E-01  0.60650350983E-02  0.38371194020E-01  0.47999183021E-01  0.51100000000E-03 0.  1.
         11    1    4    4    0    0  0.35400115081E-01  0.32068422757E-01  0.67886980095E-01  0.83008765039E-01  0.51100000000E-03 0. -1.
</event>
<event>
 8    1  0.1054833E+005  0.1043930E+01  0.7957747E-01            NaN
         13   -1    0    0    0    0  0.00000000000E+00  0.00000000000E+00  0.74505805969E-08  0.10566000000E+00  0.10566000000E+00 0.  1.
     999900   -1    0    0    0    0 -0.00000000000E+00 -0.00000000000E+00 -0.74505805969E-08  0.93827000000E+00  0.93827000000E+00 0. -1.
     999902    2    1    2    0    0 -0.24705317116E-01 -0.23676899725E-02 -0.15913372739E-02  0.10190605206E+01  0.10187570141E+01 0.  0.
     999903    2    3    3    0    0  0.76147013724E-01 -0.29018982262E-02 -0.10058781434E+00  0.12778515326E+00  0.20108413374E-01 0.  0.
         14    1    1    2    0    0  0.24705317116E-01  0.23676899725E-02  0.15913372739E-02  0.24869479365E-01  0.00000000000E+00 0.  1.
     999901    1    3    3    0    0 -0.10085233084E+00  0.53420825370E-03  0.98996477065E-01  0.89127536737E+00  0.88000000000E+00 0.  1.
        -11    1    4    4    0    0  0.62690977706E-01  0.33853195983E-02 -0.71734634917E-01  0.95329628354E-01  0.51100000000E-03 0. -1.
         11    1    4    4    0    0  0.13456036017E-01 -0.62872178245E-02 -0.28853179422E-01  0.32455524907E-01  0.51100000000E-03 0.  1.
</event>
<event>
 8    1  0.1054833E+005  0.1043930E+01  0.7957747E-01            NaN
         13   -1    0    0    0    0  0.00000000000E+00  0.00000000000E+00  0.74505805969E-08  0.10566000000E+00  0.10566000000E+00 0.  1.
     999900   -1    0    0    0    0 -0.00000000000E+00 -0.00000000000E+00 -0.74505805969E-08  0.93827000000E+00  0.93827000000E+00 0. -1.
     999902    2    1    2    0    0  0.17025248916E-01  0.16063363219E-01  0.81406785067E-02  0.10191477203E+01  0.10188463645E+01 0.  0.
     999903    2    3    3    0    0 -0.39372298051E-01  0.12001912528E-01  0.12156941228E+00  0.13006771476E+00  0.21077586693E-01 0.  0.
         14    1    1    2    0    0 -0.17025248916E-01 -0.16063363219E-01 -0.81406785067E-02  0.24782279659E-01  0.00000000000E+00 0. -1.
     999901    1    3    3    0    0  0.56397546967E-01  0.40614506911E-02 -0.11342873378E+00  0.88908000559E+00  0.88000000000E+00 0. -1.
        -11    1    4    4    0    0 -0.97877251592E-02  0.42152566092E-02  0.63899199656E-01  0.64783769493E-01  0.51100000000E-03 0.  1.
         11    1    4    4    0    0 -0.29584572892E-01  0.77866559191E-02  0.57670212627E-01  0.65283945262E-01  0.51100000000E-03 0. -1.
</event>
<event>
 8    1  0.1054833E+005  0.1043930E+01  0.7957747E-01            NaN
         13   -1    0    0    0    0  0.00000000000E+00  0.00000000000E+00  0.74505805969E-08  0.10566000000E+00  0.10566000000E+00 0.  1.
     999900   -1    0    0    0    0 -0.00000000000E+00 -0.00000000000E+00 -0.74505805969E-08  0.93827000000E+00  0.93827000000E+00 0. -1.
     999902    2    1    2    0    0 -0.11660636762E-01  0.37867687589E-02 -0.21130996681E-01  0.10194999143E+01  0.10192071655E+01 0.  0.
     999903    2    3    3    0    0 -0.18812097079E-01  0.58749058939E-01  0.11010779139E+00  0.12804289557E+00  0.21584959088E-01 0.  0.
         14    1    1    2    0    0  0.11660636762E-01 -0.37867687589E-02  0.21130996681E-01  0.24430085716E-01  0.00000000000E+00 0.  1.
     999901    1    3    3    0    0  0.71514603177E-02 -0.54962290180E-01 -0.13123878807E+00  0.89145701872E+00  0.88000000000E+00 0. -1.
        -11    1    4    4    0    0 -0.53390223993E-02  0.47295811322E-01  0.77681245456E-01  0.91104533067E-01  0.51100000000E-03 0. -1.
         11    1    4    4    0    0 -0.13473074680E-01  0.11453247617E-01  0.32426545929E-01  0.36938362501E-01  0.51100000000E-03 0.  1.
</event>
<event>
 8    1  0.1054833E+005  0.1043930E+01  0.7957747E-01            NaN
         13   -1    0    0    0    0  0.00000000000E+00  0.00000000000E+00  0.74505805969E-08  0.10566000000E+00  0.10566000000E+00 0. -1.
     999900   -1    0    0    0    0 -0.00000000000E+00 -0.00000000000E+00 -0.74505805969E-08  0.93827000000E+00  0.93827000000E+00 0.  1.
     999902    2    1    2    0    0 -0.98313730828E-02  0.21259515717E-01 -0.25838100737E-02  0.10203652174E+01  0.10200930731E+01 0.  0.
     999903    2    3    3    0    0 -0.24096132662E-01 -0.11657044778E+00  0.42693756217E-01  0.12837270609E+00  0.22079446176E-01 0.  0.
         14    1    1    2    0    0  0.98313730828E-02 -0.21259515717E-01  0.25838100737E-02  0.23564782616E-01  0.00000000000E+00 0. -1.
     999901    1    3    3    0    0  0.14264759579E-01  0.13782996350E+00 -0.45277566291E-01  0.89199251130E+00  0.88000000000E+00 0. -1.
        -11    1    4    4    0    0 -0.26465851752E-01 -0.97732941347E-01  0.30288072919E-01  0.10568726326E+00  0.51100000000E-03 0. -1.
         11    1    4    4    0    0  0.23697190901E-02 -0.18837506431E-01  0.12405683298E-01  0.22685442826E-01  0.51100000000E-03 0.  1.
</event>
<event>
 8    1  0.1054833E+005  0.1043930E+01  0.7957747E-01            NaN
         13   -1    0    0    0    0  0.00000000000E+00  0.00000000000E+00  0.74505805969E-08  0.10566000000E+00  0.10566000000E+00 0.  1.
     999900   -1    0    0    0    0 -0.00000000000E+00 -0.00000000000E+00 -0.74505805969E-08  0.93827000000E+00  0.93827000000E+00 0.  1.
     999902    2    1    2    0    0  0.76127384625E-02  0.19010052204E-01 -0.12364440142E-01  0.10200089789E+01  0.10197284451E+01 0.  0.
     999903    2    3    3    0    0 -0.77394802407E-01  0.73212692282E-02 -0.10378711058E+00  0.13112146387E+00  0.19429810693E-01 0.  0.
         14    1    1    2    0    0 -0.76127384625E-02 -0.19010052204E-01  0.12364440142E-01  0.23921021127E-01  0.00000000000E+00 0. -1.
     999901    1    3    3    0    0  0.85007540869E-01  0.11688782976E-01  0.91422670436E-01  0.88888751500E+00  0.88000000000E+00 0. -1.
        -11    1    4    4    0    0 -0.54513663434E-01  0.10794881161E-01 -0.61333534872E-01  0.82766735958E-01  0.51100000000E-03 0. -1.
         11    1    4    4    0    0 -0.22881138973E-01 -0.34736119332E-02 -0.42453575707E-01  0.48354727916E-01  0.51100000000E-03 0.  1.
</event>
<event>
 8    1  0.1054833E+005  0.1043930E+01  0.7957747E-01            NaN
         13   -1    0    0    0    0  0.00000000000E+00  0.00000000000E+00  0.74505805969E-08  0.10566000000E+00  0.10566000000E+00 0.  1.
     999900   -1    0    0    0    0 -0.00000000000E+00 -0.00000000000E+00 -0.74505805969E-08  0.93827000000E+00  0.93827000000E+00 0. -1.
     999902    2    1    2    0    0 -0.28613689439E-02 -0.22442405454E-01  0.69284925746E-02  0.10202687869E+01  0.10199943846E+01 0.  0.
     999903    2    3    3    0    0 -0.29863051481E-01  0.58010868436E-01  0.11058490316E+00  0.13013033051E+00  0.21161744020E-01 0.  0.
         14    1    1    2    0    0  0.28613689439E-02  0.22442405454E-01 -0.69284925746E-02  0.23661213075E-01  0.00000000000E+00 0. -1.
     999901    1    3    3    0    0  0.27001682538E-01 -0.80453273890E-01 -0.10365641059E+00  0.89013845642E+00  0.88000000000E+00 0. -1.
        -11    1    4    4    0    0 -0.14267307103E-01  0.35550726864E-01  0.82332920247E-01  0.90809587104E-01  0.51100000000E-03 0.  1.
         11    1    4    4    0    0 -0.15595744378E-01  0.22460141572E-01  0.28251982915E-01  0.39320743403E-01  0.51100000000E-03 0. -1.
</event>
<event>
 8    1  0.1054833E+005  0.1043930E+01  0.7957747E-01            NaN
         13   -1    0    0    0    0  0.00000000000E+00  0.00000000000E+00  0.74505805969E-08  0.10566000000E+00  0.10566000000E+00 0.  1.
     999900   -1    0    0    0    0 -0.00000000000E+00 -0.00000000000E+00 -0.74505805969E-08  0.93827000000E+00  0.93827000000E+00 0. -1.
     999902    2    1    2    0    0  0.14604231369E-01  0.36870769483E-02  0.18471493103E-01  0.10200956935E+01  0.10198172139E+01 0.  0.
     999903    2    3    3    0    0 -0.32899208716E-01  0.10048280300E+00 -0.71192726909E-01  0.12899207337E+00  0.19783806401E-01 0.  0.
         14    1    1    2    0    0 -0.14604231369E-01 -0.36870769483E-02 -0.18471493103E-01  0.23834306530E-01  0.00000000000E+00 0. -1.
     999901    1    3    3    0    0  0.47503440085E-01 -0.96795726049E-01  0.89664220012E-01  0.89110362010E+00  0.88000000000E+00 0. -1.
        -11    1    4    4    0    0 -0.22127726208E-01  0.43132041102E-01 -0.39825658549E-01  0.62740365289E-01  0.51100000000E-03 0. -1.
         11    1    4    4    0    0 -0.10771482508E-01  0.57350761895E-01 -0.31367068360E-01  0.66251708083E-01  0.51100000000E-03 0.  1.
</event>
<event>
 8    1  0.1054833E+005  0.1043930E+01  0.7957747E-01            NaN
         13   -1    0    0    0    0  0.00000000000E+00  0.00000000000E+00  0.74505805969E-08  0.10566000000E+00  0.10566000000E+00 0.  1.
     999900   -1    0    0    0    0 -0.00000000000E+00 -0.00000000000E+00 -0.74505805969E-08  0.93827000000E+00  0.93827000000E+00 0. -1.
     999902    2    1    2    0    0  0.16215071621E-01  0.16847865952E-01  0.53500460107E-02  0.10199424589E+01  0.10196603441E+01 0.  0.
     999903    2    3    3    0    0  0.14307380885E-01 -0.11192355491E+00  0.58119865796E-01  0.12900454189E+00  0.23079639024E-01 0.  0.
         14    1    1    2    0    0 -0.16215071621E-01 -0.16847865952E-01 -0.53500460107E-02  0.23987541081E-01  0.00000000000E+00 0.  1.
     999901    1    3    3    0    0  0.19076907364E-02  0.12877142086E+00 -0.52769819785E-01  0.89093791703E+00  0.88000000000E+00 0. -1.
        -11    1    4    4    0    0 -0.74690454346E-03 -0.47877966405E-01  0.14380834409E-01  0.49999270522E-01  0.51100000000E-03 0. -1.
         11    1    4    4    0    0  0.15054285428E-01 -0.64045588505E-01  0.43739031387E-01  0.79005271371E-01  0.51100000000E-03 0.  1.
</event>
<event>
 8    1  0.1054833E+005  0.1043930E+01  0.7957747E-01            NaN
         13   -1    0    0    0    0  0.00000000000E+00  0.00000000000E+00  0.74505805969E-08  0.10566000000E+00  0.10566000000E+00 0. -1.
     999900   -1    0    0    0    0 -0.00000000000E+00 -0.00000000000E+00 -0.74505805969E-08  0.93827000000E+00  0.93827000000E+00 0.  1.
     999902    2    1    2    0    0  0.23968527807E-02 -0.45617772506E-02  0.18628255663E-01  0.10246021283E+01  0.10244198137E+01 0.  0.
     999903    2    3    3    0    0 -0.25786288747E-01  0.10181764124E+00 -0.78284481442E-01  0.13246819848E+00  0.19687529520E-01 0.  0.
         14    1    1    2    0    0 -0.23968527807E-02  0.45617772506E-02 -0.18628255663E-01  0.19327871688E-01  0.00000000000E+00 0.  1.
     999901    1    3    3    0    0  0.28183141527E-01 -0.10637941849E+00  0.96912737106E-01  0.89213392983E+00  0.88000000000E+00 0. -1.
        -11    1    4    4    0    0 -0.12400570347E-01  0.19953572052E-01 -0.12631154866E-01  0.26678200404E-01  0.51100000000E-03 0.  1.
         11    1    4    4    0    0 -0.13385718399E-01  0.81864069189E-01 -0.65653326576E-01  0.10578999808E+00  0.51100000000E-03 0. -1.
</event>
<event>
 8    1  0.1054833E+005  0.1043930E+01  0.7957747E-01            NaN
         13   -1    0    0    0    0  0.00000000000E+00  0.00000000000E+00  0.74505805969E-08  0.10566000000E+00  0.10566000000E+00 0.  1.
     999900   -1    0    0    0    0 -0.00000000000E+00 -0.00000000000E+00 -0.74505805969E-08  0.93827000000E+00  0.93827000000E+00 0. -1.
     999902    2    1    2    0    0  0.94417381435E-02 -0.16231401047E-01 -0.13559509154E-01  0.10207682840E+01  0.10205054750E+01 0.  0.
     999903    2    3    3    0    0 -0.25253776403E-01 -0.83920988820E-01  0.94907291759E-01  0.13085216104E+00  0.20842467041E-01 0.  0.
         14    1    1    2    0    0 -0.94417381435E-02  0.16231401047E-01  0.13559509154E-01  0.23161715991E-01  0.00000000000E+00 0. -1.
     999901    1    3    3    0    0  0.34695514547E-01  0.67689587773E-01 -0.10846680091E+00  0.88991612297E+00  0.88000000000E+00 0. -1.
        -11    1    4    4    0    0 -0.15947051637E-01 -0.31392805190E-01  0.26341889740E-01  0.43976959305E-01  0.51100000000E-03 0. -1.
         11    1    4    4    0    0 -0.93067247666E-02 -0.52528183630E-01  0.68565402019E-01  0.86875201734E-01  0.51100000000E-03 0.  1.
</event>
<event>
 8    1  0.1054833E+005  0.1043930E+01  0.7957747E-01            NaN
         13   -1    0    0    0    0  0.00000000000E+00  0.00000000000E+00  0.74505805969E-08  0.10566000000E+00  0.10566000000E+00 0.  1.
     999900   -1    0    0    0    0 -0.00000000000E+00 -0.00000000000E+00 -0.74505805969E-08  0.93827000000E+00  0.93827000000E+00 0. -1.
     999902    2    1    2    0    0 -0.22043168751E-01 -0.39779561014E-02  0.86474137945E-02  0.10199195192E+01  0.10196368581E+01 0.  0.
     999903    2    3    3    0    0  0.12548402553E+00 -0.10745959764E-01  0.21716992658E-02  0.12758997592E+00  0.20316726186E-01 0.  0.
         14    1    1    2    0    0  0.22043168751E-01  0.39779561014E-02 -0.86474137945E-02  0.24010480808E-01  0.00000000000E+00 0. -1.
     999901    1    3    3    0    0 -0.14752719428E+00  0.67680036624E-02  0.64757145287E-02  0.89232954328E+00  0.88000000000E+00 0.  1.
        -11    1    4    4    0    0  0.24212058499E-01 -0.10159988001E-01 -0.74732348159E-03  0.26272966074E-01  0.51100000000E-03 0. -1.
         11    1    4    4    0    0  0.10127196703E+00 -0.58597176321E-03  0.29190227474E-02  0.10131700984E+00  0.51100000000E-03 0.  1.
</event>
<event>
 8    1  0.1054833E+005  0.1043930E+01  0.7957747E-01            NaN
         13   -1    0    0    0    0  0.00000000000E+00  0.00000000000E+00  0.74505805969E-08  0.10566000000E+00  0.10566000000E+00 0.  1.
     999900   -1    0    0    0    0 -0.00000000000E+00 -0.00000000000E+00 -0.74505805969E-08  0.93827000000E+00  0.93827000000E+00 0. -1.
     999902    2    1    2    0    0 -0.10424865990E-01 -0.13792860241E-01 -0.15575978162E-01  0.10206591616E+01  0.10203938417E+01 0.  0.
     999903    2    3    3    0    0  0.63584179576E-01 -0.72204115222E-02 -0.11383212115E+00  0.13207894262E+00  0.19799319273E-01 0.  0.
         14    1    1    2    0    0  0.10424865990E-01  0.13792860241E-01  0.15575978162E-01  0.23270838409E-01  0.00000000000E+00 0.  1.
     999901    1    3    3    0    0 -0.74009045567E-01 -0.65724487189E-02  0.98256142988E-01  0.88858021897E+00  0.88000000000E+00 0.  1.
        -11    1    4    4    0    0  0.53402711442E-01 -0.38271498703E-02 -0.10609172206E+00  0.11883691041E+00  0.51100000000E-03 0.  1.
         11    1    4    4    0    0  0.10181468134E-01 -0.33932616519E-02 -0.77403990916E-02  0.13242032212E-01  0.51100000000E-03 0. -1.
</event>
<event>
 8    1  0.1054833E+005  0.1043930E+01  0.7957747E-01            NaN
         13   -1    0    0    0    0  0.00000000000E+00  0.00000000000E+00  0.74505805969E-08  0.10566000000E+00  0.10566000000E+00 0.  1.
     999900   -1    0    0    0    0 -0.00000000000E+00 -0.00000000000E+00 -0.74505805969E-08  0.93827000000E+00  0.93827000000E+00 0.  1.
     999902    2    1    2    0    0  0.16197053911E-02  0.23215359794E-02 -0.23669328002E-01  0.10200920038E+01  0.10198134369E+01 0.  0.
     999903    2    3    3    0    0  0.10735102352E+00 -0.67451731473E-01  0.20398774824E-01  0.12992942417E+00  0.19788049972E-01 0.  0.
         14    1    1    2    0    0 -0.16197053911E-02 -0.23215359794E-02  0.23669328002E-01  0.23837996202E-01  0.00000000000E+00 0.  1.
     999901    1    3    3    0    0 -0.10573131813E+00  0.69773267453E-01 -0.44068102825E-01  0.89016257963E+00  0.88000000000E+00 0.  1.
        -11    1    4    4    0    0  0.70456652111E-01 -0.54222015179E-01  0.10691920103E-01  0.89547445710E-01  0.51100000000E-03 0.  1.
         11    1    4    4    0    0  0.36894371407E-01 -0.13229716295E-01  0.97068547204E-02  0.40381978460E-01  0.51100000000E-03 0. -1.
</event>
<event>
 8    1  0.1054833E+005  0.1043930E+01  0.7957747E-01            NaN
         13   -1    0    0    0    0  0.00000000000E+00  0.00000000000E+00  0.74505805969E-08  0.10566000000E+00  0.10566000000E+00 0.  1.
     999900   -1    0    0    0    0 -0.00000000000E+00 -0.00000000000E+00 -0.74505805969E-08  0.93827000000E+00  0.93827000000E+00 0.  1.
     999902    2    1    2    0    0 -0.41864919276E-02  0.23226787579E-01  0.88245850537E-03  0.10203124407E+01  0.10200390617E+01 0.  0.
     999903    2    3    3    0    0  0.12796455327E+00 -0.81304350437E-02 -0.54085784633E-02  0.12987055525E+00  0.19901696705E-01 0.  0.
         14    1    1    2    0    0  0.41864919276E-02 -0.23226787579E-01 -0.88245850537E-03  0.23617559334E-01  0.00000000000E+00 0. -1.
     999901    1    3    3    0    0 -0.13215104520E+00  0.31357222623E-01  0.62910369687E-02  0.89044188542E+00  0.88000000000E+00 0. -1.
        -11    1    4    4    0    0  0.84170951634E-01 -0.14466117571E-01 -0.11578935850E-02  0.85414398641E-01  0.51100000000E-03 0. -1.
         11    1    4    4    0    0  0.43793601637E-01  0.63356825276E-02 -0.42506848783E-02  0.44456156609E-01  0.51100000000E-03 0.  1.
</event>
<event>
 8    1  0.1054833E+005  0.1043930E+01  0.7957747E-01            NaN
         13   -1    0    0    0    0  0.00000000000E+00  0.00000000000E+00  0.74505805969E-08  0.10566000000E+00  0.10566000000E+00 0. -1.
     999900   -1    0    0    0    0 -0.00000000000E+00 -0.00000000000E+00 -0.74505805969E-08  0.93827000000E+00  0.93827000000E+00 0. -1.
     999902    2    1    2    0    0 -0.17494415897E-01  0.73864792453E-02 -0.14906364860E-01  0.10197884512E+01  0.10195026586E+01 0.  0.
     999903    2    3    3    0    0  0.11090337573E+00 -0.16059398737E-01  0.56905541824E-01  0.12726805818E+00  0.20036339603E-01 0.  0.
         14    1    1    2    0    0  0.17494415897E-01 -0.73864792453E-02  0.14906364860E-01  0.24141548761E-01  0.00000000000E+00 0. -1.
     999901    1    3    3    0    0 -0.12839779163E+00  0.23445877982E-01 -0.71811906684E-01  0.89252039306E+00  0.88000000000E+00 0. -1.
        -11    1    4    4    0    0  0.56489514463E-01 -0.10487276610E-02  0.36394293113E-01  0.67208412913E-01  0.51100000000E-03 0. -1.
         11    1    4    4    0    0  0.54413861271E-01 -0.15010671076E-01  0.20511248711E-01  0.60059645264E-01  0.51100000000E-03 0.  1.
</event>
<event>
 8    1  0.1054833E+005  0.1043930E+01  0.7957747E-01            NaN
         13   -1    0    0    0    0  0.00000000000E+00  0.00000000000E+00  0.74505805969E-08  0.10566000000E+00  0.10566000000E+00 0. -1.
     999900   -1    0    0    0    0 -0.00000000000E+00 -0.00000000000E+00 -0.74505805969E-08  0.93827000000E+00  0.93827000000E+00 0.  1.
     999902    2    1    2    0    0  0.26814568730E-01 -0.11089043292E-02  0.57306888912E-02  0.10164874863E+01  0.10161169806E+01 0.  0.
     999903    2    3    3    0    0  0.12105265126E+00  0.42685768003E-01  0.10410021705E-01  0.13036069755E+00  0.20241633954E-01 0.  0.
         14    1    1    2    0    0 -0.26814568730E-01  0.11089043292E-02 -0.57306888912E-02  0.27442513736E-01  0.00000000000E+00 0. -1.
     999901    1    3    3    0    0 -0.94238082534E-01 -0.43794672333E-01 -0.46793328140E-02  0.88612678872E+00  0.88000000000E+00 0. -1.
        -11    1    4    4    0    0  0.83636195184E-01  0.21205892596E-01  0.14655948357E-02  0.86296651818E-01  0.51100000000E-03 0.  1.
         11    1    4    4    0    0  0.37416456080E-01  0.21479875407E-01  0.89444268695E-02  0.44064045730E-01  0.51100000000E-03 0. -1.
</event>
<event>
 8    1  0.1054833E+005  0.1043930E+01  0.7957747E-01            NaN
         13   -1    0    0    0    0  0.00000000000E+00  0.00000000000E+00  0.74505805969E-08  0.10566000000E+00  0.10566000000E+00 0.  1.
     999900   -1    0    0    0    0 -0.00000000000E+00 -0.00000000000E+00 -0.74505805969E-08  0.93827000000E+00  0.93827000000E+00 0.  1.
     999902    2    1    2    0    0 -0.17857846519E-01 -0.10910692809E-01 -0.47854336718E-02  0.10224626696E+01  0.10222372838E+01 0.  0.
     999903    2    3    3    0    0 -0.22375387974E-01 -0.82472162299E-01  0.10000767383E+00  0.13334903934E+00  0.21865862165E-01 0.  0.
         14    1    1    2    0    0  0.17857846519E-01  0.10910692809E-01  0.47854336718E-02  0.21467330419E-01  0.00000000000E+00 0.  1.
     999901    1    3    3    0    0  0.45175414549E-02  0.71561469491E-01 -0.10479310750E+00  0.88911363024E+00  0.88000000000E+00 0.  1.
        -11    1    4    4    0    0  0.23052811104E-02 -0.21982995435E-01  0.18076307207E-01  0.28558368520E-01  0.51100000000E-03 0.  1.
         11    1    4    4    0    0 -0.24680669085E-01 -0.60489166865E-01  0.81931366619E-01  0.10479067082E+00  0.51100000000E-03 0. -1.
</event>
<event>
 7    1  0.1054833E+005  0.1043930E+01  0.7957747E-01            NaN
         13   -1    0    0    0    0  0.00000000000E+00  0.00000000000E+00  0.74505805969E-08  0.10566000000E+00  0.10566000000E+00 0.  1.
     999900   -1    0    0    0    0 -0.00000000000E+00 -0.00000000000E+00 -0.74505805969E-08  0.93827000000E+00  0.93827000000E+00 0.  1.
     999903    2    1    2    0    0 -0.13521130566E-01  0.69946463356E-01  0.49743436313E-02  0.74274529309E-01  0.20411587438E-01 0.  0.
         14    1    1    2    0    0  0.29135251219E-02  0.43406285618E-01 -0.67298678156E-01  0.80135549797E-01  0.00000000000E+00 0. -1.
     999901    1    1    2    0    0  0.10607605444E-01 -0.11335274897E+00  0.62324334525E-01  0.88951992089E+00  0.88000000000E+00 0. -1.
        -11    1    3    3    0    0 -0.66235902918E-02  0.57803471394E-01 -0.28590708674E-02  0.58254172905E-01  0.51100000000E-03 0.  1.
         11    1    3    3    0    0 -0.68975402739E-02  0.12142991961E-01  0.78334144987E-02  0.16020356404E-01  0.51100000000E-03 0. -1.
</event>
<event>
 8    1  0.1054833E+005  0.1043930E+01  0.7957747E-01            NaN
         13   -1    0    0    0    0  0.00000000000E+00  0.00000000000E+00  0.74505805969E-08  0.10566000000E+00  0.10566000000E+00 0. -1.
     999900   -1    0    0    0    0 -0.00000000000E+00 -0.00000000000E+00 -0.74505805969E-08  0.93827000000E+00  0.93827000000E+00 0.  1.
     999902    2    1    2    0    0 -0.38950523938E-02  0.18913208539E-01  0.12652554875E-01  0.10208438995E+01  0.10205828233E+01 0.  0.
     999903    2    3    3    0    0 -0.87746376567E-01  0.86844501983E-01  0.46957287457E-01  0.13358828817E+00  0.19986239423E-01 0.  0.
         14    1    1    2    0    0  0.38950523938E-02 -0.18913208539E-01 -0.12652554875E-01  0.23086100477E-01  0.00000000000E+00 0.  1.
     999901    1    3    3    0    0  0.83851324173E-01 -0.67931293444E-01 -0.34304732581E-01  0.88725561135E+00  0.88000000000E+00 0.  1.
        -11    1    4    4    0    0 -0.63354085916E-01  0.67105468672E-01  0.26104762261E-01  0.95909352316E-01  0.51100000000E-03 0.  1.
         11    1    4    4    0    0 -0.24392290651E-01  0.19739033311E-01  0.20852525196E-01  0.37678935857E-01  0.51100000000E-03 0. -1.
</event>
<event>
 8    1  0.1054833E+005  0.1043930E+01  0.7957747E-01            NaN
         13   -1    0    0    0    0  0.00000000000E+00  0.00000000000E+00  0.74505805969E-08  0.10566000000E+00  0.10566000000E+00 0. -1.
     999900   -1    0    0    0    0 -0.00000000000E+00 -0.00000000000E+00 -0.74505805969E-08  0.93827000000E+00  0.93827000000E+00 0.  1.
     999902    2    1    2    0    0 -0.16794854366E-01  0.54174630180E-02  0.15046775917E-01  0.10207390211E+01  0.10204755399E+01 0.  0.
     999903    2    3    3    0    0  0.64534717857E-01 -0.10994606881E+00  0.10508594380E-01  0.12947932889E+00  0.20039915127E-01 0.  0.
         14    1    1    2    0    0  0.16794854366E-01 -0.54174630180E-02 -0.15046775917E-01  0.23190978940E-01  0.00000000000E+00 0.  1.
     999901    1    3    3    0    0 -0.81329572223E-01  0.11536353183E+00  0.45381815365E-02  0.89125969217E+00  0.88000000000E+00 0. -1.
        -11    1    4    4    0    0  0.21488331119E-01 -0.48903151426E-01  0.12078110370E-01  0.54766855531E-01  0.51100000000E-03 0. -1.
         11    1    4    4    0    0  0.43046386738E-01 -0.61042917385E-01 -0.15695159894E-02  0.74712473359E-01  0.51100000000E-03 0.  1.
</event>
<event>
 8    1  0.1054833E+005  0.1043930E+01  0.7957747E-01            NaN
         13   -1    0    0    0    0  0.00000000000E+00  0.00000000000E+00  0.74505805969E-08  0.10566000000E+00  0.10566000000E+00 0. -1.
     999900   -1    0    0    0    0 -0.00000000000E+00 -0.00000000000E+00 -0.74505805969E-08  0.93827000000E+00  0.93827000000E+00 0.  1.
     999902    2    1    2    0    0  0.10679506245E-01  0.41181072644E-02  0.21088139646E-01  0.10199358279E+01  0.10196535553E+01 0.  0.
     999903    2    3    3    0    0  0.80906363380E-01  0.10267430588E+00  0.10287860153E-01  0.13158804590E+00  0.11032725563E-01 0.  0.
         14    1    1    2    0    0 -0.10679506245E-01 -0.41181072644E-02 -0.21088139646E-01  0.23994172101E-01  0.00000000000E+00 0.  1.
     999901    1    3    3    0    0 -0.70226857135E-01 -0.98556198617E-01  0.10800279493E-01  0.88834778200E+00  0.88000000000E+00 0. -1.
        -11    1    4    4    0    0  0.67833656478E-01  0.83460961068E-01  0.45615046392E-02  0.10764852725E+00  0.51100000000E-03 0.  1.
         11    1    4    4    0    0  0.13072706902E-01  0.19213344813E-01  0.57263555133E-02  0.23939518648E-01  0.51100000000E-03 0. -1.
</event>
<event>
 8    1  0.1083228E+005  0.1043930E+01  0.7957747E-01            NaN
         13   -1    0    0    0    0  0.00000000000E+00  0.00000000000E+00  0.74505805969E-08  0.10566000000E+00  0.10566000000E+00 0.  1.
     999900   -1    0    0    0    0 -0.00000000000E+00 -0.00000000000E+00 -0.74505805969E-08  0.93827000000E+00  0.93827000000E+00 0.  1.
     999902    2    1    2    0    0 -0.70073099861E-02  0.14004136786E-01 -0.20081855644E-01  0.10184643532E+01  0.10181459324E+01 0.  0.
     999903    2    3    3    0    0  0.42280756076E-04  0.63668172814E-01 -0.11435615237E+00  0.13200856964E+00  0.17184145498E-01 0.  0.
         14    1    1    2    0    0  0.70073099861E-02 -0.14004136786E-01  0.20081855644E-01  0.25465646790E-01  0.00000000000E+00 0.  1.
     999901    1    3    3    0    0 -0.70495907421E-02 -0.49664036029E-01  0.94274296724E-01  0.88645578357E+00  0.88000000000E+00 0. -1.
        -11    1    4    4    0    0  0.17454830318E-03  0.16389037056E-01 -0.46478335600E-01  0.49286182688E-01  0.51100000000E-03 0.  1.
         11    1    4    4    0    0 -0.13226754710E-03  0.47279135759E-01 -0.67877816767E-01  0.82722386951E-01  0.51100000000E-03 0. -1.
</event>
<event>
 8    1  0.1054833E+005  0.1043930E+01  0.7957747E-01            NaN
         13   -1    0    0    0    0  0.00000000000E+00  0.00000000000E+00  0.74505805969E-08  0.10566000000E+00  0.10566000000E+00 0.  1.
     999900   -1    0    0    0    0 -0.00000000000E+00 -0.00000000000E+00 -0.74505805969E-08  0.93827000000E+00  0.93827000000E+00 0. -1.
     999902    2    1    2    0    0 -0.19730219959E-01  0.12867575206E-01 -0.23037688971E-02  0.10202622282E+01  0.10199876719E+01 0.  0.
     999903    2    3    3    0    0  0.95691083534E-01  0.43321908435E-01 -0.72740378027E-01  0.12941383502E+00  0.20571992613E-01 0.  0.
         14    1    1    2    0    0  0.19730219959E-01 -0.12867575206E-01  0.23037688971E-02  0.23667771810E-01  0.00000000000E+00 0. -1.
     999901    1    3    3    0    0 -0.11542130349E+00 -0.30454333230E-01  0.70436609130E-01  0.89084839317E+00  0.88000000000E+00 0. -1.
        -11    1    4    4    0    0  0.56005120047E-01  0.24349590044E-01 -0.29855767031E-01  0.67978702200E-01  0.51100000000E-03 0.  1.
         11    1    4    4    0    0  0.39685963487E-01  0.18972318392E-01 -0.42884610996E-01  0.61435132818E-01  0.51100000000E-03 0. -1.
</event>
<event>
 8    1  0.1054833E+005  0.1043930E+01  0.7957747E-01            NaN
         13   -1    0    0    0    0  0.00000000000E+00  0.00000000000E+00  0.74505805969E-08  0.10566000000E+00  0.10566000000E+00 0. -1.
     999900   -1    0    0    0    0 -0.00000000000E+00 -0.00000000000E+00 -0.74505805969E-08  0.93827000000E+00  0.93827000000E+00 0.  1.
     999902    2    1    2    0    0 -0.63559622519E-02 -0.53218222364E-02 -0.23182406055E-01  0.10193100082E+01  0.10190126342E+01 0.  0.
     999903    2    3    3    0    0  0.84279314570E-01  0.47226296412E-01  0.80121149168E-01  0.12709496530E+00  0.20010140496E-01 0.  0.
         14    1    1    2    0    0  0.63559622519E-02  0.53218222364E-02  0.23182406055E-01  0.24619991847E-01  0.00000000000E+00 0. -1.
     999901    1    3    3    0    0 -0.90635276822E-01 -0.52548118648E-01 -0.10330355522E+00  0.89221504286E+00  0.88000000000E+00 0.  1.
        -11    1    4    4    0    0  0.49439173246E-01  0.32480282634E-01  0.37211471463E-01  0.69886732222E-01  0.51100000000E-03 0.  1.
         11    1    4    4    0    0  0.34840141324E-01  0.14746013777E-01  0.42909677705E-01  0.57208233074E-01  0.51100000000E-03 0. -1.
</event>
<event>
 8    1  0.1054833E+005  0.1043930E+01  0.7957747E-01            NaN
         13   -1    0    0    0    0  0.00000000000E+00  0.00000000000E+00  0.74505805969E-08  0.10566000000E+00  0.10566000000E+00 0. -1.
     999900   -1    0    0    0    0 -0.00000000000E+00 -0.00000000000E+00 -0.74505805969E-08  0.93827000000E+00  0.93827000000E+00 0.  1.
     999902    2    1    2    0    0  0.14919462564E-01 -0.12808520001E-01  0.20338264195E-01  0.10156405402E+01  0.10152464791E+01 0.  0.
     999903    2    3    3    0    0  0.38180482252E-01  0.28033061096E-01  0.11836201229E+00  0.12895132460E+00  0.19372052642E-01 0.  0.
         14    1    1    2    0    0 -0.14919462564E-01  0.12808520001E-01 -0.20338264195E-01  0.28289459845E-01  0.00000000000E+00 0.  1.
     999901    1    3    3    0    0 -0.23261019689E-01 -0.40841581097E-01 -0.98023748099E-01  0.88668921555E+00  0.88000000000E+00 0.  1.
        -11    1    4    4    0    0  0.38903410605E-01  0.27083515991E-01  0.10133715086E+00  0.11187703723E+00  0.51100000000E-03 0. -1.
         11    1    4    4    0    0 -0.72292835248E-03  0.94954510427E-03  0.17024861437E-01  0.17074287372E-01  0.51100000000E-03 0.  1.
</event>
<event>
 8    1  0.1054833E+005  0.1043930E+01  0.7957747E-01            NaN
         13   -1    0    0    0    0  0.00000000000E+00  0.00000000000E+00  0.74505805969E-08  0.10566000000E+00  0.10566000000E+00 0. -1.
     999900   -1    0    0    0    0 -0.00000000000E+00 -0.00000000000E+00 -0.74505805969E-08  0.93827000000E+00  0.93827000000E+00 0. -1.
     999902    2    1    2    0    0 -0.22524931338E-01  0.13121819759E-02  0.61068206139E-02  0.10205550645E+01  0.10202873380E+01 0.  0.
     999903    2    3    3    0    0  0.11747699767E+00  0.13262116968E-01  0.47792027274E-01  0.12843343737E+00  0.15308208102E-01 0.  0.
         14    1    1    2    0    0  0.22524931338E-01 -0.13121819759E-02 -0.61068206139E-02  0.23374935537E-01  0.00000000000E+00 0. -1.
     999901    1    3    3    0    0 -0.14000192901E+00 -0.11949934992E-01 -0.41685206660E-01  0.89212162709E+00  0.88000000000E+00 0.  1.
        -11    1    4    4    0    0  0.27121759157E-02  0.19382444154E-02  0.35998282042E-02  0.49328058659E-02  0.51100000000E-03 0. -1.
         11    1    4    4    0    0  0.11476482176E+00  0.11323872553E-01  0.44192199069E-01  0.12350063150E+00  0.51100000000E-03 0.  1.
</event>
<event>
 8    1  0.1054833E+005  0.1043930E+01  0.7957747E-01            NaN
         13   -1    0    0    0    0  0.00000000000E+00  0.00000000000E+00  0.74505805969E-08  0.10566000000E+00  0.10566000000E+00 0.  1.
     999900   -1    0    0    0    0 -0.00000000000E+00 -0.00000000000E+00 -0.74505805969E-08  0.93827000000E+00  0.93827000000E+00 0. -1.
     999902    2    1    2    0    0 -0.78925358481E-02  0.35871176740E-02  0.22002518579E-01  0.10202811024E+01  0.10200069889E+01 0.  0.
     999903    2    3    3    0    0 -0.10078268471E+00  0.13120560812E-01  0.83688277804E-01  0.13319339578E+00  0.20185494381E-01 0.  0.
         14    1    1    2    0    0  0.78925358481E-02 -0.35871176740E-02 -0.22002518579E-01  0.23648897630E-01  0.00000000000E+00 0. -1.
     999901    1    3    3    0    0  0.92890148864E-01 -0.95334431381E-02 -0.61685759225E-01  0.88708770659E+00  0.88000000000E+00 0.  1.
        -11    1    4    4    0    0 -0.23214911419E-01  0.10608443946E-01  0.26439720199E-01  0.36753110350E-01  0.51100000000E-03 0. -1.
         11    1    4    4    0    0 -0.77567773293E-01  0.25121168658E-02  0.57248557605E-01  0.96440285429E-01  0.51100000000E-03 0.  1.
</event>
<event>
 8    1  0.1054833E+005  0.1043930E+01  0.7957747E-01            NaN
         13   -1    0    0    0    0  0.00000000000E+00  0.00000000000E+00  0.74505805969E-08  0.10566000000E+00  0.10566000000E+00 0.  1.
     999900   -1    0    0    0    0 -0.00000000000E+00 -0.00000000000E+00 -0.74505805969E-08  0.93827000000E+00  0.93827000000E+00 0.  1.
     999902    2    1    2    0    0  0.54399958465E-02 -0.88645563718E-02  0.22827989960E-01  0.10188443260E+01  0.10185354533E+01 0.  0.
     999903    2    3    3    0    0 -0.53671111446E-01 -0.11415760385E+00  0.27575736316E-01  0.13058575444E+00  0.19485156085E-01 0.  0.
         14    1    1    2    0    0 -0.54399958465E-02  0.88645563718E-02 -0.22827989960E-01  0.25085674001E-01  0.00000000000E+00 0. -1.
     999901    1    3    3    0    0  0.59111107293E-01  0.10529304748E+00 -0.47477463562E-02  0.88825857156E+00  0.88000000000E+00 0. -1.
        -11    1    4    4    0    0 -0.15175901435E-01 -0.53831180770E-01  0.90123219940E-02  0.56653217704E-01  0.51100000000E-03 0.  1.
         11    1    4    4    0    0 -0.38495210011E-01 -0.60326423083E-01  0.18563414322E-01  0.73932536735E-01  0.51100000000E-03 0. -1.
</event>
<event>
 8    1  0.1054833E+005  0.1043930E+01  0.7957747E-01            NaN
         13   -1    0    0    0    0  0.00000000000E+00  0.00000000000E+00  0.74505805969E-08  0.10566000000E+00  0.10566000000E+00 0.  1.
     999900   -1    0    0    0    0 -0.00000000000E+00 -0.00000000000E+00 -0.74505805969E-08  0.93827000000E+00  0.93827000000E+00 0.  1.
     999902    2    1    2    0    0 -0.91244151121E-02 -0.20804091991E-01 -0.66805058462E-02  0.10202510145E+01  0.10199761950E+01 0.  0.
     999903    2    3    3    0    0 -0.12440645762E+00 -0.36429923942E-01 -0.18588415290E-01  0.13251461544E+00  0.20260505117E-01 0.  0.
         14    1    1    2    0    0  0.91244151121E-02  0.20804091991E-01  0.66805058462E-02  0.23678985473E-01  0.00000000000E+00 0.  1.
     999901    1    3    3    0    0  0.11528204251E+00  0.15625831952E-01  0.11907909444E-01  0.88773639908E+00  0.88000000000E+00 0.  1.
        -11    1    4    4    0    0 -0.53611900004E-01 -0.16380540079E-01  0.20371385862E-02  0.56097851741E-01  0.51100000000E-03 0. -1.
         11    1    4    4    0    0 -0.70794557615E-01 -0.20049383863E-01 -0.20625553876E-01  0.76416763703E-01  0.51100000000E-03 0.  1.
</event>
<event>
 8    1  0.1054833E+005  0.1043930E+01  0.7957747E-01            NaN
         13   -1    0    0    0    0  0.00000000000E+00  0.00000000000E+00  0.74505805969E-08  0.10566000000E+00  0.10566000000E+00 0. -1.
     999900   -1    0    0    0    0 -0.00000000000E+00 -0.00000000000E+00 -0.74505805969E-08  0.93827000000E+00  0.93827000000E+00 0. -1.
     999902    2    1    2    0    0 -0.90410535698E-02  0.12957927016E-02  0.21612505484E-01  0.10204668348E+01  0.10201970598E+01 0.  0.
     999903    2    3    3    0    0  0.12237383144E+00 -0.30931934017E-02  0.40633277994E-01  0.13049440545E+00  0.19819286192E-01 0.  0.
         14    1    1    2    0    0  0.90410535698E-02 -0.12957927016E-02 -0.21612505484E-01  0.23463165210E-01  0.00000000000E+00 0.  1.
     999901    1    3    3    0    0 -0.13141488501E+00  0.43889861033E-02 -0.19020772510E-01  0.88997242934E+00  0.88000000000E+00 0.  1.
        -11    1    4    4    0    0  0.32027779806E-01  0.25463061682E-02  0.23817753179E-02  0.32221054127E-01  0.51100000000E-03 0. -1.
         11    1    4    4    0    0  0.90346051638E-01 -0.56394995699E-02  0.38251502676E-01  0.98273351321E-01  0.51100000000E-03 0.  1.
</event>
<event>
 8    1  0.1054833E+005  0.1043930E+01  0.7957747E-01            NaN
         13   -1    0    0    0    0  0.00000000000E+00  0.00000000000E+00  0.74505805969E-08  0.10566000000E+00  0.10566000000E+00 0. -1.
     999900   -1    0    0    0    0 -0.00000000000E+00 -0.00000000000E+00 -0.74505805969E-08  0.93827000000E+00  0.93827000000E+00 0. -1.
     999902    2    1    2    0    0 -0.24404943280E-02 -0.18988611413E-01 -0.12868462135E-01  0.10208622586E+01  0.10206016022E+01 0.  0.
     999903    2    3    3    0    0  0.10337445610E+00 -0.76412906196E-01  0.22241044038E-01  0.13197135933E+00  0.19913945783E-01 0.  0.
         14    1    1    2    0    0  0.24404943280E-02  0.18988611413E-01  0.12868462135E-01  0.23067741409E-01  0.00000000000E+00 0. -1.
     999901    1    3    3    0    0 -0.10581495043E+00  0.57424294783E-01 -0.35109506174E-01  0.88889089926E+00  0.88000000000E+00 0. -1.
        -11    1    4    4    0    0  0.76793460863E-01 -0.49722626619E-01  0.85373265516E-02  0.91884287530E-01  0.51100000000E-03 0. -1.
         11    1    4    4    0    0  0.26580995235E-01 -0.26690279577E-01  0.13703717487E-01  0.40087071801E-01  0.51100000000E-03 0.  1.
</event>
<event>
 8    1  0.1054833E+005  0.1043930E+01  0.7957747E-01            NaN
         13   -1    0    0    0    0  0.00000000000E+00  0.00000000000E+00  0.74505805969E-08  0.10566000000E+00  0.10566000000E+00 0. -1.
     999900   -1    0    0    0    0 -0.00000000000E+00 -0.00000000000E+00 -0.74505805969E-08  0.93827000000E+00  0.93827000000E+00 0. -1.
     999902    2    1    2    0    0  0.21518188103E-01 -0.54552329874E-03  0.11687106666E-01  0.10194367667E+01  0.10191424841E+01 0.  0.
     999903    2    3    3    0    0 -0.90901049150E-01 -0.69191011967E-01  0.55936511995E-01  0.12853368674E+00  0.18482921300E-01 0.  0.
         14    1    1    2    0    0 -0.21518188103E-01  0.54552329874E-03 -0.11687106666E-01  0.24493233293E-01  0.00000000000E+00 0.  1.
     999901    1    3    3    0    0  0.11241923725E+00  0.68645488669E-01 -0.44249405328E-01  0.89090307996E+00  0.88000000000E+00 0.  1.
        -11    1    4    4    0    0 -0.42861781057E-01 -0.22382797101E-01  0.27959514380E-01  0.55858011483E-01  0.51100000000E-03 0.  1.
         11    1    4    4    0    0 -0.48039268093E-01 -0.46808214866E-01  0.27976997614E-01  0.72675675259E-01  0.51100000000E-03 0. -1.
</event>
<event>
 8    1  0.1054833E+005  0.1043930E+01  0.7957747E-01            NaN
         13   -1    0    0    0    0  0.00000000000E+00  0.00000000000E+00  0.74505805969E-08  0.10566000000E+00  0.10566000000E+00 0. -1.
     999900   -1    0    0    0    0 -0.00000000000E+00 -0.00000000000E+00 -0.74505805969E-08  0.93827000000E+00  0.93827000000E+00 0.  1.
     999902    2    1    2    0    0 -0.23364174783E-01  0.47403982625E-02  0.21953951503E-02  0.10199889098E+01  0.10197078995E+01 0.  0.
     999903    2    3    3    0    0  0.50270647571E-01 -0.10362596799E+00 -0.53637068270E-01  0.12853918024E+00  0.19491190728E-01 0.  0.
         14    1    1    2    0    0  0.23364174783E-01 -0.47403982625E-02 -0.21953951503E-02  0.23941090176E-01  0.00000000000E+00 0.  1.
     999901    1    3    3    0    0 -0.73634822354E-01  0.10836636625E+00  0.55832463420E-01  0.89144972958E+00  0.88000000000E+00 0. -1.
        -11    1    4    4    0    0  0.19981780361E-01 -0.60197056786E-01 -0.34729207303E-01  0.72314149051E-01  0.51100000000E-03 0.  1.
         11    1    4    4    0    0  0.30288867210E-01 -0.43428911203E-01 -0.18907860967E-01  0.56225031192E-01  0.51100000000E-03 0. -1.
</event>
<event>
 8    1  0.1054833E+005  0.1043930E+01  0.7957747E-01            NaN
         13   -1    0    0    0    0  0.00000000000E+00  0.00000000000E+00  0.74505805969E-08  0.10566000000E+00  0.10566000000E+00 0.  1.
     999900   -1    0    0    0    0 -0.00000000000E+00 -0.00000000000E+00 -0.74505805969E-08  0.93827000000E+00  0.93827000000E+00 0.  1.
     999902    2    1    2    0    0 -0.22981275174E-01  0.13110706896E-02  0.54924244769E-02  0.10202651602E+01  0.10199906728E+01 0.  0.
     999903    2    3    3    0    0  0.85830319995E-01  0.80342743876E-01 -0.47883268627E-01  0.12844963377E+00  0.19613787941E-01 0.  0.
         14    1    1    2    0    0  0.22981275174E-01 -0.13110706896E-02 -0.54924244769E-02  0.23664839776E-01  0.00000000000E+00 0. -1.
     999901    1    3    3    0    0 -0.10881159517E+00 -0.79031673187E-01  0.53375693104E-01  0.89181552645E+00  0.88000000000E+00 0.  1.
        -11    1    4    4    0    0  0.44571984405E-01  0.53670988267E-01 -0.32502926299E-01  0.76967123594E-01  0.51100000000E-03 0. -1.
         11    1    4    4    0    0  0.41258335590E-01  0.26671755609E-01 -0.15380342329E-01  0.51482510177E-01  0.51100000000E-03 0.  1.
</event>
<event>
 8    1  0.1054833E+005  0.1043930E+01  0.7957747E-01            NaN
         13   -1    0    0    0    0  0.00000000000E+00  0.00000000000E+00  0.74505805969E-08  0.10566000000E+00  0.10566000000E+00 0. -1.
     999900   -1    0    0    0    0 -0.00000000000E+00 -0.00000000000E+00 -0.74505805969E-08  0.93827000000E+00  0.93827000000E+00 0. -1.
     999902    2    1    2    0    0 -0.85845712345E-02  0.18665764347E-01  0.15604459512E-01  0.10181306826E+01  0.10178037542E+01 0.  0.
     999903    2    3    3    0    0  0.11119142487E+00  0.46385712431E-01  0.42383164533E-01  0.12918086185E+00  0.19395750830E-01 0.  0.
         14    1    1    2    0    0  0.85845712345E-02 -0.18665764347E-01 -0.15604459512E-01  0.25799317406E-01  0.00000000000E+00 0.  1.
     999901    1    3    3    0    0 -0.11977599610E+00 -0.27719948083E-01 -0.26778705020E-01  0.88894982075E+00  0.88000000000E+00 0. -1.
        -11    1    4    4    0    0  0.98969335405E-01  0.35152872053E-01  0.32921487241E-01  0.11006697601E+00  0.51100000000E-03 0.  1.
         11    1    4    4    0    0  0.12222089461E-01  0.11232840377E-01  0.94616772919E-02  0.19113885840E-01  0.51100000000E-03 0. -1.
</event>
<event>
 8    1  0.1054833E+005  0.1043930E+01  0.7957747E-01            NaN
         13   -1    0    0    0    0  0.00000000000E+00  0.00000000000E+00  0.74505805969E-08  0.10566000000E+00  0.10566000000E+00 0. -1.
     999900   -1    0    0    0    0 -0.00000000000E+00 -0.00000000000E+00 -0.74505805969E-08  0.93827000000E+00  0.93827000000E+00 0.  1.
     999902    2    1    2    0    0 -0.11812078090E-01 -0.19712782344E-01  0.25594014280E-02  0.10208070782E+01  0.10205451589E+01 0.  0.
     999903    2    3    3    0    0  0.10643508240E+00 -0.55500433805E-01 -0.47627964626E-01  0.13076105767E+00  0.20525746530E-01 0.  0.
         14    1    1    2    0    0  0.11812078090E-01  0.19712782344E-01 -0.25594014280E-02  0.23122921792E-01  0.00000000000E+00 0. -1.
     999901    1    3    3    0    0 -0.11824716049E+00  0.35787651461E-01  0.50187366054E-01  0.89004602054E+00  0.88000000000E+00 0. -1.
        -11    1    4    4    0    0  0.34230419462E-01 -0.27816594064E-01 -0.12663047806E-01  0.45892247958E-01  0.51100000000E-03 0. -1.
         11    1    4    4    0    0  0.72204662939E-01 -0.27683839741E-01 -0.34964916821E-01  0.84868809714E-01  0.51100000000E-03 0.  1.
</event>
<event>
 8    1  0.1054833E+005  0.1043930E+01  0.7957747E-01            NaN
         13   -1    0    0    0    0  0.00000000000E+00  0.00000000000E+00  0.74505805969E-08  0.10566000000E+00  0.10566000000E+00 0.  1.
     999900   -1    0    0    0    0 -0.00000000000E+00 -0.00000000000E+00 -0.74505805969E-08  0.93827000000E+00  0.93827000000E+00 0.  1.
     999902    2    1    2    0    0  0.11390146287E-01 -0.19280012460E-01  0.22674061846E-02  0.10214223248E+01  0.10211743094E+01 0.  0.
     999903    2    3    3    0    0 -0.34283525833E-01 -0.32467293032E-01  0.12129380334E+00  0.13213762801E+00  0.22774563590E-01 0.  0.
         14    1    1    2    0    0 -0.11390146287E-01  0.19280012460E-01 -0.22674061846E-02  0.22507675217E-01  0.00000000000E+00 0.  1.
     999901    1    3    3    0    0  0.45673672120E-01  0.13187280572E-01 -0.11902639716E+00  0.88928469677E+00  0.88000000000E+00 0.  1.
        -11    1    4    4    0    0 -0.14104518093E-01 -0.16795010648E-01  0.28951362968E-01  0.36324266709E-01  0.51100000000E-03 0.  1.
         11    1    4    4    0    0 -0.20179007740E-01 -0.15672282384E-01  0.92342440374E-01  0.95813361301E-01  0.51100000000E-03 0. -1.
</event>
<event>
 8    1  0.1054833E+005  0.1043930E+01  0.7957747E-01            NaN
         13   -1    0    0    0    0  0.00000000000E+00  0.00000000000E+00  0.74505805969E-08  0.10566000000E+00  0.10566000000E+00 0.  1.
     999900   -1    0    0    0    0 -0.00000000000E+00 -0.00000000000E+00 -0.74505805969E-08  0.93827000000E+00  0.93827000000E+00 0.  1.
     999902    2    1    2    0    0 -0.22570042635E-01 -0.20046018809E-03 -0.10001236660E-01  0.10192425185E+01  0.10189434919E+01 0.  0.
     999903    2    3    3    0    0 -0.54189910561E-01 -0.21921859995E-01 -0.11668871229E+00  0.13196925014E+00  0.19557941001E-01 0.  0.
         14    1    1    2    0    0  0.22570042635E-01  0.20046018809E-03  0.10001236660E-01  0.24687481515E-01  0.00000000000E+00 0.  1.
     999901    1    3    3    0    0  0.31619867925E-01  0.21721399807E-01  0.10668747563E+00  0.88727326834E+00  0.88000000000E+00 0. -1.
        -11    1    4    4    0    0 -0.17719109842E-01 -0.11828304241E-01 -0.61193346138E-01  0.64797857738E-01  0.51100000000E-03 0.  1.
         11    1    4    4    0    0 -0.36470800719E-01 -0.10093555754E-01 -0.55495366148E-01  0.67171392406E-01  0.51100000000E-03 0. -1.
</event>
<event>
 8    1  0.1054833E+005  0.1043930E+01  0.7957747E-01            NaN
         13   -1    0    0    0    0  0.00000000000E+00  0.00000000000E+00  0.74505805969E-08  0.10566000000E+00  0.10566000000E+00 0. -1.
     999900   -1    0    0    0    0 -0.00000000000E+00 -0.00000000000E+00 -0.74505805969E-08  0.93827000000E+00  0.93827000000E+00 0. -1.
     999902    2    1    2    0    0 -0.21714820060E-02 -0.20727725013E-01  0.95299183085E-02  0.10210133410E+01  0.10207561262E+01 0.  0.
     999903    2    3    3    0    0  0.38430486681E-01  0.99365172003E-01  0.70916344548E-01  0.12981240004E+00  0.21720763503E-01 0.  0.
         14    1    1    2    0    0  0.21714820060E-02  0.20727725013E-01 -0.95299183085E-02  0.22916659034E-01  0.00000000000E+00 0.  1.
     999901    1    3    3    0    0 -0.40601968687E-01 -0.12009289702E+00 -0.61386426240E-01  0.89120094092E+00  0.88000000000E+00 0.  1.
        -11    1    4    4    0    0 -0.56806193879E-03  0.18807205731E-01  0.82453206471E-02  0.20549455354E-01  0.51100000000E-03 0.  1.
         11    1    4    4    0    0  0.38998548619E-01  0.80557966272E-01  0.62671023901E-01  0.10926294469E+00  0.51100000000E-03 0. -1.
</event>
<event>
 8    1  0.1054833E+005  0.1043930E+01  0.7957747E-01            NaN
         13   -1    0    0    0    0  0.00000000000E+00  0.00000000000E+00  0.74505805969E-08  0.10566000000E+00  0.10566000000E+00 0.  1.
     999900   -1    0    0    0    0 -0.00000000000E+00 -0.00000000000E+00 -0.74505805969E-08  0.93827000000E+00  0.93827000000E+00 0.  1.
     999902    2    1    2    0    0  0.20316238366E-01 -0.58201170318E-02 -0.58192642471E-02  0.10220099831E+01  0.10217748864E+01 0.  0.
     999903    2    3    3    0    0  0.69814358057E-01 -0.96970013939E-01 -0.58038162991E-01  0.13438101731E+00  0.20312588602E-01 0.  0.
         14    1    1    2    0    0 -0.20316238366E-01  0.58201170318E-02  0.58192642471E-02  0.21920016879E-01  0.00000000000E+00 0. -1.
     999901    1    3    3    0    0 -0.49498119691E-01  0.91149896908E-01  0.52218898743E-01  0.88762896581E+00  0.88000000000E+00 0. -1.
        -11    1    4    4    0    0  0.77567608530E-02 -0.24040057448E-01 -0.92298282661E-02  0.26898746288E-01  0.51100000000E-03 0. -1.
         11    1    4    4    0    0  0.62057597204E-01 -0.72929956491E-01 -0.48808334724E-01  0.10748227102E+00  0.51100000000E-03 0.  1.
</event>
<event>
 8    1  0.1054833E+005  0.1043930E+01  0.7957747E-01            NaN
         13   -1    0    0    0    0  0.00000000000E+00  0.00000000000E+00  0.74505805969E-08  0.10566000000E+00  0.10566000000E+00 0. -1.
     999900   -1    0    0    0    0 -0.00000000000E+00 -0.00000000000E+00 -0.74505805969E-08  0.93827000000E+00  0.93827000000E+00 0. -1.
     999902    2    1    2    0    0  0.22473590004E-01  0.53937891509E-02 -0.32654089804E-02  0.10205886610E+01  0.10203217125E+01 0.  0.
     999903    2    3    3    0    0 -0.79983386457E-01 -0.76554277279E-01 -0.63143593111E-01  0.12884973368E+00  0.18900821142E-01 0.  0.
         14    1    1    2    0    0 -0.22473590004E-01 -0.53937891509E-02  0.32654089804E-02  0.23341338969E-01  0.00000000000E+00 0. -1.
     999901    1    3    3    0    0  0.10245697646E+00  0.81948066430E-01  0.59878184131E-01  0.89173892735E+00  0.88000000000E+00 0. -1.
        -11    1    4    4    0    0 -0.14499752529E-01 -0.24948004669E-01 -0.18396313822E-01  0.34224716852E-01  0.51100000000E-03 0.  1.
         11    1    4    4    0    0 -0.65483633927E-01 -0.51606272610E-01 -0.44747279290E-01  0.94625016829E-01  0.51100000000E-03 0. -1.
</event>
<event>
 8    1  0.1054833E+005  0.1043930E+01  0.7957747E-01            NaN
         13   -1    0    0    0    0  0.00000000000E+00  0.00000000000E+00  0.74505805969E-08  0.10566000000E+00  0.10566000000E+00 0. -1.
     999900   -1    0    0    0    0 -0.00000000000E+00 -0.00000000000E+00 -0.74505805969E-08  0.93827000000E+00  0.93827000000E+00 0. -1.
     999902    2    1    2    0    0  0.62794561012E-02 -0.21211369650E-01  0.10127713616E-01  0.10196005044E+01  0.10193101904E+01 0.  0.
     999903    2    3    3    0    0 -0.81752425232E-01 -0.10054964528E+00 -0.84529096415E-02  0.13146233181E+00  0.20425542991E-01 0.  0.
         14    1    1    2    0    0 -0.62794561012E-02  0.21211369650E-01 -0.10127713616E-01  0.24329495565E-01  0.00000000000E+00 0.  1.
     999901    1    3    3    0    0  0.88031881333E-01  0.79338275631E-01  0.18580623258E-01  0.88813817262E+00  0.88000000000E+00 0. -1.
        -11    1    4    4    0    0 -0.79134911335E-01 -0.88962352242E-01 -0.99327517823E-02  0.11948035398E+00  0.51100000000E-03 0.  1.
         11    1    4    4    0    0 -0.26175138969E-02 -0.11587293039E-01  0.14798421408E-02  0.11981977830E-01  0.51100000000E-03 0. -1.
</event>
<event>
 8    1  0.1054833E+005  0.1043930E+01  0.7957747E-01            NaN
         13   -1    0    0    0    0  0.00000000000E+00  0.00000000000E+00  0.74505805969E-08  0.10566000000E+00  0.10566000000E+00 0.  1.
     999900   -1    0    0    0    0 -0.00000000000E+00 -0.00000000000E+00 -0.74505805969E-08  0.93827000000E+00  0.93827000000E+00 0. -1.
     999902    2    1    2    0    0 -0.15409439296E-01  0.17716261778E-01 -0.54131006898E-02  0.10198339752E+01  0.10195492723E+01 0.  0.
     999903    2    3    3    0    0  0.10282193160E+00 -0.32054241554E-01 -0.67409792733E-01  0.12837486237E+00  0.18335787751E-01 0.  0.
         14    1    1    2    0    0  0.15409439296E-01 -0.17716261778E-01  0.54131006898E-02  0.24096024774E-01  0.00000000000E+00 0.  1.
     999901    1    3    3    0    0 -0.11823137090E+00  0.49770503332E-01  0.61996692043E-01  0.89145911285E+00  0.88000000000E+00 0.  1.
        -11    1    4    4    0    0  0.80489441383E-01 -0.22684220202E-01 -0.43194077045E-01  0.94122863498E-01  0.51100000000E-03 0. -1.
         11    1    4    4    0    0  0.22332490221E-01 -0.93700213520E-02 -0.24215715687E-01  0.34251998874E-01  0.51100000000E-03 0.  1.
</event>
<event>
 8    1  0.1129425E+005  0.1043930E+01  0.7957747E-01            NaN
         13   -1    0    0    0    0  0.00000000000E+00  0.00000000000E+00  0.74505805969E-08  0.10566000000E+00  0.10566000000E+00 0. -1.
     999900   -1    0    0    0    0 -0.00000000000E+00 -0.00000000000E+00 -0.74505805969E-08  0.93827000000E+00  0.93827000000E+00 0. -1.
     999902    2    1    2    0    0 -0.19149537308E-01 -0.11850621880E-01  0.62377535829E-02  0.10205622533E+01  0.10202946933E+01 0.  0.
     999903    2    3    3    0    0  0.86109652076E-01  0.89251080034E-01  0.26338644396E-01  0.12831503589E+00  0.19758460974E-01 0.  0.
         14    1    1    2    0    0  0.19149537308E-01  0.11850621880E-01 -0.62377535829E-02  0.23367746743E-01  0.00000000000E+00 0. -1.
     999901    1    3    3    0    0 -0.10525918938E+00 -0.10110170191E+00 -0.20100890813E-01  0.89224721736E+00  0.88000000000E+00 0. -1.
        -11    1    4    4    0    0  0.33502849696E-01  0.21675005214E-01  0.98091466329E-02  0.41094126922E-01  0.51100000000E-03 0. -1.
         11    1    4    4    0    0  0.52606802380E-01  0.67576074820E-01  0.16529497763E-01  0.87220908973E-01  0.51100000000E-03 0.  1.
</event>
<event>
 8    1  0.1054833E+005  0.1043930E+01  0.7957747E-01            NaN
         13   -1    0    0    0    0  0.00000000000E+00  0.00000000000E+00  0.74505805969E-08  0.10566000000E+00  0.10566000000E+00 0. -1.
     999900   -1    0    0    0    0 -0.00000000000E+00 -0.00000000000E+00 -0.74505805969E-08  0.93827000000E+00  0.93827000000E+00 0.  1.
     999902    2    1    2    0    0 -0.10347518750E-01  0.25082812354E-02  0.20309663204E-01  0.10209986887E+01  0.10207411412E+01 0.  0.
     999903    2    3    3    0    0  0.12721580204E+00  0.28701407477E-02  0.20409027440E-01  0.13031142144E+00  0.19298708719E-01 0.  0.
         14    1    1    2    0    0  0.10347518750E-01 -0.25082812354E-02 -0.20309663204E-01  0.22931311312E-01  0.00000000000E+00 0.  1.
     999901    1    3    3    0    0 -0.13756332079E+00 -0.36185951229E-03 -0.99364236460E-04  0.89068726725E+00  0.88000000000E+00 0. -1.
        -11    1    4    4    0    0  0.87866461694E-01 -0.66689527057E-02  0.16245682395E-01  0.89605654611E-01  0.51100000000E-03 0.  1.
         11    1    4    4    0    0  0.39349340350E-01  0.95390934535E-02  0.41633450450E-02  0.40705766826E-01  0.51100000000E-03 0. -1.
</event>
<event>
 8    1  0.1054833E+005  0.1043930E+01  0.7957747E-01            NaN
         13   -1    0    0    0    0  0.00000000000E+00  0.00000000000E+00  0.74505805969E-08  0.10566000000E+00  0.10566000000E+00 0.  1.
     999900   -1    0    0    0    0 -0.00000000000E+00 -0.00000000000E+00 -0.74505805969E-08  0.93827000000E+00  0.93827000000E+00 0. -1.
     999902    2    1    2    0    0  0.38284560122E-02 -0.19405096350E-01 -0.13068309201E-01  0.10202235548E+01  0.10199480899E+01 0.  0.
     999903    2    3    3    0    0  0.94156543291E-01  0.82756874817E-01 -0.26121382646E-01  0.12962453477E+00  0.20150394779E-01 0.  0.
         14    1    1    2    0    0 -0.38284560122E-02  0.19405096350E-01  0.13068309201E-01  0.23706445224E-01  0.00000000000E+00 0.  1.
     999901    1    3    3    0    0 -0.90328087279E-01 -0.10216197117E+00  0.13053073445E-01  0.89059902000E+00  0.88000000000E+00 0.  1.
        -11    1    4    4    0    0  0.63550847072E-01  0.49166888990E-01 -0.25054227883E-01  0.84166909129E-01  0.51100000000E-03 0.  1.
         11    1    4    4    0    0  0.30605696219E-01  0.33589985826E-01 -0.10671547633E-02  0.45457625644E-01  0.51100000000E-03 0. -1.
</event>
<event>
 8    1  0.1054833E+005  0.1043930E+01  0.7957747E-01            NaN
         13   -1    0    0    0    0  0.00000000000E+00  0.00000000000E+00  0.74505805969E-08  0.10566000000E+00  0.10566000000E+00 0.  1.
     999900   -1    0    0    0    0 -0.00000000000E+00 -0.00000000000E+00 -0.74505805969E-08  0.93827000000E+00  0.93827000000E+00 0.  1.
     999902    2    1    2    0    0 -0.50301582041E-02  0.59289783214E-02  0.23787536536E-01  0.10189039702E+01  0.10185965827E+01 0.  0.
     999903    2    3    3    0    0 -0.16402142051E-01  0.10324083994E+00 -0.71666115608E-01  0.12833655545E+00  0.20162788575E-01 0.  0.
         14    1    1    2    0    0  0.50301582041E-02 -0.59289783214E-02 -0.23787536536E-01  0.25026029848E-01  0.00000000000E+00 0. -1.
     999901    1    3    3    0    0  0.11371983847E-01 -0.97311861615E-01  0.95453652143E-01  0.89056741471E+00  0.88000000000E+00 0. -1.
        -11    1    4    4    0    0 -0.11613259551E-02  0.42545583368E-01 -0.19299186682E-01  0.46735372789E-01  0.51100000000E-03 0. -1.
         11    1    4    4    0    0 -0.15240816096E-01  0.60695256568E-01 -0.52366928926E-01  0.81601182658E-01  0.51100000000E-03 0.  1.
</event>
<event>
 8    1  0.1054833E+005  0.1043930E+01  0.7957747E-01            NaN
         13   -1    0    0    0    0  0.00000000000E+00  0.00000000000E+00  0.74505805969E-08  0.10566000000E+00  0.10566000000E+00 0.  1.
     999900   -1    0    0    0    0 -0.00000000000E+00 -0.00000000000E+00 -0.74505805969E-08  0.93827000000E+00  0.93827000000E+00 0. -1.
     999902    2    1    2    0    0 -0.11602047458E-01  0.18175746224E-01  0.12978711210E-01  0.10187623183E+01  0.10184513975E+01 0.  0.
     999903    2    3    3    0    0  0.85433677084E-01 -0.84584695367E-01  0.36253913290E-01  0.12718092820E+00  0.20178166382E-01 0.  0.
         14    1    1    2    0    0  0.11602047458E-01 -0.18175746224E-01 -0.12978711210E-01  0.25167681671E-01  0.00000000000E+00 0. -1.
     999901    1    3    3    0    0 -0.97035724542E-01  0.10276044159E+00 -0.23275202080E-01  0.89158139013E+00  0.88000000000E+00 0. -1.
        -11    1    4    4    0    0  0.77657249940E-01 -0.67815706052E-01  0.27405573722E-01  0.10668151221E+00  0.51100000000E-03 0.  1.
         11    1    4    4    0    0  0.77764271437E-02 -0.16768989316E-01  0.88483395682E-02  0.20499415989E-01  0.51100000000E-03 0. -1.
</event>
<event>
 8    1  0.1054833E+005  0.1043930E+01  0.7957747E-01            NaN
         13   -1    0    0    0    0  0.00000000000E+00  0.00000000000E+00  0.74505805969E-08  0.10566000000E+00  0.10566000000E+00 0. -1.
     999900   -1    0    0    0    0 -0.00000000000E+00 -0.00000000000E+00 -0.74505805969E-08  0.93827000000E+00  0.93827000000E+00 0. -1.
     999902    2    1    2    0    0 -0.18167205622E-01  0.79228293272E-02 -0.13311266316E-01  0.10200551514E+01  0.10197757124E+01 0.  0.
     999903    2    3    3    0    0  0.56446341102E-01  0.93018291764E-01 -0.70169745416E-01  0.13098749046E+00  0.19883094815E-01 0.  0.
         14    1    1    2    0    0  0.18167205622E-01 -0.79228293272E-02  0.13311266316E-01  0.23874848598E-01  0.00000000000E+00 0. -1.
     999901    1    3    3    0    0 -0.74613546724E-01 -0.85095462437E-01  0.56858479100E-01  0.88906766094E+00  0.88000000000E+00 0. -1.
        -11    1    4    4    0    0  0.32084764149E-01  0.36851107785E-01 -0.24890700665E-01  0.54838347313E-01  0.51100000000E-03 0. -1.
         11    1    4    4    0    0  0.24361576953E-01  0.56167183979E-01 -0.45279044751E-01  0.76149143149E-01  0.51100000000E-03 0.  1.
</event>
<event>
 8    1  0.1054833E+005  0.1043930E+01  0.7957747E-01            NaN
         13   -1    0    0    0    0  0.00000000000E+00  0.00000000000E+00  0.74505805969E-08  0.10566000000E+00  0.10566000000E+00 0.  1.
     999900   -1    0    0    0    0 -0.00000000000E+00 -0.00000000000E+00 -0.74505805969E-08  0.93827000000E+00  0.93827000000E+00 0. -1.
     999902    2    1    2    0    0  0.88282269482E-02  0.48657429901E-02  0.21297592107E-01  0.10203673076E+01  0.10200952121E+01 0.  0.
     999903    2    3    3    0    0  0.27109018540E-01 -0.22680833057E-01 -0.12185553900E+00  0.12818693333E+00  0.18270151003E-01 0.  0.
         14    1    1    2    0    0 -0.88282269482E-02 -0.48657429901E-02 -0.21297592107E-01  0.23562692449E-01  0.00000000000E+00 0. -1.
     999901    1    3    3    0    0 -0.18280791592E-01  0.27546576047E-01  0.14315313111E+00  0.89218037422E+00  0.88000000000E+00 0.  1.
        -11    1    4    4    0    0  0.21394460553E-01 -0.62350843169E-02 -0.64336254071E-01  0.68088280399E-01  0.51100000000E-03 0.  1.
         11    1    4    4    0    0  0.57145579872E-02 -0.16445748740E-01 -0.57519284930E-01  0.60098652934E-01  0.51100000000E-03 0. -1.
</event>
<event>
 8    1  0.1054833E+005  0.1043930E+01  0.7957747E-01            NaN
         13   -1    0    0    0    0  0.00000000000E+00  0.00000000000E+00  0.74505805969E-08  0.10566000000E+00  0.10566000000E+00 0.  1.
     999900   -1    0    0    0    0 -0.00000000000E+00 -0.00000000000E+00 -0.74505805969E-08  0.93827000000E+00  0.93827000000E+00 0. -1.
     999902    2    1    2    0    0  0.20881100411E-01  0.79352225782E-02 -0.70085215306E-02  0.10205183045E+01  0.10202497255E+01 0.  0.
     999903    2    3    3    0    0  0.31846257353E-01  0.39151535803E-01 -0.12090659643E+00  0.13256139995E+00  0.20176541661E-01 0.  0.
         14    1    1    2    0    0 -0.20881100411E-01 -0.79352225782E-02  0.70085215306E-02  0.23411695492E-01  0.00000000000E+00 0.  1.
     999901    1    3    3    0    0 -0.10965156941E-01 -0.31216313224E-01  0.11389807490E+00  0.88795690455E+00  0.88000000000E+00 0.  1.
        -11    1    4    4    0    0  0.13836208764E-01  0.30260136429E-01 -0.87026082067E-01  0.93171436667E-01  0.51100000000E-03 0.  1.
         11    1    4    4    0    0  0.18010048588E-01  0.88913993741E-02 -0.33880514367E-01  0.39389963287E-01  0.51100000000E-03 0. -1.
</event>
<event>
 8    1  0.1054833E+005  0.1043930E+01  0.7957747E-01            NaN
         13   -1    0    0    0    0  0.00000000000E+00  0.00000000000E+00  0.74505805969E-08  0.10566000000E+00  0.10566000000E+00 0.  1.
     999900   -1    0    0    0    0 -0.00000000000E+00 -0.00000000000E+00 -0.74505805969E-08  0.93827000000E+00  0.93827000000E+00 0.  1.
     999902    2    1    2    0    0 -0.20809859097E-01  0.28919569365E-02  0.12239735435E-01  0.10196148859E+01  0.10193249191E+01 0.  0.
     999903    2    3    3    0    0  0.27375793953E-02 -0.54103666606E-01  0.11771612353E+00  0.13117341263E+00  0.20363628382E-01 0.  0.
         14    1    1    2    0    0  0.20809859097E-01 -0.28919569365E-02 -0.12239735435E-01  0.24315114108E-01  0.00000000000E+00 0. -1.
     999901    1    3    3    0    0 -0.23547438492E-01  0.56995623543E-01 -0.10547638810E+00  0.88844147326E+00  0.88000000000E+00 0.  1.
        -11    1    4    4    0    0 -0.68455054848E-02 -0.26402742139E-01  0.43139551454E-01  0.51041627702E-01  0.51100000000E-03 0. -1.
         11    1    4    4    0    0  0.95830848801E-02 -0.27700924467E-01  0.74576572078E-01  0.80131784930E-01  0.51100000000E-03 0.  1.
</event>
<event>
 8    1  0.1054833E+005  0.1043930E+01  0.7957747E-01            NaN
         13   -1    0    0    0    0  0.00000000000E+00  0.00000000000E+00  0.74505805969E-08  0.10566000000E+00  0.10566000000E+00 0.  1.
     999900   -1    0    0    0    0 -0.00000000000E+00 -0.00000000000E+00 -0.74505805969E-08  0.93827000000E+00  0.93827000000E+00 0. -1.
     999902    2    1    2    0    0  0.15802594942E-01 -0.14924199226E-01  0.44809375015E-02  0.10217369261E+01  0.10214958706E+01 0.  0.
     999903    2    3    3    0    0  0.11426729813E+00  0.24683776287E-01  0.61204338564E-01  0.13354683734E+00  0.20554378355E-01 0.  0.
         14    1    1    2    0    0 -0.15802594942E-01  0.14924199226E-01 -0.44809375015E-02  0.22193073927E-01  0.00000000000E+00 0. -1.
     999901    1    3    3    0    0 -0.98464703191E-01 -0.39607975513E-01 -0.56723401063E-01  0.88819008873E+00  0.88000000000E+00 0. -1.
        -11    1    4    4    0    0  0.10779071283E+00  0.19615897400E-01  0.60789938390E-01  0.12529684327E+00  0.51100000000E-03 0.  1.
         11    1    4    4    0    0  0.64765852984E-02  0.50678788872E-02  0.41440017442E-03  0.82499940634E-02  0.51100000000E-03 0. -1.
</event>
<event>
 8    1  0.1054833E+005  0.1043930E+01  0.7957747E-01            NaN
         13   -1    0    0    0    0  0.00000000000E+00  0.00000000000E+00  0.74505805969E-08  0.10566000000E+00  0.10566000000E+00 0.  1.
     999900   -1    0    0    0    0 -0.00000000000E+00 -0.00000000000E+00 -0.74505805969E-08  0.93827000000E+00  0.93827000000E+00 0. -1.
     999902    2    1    2    0    0  0.23374032452E-02  0.10968485583E-01 -0.60754300202E-02  0.10311753154E+01  0.10310964305E+01 0.  0.
     999903    2    3    3    0    0 -0.19807273221E-01  0.13851092623E+00 -0.11134691455E-01  0.14169060107E+00  0.19355627578E-01 0.  0.
         14    1    1    2    0    0 -0.23374032452E-02 -0.10968485583E-01  0.60754300202E-02  0.12754684623E-01  0.00000000000E+00 0.  1.
     999901    1    3    3    0    0  0.22144676467E-01 -0.12754244065E+00  0.50592614345E-02  0.88948471431E+00  0.88000000000E+00 0.  1.
        -11    1    4    4    0    0 -0.49431803341E-02  0.80908541662E-01 -0.13374541711E-01  0.82156963385E-01  0.51100000000E-03 0. -1.
         11    1    4    4    0    0 -0.14864092887E-01  0.57602384571E-01  0.22398502565E-02  0.59533637683E-01  0.51100000000E-03 0.  1.
</event>
<event>
 8    1  0.1054833E+005  0.1043930E+01  0.7957747E-01            NaN
         13   -1    0    0    0    0  0.00000000000E+00  0.00000000000E+00  0.74505805969E-08  0.10566000000E+00  0.10566000000E+00 0.  1.
     999900   -1    0    0    0    0 -0.00000000000E+00 -0.00000000000E+00 -0.74505805969E-08  0.93827000000E+00  0.93827000000E+00 0. -1.
     999902    2    1    2    0    0 -0.82836252845E-02  0.20593712929E-01  0.97044424074E-02  0.10197040705E+01  0.10194162524E+01 0.  0.
     999903    2    3    3    0    0  0.66076368877E-01  0.11179413454E+00  0.16276837614E-01  0.13184703128E+00  0.15958984080E-01 0.  0.
         14    1    1    2    0    0  0.82836252845E-02 -0.20593712929E-01 -0.97044424074E-02  0.24225929548E-01  0.00000000000E+00 0. -1.
     999901    1    3    3    0    0 -0.74359994161E-01 -0.91200421609E-01 -0.65723952063E-02  0.88785703917E+00  0.88000000000E+00 0.  1.
        -11    1    4    4    0    0  0.54652692303E-01  0.91632457140E-01  0.71418182682E-02  0.10693311305E+00  0.51100000000E-03 0. -1.
         11    1    4    4    0    0  0.11423676574E-01  0.20161677397E-01  0.91350193455E-02  0.24913918226E-01  0.51100000000E-03 0.  1.
</event>
<event>
 8    1  0.1054833E+005  0.1043930E+01  0.7957747E-01            NaN
         13   -1    0    0    0    0  0.00000000000E+00  0.00000000000E+00  0.74505805969E-08  0.10566000000E+00  0.10566000000E+00 0.  1.
     999900   -1    0    0    0    0 -0.00000000000E+00 -0.00000000000E+00 -0.74505805969E-08  0.93827000000E+00  0.93827000000E+00 0.  1.
     999902    2    1    2    0    0  0.19965073676E-01  0.16221513227E-02 -0.25292596345E-01  0.10116662282E+01  0.10111516238E+01 0.  0.
     999903    2    3    3    0    0  0.87708777756E-01 -0.39791525479E-01  0.73448445014E-01  0.12259137458E+00  0.18914963665E-01 0.  0.
         14    1    1    2    0    0 -0.19965073676E-01 -0.16221513227E-02  0.25292596345E-01  0.32263771814E-01  0.00000000000E+00 0.  1.
     999901    1    3    3    0    0 -0.67743704081E-01  0.41413676802E-01 -0.98741041360E-01  0.88907485361E+00  0.88000000000E+00 0.  1.
        -11    1    4    4    0    0  0.31975903472E-01 -0.64269802807E-02  0.18440774650E-01  0.37471159163E-01  0.51100000000E-03 0. -1.
         11    1    4    4    0    0  0.55732874285E-01 -0.33364545198E-01  0.55007670365E-01  0.85120215415E-01  0.51100000000E-03 0.  1.
</event>
<event>
 8    1  0.1054833E+005  0.1043930E+01  0.7957747E-01            NaN
         13   -1    0    0    0    0  0.00000000000E+00  0.00000000000E+00  0.74505805969E-08  0.10566000000E+00  0.10566000000E+00 0. -1.
     999900   -1    0    0    0    0 -0.00000000000E+00 -0.00000000000E+00 -0.74505805969E-08  0.93827000000E+00  0.93827000000E+00 0.  1.
     999902    2    1    2    0    0 -0.76577785761E-02  0.10767451568E-01  0.19415314228E-01  0.10204452387E+01  0.10201749611E+01 0.  0.
     999903    2    3    3    0    0  0.32960539957E-01 -0.96560787805E-01 -0.74957513372E-01  0.12799051754E+00  0.18776603322E-01 0.  0.
         14    1    1    2    0    0  0.76577785761E-02 -0.10767451568E-01 -0.19415314228E-01  0.23484761284E-01  0.00000000000E+00 0.  1.
     999901    1    3    3    0    0 -0.40618318534E-01  0.10732823937E+00  0.94372827600E-01  0.89245472118E+00  0.88000000000E+00 0. -1.
        -11    1    4    4    0    0  0.32565197361E-01 -0.71843249320E-01 -0.54205727164E-01  0.95710326143E-01  0.51100000000E-03 0. -1.
         11    1    4    4    0    0  0.39534259670E-03 -0.24717538485E-01 -0.20751786208E-01  0.32280191393E-01  0.51100000000E-03 0.  1.
</event>
<event>
 8    1  0.1054833E+005  0.1043930E+01  0.7957747E-01            NaN
         13   -1    0    0    0    0  0.00000000000E+00  0.00000000000E+00  0.74505805969E-08  0.10566000000E+00  0.10566000000E+00 0.  1.
     999900   -1    0    0    0    0 -0.00000000000E+00 -0.00000000000E+00 -0.74505805969E-08  0.93827000000E+00  0.93827000000E+00 0. -1.
     999902    2    1    2    0    0 -0.13347167977E-01 -0.22444626836E-03  0.18158673044E-01  0.10213925939E+01  0.10211439155E+01 0.  0.
     999903    2    3    3    0    0  0.11439684006E+00  0.34377635189E-01 -0.44720168550E-01  0.12927736343E+00  0.21078055040E-01 0.  0.
         14    1    1    2    0    0  0.13347167977E-01  0.22444626836E-03 -0.18158673044E-01  0.22537406147E-01  0.00000000000E+00 0.  1.
     999901    1    3    3    0    0 -0.12774400803E+00 -0.34602081458E-01  0.62878841594E-01  0.89211523042E+00  0.88000000000E+00 0. -1.
        -11    1    4    4    0    0  0.45419514837E-01  0.22469434282E-01 -0.12370166434E-01  0.52164067553E-01  0.51100000000E-03 0.  1.
         11    1    4    4    0    0  0.68977325220E-01  0.11908200907E-01 -0.32350002116E-01  0.77113295878E-01  0.51100000000E-03 0. -1.
</event>
<event>
 8    1  0.1054833E+005  0.1043930E+01  0.7957747E-01            NaN
         13   -1    0    0    0    0  0.00000000000E+00  0.00000000000E+00  0.74505805969E-08  0.10566000000E+00  0.10566000000E+00 0.  1.
     999900   -1    0    0    0    0 -0.00000000000E+00 -0.00000000000E+00 -0.74505805969E-08  0.93827000000E+00  0.93827000000E+00 0. -1.
     999902    2    1    2    0    0  0.20853784907E-01 -0.45411496516E-02  0.10017750268E-01  0.10203533653E+01  0.10200809440E+01 0.  0.
     999903    2    3    3    0    0  0.41517385759E-01 -0.12345270002E+00  0.34280901944E-02  0.13209081127E+00  0.21724828116E-01 0.  0.
         14    1    1    2    0    0 -0.20853784907E-01  0.45411496516E-02 -0.10017750268E-01  0.23576634737E-01  0.00000000000E+00 0.  1.
     999901    1    3    3    0    0 -0.20663600852E-01  0.11891155037E+00  0.65896600732E-02  0.88826255400E+00  0.88000000000E+00 0. -1.
        -11    1    4    4    0    0  0.18034300978E-01 -0.53173775442E-01  0.12236326773E-01  0.57468906554E-01  0.51100000000E-03 0.  1.
         11    1    4    4    0    0  0.23483084781E-01 -0.70278924577E-01 -0.88082365791E-02  0.74621904714E-01  0.51100000000E-03 0. -1.
</event>
<event>
 8    1  0.1054833E+005  0.1043930E+01  0.7957747E-01            NaN
         13   -1    0    0    0    0  0.00000000000E+00  0.00000000000E+00  0.74505805969E-08  0.10566000000E+00  0.10566000000E+00 0. -1.
     999900   -1    0    0    0    0 -0.00000000000E+00 -0.00000000000E+00 -0.74505805969E-08  0.93827000000E+00  0.93827000000E+00 0.  1.
     999902    2    1    2    0    0 -0.20077678368E-01 -0.89019652459E-02  0.84441167286E-02  0.10203999923E+01  0.10201286601E+01 0.  0.
     999903    2    3    3    0    0  0.14124572693E-01 -0.87821398117E-01  0.95841722875E-01  0.13189764994E+00  0.17298921791E-01 0.  0.
         14    1    1    2    0    0  0.20077678368E-01  0.89019652459E-02 -0.84441167286E-02  0.23530007676E-01  0.00000000000E+00 0. -1.
     999901    1    3    3    0    0 -0.34202251061E-01  0.78919432871E-01 -0.87397606146E-01  0.88850234238E+00  0.88000000000E+00 0. -1.
        -11    1    4    4    0    0  0.79233616389E-02 -0.62552994628E-01  0.78215854120E-01  0.10046709786E+00  0.51100000000E-03 0.  1.
         11    1    4    4    0    0  0.62012110536E-02 -0.25268403489E-01  0.17625868754E-01  0.31430552075E-01  0.51100000000E-03 0. -1.
</event>
<event>
 8    1  0.1054833E+005  0.1043930E+01  0.7957747E-01            NaN
         13   -1    0    0    0    0  0.00000000000E+00  0.00000000000E+00  0.74505805969E-08  0.10566000000E+00  0.10566000000E+00 0.  1.
     999900   -1    0    0    0    0 -0.00000000000E+00 -0.00000000000E+00 -0.74505805969E-08  0.93827000000E+00  0.93827000000E+00 0.  1.
     999902    2    1    2    0    0 -0.26871778594E-02 -0.22983382951E-01 -0.24779718993E-02  0.10206577599E+01  0.10203924076E+01 0.  0.
     999903    2    3    3    0    0  0.86404507691E-01 -0.30046370897E-01 -0.92365129162E-01  0.13157569656E+00  0.20305750073E-01 0.  0.
         14    1    1    2    0    0  0.26871778594E-02  0.22983382951E-01  0.24779718993E-02  0.23272240147E-01  0.00000000000E+00 0. -1.
     999901    1    3    3    0    0 -0.89091685550E-01  0.70629879457E-02  0.89887157263E-01  0.88908206330E+00  0.88000000000E+00 0. -1.
        -11    1    4    4    0    0  0.34221354938E-01 -0.77915047831E-02 -0.48466648531E-01  0.59842174270E-01  0.51100000000E-03 0. -1.
         11    1    4    4    0    0  0.52183152753E-01 -0.22254866114E-01 -0.43898480632E-01  0.71733522287E-01  0.51100000000E-03 0.  1.
</event>
<event>
 8    1  0.1054833E+005  0.1043930E+01  0.7957747E-01            NaN
         13   -1    0    0    0    0  0.00000000000E+00  0.00000000000E+00  0.74505805969E-08  0.10566000000E+00  0.10566000000E+00 0. -1.
     999900   -1    0    0    0    0 -0.00000000000E+00 -0.00000000000E+00 -0.74505805969E-08  0.93827000000E+00  0.93827000000E+00 0. -1.
     999902    2    1    2    0    0  0.21839781961E-01 -0.74000515105E-02 -0.56941711221E-02  0.10201779385E+01  0.10199014001E+01 0.  0.
     999903    2    3    3    0    0  0.50873128236E-01 -0.11967346496E+00  0.14180131986E-01  0.13234730014E+00  0.20122582320E-01 0.  0.
         14    1    1    2    0    0 -0.21839781961E-01  0.74000515105E-02  0.56941711221E-02  0.23752061452E-01  0.00000000000E+00 0. -1.
     999901    1    3    3    0    0 -0.29033346275E-01  0.11227341345E+00 -0.19874303108E-01  0.88783063840E+00  0.88000000000E+00 0. -1.
        -11    1    4    4    0    0  0.23499033238E-01 -0.32863988954E-01  0.73439577264E-02  0.41066302112E-01  0.51100000000E-03 0.  1.
         11    1    4    4    0    0  0.27374094997E-01 -0.86809476011E-01  0.68361742591E-02  0.91280998032E-01  0.51100000000E-03 0. -1.
</event>
<event>
 8    1  0.1054833E+005  0.1043930E+01  0.7957747E-01            NaN
         13   -1    0    0    0    0  0.00000000000E+00  0.00000000000E+00  0.74505805969E-08  0.10566000000E+00  0.10566000000E+00 0.  1.
     999900   -1    0    0    0    0 -0.00000000000E+00 -0.00000000000E+00 -0.74505805969E-08  0.93827000000E+00  0.93827000000E+00 0.  1.
     999902    2    1    2    0    0 -0.94174503628E-02 -0.20291466046E-01 -0.10476890145E-01  0.10192278302E+01  0.10189284433E+01 0.  0.
     999903    2    3    3    0    0  0.22136944449E-01  0.88860667592E-01 -0.87906309033E-01  0.12855101844E+00  0.20287499069E-01 0.  0.
         14    1    1    2    0    0  0.94174503628E-02  0.20291466046E-01  0.10476890145E-01  0.24702169798E-01  0.00000000000E+00 0.  1.
     999901    1    3    3    0    0 -0.31554394812E-01 -0.10915213364E+00  0.77429418888E-01  0.89067681177E+00  0.88000000000E+00 0.  1.
        -11    1    4    4    0    0  0.86087194929E-02  0.68129352011E-01 -0.69448126743E-01  0.97667917382E-01  0.51100000000E-03 0. -1.
         11    1    4    4    0    0  0.13528224956E-01  0.20731315581E-01 -0.18458182290E-01  0.30883101053E-01  0.51100000000E-03 0.  1.
</event>
<event>
 8    1  0.1054833E+005  0.1043930E+01  0.7957747E-01            NaN
         13   -1    0    0    0    0  0.00000000000E+00  0.00000000000E+00  0.74505805969E-08  0.10566000000E+00  0.10566000000E+00 0. -1.
     999900   -1    0    0    0    0 -0.00000000000E+00 -0.00000000000E+00 -0.74505805969E-08  0.93827000000E+00  0.93827000000E+00 0. -1.
     999902    2    1    2    0    0  0.15741584258E-01 -0.13289735048E-01 -0.11389233110E-01  0.10203900518E+01  0.10201184875E+01 0.  0.
     999903    2    3    3    0    0 -0.10063714310E+00  0.59544478991E-01  0.47123248018E-01  0.12782490491E+00  0.21100385330E-01 0.  0.
         14    1    1    2    0    0 -0.15741584258E-01  0.13289735048E-01  0.11389233110E-01  0.23539948246E-01  0.00000000000E+00 0. -1.
     999901    1    3    3    0    0  0.11637872736E+00 -0.72834214039E-01 -0.58512481128E-01  0.89256514685E+00  0.88000000000E+00 0. -1.
        -11    1    4    4    0    0 -0.83401595064E-01  0.46392868468E-01  0.29536584275E-01  0.99903930030E-01  0.51100000000E-03 0.  1.
         11    1    4    4    0    0 -0.17235548037E-01  0.13151610522E-01  0.17586663743E-01  0.27920974877E-01  0.51100000000E-03 0. -1.
</event>
<event>
 8    1  0.1054833E+005  0.1043930E+01  0.7957747E-01            NaN
         13   -1    0    0    0    0  0.00000000000E+00  0.00000000000E+00  0.74505805969E-08  0.10566000000E+00  0.10566000000E+00 0. -1.
     999900   -1    0    0    0    0 -0.00000000000E+00 -0.00000000000E+00 -0.74505805969E-08  0.93827000000E+00  0.93827000000E+00 0.  1.
     999902    2    1    2    0    0 -0.11086405954E-01 -0.75014869100E-02 -0.21071790453E-01  0.10189660048E+01  0.10186601582E+01 0.  0.
     999903    2    3    3    0    0 -0.12644914270E+00  0.12501108649E-01 -0.26194906722E-01  0.13119637750E+00  0.19510328665E-01 0.  0.
         14    1    1    2    0    0  0.11086405954E-01  0.75014869100E-02  0.21071790453E-01  0.24963995188E-01  0.00000000000E+00 0. -1.
     999901    1    3    3    0    0  0.11536273674E+00 -0.20002595559E-01  0.51231162695E-02  0.88776962731E+00  0.88000000000E+00 0.  1.
        -11    1    4    4    0    0 -0.93093330987E-01  0.16175064854E-01 -0.24389525870E-01  0.97586428823E-01  0.51100000000E-03 0.  1.
         11    1    4    4    0    0 -0.33355811710E-01 -0.36739562054E-02 -0.18053808527E-02  0.33609948677E-01  0.51100000000E-03 0. -1.
</event>
<event>
 8    1  0.1054833E+005  0.1043930E+01  0.7957747E-01            NaN
         13   -1    0    0    0    0  0.00000000000E+00  0.00000000000E+00  0.74505805969E-08  0.10566000000E+00  0.10566000000E+00 0. -1.
     999900   -1    0    0    0    0 -0.00000000000E+00 -0.00000000000E+00 -0.74505805969E-08  0.93827000000E+00  0.93827000000E+00 0.  1.
     999902    2    1    2    0    0  0.20066789905E-03 -0.24770198339E-01  0.39600399133E-02  0.10188444482E+01  0.10185355785E+01 0.  0.
     999903    2    3    3    0    0 -0.16128819121E-01  0.95085352645E-02 -0.12568802131E+00  0.12853534260E+00  0.19321090759E-01 0.  0.
         14    1    1    2    0    0 -0.20066789905E-03  0.24770198339E-01 -0.39600399133E-02  0.25085551807E-01  0.00000000000E+00 0.  1.
     999901    1    3    3    0    0  0.16329487020E-01 -0.34278733603E-01  0.12964806122E+00  0.89030910559E+00  0.88000000000E+00 0.  1.
        -11    1    4    4    0    0 -0.21811821934E-02  0.83041847554E-02 -0.18106171049E-01  0.20045238618E-01  0.51100000000E-03 0. -1.
         11    1    4    4    0    0 -0.13947636927E-01  0.12043505091E-02 -0.10758185026E+00  0.10849010398E+00  0.51100000000E-03 0.  1.
</event>
<event>
 8    1  0.1054833E+005  0.1043930E+01  0.7957747E-01            NaN
         13   -1    0    0    0    0  0.00000000000E+00  0.00000000000E+00  0.74505805969E-08  0.10566000000E+00  0.10566000000E+00 0.  1.
     999900   -1    0    0    0    0 -0.00000000000E+00 -0.00000000000E+00 -0.74505805969E-08  0.93827000000E+00  0.93827000000E+00 0.  1.
     999902    2    1    2    0    0  0.12211413725E-01  0.92348468925E-02  0.18858972378E-01  0.10196388110E+01  0.10193494215E+01 0.  0.
     999903    2    3    3    0    0 -0.89698024620E-01 -0.58691946323E-01  0.69676532111E-01  0.12970510157E+00  0.21865819502E-01 0.  0.
         14    1    1    2    0    0 -0.12211413725E-01 -0.92348468925E-02 -0.18858972378E-01  0.24291188967E-01  0.00000000000E+00 0. -1.
     999901    1    3    3    0    0  0.10190943835E+00  0.67926793215E-01 -0.50817559733E-01  0.88993370946E+00  0.88000000000E+00 0.  1.
        -11    1    4    4    0    0 -0.78184190332E-01 -0.41073653448E-01  0.57448842584E-01  0.10535864113E+00  0.51100000000E-03 0. -1.
         11    1    4    4    0    0 -0.11513834289E-01 -0.17618292875E-01  0.12227689527E-01  0.24346460441E-01  0.51100000000E-03 0.  1.
</event>
<event>
 8    1  0.1054833E+005  0.1043930E+01  0.7957747E-01            NaN
         13   -1    0    0    0    0  0.00000000000E+00  0.00000000000E+00  0.74505805969E-08  0.10566000000E+00  0.10566000000E+00 0.  1.
     999900   -1    0    0    0    0 -0.00000000000E+00 -0.00000000000E+00 -0.74505805969E-08  0.93827000000E+00  0.93827000000E+00 0.  1.
     999902    2    1    2    0    0 -0.17975314752E-01 -0.15151243168E-01  0.68982936438E-02  0.10194298252E+01  0.10191353737E+01 0.  0.
     999903    2    3    3    0    0 -0.82838642684E-01 -0.88524331688E-01 -0.48966739494E-01  0.13223663127E+00  0.19748089798E-01 0.  0.
         14    1    1    2    0    0  0.17975314752E-01  0.15151243168E-01 -0.68982936438E-02  0.24500174799E-01  0.00000000000E+00 0. -1.
     999901    1    3    3    0    0  0.64863327932E-01  0.73373088520E-01  0.55865033138E-01  0.88719319393E+00  0.88000000000E+00 0. -1.
        -11    1    4    4    0    0 -0.23201700416E-01 -0.36929130250E-01 -0.22329191968E-01  0.48999321405E-01  0.51100000000E-03 0. -1.
         11    1    4    4    0    0 -0.59636942268E-01 -0.51595201438E-01 -0.26637547526E-01  0.83237309865E-01  0.51100000000E-03 0.  1.
</event>
<event>
 8    1  0.1054833E+005  0.1043930E+01  0.7957747E-01            NaN
         13   -1    0    0    0    0  0.00000000000E+00  0.00000000000E+00  0.74505805969E-08  0.10566000000E+00  0.10566000000E+00 0.  1.
     999900   -1    0    0    0    0 -0.00000000000E+00 -0.00000000000E+00 -0.74505805969E-08  0.93827000000E+00  0.93827000000E+00 0. -1.
     999902    2    1    2    0    0 -0.22593689251E-01 -0.43545372580E-02 -0.18893459785E-02  0.10208430683E+01  0.10205819730E+01 0.  0.
     999903    2    3    3    0    0 -0.80135868335E-01  0.21797233856E-01 -0.10208118802E+00  0.13290533243E+00  0.18611331067E-01 0.  0.
         14    1    1    2    0    0  0.22593689251E-01  0.43545372580E-02  0.18893459785E-02  0.23086931735E-01  0.00000000000E+00 0.  1.
     999901    1    3    3    0    0  0.57542179083E-01 -0.26151771114E-01  0.10019184204E+00  0.88793773583E+00  0.88000000000E+00 0.  1.
        -11    1    4    4    0    0 -0.70439985903E-01  0.22071669635E-01 -0.97145359268E-01  0.12200996747E+00  0.51100000000E-03 0.  1.
         11    1    4    4    0    0 -0.96958824318E-02 -0.27443577852E-03 -0.49358287493E-02  0.10895364958E-01  0.51100000000E-03 0. -1.
</event>
<event>
 8    1  0.1054833E+005  0.1043930E+01  0.7957747E-01            NaN
         13   -1    0    0    0    0  0.00000000000E+00  0.00000000000E+00  0.74505805969E-08  0.10566000000E+00  0.10566000000E+00 0.  1.
     999900   -1    0    0    0    0 -0.00000000000E+00 -0.00000000000E+00 -0.74505805969E-08  0.93827000000E+00  0.93827000000E+00 0.  1.
     999902    2    1    2    0    0  0.10959627956E-01 -0.28753123145E-02  0.19520238229E-01  0.10213596529E+01  0.10211102390E+01 0.  0.
     999903    2    3    3    0    0 -0.28437946206E-01  0.12603905499E-01  0.12839843890E+00  0.13363996880E+00  0.20147132062E-01 0.  0.
         14    1    1    2    0    0 -0.10959627956E-01  0.28753123145E-02 -0.19520238229E-01  0.22570347059E-01  0.00000000000E+00 0. -1.
     999901    1    3    3    0    0  0.39397574162E-01 -0.15479217813E-01 -0.10887820067E+00  0.88771968414E+00  0.88000000000E+00 0.  1.
        -11    1    4    4    0    0 -0.23512163834E-01  0.45998680172E-02  0.11361456881E+00  0.11611421964E+00  0.51100000000E-03 0.  1.
         11    1    4    4    0    0 -0.49257823714E-02  0.80040374818E-02  0.14783870085E-01  0.17525749162E-01  0.51100000000E-03 0. -1.
</event>
<event>
 8    1  0.1054833E+005  0.1043930E+01  0.7957747E-01            NaN
         13   -1    0    0    0    0  0.00000000000E+00  0.00000000000E+00  0.74505805969E-08  0.10566000000E+00  0.10566000000E+00 0.  1.
     999900   -1    0    0    0    0 -0.00000000000E+00 -0.00000000000E+00 -0.74505805969E-08  0.93827000000E+00  0.93827000000E+00 0. -1.
     999902    2    1    2    0    0 -0.14721998646E-01 -0.62638072131E-02 -0.16763337017E-01  0.10207571281E+01  0.10204940630E+01 0.  0.
     999903    2    3    3    0    0  0.54408552627E-01 -0.19891246245E-01  0.11298580082E+00  0.12845696615E+00  0.19479442753E-01 0.  0.
         14    1    1    2    0    0  0.14721998646E-01  0.62638072131E-02  0.16763337017E-01  0.23172871917E-01  0.00000000000E+00 0.  1.
     999901    1    3    3    0    0 -0.69130551273E-01  0.13627439032E-01 -0.12974913784E+00  0.89230016193E+00  0.88000000000E+00 0. -1.
        -11    1    4    4    0    0  0.19279978683E-01 -0.14709286757E-01  0.59512076285E-01  0.64265301988E-01  0.51100000000E-03 0. -1.
         11    1    4    4    0    0  0.35128573944E-01 -0.51819594884E-02  0.53473724534E-01  0.64191664163E-01  0.51100000000E-03 0.  1.
</event>
<event>
 8    1  0.1054833E+005  0.1043930E+01  0.7957747E-01            NaN
         13   -1    0    0    0    0  0.00000000000E+00  0.00000000000E+00  0.74505805969E-08  0.10566000000E+00  0.10566000000E+00 0.  1.
     999900   -1    0    0    0    0 -0.00000000000E+00 -0.00000000000E+00 -0.74505805969E-08  0.93827000000E+00  0.93827000000E+00 0. -1.
     999902    2    1    2    0    0  0.19415516348E-01  0.76856865131E-02  0.10769116793E-01  0.10204351936E+01  0.10201646820E+01 0.  0.
     999903    2    3    3    0    0 -0.76781114676E-02 -0.37319969424E-01 -0.12157058766E+00  0.12899065178E+00  0.20185315144E-01 0.  0.
         14    1    1    2    0    0 -0.19415516348E-01 -0.76856865131E-02 -0.10769116793E-01  0.23494806421E-01  0.00000000000E+00 0. -1.
     999901    1    3    3    0    0  0.27093627816E-01  0.45005655937E-01  0.13233970446E+00  0.89144454180E+00  0.88000000000E+00 0.  1.
        -11    1    4    4    0    0 -0.69377395022E-02 -0.62907627617E-02 -0.51568271720E-01  0.52414250874E-01  0.51100000000E-03 0.  1.
         11    1    4    4    0    0 -0.74037196541E-03 -0.31029206662E-01 -0.70002315943E-01  0.76576400902E-01  0.51100000000E-03 0. -1.
</event>
<event>
 8    1  0.1054833E+005  0.1043930E+01  0.7957747E-01            NaN
         13   -1    0    0    0    0  0.00000000000E+00  0.00000000000E+00  0.74505805969E-08  0.10566000000E+00  0.10566000000E+00 0. -1.
     999900   -1    0    0    0    0 -0.00000000000E+00 -0.00000000000E+00 -0.74505805969E-08  0.93827000000E+00  0.93827000000E+00 0. -1.
     999902    2    1    2    0    0 -0.10991352417E-02 -0.20950817229E-01  0.84509822546E-02  0.10213122207E+01  0.10210617455E+01 0.  0.
     999903    2    3    3    0    0  0.34370500010E-01  0.12168927684E+00 -0.17170343230E-01  0.12875368265E+00  0.17119542646E-01 0.  0.
         14    1    1    2    0    0  0.10991352417E-02  0.20950817229E-01 -0.84509822546E-02  0.22617779332E-01  0.00000000000E+00 0. -1.
     999901    1    3    3    0    0 -0.35469635252E-01 -0.14264009407E+00  0.25621325485E-01  0.89255853801E+00  0.88000000000E+00 0.  1.
        -11    1    4    4    0    0  0.22821179103E-01  0.51783469925E-01 -0.10798110106E-01  0.57612448967E-01  0.51100000000E-03 0. -1.
         11    1    4    4    0    0  0.11549320907E-01  0.69905806920E-01 -0.63722331244E-02  0.71141233687E-01  0.51100000000E-03 0.  1.
</event>
<event>
 8    1  0.1054833E+005  0.1043930E+01  0.7957747E-01            NaN
         13   -1    0    0    0    0  0.00000000000E+00  0.00000000000E+00  0.74505805969E-08  0.10566000000E+00  0.10566000000E+00 0. -1.
     999900   -1    0    0    0    0 -0.00000000000E+00 -0.00000000000E+00 -0.74505805969E-08  0.93827000000E+00  0.93827000000E+00 0. -1.
     999902    2    1    2    0    0 -0.39802020876E-02 -0.16741346261E-01  0.16051444796E-01  0.10203978186E+01  0.10201264356E+01 0.  0.
     999903    2    3    3    0    0  0.95668861436E-01 -0.60751944107E-01 -0.61217325875E-01  0.13032066937E+00  0.19813786039E-01 0.  0.
         14    1    1    2    0    0  0.39802020876E-02  0.16741346261E-01 -0.16051444796E-01  0.23532181440E-01  0.00000000000E+00 0.  1.
     999901    1    3    3    0    0 -0.99649063523E-01  0.44010597847E-01  0.77268770672E-01  0.89007714919E+00  0.88000000000E+00 0. -1.
        -11    1    4    4    0    0  0.86497572897E-01 -0.49266176953E-01 -0.58189850507E-01  0.11530527365E+00  0.51100000000E-03 0. -1.
         11    1    4    4    0    0  0.91712885391E-02 -0.11485767154E-01 -0.30274753683E-02  0.15015395722E-01  0.51100000000E-03 0.  1.
</event>
<event>
 8    1  0.1054833E+005  0.1043930E+01  0.7957747E-01            NaN
         13   -1    0    0    0    0  0.00000000000E+00  0.00000000000E+00  0.74505805969E-08  0.10566000000E+00  0.10566000000E+00 0.  1.
     999900   -1    0    0    0    0 -0.00000000000E+00 -0.00000000000E+00 -0.74505805969E-08  0.93827000000E+00  0.93827000000E+00 0. -1.
     999902    2    1    2    0    0 -0.15454120054E-01 -0.62954282579E-02 -0.16806242064E-01  0.10202464189E+01  0.10199714914E+01 0.  0.
     999903    2    3    3    0    0  0.12242400536E+00  0.31569280849E-01 -0.13424333493E-01  0.12869970052E+00  0.19978578571E-01 0.  0.
         14    1    1    2    0    0  0.15454120054E-01  0.62954282579E-02  0.16806242064E-01  0.23683581146E-01  0.00000000000E+00 0.  1.
     999901    1    3    3    0    0 -0.13787812542E+00 -0.37864709107E-01 -0.33819085710E-02  0.89154671833E+00  0.88000000000E+00 0. -1.
        -11    1    4    4    0    0  0.83769659163E-01  0.13737828148E-01 -0.33730764124E-02  0.84957180297E-01  0.51100000000E-03 0. -1.
         11    1    4    4    0    0  0.38654346201E-01  0.17831452700E-01 -0.10051257080E-01  0.43742520224E-01  0.51100000000E-03 0.  1.
</event>
<event>
 8    1  0.1054833E+005  0.1043930E+01  0.7957747E-01            NaN
         13   -1    0    0    0    0  0.00000000000E+00  0.00000000000E+00  0.74505805969E-08  0.10566000000E+00  0.10566000000E+00 0. -1.
     999900   -1    0    0    0    0 -0.00000000000E+00 -0.00000000000E+00 -0.74505805969E-08  0.93827000000E+00  0.93827000000E+00 0.  1.
     999902    2    1    2    0    0  0.13510215303E-01 -0.83066669909E-02 -0.17435557376E-01  0.10203604159E+01  0.10200881594E+01 0.  0.
     999903    2    3    3    0    0 -0.66858245029E-01 -0.10725211342E+00 -0.15500278757E-01  0.13117368855E+00  0.31515665366E-01 0.  0.
         14    1    1    2    0    0 -0.13510215303E-01  0.83066669909E-02  0.17435557376E-01  0.23569584109E-01  0.00000000000E+00 0.  1.
     999901    1    3    3    0    0  0.80368460332E-01  0.98945446429E-01 -0.19352786190E-02  0.88918672735E+00  0.88000000000E+00 0.  1.
        -11    1    4    4    0    0 -0.21348327521E-01 -0.24226719722E-01  0.87041737551E-02  0.33447104481E-01  0.51100000000E-03 0.  1.
         11    1    4    4    0    0 -0.45509917509E-01 -0.83025393698E-01 -0.24204452512E-01  0.97726584064E-01  0.51100000000E-03 0. -1.
</event>
<event>
 8    1  0.1054833E+005  0.1043930E+01  0.7957747E-01            NaN
         13   -1    0    0    0    0  0.00000000000E+00  0.00000000000E+00  0.74505805969E-08  0.10566000000E+00  0.10566000000E+00 0.  1.
     999900   -1    0    0    0    0 -0.00000000000E+00 -0.00000000000E+00 -0.74505805969E-08  0.93827000000E+00  0.93827000000E+00 0. -1.
     999902    2    1    2    0    0 -0.19498910803E-01 -0.82741996007E-03 -0.13615529705E-01  0.10201334709E+01  0.10198558838E+01 0.  0.
     999903    2    3    3    0    0 -0.98371748634E-01  0.70487307333E-01 -0.48225536985E-01  0.13305705513E+00  0.27074269668E-01 0.  0.
         14    1    1    2    0    0  0.19498910803E-01  0.82741996007E-03  0.13615529705E-01  0.23796529063E-01  0.00000000000E+00 0.  1.
     999901    1    3    3    0    0  0.78872837830E-01 -0.71314727293E-01  0.34610007280E-01  0.88707641581E+00  0.88000000000E+00 0.  1.
        -11    1    4    4    0    0 -0.50746158334E-01  0.20238947238E-01 -0.18135391826E-01  0.57566840530E-01  0.51100000000E-03 0. -1.
         11    1    4    4    0    0 -0.47625590300E-01  0.50248360095E-01 -0.30090145160E-01  0.75490214600E-01  0.51100000000E-03 0.  1.
</event>
<event>
 8    1  0.1054833E+005  0.1043930E+01  0.7957747E-01            NaN
         13   -1    0    0    0    0  0.00000000000E+00  0.00000000000E+00  0.74505805969E-08  0.10566000000E+00  0.10566000000E+00 0. -1.
     999900   -1    0    0    0    0 -0.00000000000E+00 -0.00000000000E+00 -0.74505805969E-08  0.93827000000E+00  0.93827000000E+00 0. -1.
     999902    2    1    2    0    0  0.24306551482E-01  0.42354479956E-02  0.12424466774E-02  0.10192259287E+01  0.10189264952E+01 0.  0.
     999903    2    3    3    0    0 -0.11748287426E+00 -0.15048554644E-01  0.40612565789E-01  0.12679883348E+00  0.19996973075E-01 0.  0.
         14    1    1    2    0    0 -0.24306551482E-01 -0.42354479956E-02 -0.12424466774E-02  0.24704071292E-01  0.00000000000E+00 0. -1.
     999901    1    3    3    0    0  0.14178942574E+00  0.19284002640E-01 -0.39370119112E-01  0.89242709522E+00  0.88000000000E+00 0.  1.
        -11    1    4    4    0    0 -0.62590199372E-01 -0.15571190519E-01  0.15004288046E-01  0.66222238051E-01  0.51100000000E-03 0. -1.
         11    1    4    4    0    0 -0.54892674886E-01  0.52263587532E-03  0.25608277743E-01  0.60576595434E-01  0.51100000000E-03 0.  1.
</event>
<event>
 8    1  0.1054833E+005  0.1043930E+01  0.7957747E-01            NaN
         13   -1    0    0    0    0  0.00000000000E+00  0.00000000000E+00  0.74505805969E-08  0.10566000000E+00  0.10566000000E+00 0. -1.
     999900   -1    0    0    0    0 -0.00000000000E+00 -0.00000000000E+00 -0.74505805969E-08  0.93827000000E+00  0.93827000000E+00 0. -1.
     999902    2    1    2    0    0 -0.20589835661E-01 -0.20593920804E-02 -0.11082998434E-01  0.10204562853E+01  0.10201862648E+01 0.  0.
     999903    2    3    3    0    0 -0.52933852389E-01  0.10042809676E+00 -0.64976655041E-01  0.13228155754E+00  0.19714193249E-01 0.  0.
         14    1    1    2    0    0  0.20589835661E-01  0.20593920804E-02  0.11082998434E-01  0.23473714716E-01  0.00000000000E+00 0. -1.
     999901    1    3    3    0    0  0.32344016728E-01 -0.10248748884E+00  0.53893656607E-01  0.88817472775E+00  0.88000000000E+00 0.  1.
        -11    1    4    4    0    0 -0.39002685498E-01  0.88451879376E-01 -0.51861351525E-01  0.10970326041E+00  0.51100000000E-03 0.  1.
         11    1    4    4    0    0 -0.13931166892E-01  0.11976217388E-01 -0.13115303516E-01  0.22578297128E-01  0.51100000000E-03 0. -1.
</event>
<event>
 8    1  0.1054833E+005  0.1043930E+01  0.7957747E-01            NaN
         13   -1    0    0    0    0  0.00000000000E+00  0.00000000000E+00  0.74505805969E-08  0.10566000000E+00  0.10566000000E+00 0. -1.
     999900   -1    0    0    0    0 -0.00000000000E+00 -0.00000000000E+00 -0.74505805969E-08  0.93827000000E+00  0.93827000000E+00 0. -1.
     999902    2    1    2    0    0  0.83542214695E-02 -0.67343349151E-02  0.19115034080E-01  0.10220090326E+01  0.10217739153E+01 0.  0.
     999903    2    3    3    0    0  0.36512649590E-01 -0.67803126278E-01 -0.10381544932E+00  0.13092306701E+00  0.20802991275E-01 0.  0.
         14    1    1    2    0    0 -0.83542214695E-02  0.67343349151E-02 -0.19115034080E-01  0.21920967382E-01  0.00000000000E+00 0.  1.
     999901    1    3    3    0    0 -0.28158428120E-01  0.61068791362E-01  0.12293048340E+00  0.89108596561E+00  0.88000000000E+00 0.  1.
        -11    1    4    4    0    0 -0.17478938964E-02 -0.53112790300E-03 -0.76125809338E-03  0.20439825848E-02  0.51100000000E-03 0. -1.
         11    1    4    4    0    0  0.38260543486E-01 -0.67271998375E-01 -0.10305419122E+00  0.12887908443E+00  0.51100000000E-03 0.  1.
</event>
<event>
 8    1  0.1054833E+005  0.1043930E+01  0.7957747E-01            NaN
         13   -1    0    0    0    0  0.00000000000E+00  0.00000000000E+00  0.74505805969E-08  0.10566000000E+00  0.10566000000E+00 0.  1.
     999900   -1    0    0    0    0 -0.00000000000E+00 -0.00000000000E+00 -0.74505805969E-08  0.93827000000E+00  0.93827000000E+00 0.  1.
     999902    2    1    2    0    0  0.66602831359E-02 -0.15218251723E-01  0.17660329394E-01  0.10196845511E+01  0.10193962635E+01 0.  0.
     999903    2    3    3    0    0  0.74085681030E-01 -0.77202041594E-01 -0.71991353302E-01  0.13040079512E+00  0.19307228092E-01 0.  0.
         14    1    1    2    0    0 -0.66602831359E-02  0.15218251723E-01 -0.17660329394E-01  0.24245448877E-01  0.00000000000E+00 0. -1.
     999901    1    3    3    0    0 -0.67425397895E-01  0.61983789871E-01  0.89651682696E-01  0.88928375601E+00  0.88000000000E+00 0.  1.
        -11    1    4    4    0    0  0.18180500893E-01 -0.13321756275E-01 -0.23812300498E-01  0.32791562619E-01  0.51100000000E-03 0. -1.
         11    1    4    4    0    0  0.55905180137E-01 -0.63880285318E-01 -0.48179052804E-01  0.97609232496E-01  0.51100000000E-03 0.  1.
</event>
<event>
 8    1  0.1054833E+005  0.1043930E+01  0.7957747E-01            NaN
         13   -1    0    0    0    0  0.00000000000E+00  0.00000000000E+00  0.74505805969E-08  0.10566000000E+00  0.10566000000E+00 0.  1.
     999900   -1    0    0    0    0 -0.00000000000E+00 -0.00000000000E+00 -0.74505805969E-08  0.93827000000E+00  0.93827000000E+00 0. -1.
     999902    2    1    2    0    0  0.12094132322E-01 -0.93280176110E-02 -0.18577317861E-01  0.10198801208E+01  0.10195965203E+01 0.  0.
     999903    2    3    3    0    0  0.12911672894E+00  0.85273203803E-02 -0.16785536932E-01  0.13195202031E+00  0.19640176431E-01 0.  0.
         14    1    1    2    0    0 -0.12094132322E-01  0.93280176110E-02  0.18577317861E-01  0.24049879170E-01  0.00000000000E+00 0.  1.
     999901    1    3    3    0    0 -0.11702259661E+00 -0.17855337991E-01 -0.17917809290E-02  0.88792810052E+00  0.88000000000E+00 0.  1.
        -11    1    4    4    0    0  0.72624444064E-01  0.29957718068E-02 -0.19047493384E-01  0.75142216161E-01  0.51100000000E-03 0. -1.
         11    1    4    4    0    0  0.56492284871E-01  0.55315485734E-02  0.22619564520E-02  0.56809804150E-01  0.51100000000E-03 0.  1.
</event>
<event>
 8    1  0.1054833E+005  0.1043930E+01  0.7957747E-01            NaN
         13   -1    0    0    0    0  0.00000000000E+00  0.00000000000E+00  0.74505805969E-08  0.10566000000E+00  0.10566000000E+00 0. -1.
     999900   -1    0    0    0    0 -0.00000000000E+00 -0.00000000000E+00 -0.74505805969E-08  0.93827000000E+00  0.93827000000E+00 0. -1.
     999902    2    1    2    0    0 -0.22144101927E-01 -0.85502235279E-02  0.45912879384E-02  0.10197525829E+01  0.10194659302E+01 0.  0.
     999903    2    3    3    0    0 -0.13081428636E+00  0.86695027367E-02 -0.72399899863E-02  0.13282208557E+00  0.20043731372E-01 0.  0.
         14    1    1    2    0    0  0.22144101927E-01  0.85502235279E-02 -0.45912879384E-02  0.24177417097E-01  0.00000000000E+00 0.  1.
     999901    1    3    3    0    0  0.10867018443E+00 -0.17219726265E-01  0.11831277925E-01  0.88693049733E+00  0.88000000000E+00 0. -1.
        -11    1    4    4    0    0 -0.98125687015E-02 -0.45718692537E-02  0.51961156257E-03  0.10849866827E-01  0.51100000000E-03 0.  1.
         11    1    4    4    0    0 -0.12100171766E+00  0.13241371990E-01 -0.77596015489E-02  0.12197221875E+00  0.51100000000E-03 0. -1.
</event>
<event>
 8    1  0.1054833E+005  0.1043930E+01  0.7957747E-01            NaN
         13   -1    0    0    0    0  0.00000000000E+00  0.00000000000E+00  0.74505805969E-08  0.10566000000E+00  0.10566000000E+00 0.  1.
     999900   -1    0    0    0    0 -0.00000000000E+00 -0.00000000000E+00 -0.74505805969E-08  0.93827000000E+00  0.93827000000E+00 0.  1.
     999902    2    1    2    0    0  0.76692144479E-02  0.78584121083E-03 -0.28586030564E-01  0.10143226438E+01  0.10138904429E+01 0.  0.
     999903    2    3    3    0    0  0.20010122144E-01 -0.19399705798E-01 -0.12140262451E+00  0.12912510969E+00  0.34028563614E-01 0.  0.
         14    1    1    2    0    0 -0.76692144479E-02 -0.78584121083E-03  0.28586030564E-01  0.29607356182E-01  0.00000000000E+00 0.  1.
     999901    1    3    3    0    0 -0.12340907696E-01  0.20185547008E-01  0.92816593946E-01  0.88519753413E+00  0.88000000000E+00 0. -1.
        -11    1    4    4    0    0  0.13588694948E-01  0.75940529389E-02 -0.33454830602E-01  0.36902697491E-01  0.51100000000E-03 0. -1.
         11    1    4    4    0    0  0.64214271957E-02 -0.26993758737E-01 -0.87947793908E-01  0.92222412202E-01  0.51100000000E-03 0.  1.
</event>
<event>
 8    1  0.1054833E+005  0.1043930E+01  0.7957747E-01            NaN
         13   -1    0    0    0    0  0.00000000000E+00  0.00000000000E+00  0.74505805969E-08  0.10566000000E+00  0.10566000000E+00 0.  1.
     999900   -1    0    0    0    0 -0.00000000000E+00 -0.00000000000E+00 -0.74505805969E-08  0.93827000000E+00  0.93827000000E+00 0.  1.
     999902    2    1    2    0    0 -0.84981421151E-03  0.25212660729E-01  0.27383306636E-02  0.10185548369E+01  0.10182387033E+01 0.  0.
     999903    2    3    3    0    0  0.85358776814E-03 -0.11893819809E+00  0.37058742717E-01  0.12616464070E+00  0.19928436292E-01 0.  0.
         14    1    1    2    0    0  0.84981421151E-03 -0.25212660729E-01 -0.27383306636E-02  0.25375163055E-01  0.00000000000E+00 0.  1.
     999901    1    3    3    0    0 -0.17034019796E-02  0.14415085882E+00 -0.34320412054E-01  0.89239019625E+00  0.88000000000E+00 0.  1.
        -11    1    4    4    0    0  0.25947856046E-02 -0.34240661581E-01  0.17593734276E-02  0.34387677061E-01  0.51100000000E-03 0. -1.
         11    1    4    4    0    0 -0.17411978365E-02 -0.84697536511E-01  0.35299369290E-01  0.91776963635E-01  0.51100000000E-03 0.  1.
</event>
<event>
 8    1  0.1054833E+005  0.1043930E+01  0.7957747E-01            NaN
         13   -1    0    0    0    0  0.00000000000E+00  0.00000000000E+00  0.74505805969E-08  0.10566000000E+00  0.10566000000E+00 0.  1.
     999900   -1    0    0    0    0 -0.00000000000E+00 -0.00000000000E+00 -0.74505805969E-08  0.93827000000E+00  0.93827000000E+00 0. -1.
     999902    2    1    2    0    0  0.30925951824E-02  0.46184396676E-04  0.23377407671E-01  0.10203488748E+01  0.10200763485E+01 0.  0.
     999903    2    3    3    0    0  0.30066303637E-01 -0.12312257189E+00 -0.22135701924E-01  0.13019744573E+00  0.19955832506E-01 0.  0.
         14    1    1    2    0    0 -0.30925951824E-02 -0.46184396676E-04 -0.23377407671E-01  0.23581125236E-01  0.00000000000E+00 0. -1.
     999901    1    3    3    0    0 -0.26973708454E-01  0.12316875629E+00  0.45513109595E-01  0.89015142904E+00  0.88000000000E+00 0.  1.
        -11    1    4    4    0    0  0.24964418530E-01 -0.70001953611E-01 -0.19134645257E-01  0.76745628358E-01  0.51100000000E-03 0.  1.
         11    1    4    4    0    0  0.51018851069E-02 -0.53120618278E-01 -0.30010566670E-02  0.53451817369E-01  0.51100000000E-03 0. -1.
</event>
<event>
 8    1  0.1054833E+005  0.1043930E+01  0.7957747E-01            NaN
         13   -1    0    0    0    0  0.00000000000E+00  0.00000000000E+00  0.74505805969E-08  0.10566000000E+00  0.10566000000E+00 0.  1.
     999900   -1    0    0    0    0 -0.00000000000E+00 -0.00000000000E+00 -0.74505805969E-08  0.93827000000E+00  0.93827000000E+00 0.  1.
     999902    2    1    2    0    0 -0.10031965058E-01  0.19051727445E-01  0.88910011391E-02  0.10206349674E+01  0.10203690892E+01 0.  0.
     999903    2    3    3    0    0  0.83352670651E-01  0.76629796878E-01 -0.63340569169E-01  0.13088594437E+00  0.17300556572E-01 0.  0.
         14    1    1    2    0    0  0.10031965058E-01 -0.19051727445E-01 -0.88910011391E-02  0.23295032578E-01  0.00000000000E+00 0. -1.
     999901    1    3    3    0    0 -0.93384635709E-01 -0.57578069433E-01  0.72231570308E-01  0.88974902305E+00  0.88000000000E+00 0.  1.
        -11    1    4    4    0    0  0.30667418286E-01  0.34757067522E-01 -0.33898154672E-01  0.57427260933E-01  0.51100000000E-03 0.  1.
         11    1    4    4    0    0  0.52685252365E-01  0.41872729356E-01 -0.29442414497E-01  0.73458683441E-01  0.51100000000E-03 0. -1.
</event>
<event>
 8    1  0.1054833E+005  0.1043930E+01  0.7957747E-01            NaN
         13   -1    0    0    0    0  0.00000000000E+00  0.00000000000E+00  0.74505805969E-08  0.10566000000E+00  0.10566000000E+00 0. -1.
     999900   -1    0    0    0    0 -0.00000000000E+00 -0.00000000000E+00 -0.74505805969E-08  0.93827000000E+00  0.93827000000E+00 0.  1.
     999902    2    1    2    0    0  0.10334395564E-01  0.14456726037E-01  0.15740554780E-01  0.10201905450E+01  0.10199143034E+01 0.  0.
     999903    2    3    3    0    0 -0.82898460265E-01  0.88735591941E-01 -0.42383396879E-01  0.13025340728E+00  0.20577603954E-01 0.  0.
         14    1    1    2    0    0 -0.10334395564E-01 -0.14456726037E-01 -0.15740554780E-01  0.23739455010E-01  0.00000000000E+00 0. -1.
     999901    1    3    3    0    0  0.93232855829E-01 -0.74278865903E-01  0.58123951660E-01  0.88993713771E+00  0.88000000000E+00 0. -1.
        -11    1    4    4    0    0 -0.25496858013E-01  0.29769907987E-01 -0.23897444719E-01  0.45909543400E-01  0.51100000000E-03 0. -1.
         11    1    4    4    0    0 -0.57401602252E-01  0.58965683954E-01 -0.18485952161E-01  0.84343863876E-01  0.51100000000E-03 0.  1.
</event>
<event>
 8    1  0.1054833E+005  0.1043930E+01  0.7957747E-01            NaN
         13   -1    0    0    0    0  0.00000000000E+00  0.00000000000E+00  0.74505805969E-08  0.10566000000E+00  0.10566000000E+00 0. -1.
     999900   -1    0    0    0    0 -0.00000000000E+00 -0.00000000000E+00 -0.74505805969E-08  0.93827000000E+00  0.93827000000E+00 0. -1.
     999902    2    1    2    0    0  0.20895647068E-01  0.13965590091E-02 -0.54907283757E-02  0.10222799067E+01  0.10220506255E+01 0.  0.
     999903    2    3    3    0    0  0.12266129327E+00 -0.96148125664E-03  0.51193409800E-01  0.13460040446E+00  0.21208167372E-01 0.  0.
         14    1    1    2    0    0 -0.20895647068E-01 -0.13965590091E-02  0.54907283757E-02  0.21650093339E-01  0.00000000000E+00 0.  1.
     999901    1    3    3    0    0 -0.10176564620E+00  0.23580402657E-02 -0.56684138176E-01  0.88767950220E+00  0.88000000000E+00 0.  1.
        -11    1    4    4    0    0  0.19474731564E-01 -0.66741912312E-02  0.13359944285E-01  0.24547081912E-01  0.51100000000E-03 0. -1.
         11    1    4    4    0    0  0.10318656170E+00  0.57127099745E-02  0.37833465515E-01  0.11005332255E+00  0.51100000000E-03 0.  1.
</event>
<event>
 8    1  0.1054833E+005  0.1043930E+01  0.7957747E-01            NaN
         13   -1    0    0    0    0  0.00000000000E+00  0.00000000000E+00  0.74505805969E-08  0.10566000000E+00  0.10566000000E+00 0.  1.
     999900   -1    0    0    0    0 -0.00000000000E+00 -0.00000000000E+00 -0.74505805969E-08  0.93827000000E+00  0.93827000000E+00 0. -1.
     999902    2    1    2    0    0  0.10489781657E-01 -0.20079996783E-01 -0.67880741951E-02  0.10202800583E+01  0.10200059204E+01 0.  0.
     999903    2    3    3    0    0  0.45632207030E-01 -0.84155892735E-01  0.88842228168E-01  0.13208758750E+00  0.19740229599E-01 0.  0.
         14    1    1    2    0    0 -0.10489781657E-01  0.20079996783E-01  0.67880741951E-02  0.23649941676E-01  0.00000000000E+00 0. -1.
     999901    1    3    3    0    0 -0.35142425373E-01  0.64075895953E-01 -0.95630302363E-01  0.88819247083E+00  0.88000000000E+00 0. -1.
        -11    1    4    4    0    0  0.25566314670E-01 -0.45821347062E-01  0.35284450166E-01  0.63233581560E-01  0.51100000000E-03 0. -1.
         11    1    4    4    0    0  0.20065892360E-01 -0.38334545673E-01  0.53557778001E-01  0.68854005937E-01  0.51100000000E-03 0.  1.
</event>
<event>
 8    1  0.1054833E+005  0.1043930E+01  0.7957747E-01            NaN
         13   -1    0    0    0    0  0.00000000000E+00  0.00000000000E+00  0.74505805969E-08  0.10566000000E+00  0.10566000000E+00 0. -1.
     999900   -1    0    0    0    0 -0.00000000000E+00 -0.00000000000E+00 -0.74505805969E-08  0.93827000000E+00  0.93827000000E+00 0. -1.
     999902    2    1    2    0    0 -0.12989077089E-01  0.11386525738E-01 -0.13772349072E-01  0.10218382212E+01  0.10215993851E+01 0.  0.
     999903    2    3    3    0    0 -0.86442783794E-01  0.24916228524E-01  0.94268817966E-01  0.13209028292E+00  0.21634682493E-01 0.  0.
         14    1    1    2    0    0  0.12989077089E-01 -0.11386525738E-01  0.13772349072E-01  0.22091778809E-01  0.00000000000E+00 0. -1.
     999901    1    3    3    0    0  0.73453706706E-01 -0.13529702786E-01 -0.10804116704E+00  0.88974793827E+00  0.88000000000E+00 0. -1.
        -11    1    4    4    0    0 -0.66484607454E-01  0.95816847623E-02  0.72149990002E-01  0.98579378622E-01  0.51100000000E-03 0.  1.
         11    1    4    4    0    0 -0.19958176340E-01  0.15334543762E-01  0.22118827964E-01  0.33510904295E-01  0.51100000000E-03 0. -1.
</event>
<event>
 8    1  0.1054833E+005  0.1043930E+01  0.7957747E-01            NaN
         13   -1    0    0    0    0  0.00000000000E+00  0.00000000000E+00  0.74505805969E-08  0.10566000000E+00  0.10566000000E+00 0.  1.
     999900   -1    0    0    0    0 -0.00000000000E+00 -0.00000000000E+00 -0.74505805969E-08  0.93827000000E+00  0.93827000000E+00 0.  1.
     999902    2    1    2    0    0  0.11216089909E-01  0.18991725140E-01 -0.80638670415E-02  0.10204457021E+01  0.10201754352E+01 0.  0.
     999903    2    3    3    0    0 -0.22839120923E-01  0.97302350592E-01 -0.85251319144E-01  0.13294910254E+00  0.20452471157E-01 0.  0.
         14    1    1    2    0    0 -0.11216089909E-01 -0.18991725140E-01  0.80638670415E-02  0.23484297910E-01  0.00000000000E+00 0.  1.
     999901    1    3    3    0    0  0.34055210831E-01 -0.78310625452E-01  0.77187452102E-01  0.88749659955E+00  0.88000000000E+00 0. -1.
        -11    1    4    4    0    0 -0.26641643289E-01  0.87466095198E-01 -0.77306657016E-01  0.11973585639E+00  0.51100000000E-03 0.  1.
         11    1    4    4    0    0  0.38025223664E-02  0.98362553942E-02 -0.79446621277E-02  0.13213246151E-01  0.51100000000E-03 0. -1.
</event>
<event>
 8    1  0.1054833E+005  0.1043930E+01  0.7957747E-01            NaN
         13   -1    0    0    0    0  0.00000000000E+00  0.00000000000E+00  0.74505805969E-08  0.10566000000E+00  0.10566000000E+00 0. -1.
     999900   -1    0    0    0    0 -0.00000000000E+00 -0.00000000000E+00 -0.74505805969E-08  0.93827000000E+00  0.93827000000E+00 0. -1.
     999902    2    1    2    0    0  0.18497874276E-01  0.81086606465E-02 -0.11288179572E-01  0.10207924822E+01  0.10205302284E+01 0.  0.
     999903    2    3    3    0    0 -0.80056117576E-01  0.10026571036E+00  0.10781854836E-01  0.13023484932E+00  0.19562028228E-01 0.  0.
         14    1    1    2    0    0 -0.18497874276E-01 -0.81086606465E-02  0.11288179572E-01  0.23137517764E-01  0.00000000000E+00 0. -1.
     999901    1    3    3    0    0  0.98553991852E-01 -0.92157049717E-01 -0.22070034408E-01  0.89055763291E+00  0.88000000000E+00 0.  1.
        -11    1    4    4    0    0 -0.44240295589E-02  0.15211939623E-01 -0.50311320543E-03  0.15858416961E-01  0.51100000000E-03 0.  1.
         11    1    4    4    0    0 -0.75632088017E-01  0.85053770741E-01  0.11284968041E-01  0.11437643236E+00  0.51100000000E-03 0. -1.
</event>
<event>
 8    1  0.1054833E+005  0.1043930E+01  0.7957747E-01            NaN
         13   -1    0    0    0    0  0.00000000000E+00  0.00000000000E+00  0.74505805969E-08  0.10566000000E+00  0.10566000000E+00 0. -1.
     999900   -1    0    0    0    0 -0.00000000000E+00 -0.00000000000E+00 -0.74505805969E-08  0.93827000000E+00  0.93827000000E+00 0.  1.
     999902    2    1    2    0    0  0.99576763392E-02 -0.11704245648E-01  0.17697804321E-01  0.10204916348E+01  0.10202224364E+01 0.  0.
     999903    2    3    3    0    0 -0.41940700685E-01  0.82400178309E-01 -0.86019961126E-01  0.12790748808E+00  0.20299754586E-01 0.  0.
         14    1    1    2    0    0 -0.99576763392E-02  0.11704245648E-01 -0.17697804321E-01  0.23438365175E-01  0.00000000000E+00 0.  1.
     999901    1    3    3    0    0  0.51898377025E-01 -0.94104423957E-01  0.10371776545E+00  0.89258414674E+00  0.88000000000E+00 0. -1.
        -11    1    4    4    0    0 -0.15592959921E-01  0.42795949538E-01 -0.53595122680E-01  0.70337273135E-01  0.51100000000E-03 0.  1.
         11    1    4    4    0    0 -0.26347740764E-01  0.39604228770E-01 -0.32424838446E-01  0.57570214948E-01  0.51100000000E-03 0. -1.
</event>
<event>
 8    1  0.1054833E+005  0.1043930E+01  0.7957747E-01            NaN
         13   -1    0    0    0    0  0.00000000000E+00  0.00000000000E+00  0.74505805969E-08  0.10566000000E+00  0.10566000000E+00 0. -1.
     999900   -1    0    0    0    0 -0.00000000000E+00 -0.00000000000E+00 -0.74505805969E-08  0.93827000000E+00  0.93827000000E+00 0. -1.
     999902    2    1    2    0    0 -0.18155255955E-01  0.14908494713E-01  0.24599355267E-05  0.10204379473E+01  0.10201674999E+01 0.  0.
     999903    2    3    3    0    0 -0.76090331836E-01 -0.30160871008E-01 -0.10114144774E+00  0.13160848628E+00  0.19793546192E-01 0.  0.
         14    1    1    2    0    0  0.18155255955E-01 -0.14908494713E-01 -0.24599355267E-05  0.23492052687E-01  0.00000000000E+00 0. -1.
     999901    1    3    3    0    0  0.57935075881E-01  0.45069365721E-01  0.10114390767E+00  0.88882946103E+00  0.88000000000E+00 0.  1.
        -11    1    4    4    0    0 -0.19966375636E-01 -0.52612085129E-02 -0.13786153218E-01  0.24832551472E-01  0.51100000000E-03 0. -1.
         11    1    4    4    0    0 -0.56123956200E-01 -0.24899662495E-01 -0.87355294521E-01  0.10677593481E+00  0.51100000000E-03 0.  1.
</event>
<event>
 8    1  0.1054833E+005  0.1043930E+01  0.7957747E-01            NaN
         13   -1    0    0    0    0  0.00000000000E+00  0.00000000000E+00  0.74505805969E-08  0.10566000000E+00  0.10566000000E+00 0. -1.
     999900   -1    0    0    0    0 -0.00000000000E+00 -0.00000000000E+00 -0.74505805969E-08  0.93827000000E+00  0.93827000000E+00 0. -1.
     999902    2    1    2    0    0  0.11834611480E-01 -0.17093611444E-01  0.10314525527E-01  0.10207214021E+01  0.10204575158E+01 0.  0.
     999903    2    3    3    0    0  0.37260595873E-01 -0.34741868285E-01 -0.11862129433E+00  0.13078747908E+00  0.20952417478E-01 0.  0.
         14    1    1    2    0    0 -0.11834611480E-01  0.17093611444E-01 -0.10314525527E-01  0.23208597931E-01  0.00000000000E+00 0. -1.
     999901    1    3    3    0    0 -0.25425984393E-01  0.17648256841E-01  0.12893581986E+00  0.88993392299E+00  0.88000000000E+00 0.  1.
        -11    1    4    4    0    0  0.83370569354E-02 -0.11935327922E-01 -0.15439887736E-01  0.21227572288E-01  0.51100000000E-03 0.  1.
         11    1    4    4    0    0  0.28923538938E-01 -0.22806540363E-01 -0.10318140659E+00  0.10955990679E+00  0.51100000000E-03 0. -1.
</event>
<event>
 8    1  0.1054833E+005  0.1043930E+01  0.7957747E-01            NaN
         13   -1    0    0    0    0  0.00000000000E+00  0.00000000000E+00  0.74505805969E-08  0.10566000000E+00  0.10566000000E+00 0.  1.
     999900   -1    0    0    0    0 -0.00000000000E+00 -0.00000000000E+00 -0.74505805969E-08  0.93827000000E+00  0.93827000000E+00 0.  1.
     999902    2    1    2    0    0 -0.53167317556E-02  0.60196735001E-02 -0.21818673624E-01  0.10206800833E+01  0.10204152458E+01 0.  0.
     999903    2    3    3    0    0  0.72629902872E-01  0.17544484068E-01 -0.10799456747E+00  0.13296685049E+00  0.20843344613E-01 0.  0.
         14    1    1    2    0    0  0.53167317556E-02 -0.60196735001E-02  0.21818673624E-01  0.23249916652E-01  0.00000000000E+00 0.  1.
     999901    1    3    3    0    0 -0.77946634628E-01 -0.11524810568E-01  0.86175893844E-01  0.88771323286E+00  0.88000000000E+00 0. -1.
        -11    1    4    4    0    0  0.86673498303E-02 -0.29979763915E-02 -0.22000724712E-01  0.23841221118E-01  0.51100000000E-03 0.  1.
         11    1    4    4    0    0  0.63962553042E-01  0.20542460459E-01 -0.85993842756E-01  0.10912562937E+00  0.51100000000E-03 0. -1.
</event>
<event>
 8    1  0.1054833E+005  0.1043930E+01  0.7957747E-01            NaN
         13   -1    0    0    0    0  0.00000000000E+00  0.00000000000E+00  0.74505805969E-08  0.10566000000E+00  0.10566000000E+00 0.  1.
     999900   -1    0    0    0    0 -0.00000000000E+00 -0.00000000000E+00 -0.74505805969E-08  0.93827000000E+00  0.93827000000E+00 0.  1.
     999902    2    1    2    0    0  0.36818437503E-02  0.21634698575E-01  0.63270947550E-02  0.10210903791E+01  0.10208349102E+01 0.  0.
     999903    2    3    3    0    0 -0.22860175881E-02 -0.53980992686E-01 -0.11619290903E+00  0.12937041213E+00  0.17797133970E-01 0.  0.
         14    1    1    2    0    0 -0.36818437503E-02 -0.21634698575E-01 -0.63270947550E-02  0.22839620922E-01  0.00000000000E+00 0.  1.
     999901    1    3    3    0    0  0.59678613383E-02  0.75615691260E-01  0.12252000378E+00  0.89171996695E+00  0.88000000000E+00 0. -1.
        -11    1    4    4    0    0  0.36676615209E-02 -0.24053230870E-01 -0.69032796954E-01  0.73196979668E-01  0.51100000000E-03 0. -1.
         11    1    4    4    0    0 -0.59536791089E-02 -0.29927761816E-01 -0.47160112074E-01  0.56173432458E-01  0.51100000000E-03 0.  1.
</event>
<event>
 8    1  0.1054833E+005  0.1043930E+01  0.7957747E-01            NaN
         13   -1    0    0    0    0  0.00000000000E+00  0.00000000000E+00  0.74505805969E-08  0.10566000000E+00  0.10566000000E+00 0. -1.
     999900   -1    0    0    0    0 -0.00000000000E+00 -0.00000000000E+00 -0.74505805969E-08  0.93827000000E+00  0.93827000000E+00 0.  1.
     999902    2    1    2    0    0 -0.12389086901E-01 -0.17538178894E-01  0.12540960026E-01  0.10190632979E+01  0.10187598600E+01 0.  0.
     999903    2    3    3    0    0 -0.62516873324E-01 -0.43824218210E-01  0.10642761291E+00  0.13226092174E+00  0.18362817786E-01 0.  0.
         14    1    1    2    0    0  0.12389086901E-01  0.17538178894E-01 -0.12540960026E-01  0.24866702064E-01  0.00000000000E+00 0. -1.
     999901    1    3    3    0    0  0.50127786423E-01  0.26286039316E-01 -0.93886652889E-01  0.88680237620E+00  0.88000000000E+00 0.  1.
        -11    1    4    4    0    0 -0.22617500830E-01 -0.99846227273E-02  0.46817279937E-01  0.52946792693E-01  0.51100000000E-03 0. -1.
         11    1    4    4    0    0 -0.39899372494E-01 -0.33839595483E-01  0.59610332978E-01  0.79314129048E-01  0.51100000000E-03 0.  1.
</event>
<event>
 8    1  0.1054833E+005  0.1043930E+01  0.7957747E-01            NaN
         13   -1    0    0    0    0  0.00000000000E+00  0.00000000000E+00  0.74505805969E-08  0.10566000000E+00  0.10566000000E+00 0. -1.
     999900   -1    0    0    0    0 -0.00000000000E+00 -0.00000000000E+00 -0.74505805969E-08  0.93827000000E+00  0.93827000000E+00 0.  1.
     999902    2    1    2    0    0 -0.34577726975E-03  0.14659428832E-01 -0.18293057958E-01  0.10204852909E+01  0.10202159451E+01 0.  0.
     999903    2    3    3    0    0  0.12200034400E+00  0.49889473939E-02 -0.44840714440E-01  0.13157198260E+00  0.19786950249E-01 0.  0.
         14    1    1    2    0    0  0.34577726975E-03 -0.14659428832E-01  0.18293057958E-01  0.23444709105E-01  0.00000000000E+00 0.  1.
     999901    1    3    3    0    0 -0.12234612127E+00  0.96704814377E-02  0.26547656482E-01  0.88891330830E+00  0.88000000000E+00 0. -1.
        -11    1    4    4    0    0  0.65641997478E-01  0.97579114865E-03 -0.34379867644E-01  0.74108436911E-01  0.51100000000E-03 0.  1.
         11    1    4    4    0    0  0.56358346526E-01  0.40131562452E-02 -0.10460846796E-01  0.57463545687E-01  0.51100000000E-03 0. -1.
</event>
<event>
 8    1  0.1054833E+005  0.1043930E+01  0.7957747E-01            NaN
         13   -1    0    0    0    0  0.00000000000E+00  0.00000000000E+00  0.74505805969E-08  0.10566000000E+00  0.10566000000E+00 0.  1.
     999900   -1    0    0    0    0 -0.00000000000E+00 -0.00000000000E+00 -0.74505805969E-08  0.93827000000E+00  0.93827000000E+00 0.  1.
     999902    2    1    2    0    0 -0.79122698144E-02  0.18901256081E-01 -0.11030695327E-01  0.10206590367E+01  0.10203937139E+01 0.  0.
     999903    2    3    3    0    0  0.29699541645E-01 -0.11081850635E+00  0.54600803011E-01  0.12793883487E+00  0.14976436589E-01 0.  0.
         14    1    1    2    0    0  0.79122698144E-02 -0.18901256081E-01  0.11030695327E-01  0.23270963333E-01  0.00000000000E+00 0.  1.
     999901    1    3    3    0    0 -0.37611811460E-01  0.12971976244E+00 -0.65631498338E-01  0.89272020180E+00  0.88000000000E+00 0.  1.
        -11    1    4    4    0    0  0.80814583316E-02 -0.54255971562E-01  0.30484612416E-01  0.62758211686E-01  0.51100000000E-03 0.  1.
         11    1    4    4    0    0  0.21618083314E-01 -0.56562534793E-01  0.24116190595E-01  0.65180623180E-01  0.51100000000E-03 0. -1.
</event>
<event>
 8    1  0.1054833E+005  0.1043930E+01  0.7957747E-01            NaN
         13   -1    0    0    0    0  0.00000000000E+00  0.00000000000E+00  0.74505805969E-08  0.10566000000E+00  0.10566000000E+00 0. -1.
     999900   -1    0    0    0    0 -0.00000000000E+00 -0.00000000000E+00 -0.74505805969E-08  0.93827000000E+00  0.93827000000E+00 0.  1.
     999902    2    1    2    0    0 -0.94331967246E-02 -0.21927497459E-01 -0.14092502460E-02  0.10200179459E+01  0.10197376249E+01 0.  0.
     999903    2    3    3    0    0  0.64097903448E-01 -0.30798951214E-01 -0.10769457801E+00  0.13053377162E+00  0.19591497588E-01 0.  0.
         14    1    1    2    0    0  0.94331967246E-02  0.21927497459E-01  0.14092502460E-02  0.23912054105E-01  0.00000000000E+00 0.  1.
     999901    1    3    3    0    0 -0.73531100173E-01  0.88714537556E-02  0.10628532777E+00  0.88948417427E+00  0.88000000000E+00 0.  1.
        -11    1    4    4    0    0  0.11751382592E-01  0.99484028159E-03 -0.24808475664E-01  0.27473738111E-01  0.51100000000E-03 0. -1.
         11    1    4    4    0    0  0.52346520856E-01 -0.31793791496E-01 -0.82886102350E-01  0.10306003351E+00  0.51100000000E-03 0.  1.
</event>
<event>
 8    1  0.1054833E+005  0.1043930E+01  0.7957747E-01            NaN
         13   -1    0    0    0    0  0.00000000000E+00  0.00000000000E+00  0.74505805969E-08  0.10566000000E+00  0.10566000000E+00 0.  1.
     999900   -1    0    0    0    0 -0.00000000000E+00 -0.00000000000E+00 -0.74505805969E-08  0.93827000000E+00  0.93827000000E+00 0.  1.
     999902    2    1    2    0    0  0.82845145282E-02 -0.20111369245E-01  0.84369360547E-02  0.10206001427E+01  0.10203334597E+01 0.  0.
     999903    2    3    3    0    0 -0.10619949352E+00  0.49540607041E-01  0.51254114577E-01  0.12942603134E+00  0.19786590360E-01 0.  0.
         14    1    1    2    0    0 -0.82845145282E-02  0.20111369245E-01 -0.84369360547E-02  0.23329857348E-01  0.00000000000E+00 0.  1.
     999901    1    3    3    0    0  0.11448400804E+00 -0.69651976287E-01 -0.42817178522E-01  0.89117411131E+00  0.88000000000E+00 0.  1.
        -11    1    4    4    0    0 -0.34998279091E-01  0.23491668069E-01  0.25926048572E-01  0.49488979819E-01  0.51100000000E-03 0.  1.
         11    1    4    4    0    0 -0.71201214424E-01  0.26048938972E-01  0.25328066005E-01  0.79937051520E-01  0.51100000000E-03 0. -1.
</event>
<event>
 8    1  0.1054833E+005  0.1043930E+01  0.7957747E-01            NaN
         13   -1    0    0    0    0  0.00000000000E+00  0.00000000000E+00  0.74505805969E-08  0.10566000000E+00  0.10566000000E+00 0. -1.
     999900   -1    0    0    0    0 -0.00000000000E+00 -0.00000000000E+00 -0.74505805969E-08  0.93827000000E+00  0.93827000000E+00 0.  1.
     999902    2    1    2    0    0  0.21992633945E-01 -0.79094032189E-02  0.10608748644E-02  0.10205342726E+01  0.10202660640E+01 0.  0.
     999903    2    3    3    0    0  0.10527782076E+00  0.11876853957E-01 -0.77358143550E-01  0.13290965552E+00  0.21359188987E-01 0.  0.
         14    1    1    2    0    0 -0.21992633945E-01  0.79094032189E-02 -0.10608748644E-02  0.23395727443E-01  0.00000000000E+00 0.  1.
     999901    1    3    3    0    0 -0.83285186814E-01 -0.19786257176E-01  0.78419018415E-01  0.88762461703E+00  0.88000000000E+00 0. -1.
        -11    1    4    4    0    0  0.39137569614E-01 -0.28359909610E-02 -0.19557462644E-01  0.43846866092E-01  0.51100000000E-03 0.  1.
         11    1    4    4    0    0  0.66140251145E-01  0.14712844918E-01 -0.57800680906E-01  0.89062789431E-01  0.51100000000E-03 0. -1.
</event>
<event>
 8    1  0.1054833E+005  0.1043930E+01  0.7957747E-01            NaN
         13   -1    0    0    0    0  0.00000000000E+00  0.00000000000E+00  0.74505805969E-08  0.10566000000E+00  0.10566000000E+00 0. -1.
     999900   -1    0    0    0    0 -0.00000000000E+00 -0.00000000000E+00 -0.74505805969E-08  0.93827000000E+00  0.93827000000E+00 0.  1.
     999902    2    1    2    0    0 -0.14223036706E-01  0.18123536085E-01 -0.55356888843E-02  0.10202360939E+01  0.10199609238E+01 0.  0.
     999903    2    3    3    0    0  0.11229175260E+00 -0.66933037167E-02  0.58916776464E-01  0.12850968536E+00  0.19731058411E-01 0.  0.
         14    1    1    2    0    0  0.14223036706E-01 -0.18123536085E-01  0.55356888843E-02  0.23693906068E-01  0.00000000000E+00 0.  1.
     999901    1    3    3    0    0 -0.12651478931E+00  0.24816839801E-01 -0.64452465348E-01  0.89172640857E+00  0.88000000000E+00 0.  1.
        -11    1    4    4    0    0  0.22282945835E-01  0.42040087818E-02  0.18374992438E-01  0.29190834744E-01  0.51100000000E-03 0. -1.
         11    1    4    4    0    0  0.90008806766E-01 -0.10897312499E-01  0.40541784026E-01  0.99318850618E-01  0.51100000000E-03 0.  1.
</event>
<event>
 8    1  0.1054833E+005  0.1043930E+01  0.7957747E-01            NaN
         13   -1    0    0    0    0  0.00000000000E+00  0.00000000000E+00  0.74505805969E-08  0.10566000000E+00  0.10566000000E+00 0. -1.
     999900   -1    0    0    0    0 -0.00000000000E+00 -0.00000000000E+00 -0.74505805969E-08  0.93827000000E+00  0.93827000000E+00 0. -1.
     999902    2    1    2    0    0  0.81241309047E-02  0.32742664720E-01  0.34713028336E-02  0.10100163812E+01  0.10094468568E+01 0.  0.
     999903    2    3    3    0    0  0.94200529186E-01 -0.70362611913E-01  0.11993580997E-01  0.11978468461E+00  0.19490711317E-01 0.  0.
         14    1    1    2    0    0 -0.81241309047E-02 -0.32742664720E-01 -0.34713028336E-02  0.33913618788E-01  0.00000000000E+00 0. -1.
     999901    1    3    3    0    0 -0.86076398282E-01  0.10310527663E+00 -0.85222781638E-02  0.89023169660E+00  0.88000000000E+00 0.  1.
        -11    1    4    4    0    0  0.31176838361E-01 -0.16862974607E-01 -0.36867512465E-02  0.35639983425E-01  0.51100000000E-03 0. -1.
         11    1    4    4    0    0  0.63023690825E-01 -0.53499637306E-01  0.15680332244E-01  0.84144701184E-01  0.51100000000E-03 0.  1.
</event>
<event>
 8    1  0.1054833E+005  0.1043930E+01  0.7957747E-01            NaN
         13   -1    0    0    0    0  0.00000000000E+00  0.00000000000E+00  0.74505805969E-08  0.10566000000E+00  0.10566000000E+00 0.  1.
     999900   -1    0    0    0    0 -0.00000000000E+00 -0.00000000000E+00 -0.74505805969E-08  0.93827000000E+00  0.93827000000E+00 0.  1.
     999902    2    1    2    0    0 -0.19826552261E-01 -0.98824386699E-02  0.65979086909E-02  0.10208153473E+01  0.10205536175E+01 0.  0.
     999903    2    3    3    0    0 -0.76184727648E-01  0.93571235514E-01 -0.47760381382E-01  0.13130214882E+00  0.19987781591E-01 0.  0.
         14    1    1    2    0    0  0.19826552261E-01  0.98824386699E-02 -0.65979086909E-02  0.23114652663E-01  0.00000000000E+00 0. -1.
     999901    1    3    3    0    0  0.56358175387E-01 -0.10345367418E+00  0.54358290072E-01  0.88951319852E+00  0.88000000000E+00 0.  1.
        -11    1    4    4    0    0 -0.20766924249E-01  0.31116198359E-01 -0.24146609016E-01  0.44528673808E-01  0.51100000000E-03 0. -1.
         11    1    4    4    0    0 -0.55417803399E-01  0.62455037155E-01 -0.23613772365E-01  0.86773475013E-01  0.51100000000E-03 0.  1.
</event>
<event>
 8    1  0.1054833E+005  0.1043930E+01  0.7957747E-01            NaN
         13   -1    0    0    0    0  0.00000000000E+00  0.00000000000E+00  0.74505805969E-08  0.10566000000E+00  0.10566000000E+00 0. -1.
     999900   -1    0    0    0    0 -0.00000000000E+00 -0.00000000000E+00 -0.74505805969E-08  0.93827000000E+00  0.93827000000E+00 0.  1.
     999902    2    1    2    0    0  0.10967376968E-01 -0.15002664719E-01  0.14188388350E-01  0.10205489463E+01  0.10202810780E+01 0.  0.
     999903    2    3    3    0    0  0.10500750532E+00  0.16529047881E-01 -0.73464435803E-01  0.13064961933E+00  0.19300624439E-01 0.  0.
         14    1    1    2    0    0 -0.10967376968E-01  0.15002664719E-01 -0.14188388350E-01  0.23381053659E-01  0.00000000000E+00 0.  1.
     999901    1    3    3    0    0 -0.94040128357E-01 -0.31531712600E-01  0.87652824153E-01  0.88989932702E+00  0.88000000000E+00 0. -1.
        -11    1    4    4    0    0  0.93824980607E-01  0.13622855912E-01 -0.57321474885E-01  0.11079134349E+00  0.51100000000E-03 0.  1.
         11    1    4    4    0    0  0.11182524717E-01  0.29061919685E-02 -0.16142960918E-01  0.19858275832E-01  0.51100000000E-03 0. -1.
</event>
<event>
 8    1  0.1054833E+005  0.1043930E+01  0.7957747E-01            NaN
         13   -1    0    0    0    0  0.00000000000E+00  0.00000000000E+00  0.74505805969E-08  0.10566000000E+00  0.10566000000E+00 0. -1.
     999900   -1    0    0    0    0 -0.00000000000E+00 -0.00000000000E+00 -0.74505805969E-08  0.93827000000E+00  0.93827000000E+00 0.  1.
     999902    2    1    2    0    0 -0.34298183600E-02  0.76407913795E-02  0.22402326482E-01  0.10200132783E+01  0.10197328465E+01 0.  0.
     999903    2    3    3    0    0 -0.11761742871E+00  0.45911581720E-01  0.31983116812E-01  0.13175922941E+00  0.19895776006E-01 0.  0.
         14    1    1    2    0    0  0.34298183600E-02 -0.76407913795E-02 -0.22402326482E-01  0.23916721738E-01  0.00000000000E+00 0.  1.
     999901    1    3    3    0    0  0.11418761035E+00 -0.38270790340E-01 -0.95807903307E-02  0.88825404885E+00  0.88000000000E+00 0.  1.
        -11    1    4    4    0    0 -0.94276457183E-01  0.28243736705E-01  0.22205975116E-01  0.10089165225E+00  0.51100000000E-03 0.  1.
         11    1    4    4    0    0 -0.23340971526E-01  0.17667845015E-01  0.97771416959E-02  0.30867577164E-01  0.51100000000E-03 0. -1.
</event>
<event>
 8    1  0.1054833E+005  0.1043930E+01  0.7957747E-01            NaN
         13   -1    0    0    0    0  0.00000000000E+00  0.00000000000E+00  0.74505805969E-08  0.10566000000E+00  0.10566000000E+00 0. -1.
     999900   -1    0    0    0    0 -0.00000000000E+00 -0.00000000000E+00 -0.74505805969E-08  0.93827000000E+00  0.93827000000E+00 0. -1.
     999902    2    1    2    0    0 -0.70334492508E-02 -0.53798293462E-02 -0.97750203963E-02  0.10307404968E+01  0.10306561059E+01 0.  0.
     999903    2    3    3    0    0 -0.11708743641E+00  0.72593422421E-01 -0.17845914992E-01  0.14042771609E+00  0.20547360406E-01 0.  0.
         14    1    1    2    0    0  0.70334492508E-02  0.53798293462E-02  0.97750203963E-02  0.13189503247E-01  0.00000000000E+00 0. -1.
     999901    1    3    3    0    0  0.11005398716E+00 -0.77973251767E-01  0.80708945955E-02  0.89031278067E+00  0.88000000000E+00 0. -1.
        -11    1    4    4    0    0 -0.60559060143E-01  0.25871181160E-01 -0.11017571792E-01  0.66770995120E-01  0.51100000000E-03 0.  1.
         11    1    4    4    0    0 -0.56528376265E-01  0.46722241261E-01 -0.68283431999E-02  0.73656720966E-01  0.51100000000E-03 0. -1.
</event>
<event>
 8    1  0.1054833E+005  0.1043930E+01  0.7957747E-01            NaN
         13   -1    0    0    0    0  0.00000000000E+00  0.00000000000E+00  0.74505805969E-08  0.10566000000E+00  0.10566000000E+00 0. -1.
     999900   -1    0    0    0    0 -0.00000000000E+00 -0.00000000000E+00 -0.74505805969E-08  0.93827000000E+00  0.93827000000E+00 0. -1.
     999902    2    1    2    0    0 -0.14469825276E-01  0.12622155227E-01 -0.88660097796E-02  0.10227805136E+01  0.10225618212E+01 0.  0.
     999903    2    3    3    0    0 -0.17559003002E-01  0.91559152840E-01  0.92749378152E-01  0.13341766319E+00  0.22503969586E-01 0.  0.
         14    1    1    2    0    0  0.14469825276E-01 -0.12622155227E-01  0.88660097796E-02  0.21149486412E-01  0.00000000000E+00 0.  1.
     999901    1    3    3    0    0  0.30891777264E-02 -0.78936997613E-01 -0.10161538793E+00  0.88936285040E+00  0.88000000000E+00 0. -1.
        -11    1    4    4    0    0 -0.72795605280E-02  0.61278655801E-02  0.12818845562E-01  0.15972684827E-01  0.51100000000E-03 0. -1.
         11    1    4    4    0    0 -0.10279442474E-01  0.85431287260E-01  0.79930532590E-01  0.11744497836E+00  0.51100000000E-03 0.  1.
</event>
<event>
 8    1  0.1054833E+005  0.1043930E+01  0.7957747E-01            NaN
         13   -1    0    0    0    0  0.00000000000E+00  0.00000000000E+00  0.74505805969E-08  0.10566000000E+00  0.10566000000E+00 0.  1.
     999900   -1    0    0    0    0 -0.00000000000E+00 -0.00000000000E+00 -0.74505805969E-08  0.93827000000E+00  0.93827000000E+00 0. -1.
     999902    2    1    2    0    0  0.23638969538E-02  0.12974596061E-01 -0.20784314744E-01  0.10193146412E+01  0.10190173805E+01 0.  0.
     999903    2    3    3    0    0  0.71451693895E-01  0.91492507077E-01 -0.60393247558E-01  0.13223682405E+00  0.19052817978E-01 0.  0.
         14    1    1    2    0    0 -0.23638969538E-02 -0.12974596061E-01  0.20784314744E-01  0.24615358846E-01  0.00000000000E+00 0.  1.
     999901    1    3    3    0    0 -0.69087796941E-01 -0.78517911016E-01  0.39608932814E-01  0.88707781710E+00  0.88000000000E+00 0. -1.
        -11    1    4    4    0    0  0.27867462177E-01  0.36578461910E-01 -0.13639159876E-01  0.47967354805E-01  0.51100000000E-03 0. -1.
         11    1    4    4    0    0  0.43584231718E-01  0.54914045168E-01 -0.46754087682E-01  0.84269469247E-01  0.51100000000E-03 0.  1.
</event>
<event>
 8    1  0.1054833E+005  0.1043930E+01  0.7957747E-01            NaN
         13   -1    0    0    0    0  0.00000000000E+00  0.00000000000E+00  0.74505805969E-08  0.10566000000E+00  0.10566000000E+00 0. -1.
     999900   -1    0    0    0    0 -0.00000000000E+00 -0.00000000000E+00 -0.74505805969E-08  0.93827000000E+00  0.93827000000E+00 0.  1.
     999902    2    1    2    0    0  0.17202778939E-01 -0.12421907075E-01  0.98517940475E-02  0.10205356155E+01  0.10202674381E+01 0.  0.
     999903    2    3    3    0    0 -0.45584957003E-01  0.55179565261E-01 -0.10464894473E+00  0.12833458548E+00  0.19889481395E-01 0.  0.
         14    1    1    2    0    0 -0.17202778939E-01  0.12421907075E-01 -0.98517940475E-02  0.23394384467E-01  0.00000000000E+00 0. -1.
     999901    1    3    3    0    0  0.62787735942E-01 -0.67601472336E-01  0.11450073878E+00  0.89220103005E+00  0.88000000000E+00 0. -1.
        -11    1    4    4    0    0 -0.78978468721E-02  0.12793133448E-01 -0.37688605482E-01  0.40579950133E-01  0.51100000000E-03 0.  1.
         11    1    4    4    0    0 -0.37687110131E-01  0.42386431813E-01 -0.66960339248E-01  0.87754635348E-01  0.51100000000E-03 0. -1.
</event>
<event>
 8    1  0.1054833E+005  0.1043930E+01  0.7957747E-01            NaN
         13   -1    0    0    0    0  0.00000000000E+00  0.00000000000E+00  0.74505805969E-08  0.10566000000E+00  0.10566000000E+00 0.  1.
     999900   -1    0    0    0    0 -0.00000000000E+00 -0.00000000000E+00 -0.74505805969E-08  0.93827000000E+00  0.93827000000E+00 0.  1.
     999902    2    1    2    0    0  0.14393700266E-01 -0.13083982268E-01  0.12315802057E-01  0.10209072248E+01  0.10206475951E+01 0.  0.
     999903    2    3    3    0    0 -0.87243025729E-01  0.45157239767E-01  0.83100179524E-01  0.13032736192E+00  0.20713753525E-01 0.  0.
         14    1    1    2    0    0 -0.14393700266E-01  0.13083982268E-01 -0.12315802057E-01  0.23022775238E-01  0.00000000000E+00 0. -1.
     999901    1    3    3    0    0  0.10163672599E+00 -0.58241222035E-01 -0.70784377467E-01  0.89057986285E+00  0.88000000000E+00 0.  1.
        -11    1    4    4    0    0 -0.34918487198E-01  0.26537936504E-01  0.27676070114E-01  0.51863173833E-01  0.51100000000E-03 0.  1.
         11    1    4    4    0    0 -0.52324538531E-01  0.18619303263E-01  0.55424109410E-01  0.78464188082E-01  0.51100000000E-03 0. -1.
</event>
<event>
 8    1  0.1054833E+005  0.1043930E+01  0.7957747E-01            NaN
         13   -1    0    0    0    0  0.00000000000E+00  0.00000000000E+00  0.74505805969E-08  0.10566000000E+00  0.10566000000E+00 0.  1.
     999900   -1    0    0    0    0 -0.00000000000E+00 -0.00000000000E+00 -0.74505805969E-08  0.93827000000E+00  0.93827000000E+00 0. -1.
     999902    2    1    2    0    0  0.10636008051E-01  0.61176267265E-02  0.20749668511E-01  0.10198240097E+01  0.10195390684E+01 0.  0.
     999903    2    3    3    0    0  0.63105130980E-01  0.27579070694E-01 -0.10696986770E+00  0.12879882356E+00  0.20092826088E-01 0.  0.
         14    1    1    2    0    0 -0.10636008051E-01 -0.61176267265E-02 -0.20749668511E-01  0.24105990279E-01  0.00000000000E+00 0. -1.
     999901    1    3    3    0    0 -0.52469122929E-01 -0.21461443967E-01  0.12771953621E+00  0.89102518616E+00  0.88000000000E+00 0.  1.
        -11    1    4    4    0    0  0.42106225205E-01  0.17262774622E-01 -0.86348826575E-01  0.97607984103E-01  0.51100000000E-03 0. -1.
         11    1    4    4    0    0  0.20998905775E-01  0.10316296072E-01 -0.20621041120E-01  0.31190839461E-01  0.51100000000E-03 0.  1.
</event>
<event>
 8    1  0.1054833E+005  0.1043930E+01  0.7957747E-01            NaN
         13   -1    0    0    0    0  0.00000000000E+00  0.00000000000E+00  0.74505805969E-08  0.10566000000E+00  0.10566000000E+00 0. -1.
     999900   -1    0    0    0    0 -0.00000000000E+00 -0.00000000000E+00 -0.74505805969E-08  0.93827000000E+00  0.93827000000E+00 0. -1.
     999902    2    1    2    0    0 -0.16801865945E-01  0.82910132035E-02 -0.14316256528E-01  0.10203503732E+01  0.10200778820E+01 0.  0.
     999903    2    3    3    0    0  0.75222733063E-01  0.82822346085E-02  0.10135493027E+00  0.12802288267E+00  0.19747952241E-01 0.  0.
         14    1    1    2    0    0  0.16801865945E-01 -0.82910132035E-02  0.14316256528E-01  0.23579626803E-01  0.00000000000E+00 0. -1.
     999901    1    3    3    0    0 -0.92024599008E-01  0.87785949868E-05 -0.11567118679E+00  0.89232749053E+00  0.88000000000E+00 0. -1.
        -11    1    4    4    0    0  0.35256805774E-01  0.74601958401E-03  0.32004701014E-01  0.47625212930E-01  0.51100000000E-03 0.  1.
         11    1    4    4    0    0  0.39965927289E-01  0.75362150245E-02  0.69350229252E-01  0.80397669737E-01  0.51100000000E-03 0. -1.
</event>
<event>
 8    1  0.1054833E+005  0.1043930E+01  0.7957747E-01            NaN
         13   -1    0    0    0    0  0.00000000000E+00  0.00000000000E+00  0.74505805969E-08  0.10566000000E+00  0.10566000000E+00 0. -1.
     999900   -1    0    0    0    0 -0.00000000000E+00 -0.00000000000E+00 -0.74505805969E-08  0.93827000000E+00  0.93827000000E+00 0. -1.
     999902    2    1    2    0    0  0.20572330623E-01  0.37516927628E-02  0.66228352924E-02  0.10219946875E+01  0.10217592590E+01 0.  0.
     999903    2    3    3    0    0  0.45362883864E-02 -0.10124501769E+00 -0.79704711034E-01  0.13141402913E+00  0.25410127355E-01 0.  0.
         14    1    1    2    0    0 -0.20572330623E-01 -0.37516927628E-02 -0.66228352924E-02  0.21935312470E-01  0.00000000000E+00 0.  1.
     999901    1    3    3    0    0  0.16036042237E-01  0.10499671045E+00  0.86327546327E-01  0.89058065840E+00  0.88000000000E+00 0.  1.
        -11    1    4    4    0    0  0.79366606393E-02 -0.94547716080E-02 -0.12694427732E-01  0.17714200651E-01  0.51100000000E-03 0. -1.
         11    1    4    4    0    0 -0.34003722529E-02 -0.91790246083E-01 -0.67010283302E-01  0.11369982848E+00  0.51100000000E-03 0.  1.
</event>
<event>
 8    1  0.1054833E+005  0.1043930E+01  0.7957747E-01            NaN
         13   -1    0    0    0    0  0.00000000000E+00  0.00000000000E+00  0.74505805969E-08  0.10566000000E+00  0.10566000000E+00 0.  1.
     999900   -1    0    0    0    0 -0.00000000000E+00 -0.00000000000E+00 -0.74505805969E-08  0.93827000000E+00  0.93827000000E+00 0.  1.
     999902    2    1    2    0    0  0.27537648640E-02 -0.20392275052E-01 -0.17049394305E-02  0.10232821207E+01  0.10230737821E+01 0.  0.
     999903    2    3    3    0    0  0.11611693250E+00 -0.53606437089E-01  0.36766259822E-01  0.13455582899E+00  0.19917859881E-01 0.  0.
         14    1    1    2    0    0 -0.27537648640E-02  0.20392275052E-01  0.17049394305E-02  0.20647879339E-01  0.00000000000E+00 0. -1.
     999901    1    3    3    0    0 -0.11336316764E+00  0.33214162037E-01 -0.38471199253E-01  0.88872629167E+00  0.88000000000E+00 0. -1.
        -11    1    4    4    0    0  0.83733661345E-01 -0.41352548843E-01  0.17789123427E-01  0.95068782318E-01  0.51100000000E-03 0.  1.
         11    1    4    4    0    0  0.32383271158E-01 -0.12253888246E-01  0.18977136395E-01  0.39487046671E-01  0.51100000000E-03 0. -1.
</event>
<event>
 8    1  0.1054833E+005  0.1043930E+01  0.7957747E-01            NaN
         13   -1    0    0    0    0  0.00000000000E+00  0.00000000000E+00  0.74505805969E-08  0.10566000000E+00  0.10566000000E+00 0.  1.
     999900   -1    0    0    0    0 -0.00000000000E+00 -0.00000000000E+00 -0.74505805969E-08  0.93827000000E+00  0.93827000000E+00 0.  1.
     999902    2    1    2    0    0 -0.21139732687E-01  0.56854189740E-03 -0.98305193452E-02  0.10206093943E+01  0.10203429253E+01 0.  0.
     999903    2    3    3    0    0  0.69017584591E-01  0.42823118916E-01  0.97444482955E-01  0.12852099218E+00  0.20614841176E-01 0.  0.
         14    1    1    2    0    0  0.21139732687E-01 -0.56854189740E-03  0.98305193452E-02  0.23320605665E-01  0.00000000000E+00 0.  1.
     999901    1    3    3    0    0 -0.90157317278E-01 -0.42254577018E-01 -0.10727500230E+00  0.89208840215E+00  0.88000000000E+00 0.  1.
        -11    1    4    4    0    0  0.44467752064E-01  0.27246443040E-01  0.76897779295E-01  0.92915441200E-01  0.51100000000E-03 0.  1.
         11    1    4    4    0    0  0.24549832527E-01  0.15576675876E-01  0.20546703660E-01  0.35605550982E-01  0.51100000000E-03 0. -1.
</event>
<event>
 8    1  0.1054833E+005  0.1043930E+01  0.7957747E-01            NaN
         13   -1    0    0    0    0  0.00000000000E+00  0.00000000000E+00  0.74505805969E-08  0.10566000000E+00  0.10566000000E+00 0. -1.
     999900   -1    0    0    0    0 -0.00000000000E+00 -0.00000000000E+00 -0.74505805969E-08  0.93827000000E+00  0.93827000000E+00 0.  1.
     999902    2    1    2    0    0 -0.10548313032E-01 -0.31291795393E-02  0.19380511043E-01  0.10216440654E+01  0.10214009661E+01 0.  0.
     999903    2    3    3    0    0  0.61964432078E-01  0.11343397281E+00 -0.15505712735E-02  0.13075508417E+00  0.19688340071E-01 0.  0.
         14    1    1    2    0    0  0.10548313032E-01  0.31291795393E-02 -0.19380511043E-01  0.22285934593E-01  0.00000000000E+00 0.  1.
     999901    1    3    3    0    0 -0.72512745110E-01 -0.11656315235E+00  0.20931082316E-01  0.89088898124E+00  0.88000000000E+00 0. -1.
        -11    1    4    4    0    0  0.49203954631E-01  0.83607298216E-01 -0.91127880651E-02  0.97439794200E-01  0.51100000000E-03 0.  1.
         11    1    4    4    0    0  0.12760477447E-01  0.29826674591E-01  0.75622167915E-02  0.33315289967E-01  0.51100000000E-03 0. -1.
</event>
<event>
 8    1  0.1054833E+005  0.1043930E+01  0.7957747E-01            NaN
         13   -1    0    0    0    0  0.00000000000E+00  0.00000000000E+00  0.74505805969E-08  0.10566000000E+00  0.10566000000E+00 0. -1.
     999900   -1    0    0    0    0 -0.00000000000E+00 -0.00000000000E+00 -0.74505805969E-08  0.93827000000E+00  0.93827000000E+00 0. -1.
     999902    2    1    2    0    0 -0.57482554965E-02  0.14738701657E-01  0.17581182188E-01  0.10202790014E+01  0.10200048387E+01 0.  0.
     999903    2    3    3    0    0  0.64727155854E-01  0.23638124631E-01  0.11134398165E+00  0.13245162747E+00  0.19939551853E-01 0.  0.
         14    1    1    2    0    0  0.57482554965E-02 -0.14738701657E-01 -0.17581182188E-01  0.23650998602E-01  0.00000000000E+00 0.  1.
     999901    1    3    3    0    0 -0.70475411350E-01 -0.88994229745E-02 -0.93762799464E-01  0.88782737393E+00  0.88000000000E+00 0. -1.
        -11    1    4    4    0    0  0.12623340928E-01  0.12575520532E-01  0.36097962501E-01  0.40259365005E-01  0.51100000000E-03 0. -1.
         11    1    4    4    0    0  0.52103814925E-01  0.11062604099E-01  0.75246019150E-01  0.92192262464E-01  0.51100000000E-03 0.  1.
</event>
<event>
 8    1  0.1054833E+005  0.1043930E+01  0.7957747E-01            NaN
         13   -1    0    0    0    0  0.00000000000E+00  0.00000000000E+00  0.74505805969E-08  0.10566000000E+00  0.10566000000E+00 0. -1.
     999900   -1    0    0    0    0 -0.00000000000E+00 -0.00000000000E+00 -0.74505805969E-08  0.93827000000E+00  0.93827000000E+00 0.  1.
     999902    2    1    2    0    0  0.15703125972E-01 -0.13513815774E-01  0.10676671361E-01  0.10206232908E+01  0.10203571429E+01 0.  0.
     999903    2    3    3    0    0 -0.22917382162E-01  0.10683080490E+00 -0.64953094734E-01  0.12838216146E+00  0.18029076124E-01 0.  0.
         14    1    1    2    0    0 -0.15703125972E-01  0.13513815774E-01 -0.10676671361E-01  0.23306709193E-01  0.00000000000E+00 0.  1.
     999901    1    3    3    0    0  0.38620508134E-01 -0.12034462067E+00  0.75629766096E-01  0.89224112934E+00  0.88000000000E+00 0.  1.
        -11    1    4    4    0    0 -0.52622831914E-02  0.17663723676E-01 -0.37970989301E-02  0.18824926023E-01  0.51100000000E-03 0.  1.
         11    1    4    4    0    0 -0.17655098971E-01  0.89167081222E-01 -0.61155995804E-01  0.10955723544E+00  0.51100000000E-03 0. -1.
</event>
<event>
 8    1  0.1054833E+005  0.1043930E+01  0.7957747E-01            NaN
         13   -1    0    0    0    0  0.00000000000E+00  0.00000000000E+00  0.74505805969E-08  0.10566000000E+00  0.10566000000E+00 0. -1.
     999900   -1    0    0    0    0 -0.00000000000E+00 -0.00000000000E+00 -0.74505805969E-08  0.93827000000E+00  0.93827000000E+00 0. -1.
     999902    2    1    2    0    0  0.89636315225E-02  0.22833628889E-01  0.18587800982E-02  0.10193296674E+01  0.10190327740E+01 0.  0.
     999903    2    3    3    0    0 -0.11165254109E-01  0.33430053083E-01 -0.12442592655E+00  0.13002359900E+00  0.13494211726E-01 0.  0.
         14    1    1    2    0    0 -0.89636315225E-02 -0.22833628889E-01 -0.18587800982E-02  0.24600332554E-01  0.00000000000E+00 0.  1.
     999901    1    3    3    0    0  0.20128885631E-01 -0.10596424193E-01  0.12628470665E+00  0.88930606845E+00  0.88000000000E+00 0.  1.
        -11    1    4    4    0    0 -0.78685784579E-02  0.32463091613E-01 -0.10202920412E+00  0.10735914706E+00  0.51100000000E-03 0. -1.
         11    1    4    4    0    0 -0.32966756511E-02  0.96696146959E-03 -0.22396722435E-01  0.22664451939E-01  0.51100000000E-03 0.  1.
</event>
<event>
 8    1  0.1054833E+005  0.1043930E+01  0.7957747E-01            NaN
         13   -1    0    0    0    0  0.00000000000E+00  0.00000000000E+00  0.74505805969E-08  0.10566000000E+00  0.10566000000E+00 0.  1.
     999900   -1    0    0    0    0 -0.00000000000E+00 -0.00000000000E+00 -0.74505805969E-08  0.93827000000E+00  0.93827000000E+00 0.  1.
     999902    2    1    2    0    0 -0.13830984128E-02 -0.16936010430E-01  0.16453272882E-01  0.10202772708E+01  0.10200030675E+01 0.  0.
     999903    2    3    3    0    0  0.62843370085E-01 -0.10190738540E+00  0.54631803032E-01  0.13303278702E+00  0.19459808751E-01 0.  0.
         14    1    1    2    0    0  0.13830984128E-02  0.16936010430E-01 -0.16453272882E-01  0.23652729209E-01  0.00000000000E+00 0. -1.
     999901    1    3    3    0    0 -0.64226468498E-01  0.84971374970E-01 -0.38178530150E-01  0.88724448377E+00  0.88000000000E+00 0.  1.
        -11    1    4    4    0    0  0.75070672834E-02 -0.27835610167E-01  0.13318537703E-01  0.31761955546E-01  0.51100000000E-03 0. -1.
         11    1    4    4    0    0  0.55336302802E-01 -0.74071775233E-01  0.41313265328E-01  0.10127083147E+00  0.51100000000E-03 0.  1.
</event>
<event>
 8    1  0.1054833E+005  0.1043930E+01  0.7957747E-01            NaN
         13   -1    0    0    0    0  0.00000000000E+00  0.00000000000E+00  0.74505805969E-08  0.10566000000E+00  0.10566000000E+00 0. -1.
     999900   -1    0    0    0    0 -0.00000000000E+00 -0.00000000000E+00 -0.74505805969E-08  0.93827000000E+00  0.93827000000E+00 0. -1.
     999902    2    1    2    0    0  0.60143959818E-02 -0.17872868016E-01 -0.12882718574E-01  0.10210919439E+01  0.10208365104E+01 0.  0.
     999903    2    3    3    0    0  0.63268021019E-02 -0.41038807191E-01 -0.12536026653E+00  0.13363041956E+00  0.20437232864E-01 0.  0.
         14    1    1    2    0    0 -0.60143959818E-02  0.17872868016E-01  0.12882718574E-01  0.22838056134E-01  0.00000000000E+00 0. -1.
     999901    1    3    3    0    0 -0.31240612011E-03  0.23165939175E-01  0.11247754795E+00  0.88746152431E+00  0.88000000000E+00 0.  1.
        -11    1    4    4    0    0  0.10091688844E-01 -0.22545995288E-01 -0.47825814292E-01  0.53830602086E-01  0.51100000000E-03 0. -1.
         11    1    4    4    0    0 -0.37648867417E-02 -0.18492811903E-01 -0.77534452234E-01  0.79799817472E-01  0.51100000000E-03 0.  1.
</event>
<event>
 8    1  0.1054833E+005  0.1043930E+01  0.7957747E-01            NaN
         13   -1    0    0    0    0  0.00000000000E+00  0.00000000000E+00  0.74505805969E-08  0.10566000000E+00  0.10566000000E+00 0.  1.
     999900   -1    0    0    0    0 -0.00000000000E+00 -0.00000000000E+00 -0.74505805969E-08  0.93827000000E+00  0.93827000000E+00 0.  1.
     999902    2    1    2    0    0 -0.21979251413E-01 -0.83480958866E-02 -0.55030528385E-02  0.10197833276E+01  0.10194974122E+01 0.  0.
     999903    2    3    3    0    0 -0.69176290810E-01  0.84233128335E-01  0.68644982417E-01  0.13057200584E+00  0.21362021880E-01 0.  0.
         14    1    1    2    0    0  0.21979251413E-01  0.83480958866E-02  0.55030528385E-02  0.24146672404E-01  0.00000000000E+00 0. -1.
     999901    1    3    3    0    0  0.47197039397E-01 -0.92581224222E-01 -0.74148035256E-01  0.88921132176E+00  0.88000000000E+00 0.  1.
        -11    1    4    4    0    0 -0.17544564871E-01  0.19639933914E-01  0.65023660376E-02  0.27130806213E-01  0.51100000000E-03 0.  1.
         11    1    4    4    0    0 -0.51631725939E-01  0.64593194421E-01  0.62142616380E-01  0.10344119963E+00  0.51100000000E-03 0. -1.
</event>
<event>
 8    1  0.1054833E+005  0.1043930E+01  0.7957747E-01            NaN
         13   -1    0    0    0    0  0.00000000000E+00  0.00000000000E+00  0.74505805969E-08  0.10566000000E+00  0.10566000000E+00 0.  1.
     999900   -1    0    0    0    0 -0.00000000000E+00 -0.00000000000E+00 -0.74505805969E-08  0.93827000000E+00  0.93827000000E+00 0. -1.
     999902    2    1    2    0    0  0.61988828590E-02  0.86527347688E-02 -0.49344557629E-02  0.10321977870E+01  0.10321311093E+01 0.  0.
     999903    2    3    3    0    0  0.13668818276E+00  0.22650371041E-01 -0.25063808979E-01  0.14223791036E+00  0.20167548372E-01 0.  0.
         14    1    1    2    0    0 -0.61988828590E-02 -0.86527347688E-02  0.49344557629E-02  0.11732212978E-01  0.00000000000E+00 0.  1.
     999901    1    3    3    0    0 -0.13048929990E+00 -0.13997636272E-01  0.20129353216E-01  0.88995987666E+00  0.88000000000E+00 0.  1.
        -11    1    4    4    0    0  0.25579447524E-01  0.11972837018E-01 -0.24952513180E-02  0.28357439271E-01  0.51100000000E-03 0. -1.
         11    1    4    4    0    0  0.11110873524E+00  0.10677534024E-01 -0.22568557661E-01  0.11388047109E+00  0.51100000000E-03 0.  1.
</event>
<event>
 8    1  0.1054833E+005  0.1043930E+01  0.7957747E-01            NaN
         13   -1    0    0    0    0  0.00000000000E+00  0.00000000000E+00  0.74505805969E-08  0.10566000000E+00  0.10566000000E+00 0. -1.
     999900   -1    0    0    0    0 -0.00000000000E+00 -0.00000000000E+00 -0.74505805969E-08  0.93827000000E+00  0.93827000000E+00 0. -1.
     999902    2    1    2    0    0 -0.84597092730E-02 -0.19542058619E-01  0.10160697101E-01  0.10203355409E+01  0.10200627027E+01 0.  0.
     999903    2    3    3    0    0 -0.11599801401E+00  0.31613733420E-01  0.49193689033E-01  0.13145704720E+00  0.20148668017E-01 0.  0.
         14    1    1    2    0    0  0.84597092730E-02  0.19542058619E-01 -0.10160697101E-01  0.23594459129E-01  0.00000000000E+00 0.  1.
     999901    1    3    3    0    0  0.10753830474E+00 -0.51155792038E-01 -0.39032991933E-01  0.88887849367E+00  0.88000000000E+00 0. -1.
        -11    1    4    4    0    0 -0.21063729948E-01  0.13450839011E-01  0.67599083864E-02  0.25895236470E-01  0.51100000000E-03 0. -1.
         11    1    4    4    0    0 -0.94934284065E-01  0.18162894408E-01  0.42433780647E-01  0.10556181073E+00  0.51100000000E-03 0.  1.
</event>
<event>
 8    1  0.1054833E+005  0.1043930E+01  0.7957747E-01            NaN
         13   -1    0    0    0    0  0.00000000000E+00  0.00000000000E+00  0.74505805969E-08  0.10566000000E+00  0.10566000000E+00 0.  1.
     999900   -1    0    0    0    0 -0.00000000000E+00 -0.00000000000E+00 -0.74505805969E-08  0.93827000000E+00  0.93827000000E+00 0.  1.
     999902    2    1    2    0    0  0.18932493657E-02  0.22472124149E-01 -0.28629532795E-02  0.10211972646E+01  0.10209442081E+01 0.  0.
     999903    2    3    3    0    0  0.96520948371E-01  0.58169823399E-01  0.66954697925E-01  0.13265732090E+00  0.20371828211E-01 0.  0.
         14    1    1    2    0    0 -0.18932493657E-02 -0.22472124149E-01  0.28629532795E-02  0.22732735392E-01  0.00000000000E+00 0.  1.
     999901    1    3    3    0    0 -0.94627699005E-01 -0.35697699251E-01 -0.69817651205E-01  0.88853994371E+00  0.88000000000E+00 0. -1.
        -11    1    4    4    0    0  0.93605475677E-01  0.52426155466E-01  0.66397144734E-01  0.12617182254E+00  0.51100000000E-03 0.  1.
         11    1    4    4    0    0  0.29154726940E-02  0.57436679333E-02  0.55755319093E-03  0.64854983555E-02  0.51100000000E-03 0. -1.
</event>
<event>
 8    1  0.1054833E+005  0.1043930E+01  0.7957747E-01            NaN
         13   -1    0    0    0    0  0.00000000000E+00  0.00000000000E+00  0.74505805969E-08  0.10566000000E+00  0.10566000000E+00 0. -1.
     999900   -1    0    0    0    0 -0.00000000000E+00 -0.00000000000E+00 -0.74505805969E-08  0.93827000000E+00  0.93827000000E+00 0. -1.
     999902    2    1    2    0    0 -0.18422309202E-01  0.25964606239E-02 -0.12456507813E-01  0.10215405455E+01  0.10212951574E+01 0.  0.
     999903    2    3    3    0    0 -0.37471592733E-01 -0.81429350287E-01  0.93299888217E-01  0.13103078849E+00  0.20720498076E-01 0.  0.
         14    1    1    2    0    0  0.18422309202E-01 -0.25964606239E-02  0.12456507813E-01  0.22389454460E-01  0.00000000000E+00 0.  1.
     999901    1    3    3    0    0  0.19049283531E-01  0.84025810911E-01 -0.10575639603E+00  0.89050975705E+00  0.88000000000E+00 0. -1.
        -11    1    4    4    0    0 -0.40896047248E-02 -0.32257474925E-01  0.35003392753E-01  0.47778323333E-01  0.51100000000E-03 0. -1.
         11    1    4    4    0    0 -0.33381988009E-01 -0.49171875362E-01  0.58296495464E-01  0.83252465155E-01  0.51100000000E-03 0.  1.
</event>
<event>
 8    1  0.1054833E+005  0.1043930E+01  0.7957747E-01            NaN
         13   -1    0    0    0    0  0.00000000000E+00  0.00000000000E+00  0.74505805969E-08  0.10566000000E+00  0.10566000000E+00 0. -1.
     999900   -1    0    0    0    0 -0.00000000000E+00 -0.00000000000E+00 -0.74505805969E-08  0.93827000000E+00  0.93827000000E+00 0.  1.
     999902    2    1    2    0    0  0.19298015248E-01  0.12653078065E-01  0.57271175514E-02  0.10201536745E+01  0.10198765641E+01 0.  0.
     999903    2    3    3    0    0  0.64182951436E-01  0.11475512372E+00 -0.29438963703E-02  0.13307156351E+00  0.20277692549E-01 0.  0.
         14    1    1    2    0    0 -0.19298015248E-01 -0.12653078065E-01 -0.57271175514E-02  0.23776325462E-01  0.00000000000E+00 0. -1.
     999901    1    3    3    0    0 -0.44884936188E-01 -0.10210204565E+00  0.86710139217E-02  0.88708211103E+00  0.88000000000E+00 0. -1.
        -11    1    4    4    0    0  0.33463223679E-01  0.40420781182E-01 -0.40150695588E-02  0.52630873021E-01  0.51100000000E-03 0. -1.
         11    1    4    4    0    0  0.30719727757E-01  0.74334342535E-01  0.10711731885E-02  0.80440690490E-01  0.51100000000E-03 0.  1.
</event>
<event>
 8    1  0.1054833E+005  0.1043930E+01  0.7957747E-01            NaN
         13   -1    0    0    0    0  0.00000000000E+00  0.00000000000E+00  0.74505805969E-08  0.10566000000E+00  0.10566000000E+00 0. -1.
     999900   -1    0    0    0    0 -0.00000000000E+00 -0.00000000000E+00 -0.74505805969E-08  0.93827000000E+00  0.93827000000E+00 0. -1.
     999902    2    1    2    0    0  0.20893780818E-01  0.60749151407E-02 -0.90256278363E-02  0.10203733315E+01  0.10201013769E+01 0.  0.
     999903    2    3    3    0    0 -0.72081380361E-02 -0.12203786061E+00  0.37385038097E-01  0.12944317095E+00  0.20314939218E-01 0.  0.
         14    1    1    2    0    0 -0.20893780818E-01 -0.60749151407E-02  0.90256278363E-02  0.23556668454E-01  0.00000000000E+00 0. -1.
     999901    1    3    3    0    0  0.28101918854E-01  0.12811277575E+00 -0.46410665933E-01  0.89093016060E+00  0.88000000000E+00 0. -1.
        -11    1    4    4    0    0 -0.68296298755E-02 -0.42298443132E-01  0.41406354653E-02  0.43048903803E-01  0.51100000000E-03 0.  1.
         11    1    4    4    0    0 -0.37850816057E-03 -0.79739417476E-01  0.33244402631E-01  0.86394267143E-01  0.51100000000E-03 0. -1.
</event>
<event>
 8    1  0.1054833E+005  0.1043930E+01  0.7957747E-01            NaN
         13   -1    0    0    0    0  0.00000000000E+00  0.00000000000E+00  0.74505805969E-08  0.10566000000E+00  0.10566000000E+00 0.  1.
     999900   -1    0    0    0    0 -0.00000000000E+00 -0.00000000000E+00 -0.74505805969E-08  0.93827000000E+00  0.93827000000E+00 0. -1.
     999902    2    1    2    0    0 -0.77826716408E-02  0.65675981820E-02  0.21482117291E-01  0.10201563867E+01  0.10198793403E+01 0.  0.
     999903    2    3    3    0    0 -0.68420002623E-01  0.83650351041E-01  0.75115046744E-01  0.13308529162E+00  0.19767311628E-01 0.  0.
         14    1    1    2    0    0  0.77826716408E-02 -0.65675981820E-02 -0.21482117291E-01  0.23773613252E-01  0.00000000000E+00 0. -1.
     999901    1    3    3    0    0  0.60637330982E-01 -0.77082752859E-01 -0.53632929453E-01  0.88707109513E+00  0.88000000000E+00 0. -1.
        -11    1    4    4    0    0 -0.16220109820E-01  0.30302467892E-01  0.16225576937E-01  0.38011340293E-01  0.51100000000E-03 0.  1.
         11    1    4    4    0    0 -0.52199892803E-01  0.53347883149E-01  0.58889469806E-01  0.95073951323E-01  0.51100000000E-03 0. -1.
</event>
<event>
 8    1  0.1054833E+005  0.1043930E+01  0.7957747E-01            NaN
         13   -1    0    0    0    0  0.00000000000E+00  0.00000000000E+00  0.74505805969E-08  0.10566000000E+00  0.10566000000E+00 0.  1.
     999900   -1    0    0    0    0 -0.00000000000E+00 -0.00000000000E+00 -0.74505805969E-08  0.93827000000E+00  0.93827000000E+00 0.  1.
     999902    2    1    2    0    0  0.69477397881E-02  0.98535343453E-02 -0.19168939634E-01  0.10212846589E+01  0.10210335661E+01 0.  0.
     999903    2    3    3    0    0  0.12717219667E+00 -0.26023464210E-01  0.11436088545E-01  0.13185914385E+00  0.20150965234E-01 0.  0.
         14    1    1    2    0    0 -0.69477397881E-02 -0.98535343453E-02  0.19168939634E-01  0.22645341109E-01  0.00000000000E+00 0.  1.
     999901    1    3    3    0    0 -0.12022445688E+00  0.35876998555E-01 -0.30605028179E-01  0.88942551504E+00  0.88000000000E+00 0.  1.
        -11    1    4    4    0    0  0.46991362034E-01 -0.11434807428E-01  0.13899997530E-01  0.50323095881E-01  0.51100000000E-03 0. -1.
         11    1    4    4    0    0  0.80180834637E-01 -0.14588656782E-01 -0.24639089846E-02  0.81536047968E-01  0.51100000000E-03 0.  1.
</event>
<event>
 8    1  0.1054833E+005  0.1043930E+01  0.7957747E-01            NaN
         13   -1    0    0    0    0  0.00000000000E+00  0.00000000000E+00  0.74505805969E-08  0.10566000000E+00  0.10566000000E+00 0. -1.
     999900   -1    0    0    0    0 -0.00000000000E+00 -0.00000000000E+00 -0.74505805969E-08  0.93827000000E+00  0.93827000000E+00 0. -1.
     999902    2    1    2    0    0  0.97865450369E-02 -0.10429072697E-01 -0.19631452689E-01  0.10196414028E+01  0.10193520757E+01 0.  0.
     999903    2    3    3    0    0  0.63444437929E-01  0.89340390292E-01 -0.70727535133E-01  0.13090976450E+00  0.11317251112E-01 0.  0.
         14    1    1    2    0    0 -0.97865450369E-02  0.10429072697E-01  0.19631452689E-01  0.24288597237E-01  0.00000000000E+00 0. -1.
     999901    1    3    3    0    0 -0.53657892892E-01 -0.99769462989E-01  0.51096082444E-01  0.88873163827E+00  0.88000000000E+00 0.  1.
        -11    1    4    4    0    0  0.11057214480E-01  0.10410594615E-01 -0.12801642026E-01  0.19869213166E-01  0.51100000000E-03 0. -1.
         11    1    4    4    0    0  0.52387223449E-01  0.78929795677E-01 -0.57925893107E-01  0.11104055133E+00  0.51100000000E-03 0.  1.
</event>
<event>
 8    1  0.1054833E+005  0.1043930E+01  0.7957747E-01            NaN
         13   -1    0    0    0    0  0.00000000000E+00  0.00000000000E+00  0.74505805969E-08  0.10566000000E+00  0.10566000000E+00 0. -1.
     999900   -1    0    0    0    0 -0.00000000000E+00 -0.00000000000E+00 -0.74505805969E-08  0.93827000000E+00  0.93827000000E+00 0. -1.
     999902    2    1    2    0    0  0.94122721692E-02  0.57168946995E-02 -0.21084224395E-01  0.10201430651E+01  0.10198657044E+01 0.  0.
     999903    2    3    3    0    0 -0.55399895787E-01  0.40989730113E-01  0.10352512417E+00  0.12830660042E+00  0.31556710039E-01 0.  0.
         14    1    1    2    0    0 -0.94122721692E-02 -0.57168946995E-02  0.21084224395E-01  0.23786934874E-01  0.00000000000E+00 0. -1.
     999901    1    3    3    0    0  0.64812167956E-01 -0.35272835413E-01 -0.12460934856E+00  0.89183646471E+00  0.88000000000E+00 0. -1.
        -11    1    4    4    0    0 -0.13703194620E-01  0.26829484031E-01  0.29470518110E-01  0.42147020236E-01  0.51100000000E-03 0. -1.
         11    1    4    4    0    0 -0.41696701167E-01  0.14160246082E-01  0.74054606060E-01  0.86159580181E-01  0.51100000000E-03 0.  1.
</event>
<event>
 8    1  0.1054833E+005  0.1043930E+01  0.7957747E-01            NaN
         13   -1    0    0    0    0  0.00000000000E+00  0.00000000000E+00  0.74505805969E-08  0.10566000000E+00  0.10566000000E+00 0. -1.
     999900   -1    0    0    0    0 -0.00000000000E+00 -0.00000000000E+00 -0.74505805969E-08  0.93827000000E+00  0.93827000000E+00 0. -1.
     999902    2    1    2    0    0 -0.23610438255E-01  0.26250596020E-02 -0.10440415995E-02  0.10201511490E+01  0.10198739790E+01 0.  0.
     999903    2    3    3    0    0 -0.95599955150E-01  0.76645206614E-01  0.47244527098E-01  0.13279932554E+00  0.19742755702E-01 0.  0.
         14    1    1    2    0    0  0.23610438255E-01 -0.26250596020E-02  0.10440415995E-02  0.23778851010E-01  0.00000000000E+00 0. -1.
     999901    1    3    3    0    0  0.71989516895E-01 -0.74020147012E-01 -0.48288568697E-01  0.88735182345E+00  0.88000000000E+00 0. -1.
        -11    1    4    4    0    0 -0.32013112317E-01  0.36444549346E-01  0.13549724362E-01  0.50367655182E-01  0.51100000000E-03 0. -1.
         11    1    4    4    0    0 -0.63586842833E-01  0.40200657267E-01  0.33694802736E-01  0.82431670362E-01  0.51100000000E-03 0.  1.
</event>
<event>
 8    1  0.1054833E+005  0.1043930E+01  0.7957747E-01            NaN
         13   -1    0    0    0    0  0.00000000000E+00  0.00000000000E+00  0.74505805969E-08  0.10566000000E+00  0.10566000000E+00 0.  1.
     999900   -1    0    0    0    0 -0.00000000000E+00 -0.00000000000E+00 -0.74505805969E-08  0.93827000000E+00  0.93827000000E+00 0. -1.
     999902    2    1    2    0    0 -0.57359384587E-02 -0.99417375019E-02 -0.21664058906E-01  0.10194132591E+01  0.10191184045E+01 0.  0.
     999903    2    3    3    0    0  0.10326408747E+00  0.39434970792E-01  0.59755292119E-01  0.12759030826E+00  0.22136014616E-01 0.  0.
         14    1    1    2    0    0  0.57359384587E-02  0.99417375019E-02  0.21664058906E-01  0.24516740869E-01  0.00000000000E+00 0.  1.
     999901    1    3    3    0    0 -0.10900002593E+00 -0.49376708294E-01 -0.81419351025E-01  0.89182295087E+00  0.88000000000E+00 0.  1.
        -11    1    4    4    0    0  0.20333392242E-01  0.12752534523E-01  0.22281435856E-01  0.32753587309E-01  0.51100000000E-03 0.  1.
         11    1    4    4    0    0  0.82930695232E-01  0.26682436269E-01  0.37473856263E-01  0.94836720953E-01  0.51100000000E-03 0. -1.
</event>
<event>
 8    1  0.1054833E+005  0.1043930E+01  0.7957747E-01            NaN
         13   -1    0    0    0    0  0.00000000000E+00  0.00000000000E+00  0.74505805969E-08  0.10566000000E+00  0.10566000000E+00 0. -1.
     999900   -1    0    0    0    0 -0.00000000000E+00 -0.00000000000E+00 -0.74505805969E-08  0.93827000000E+00  0.93827000000E+00 0. -1.
     999902    2    1    2    0    0 -0.81823467409E-03 -0.14519694425E-01 -0.18732317345E-01  0.10202152209E+01  0.10199395601E+01 0.  0.
     999903    2    3    3    0    0 -0.11507773462E+00  0.53561749861E-01  0.13230887774E-01  0.12964688391E+00  0.22836638604E-01 0.  0.
         14    1    1    2    0    0  0.81823467409E-03  0.14519694425E-01  0.18732317345E-01  0.23714779090E-01  0.00000000000E+00 0. -1.
     999901    1    3    3    0    0  0.11425949995E+00 -0.68081444286E-01 -0.31963205119E-01  0.89056833700E+00  0.88000000000E+00 0. -1.
        -11    1    4    4    0    0 -0.40427733455E-01  0.27693566056E-01 -0.25791637533E-02  0.49073907934E-01  0.51100000000E-03 0. -1.
         11    1    4    4    0    0 -0.74650001166E-01  0.25868183804E-01  0.15810051527E-01  0.80572975977E-01  0.51100000000E-03 0.  1.
</event>
<event>
 8    1  0.1054833E+005  0.1043930E+01  0.7957747E-01            NaN
         13   -1    0    0    0    0  0.00000000000E+00  0.00000000000E+00  0.74505805969E-08  0.10566000000E+00  0.10566000000E+00 0. -1.
     999900   -1    0    0    0    0 -0.00000000000E+00 -0.00000000000E+00 -0.74505805969E-08  0.93827000000E+00  0.93827000000E+00 0. -1.
     999902    2    1    2    0    0  0.20579679035E-01  0.10790129379E-01 -0.41135838169E-02  0.10203318718E+01  0.10200589478E+01 0.  0.
     999903    2    3    3    0    0  0.53603364083E-01 -0.60468059587E-02  0.11783018953E+00  0.13115004002E+00  0.20161719416E-01 0.  0.
         14    1    1    2    0    0 -0.20579679035E-01 -0.10790129379E-01  0.41135838169E-02  0.23598128167E-01  0.00000000000E+00 0. -1.
     999901    1    3    3    0    0 -0.33023685048E-01  0.16836935337E-01 -0.12194377335E+00  0.88918183181E+00  0.88000000000E+00 0. -1.
        -11    1    4    4    0    0  0.40337759215E-01  0.28726057626E-02  0.71615424094E-01  0.82246074505E-01  0.51100000000E-03 0.  1.
         11    1    4    4    0    0  0.13265604868E-01 -0.89194117213E-02  0.46214765435E-01  0.48903965516E-01  0.51100000000E-03 0. -1.
</event>
<event>
 8    1  0.1062897E+005  0.1043930E+01  0.7957747E-01            NaN
         13   -1    0    0    0    0  0.00000000000E+00  0.00000000000E+00  0.74505805969E-08  0.10566000000E+00  0.10566000000E+00 0. -1.
     999900   -1    0    0    0    0 -0.00000000000E+00 -0.00000000000E+00 -0.74505805969E-08  0.93827000000E+00  0.93827000000E+00 0.  1.
     999902    2    1    2    0    0  0.16597510459E-02  0.18024664117E-02  0.22595407986E-01  0.10212021290E+01  0.10209491820E+01 0.  0.
     999903    2    3    3    0    0 -0.47567978765E-01 -0.62641483702E-01 -0.10063655050E+00  0.12892274019E+00  0.17512554243E-01 0.  0.
         14    1    1    2    0    0 -0.16597510459E-02 -0.18024664117E-02 -0.22595407986E-01  0.22727871013E-01  0.00000000000E+00 0.  1.
     999901    1    3    3    0    0  0.49227729811E-01  0.64443950113E-01  0.12323195849E+00  0.89227938880E+00  0.88000000000E+00 0. -1.
        -11    1    4    4    0    0 -0.29536655656E-01 -0.50470745795E-01 -0.67882256452E-01  0.89598951280E-01  0.51100000000E-03 0. -1.
         11    1    4    4    0    0 -0.18031323109E-01 -0.12170737906E-01 -0.32754294048E-01  0.39323788905E-01  0.51100000000E-03 0.  1.
</event>
<event>
 8    1  0.1054833E+005  0.1043930E+01  0.7957747E-01            NaN
         13   -1    0    0    0    0  0.00000000000E+00  0.00000000000E+00  0.74505805969E-08  0.10566000000E+00  0.10566000000E+00 0.  1.
     999900   -1    0    0    0    0 -0.00000000000E+00 -0.00000000000E+00 -0.74505805969E-08  0.93827000000E+00  0.93827000000E+00 0.  1.
     999902    2    1    2    0    0  0.17252475977E-01 -0.11229587536E-01  0.10107933389E-01  0.10209970133E+01  0.10207394277E+01 0.  0.
     999903    2    3    3    0    0 -0.14444336087E-01 -0.66511741983E-01 -0.10967649654E+00  0.13059872364E+00  0.19865599826E-01 0.  0.
         14    1    1    2    0    0 -0.17252475977E-01  0.11229587536E-01 -0.10107933389E-01  0.22932986743E-01  0.00000000000E+00 0. -1.
     999901    1    3    3    0    0  0.31696812064E-01  0.55282154447E-01  0.11978442993E+00  0.89039828961E+00  0.88000000000E+00 0. -1.
        -11    1    4    4    0    0 -0.52440744794E-02 -0.21370695134E-02 -0.64764198300E-02  0.86181505014E-02  0.51100000000E-03 0.  1.
         11    1    4    4    0    0 -0.92002616072E-02 -0.64374672470E-01 -0.10320007671E+00  0.12198057314E+00  0.51100000000E-03 0. -1.
</event>
<event>
 8    1  0.1200994E+005  0.1043930E+01  0.7957747E-01            NaN
         13   -1    0    0    0    0  0.00000000000E+00  0.00000000000E+00  0.74505805969E-08  0.10566000000E+00  0.10566000000E+00 0.  1.
     999900   -1    0    0    0    0 -0.00000000000E+00 -0.00000000000E+00 -0.74505805969E-08  0.93827000000E+00  0.93827000000E+00 0.  1.
     999902    2    1    2    0    0 -0.81503815209E-02  0.17226268359E-01 -0.15792821050E-01  0.10191795205E+01  0.10188789470E+01 0.  0.
     999903    2    3    3    0    0  0.68295871178E-01 -0.28352055810E-01 -0.10516800622E+00  0.13018608016E+00  0.20492458268E-01 0.  0.
         14    1    1    2    0    0  0.81503815209E-02 -0.17226268359E-01  0.15792821050E-01  0.24750479535E-01  0.00000000000E+00 0.  1.
     999901    1    3    3    0    0 -0.76446252698E-01  0.45578324168E-01  0.89375185171E-01  0.88899344031E+00  0.88000000000E+00 0. -1.
        -11    1    4    4    0    0  0.25485641121E-01 -0.21097218094E-01 -0.40624531732E-01  0.52394887290E-01  0.51100000000E-03 0.  1.
         11    1    4    4    0    0  0.42810230056E-01 -0.72548377159E-02 -0.64543474489E-01  0.77791192868E-01  0.51100000000E-03 0. -1.
</event>
<event>
 8    1  0.1054833E+005  0.1043930E+01  0.7957747E-01            NaN
         13   -1    0    0    0    0  0.00000000000E+00  0.00000000000E+00  0.74505805969E-08  0.10566000000E+00  0.10566000000E+00 0. -1.
     999900   -1    0    0    0    0 -0.00000000000E+00 -0.00000000000E+00 -0.74505805969E-08  0.93827000000E+00  0.93827000000E+00 0.  1.
     999902    2    1    2    0    0 -0.19519644429E-01  0.17152925133E-02 -0.11213993590E-01  0.10213531889E+01  0.10211036304E+01 0.  0.
     999903    2    3    3    0    0 -0.99388619925E-01  0.19799655671E-01 -0.86147828137E-01  0.13438014704E+00  0.19142922706E-01 0.  0.
         14    1    1    2    0    0  0.19519644429E-01 -0.17152925133E-02  0.11213993590E-01  0.22576811096E-01  0.00000000000E+00 0. -1.
     999901    1    3    3    0    0  0.79868975497E-01 -0.18084363158E-01  0.74933834547E-01  0.88697304187E+00  0.88000000000E+00 0. -1.
        -11    1    4    4    0    0 -0.54679475819E-01  0.12326313653E-02 -0.47148132841E-01  0.72211993514E-01  0.51100000000E-03 0.  1.
         11    1    4    4    0    0 -0.44709144107E-01  0.18567024306E-01 -0.38999695296E-01  0.62168153524E-01  0.51100000000E-03 0. -1.
</event>
<event>
 8    1  0.1054833E+005  0.1043930E+01  0.7957747E-01            NaN
         13   -1    0    0    0    0  0.00000000000E+00  0.00000000000E+00  0.74505805969E-08  0.10566000000E+00  0.10566000000E+00 0.  1.
     999900   -1    0    0    0    0 -0.00000000000E+00 -0.00000000000E+00 -0.74505805969E-08  0.93827000000E+00  0.93827000000E+00 0. -1.
     999902    2    1    2    0    0 -0.23090244604E-01 -0.18422635358E-02  0.26921805734E-02  0.10206104553E+01  0.10203440107E+01 0.  0.
     999903    2    3    3    0    0 -0.10715425505E+00 -0.62738706065E-01 -0.44094118316E-01  0.13327506639E+00  0.19994310162E-01 0.  0.
         14    1    1    2    0    0  0.23090244604E-01  0.18422635358E-02 -0.26921805734E-02  0.23319544743E-01  0.00000000000E+00 0. -1.
     999901    1    3    3    0    0  0.84064010443E-01  0.60896442530E-01  0.46786298890E-01  0.88733538886E+00  0.88000000000E+00 0.  1.
        -11    1    4    4    0    0 -0.58550293991E-01 -0.45600123658E-01 -0.27047978864E-01  0.78989635305E-01  0.51100000000E-03 0.  1.
         11    1    4    4    0    0 -0.48603961056E-01 -0.17138582407E-01 -0.17046139452E-01  0.54285431089E-01  0.51100000000E-03 0. -1.
</event>
<event>
 8    1  0.1054833E+005  0.1043930E+01  0.7957747E-01            NaN
         13   -1    0    0    0    0  0.00000000000E+00  0.00000000000E+00  0.74505805969E-08  0.10566000000E+00  0.10566000000E+00 0.  1.
     999900   -1    0    0    0    0 -0.00000000000E+00 -0.00000000000E+00 -0.74505805969E-08  0.93827000000E+00  0.93827000000E+00 0. -1.
     999902    2    1    2    0    0  0.16490299064E-02  0.20494218693E-01 -0.11282952160E-01  0.10204771258E+01  0.10202075901E+01 0.  0.
     999903    2    3    3    0    0  0.26221112754E-02  0.34234450509E-01 -0.12559402811E+00  0.13297683680E+00  0.27020476676E-01 0.  0.
         14    1    1    2    0    0 -0.16490299064E-02 -0.20494218693E-01  0.11282952160E-01  0.23452874214E-01  0.00000000000E+00 0. -1.
     999901    1    3    3    0    0 -0.97308136899E-03 -0.13740231816E-01  0.11431107595E+00  0.88750028898E+00  0.88000000000E+00 0.  1.
        -11    1    4    4    0    0 -0.10048437266E-01  0.22984425113E-01 -0.56270616715E-01  0.61610861995E-01  0.51100000000E-03 0. -1.
         11    1    4    4    0    0  0.12670548541E-01  0.11250025396E-01 -0.69323411397E-01  0.71365974809E-01  0.51100000000E-03 0.  1.
</event>
<event>
 8    1  0.1054833E+005  0.1043930E+01  0.7957747E-01            NaN
         13   -1    0    0    0    0  0.00000000000E+00  0.00000000000E+00  0.74505805969E-08  0.10566000000E+00  0.10566000000E+00 0. -1.
     999900   -1    0    0    0    0 -0.00000000000E+00 -0.00000000000E+00 -0.74505805969E-08  0.93827000000E+00  0.93827000000E+00 0.  1.
     999902    2    1    2    0    0 -0.22281768450E-01  0.36292933443E-02  0.99311518505E-02  0.10192667327E+01  0.10189682997E+01 0.  0.
     999903    2    3    3    0    0  0.82749874667E-01  0.16799628991E-01  0.94992175119E-01  0.12885082908E+00  0.21195601623E-01 0.  0.
         14    1    1    2    0    0  0.22281768450E-01 -0.36292933443E-02 -0.99311518505E-02  0.24663267271E-01  0.00000000000E+00 0. -1.
     999901    1    3    3    0    0 -0.10503164312E+00 -0.13170335646E-01 -0.85061023269E-01  0.89041590365E+00  0.88000000000E+00 0.  1.
        -11    1    4    4    0    0  0.24954433575E-01  0.10047294616E-01  0.43500633868E-01  0.51149175478E-01  0.51100000000E-03 0. -1.
         11    1    4    4    0    0  0.57795441092E-01  0.67523343744E-02  0.51491541252E-01  0.77701653598E-01  0.51100000000E-03 0.  1.
</event>
<event>
 8    1  0.1054833E+005  0.1043930E+01  0.7957747E-01            NaN
         13   -1    0    0    0    0  0.00000000000E+00  0.00000000000E+00  0.74505805969E-08  0.10566000000E+00  0.10566000000E+00 0.  1.
     999900   -1    0    0    0    0 -0.00000000000E+00 -0.00000000000E+00 -0.74505805969E-08  0.93827000000E+00  0.93827000000E+00 0. -1.
     999902    2    1    2    0    0  0.25927082173E-02  0.33579505595E-01 -0.13616158520E-01  0.10076022543E+01  0.10069471674E+01 0.  0.
     999903    2    3    3    0    0 -0.21217598352E-01 -0.10451306289E+00  0.37913391955E-01  0.11502632886E+00  0.20505224881E-01 0.  0.
         14    1    1    2    0    0 -0.25927082173E-02 -0.33579505595E-01  0.13616158520E-01  0.36327745660E-01  0.00000000000E+00 0.  1.
     999901    1    3    3    0    0  0.23810306569E-01  0.13809256849E+00 -0.51529550475E-01  0.89257592548E+00  0.88000000000E+00 0. -1.
        -11    1    4    4    0    0 -0.13191806920E-02 -0.56110629922E-01  0.22478092600E-01  0.60462126955E-01  0.51100000000E-03 0.  1.
         11    1    4    4    0    0 -0.19898417660E-01 -0.48402432969E-01  0.15435299355E-01  0.54564201908E-01  0.51100000000E-03 0. -1.
</event>
<event>
 8    1  0.1054833E+005  0.1043930E+01  0.7957747E-01            NaN
         13   -1    0    0    0    0  0.00000000000E+00  0.00000000000E+00  0.74505805969E-08  0.10566000000E+00  0.10566000000E+00 0. -1.
     999900   -1    0    0    0    0 -0.00000000000E+00 -0.00000000000E+00 -0.74505805969E-08  0.93827000000E+00  0.93827000000E+00 0.  1.
     999902    2    1    2    0    0  0.26909366948E-03  0.20742498655E-01  0.12327244786E-01  0.10197994255E+01  0.10195138957E+01 0.  0.
     999903    2    3    3    0    0 -0.83759941672E-01  0.60584677144E-01 -0.76766096907E-01  0.13042554377E+00  0.20773971678E-01 0.  0.
         14    1    1    2    0    0 -0.26909366948E-03 -0.20742498655E-01 -0.12327244786E-01  0.24130574503E-01  0.00000000000E+00 0. -1.
     999901    1    3    3    0    0  0.84029035342E-01 -0.39842178489E-01  0.89093341693E-01  0.88937388173E+00  0.88000000000E+00 0. -1.
        -11    1    4    4    0    0 -0.66610866381E-01  0.47706724113E-01 -0.70464928903E-01  0.10806713826E+00  0.51100000000E-03 0.  1.
         11    1    4    4    0    0 -0.17149075291E-01  0.12877953031E-01 -0.63011680045E-02  0.22358405507E-01  0.51100000000E-03 0. -1.
</event>
<event>
 8    1  0.1054833E+005  0.1043930E+01  0.7957747E-01            NaN
         13   -1    0    0    0    0  0.00000000000E+00  0.00000000000E+00  0.74505805969E-08  0.10566000000E+00  0.10566000000E+00 0. -1.
     999900   -1    0    0    0    0 -0.00000000000E+00 -0.00000000000E+00 -0.74505805969E-08  0.93827000000E+00  0.93827000000E+00 0. -1.
     999902    2    1    2    0    0  0.20313414303E-01  0.10899692199E-01 -0.11475698980E-01  0.10181786941E+01  0.10178529969E+01 0.  0.
     999903    2    3    3    0    0  0.30592044005E-01 -0.11653642561E+00 -0.39397697580E-01  0.12850164458E+00  0.21068517644E-01 0.  0.
         14    1    1    2    0    0 -0.20313414303E-01 -0.10899692199E-01  0.11475698980E-01  0.25751305943E-01  0.00000000000E+00 0. -1.
     999901    1    3    3    0    0 -0.10278629702E-01  0.12743611781E+00  0.27921998600E-01  0.88967704947E+00  0.88000000000E+00 0.  1.
        -11    1    4    4    0    0  0.35396797293E-03 -0.37785662686E-01 -0.15287041194E-01  0.40765627033E-01  0.51100000000E-03 0. -1.
         11    1    4    4    0    0  0.30238076032E-01 -0.78750762925E-01 -0.24110656387E-01  0.87736017552E-01  0.51100000000E-03 0.  1.
</event>
<event>
 8    1  0.1054833E+005  0.1043930E+01  0.7957747E-01            NaN
         13   -1    0    0    0    0  0.00000000000E+00  0.00000000000E+00  0.74505805969E-08  0.10566000000E+00  0.10566000000E+00 0.  1.
     999900   -1    0    0    0    0 -0.00000000000E+00 -0.00000000000E+00 -0.74505805969E-08  0.93827000000E+00  0.93827000000E+00 0. -1.
     999902    2    1    2    0    0 -0.12736749461E-01  0.12935963114E-01  0.16325855673E-01  0.10195148921E+01  0.10192225065E+01 0.  0.
     999903    2    3    3    0    0  0.12456019229E+00 -0.13945753653E-01 -0.23127478709E-01  0.12759020781E+00  0.58868760082E-02 0.  0.
         14    1    1    2    0    0  0.12736749461E-01 -0.12935963114E-01 -0.16325855673E-01  0.24415107864E-01  0.00000000000E+00 0. -1.
     999901    1    3    3    0    0 -0.13729694175E+00  0.26881716767E-01  0.39453334383E-01  0.89192468432E+00  0.88000000000E+00 0.  1.
        -11    1    4    4    0    0  0.66859150220E-01 -0.10110573630E-01 -0.11202174582E-01  0.68542829703E-01  0.51100000000E-03 0.  1.
         11    1    4    4    0    0  0.57701042073E-01 -0.38351800236E-02 -0.11925304127E-01  0.59047378110E-01  0.51100000000E-03 0. -1.
</event>
<event>
 8    1  0.1054833E+005  0.1043930E+01  0.7957747E-01            NaN
         13   -1    0    0    0    0  0.00000000000E+00  0.00000000000E+00  0.74505805969E-08  0.10566000000E+00  0.10566000000E+00 0.  1.
     999900   -1    0    0    0    0 -0.00000000000E+00 -0.00000000000E+00 -0.74505805969E-08  0.93827000000E+00  0.93827000000E+00 0.  1.
     999902    2    1    2    0    0 -0.23860538382E-01 -0.28559655927E-02 -0.59436013064E-02  0.10191750363E+01  0.10188743526E+01 0.  0.
     999903    2    3    3    0    0 -0.11407979688E+00 -0.63990211406E-01 -0.55053971115E-02  0.13245236114E+00  0.20108987108E-01 0.  0.
         14    1    1    2    0    0  0.23860538382E-01  0.28559655927E-02  0.59436013064E-02  0.24754963701E-01  0.00000000000E+00 0.  1.
     999901    1    3    3    0    0  0.90219258499E-01  0.61134245813E-01 -0.43820419488E-03  0.88672267516E+00  0.88000000000E+00 0.  1.
        -11    1    4    4    0    0 -0.34725056615E-01 -0.98165506143E-02  0.14306406690E-02  0.36117891364E-01  0.51100000000E-03 0. -1.
         11    1    4    4    0    0 -0.79354740266E-01 -0.54173660791E-01 -0.69360377805E-02  0.96334469778E-01  0.51100000000E-03 0.  1.
</event>
<event>
 8    1  0.1054833E+005  0.1043930E+01  0.7957747E-01            NaN
         13   -1    0    0    0    0  0.00000000000E+00  0.00000000000E+00  0.74505805969E-08  0.10566000000E+00  0.10566000000E+00 0.  1.
     999900   -1    0    0    0    0 -0.00000000000E+00 -0.00000000000E+00 -0.74505805969E-08  0.93827000000E+00  0.93827000000E+00 0. -1.
     999902    2    1    2    0    0 -0.10251267280E-01  0.17436768814E-01 -0.13528489345E-01  0.10195958797E+01  0.10193054540E+01 0.  0.
     999903    2    3    3    0    0 -0.32440470213E-01  0.90474147028E-01 -0.89665105910E-01  0.13301615754E+00  0.20384100670E-01 0.  0.
         14    1    1    2    0    0  0.10251267280E-01 -0.17436768814E-01  0.13528489345E-01  0.24334120314E-01  0.00000000000E+00 0.  1.
     999901    1    3    3    0    0  0.22189202934E-01 -0.73037378214E-01  0.76136616565E-01  0.88657972215E+00  0.88000000000E+00 0.  1.
        -11    1    4    4    0    0 -0.46976752241E-02  0.43017693514E-01 -0.39969755276E-01  0.58910377402E-01  0.51100000000E-03 0. -1.
         11    1    4    4    0    0 -0.27742794989E-01  0.47456453514E-01 -0.49695350634E-01  0.74105780136E-01  0.51100000000E-03 0.  1.
</event>
<event>
 8    1  0.1054833E+005  0.1043930E+01  0.7957747E-01            NaN
         13   -1    0    0    0    0  0.00000000000E+00  0.00000000000E+00  0.74505805969E-08  0.10566000000E+00  0.10566000000E+00 0.  1.
     999900   -1    0    0    0    0 -0.00000000000E+00 -0.00000000000E+00 -0.74505805969E-08  0.93827000000E+00  0.93827000000E+00 0. -1.
     999902    2    1    2    0    0  0.46656850995E-02 -0.39784950044E-02 -0.22153953367E-01  0.10209431627E+01  0.10206843522E+01 0.  0.
     999903    2    3    3    0    0  0.86297506674E-01  0.60355989806E-01 -0.77421721565E-01  0.13310466024E+00  0.25151986858E-01 0.  0.
         14    1    1    2    0    0 -0.46656850995E-02  0.39784950044E-02  0.22153953367E-01  0.22986837315E-01  0.00000000000E+00 0.  1.
     999901    1    3    3    0    0 -0.81631821575E-01 -0.64334484811E-01  0.55267768198E-01  0.88783850245E+00  0.88000000000E+00 0.  1.
        -11    1    4    4    0    0  0.64502289839E-01  0.56447255090E-01 -0.56682760282E-01  0.10276202818E+00  0.51100000000E-03 0.  1.
         11    1    4    4    0    0  0.21795216835E-01  0.39087347166E-02 -0.20738961283E-01  0.30342632055E-01  0.51100000000E-03 0. -1.
</event>
<event>
 8    1  0.1054833E+005  0.1043930E+01  0.7957747E-01            NaN
         13   -1    0    0    0    0  0.00000000000E+00  0.00000000000E+00  0.74505805969E-08  0.10566000000E+00  0.10566000000E+00 0.  1.
     999900   -1    0    0    0    0 -0.00000000000E+00 -0.00000000000E+00 -0.74505805969E-08  0.93827000000E+00  0.93827000000E+00 0.  1.
     999902    2    1    2    0    0 -0.16441268463E-01  0.96082112080E-02  0.14189478364E-01  0.10201818563E+01  0.10199054102E+01 0.  0.
     999903    2    3    3    0    0 -0.17145444580E-01  0.40158519196E-01 -0.11783257357E+00  0.12980910328E+00  0.32545582924E-01 0.  0.
         14    1    1    2    0    0  0.16441268463E-01 -0.96082112080E-02 -0.14189478364E-01  0.23748143665E-01  0.00000000000E+00 0. -1.
     999901    1    3    3    0    0  0.70417611742E-03 -0.30550307988E-01  0.13202205193E+00  0.89037275305E+00  0.88000000000E+00 0. -1.
        -11    1    4    4    0    0  0.63765363366E-02  0.26479502264E-01 -0.58193290627E-01  0.64253750480E-01  0.51100000000E-03 0.  1.
         11    1    4    4    0    0 -0.23521980917E-01  0.13679016933E-01 -0.59639282939E-01  0.65555352802E-01  0.51100000000E-03 0. -1.
</event>
<event>
 8    1  0.1054833E+005  0.1043930E+01  0.7957747E-01            NaN
         13   -1    0    0    0    0  0.00000000000E+00  0.00000000000E+00  0.74505805969E-08  0.10566000000E+00  0.10566000000E+00 0.  1.
     999900   -1    0    0    0    0 -0.00000000000E+00 -0.00000000000E+00 -0.74505805969E-08  0.93827000000E+00  0.93827000000E+00 0. -1.
     999902    2    1    2    0    0 -0.16030786902E-01  0.10337486747E-01  0.13780981334E-01  0.10203977836E+01  0.10201263998E+01 0.  0.
     999903    2    3    3    0    0 -0.60689187245E-01 -0.11354074649E+00  0.88494250469E-02  0.13058628132E+00  0.19994648845E-01 0.  0.
         14    1    1    2    0    0  0.16030786902E-01 -0.10337486747E-01 -0.13780981334E-01  0.23532216374E-01  0.00000000000E+00 0. -1.
     999901    1    3    3    0    0  0.44658400343E-01  0.12387823324E+00  0.49315562875E-02  0.88981150231E+00  0.88000000000E+00 0.  1.
        -11    1    4    4    0    0 -0.38684293943E-02 -0.10686169046E-01  0.64014079391E-02  0.13053662301E-01  0.51100000000E-03 0.  1.
         11    1    4    4    0    0 -0.56820757851E-01 -0.10285457745E+00  0.24480171078E-02  0.11753261902E+00  0.51100000000E-03 0. -1.
</event>
<event>
 8    1  0.1054833E+005  0.1043930E+01  0.7957747E-01            NaN
         13   -1    0    0    0    0  0.00000000000E+00  0.00000000000E+00  0.74505805969E-08  0.10566000000E+00  0.10566000000E+00 0.  1.
     999900   -1    0    0    0    0 -0.00000000000E+00 -0.00000000000E+00 -0.74505805969E-08  0.93827000000E+00  0.93827000000E+00 0.  1.
     999902    2    1    2    0    0 -0.66186496487E-02 -0.10669744008E-01 -0.20343536488E-01  0.10200237364E+01  0.10197435528E+01 0.  0.
     999903    2    3    3    0    0  0.86716080561E-01  0.92121978650E-01 -0.15516713448E-01  0.12912485984E+00  0.20647601670E-01 0.  0.
         14    1    1    2    0    0  0.66186496487E-02  0.10669744008E-01  0.20343536488E-01  0.23906263556E-01  0.00000000000E+00 0. -1.
     999901    1    3    3    0    0 -0.93334730210E-01 -0.10279172266E+00 -0.48268230402E-02  0.89089887660E+00  0.88000000000E+00 0. -1.
        -11    1    4    4    0    0  0.22210015878E-01  0.26069522894E-01 -0.13383792625E-01  0.36773521116E-01  0.51100000000E-03 0. -1.
         11    1    4    4    0    0  0.64506064683E-01  0.66052455756E-01 -0.21329208229E-02  0.92351338726E-01  0.51100000000E-03 0.  1.
</event>
<event>
 8    1  0.1054833E+005  0.1043930E+01  0.7957747E-01            NaN
         13   -1    0    0    0    0  0.00000000000E+00  0.00000000000E+00  0.74505805969E-08  0.10566000000E+00  0.10566000000E+00 0.  1.
     999900   -1    0    0    0    0 -0.00000000000E+00 -0.00000000000E+00 -0.74505805969E-08  0.93827000000E+00  0.93827000000E+00 0.  1.
     999902    2    1    2    0    0 -0.21935930488E-01  0.35365373218E-02  0.67019384344E-02  0.10207220677E+01  0.10204581968E+01 0.  0.
     999903    2    3    3    0    0 -0.84248020126E-01 -0.78148953521E-01  0.63503596265E-01  0.13292606396E+00  0.20776041748E-01 0.  0.
         14    1    1    2    0    0  0.21935930488E-01 -0.35365373218E-02 -0.67019384344E-02  0.23207932294E-01  0.00000000000E+00 0. -1.
     999901    1    3    3    0    0  0.62312089638E-01  0.81685490842E-01 -0.56801657830E-01  0.88779600374E+00  0.88000000000E+00 0.  1.
        -11    1    4    4    0    0 -0.15289291071E-01 -0.15517097805E-01  0.21923574212E-01  0.30910305288E-01  0.51100000000E-03 0.  1.
         11    1    4    4    0    0 -0.68958729055E-01 -0.62631855715E-01  0.41580022053E-01  0.10201575868E+00  0.51100000000E-03 0. -1.
</event>
<event>
 8    1  0.1054833E+005  0.1043930E+01  0.7957747E-01            NaN
         13   -1    0    0    0    0  0.00000000000E+00  0.00000000000E+00  0.74505805969E-08  0.10566000000E+00  0.10566000000E+00 0. -1.
     999900   -1    0    0    0    0 -0.00000000000E+00 -0.00000000000E+00 -0.74505805969E-08  0.93827000000E+00  0.93827000000E+00 0. -1.
     999902    2    1    2    0    0 -0.19450762823E-01 -0.11439020691E-02  0.12482423885E-01  0.10207901730E+01  0.10205278662E+01 0.  0.
     999903    2    3    3    0    0  0.75196337713E-01  0.18526710692E-01  0.10278926029E+00  0.13090235350E+00  0.23917899266E-01 0.  0.
         14    1    1    2    0    0  0.19450762823E-01  0.11439020691E-02 -0.12482423885E-01  0.23139826974E-01  0.00000000000E+00 0.  1.
     999901    1    3    3    0    0 -0.94647100536E-01 -0.19670612761E-01 -0.90306836406E-01  0.88988781953E+00  0.88000000000E+00 0. -1.
        -11    1    4    4    0    0  0.31481842522E-01  0.66048382084E-03  0.57002125379E-01  0.65123314306E-01  0.51100000000E-03 0. -1.
         11    1    4    4    0    0  0.43714495191E-01  0.17866226871E-01  0.45787134912E-01  0.65779039190E-01  0.51100000000E-03 0.  1.
</event>
<event>
 8    1  0.1054833E+005  0.1043930E+01  0.7957747E-01            NaN
         13   -1    0    0    0    0  0.00000000000E+00  0.00000000000E+00  0.74505805969E-08  0.10566000000E+00  0.10566000000E+00 0. -1.
     999900   -1    0    0    0    0 -0.00000000000E+00 -0.00000000000E+00 -0.74505805969E-08  0.93827000000E+00  0.93827000000E+00 0.  1.
     999902    2    1    2    0    0  0.65975554219E-02 -0.66498765217E-02 -0.21078464167E-01  0.10208637856E+01  0.10206031641E+01 0.  0.
     999903    2    3    3    0    0 -0.11691497187E+00 -0.24674400400E-01 -0.51401082782E-01  0.13153837324E+00  0.19553404872E-01 0.  0.
         14    1    1    2    0    0 -0.65975554219E-02  0.66498765217E-02  0.21078464167E-01  0.23066214404E-01  0.00000000000E+00 0. -1.
     999901    1    3    3    0    0  0.12351252729E+00  0.18024523879E-01  0.30322618615E-01  0.88932541235E+00  0.88000000000E+00 0. -1.
        -11    1    4    4    0    0 -0.71487699042E-01 -0.14041792652E-01 -0.41484215632E-01  0.83838322519E-01  0.51100000000E-03 0.  1.
         11    1    4    4    0    0 -0.45427272826E-01 -0.10632607748E-01 -0.99168671497E-02  0.47700050723E-01  0.51100000000E-03 0. -1.
</event>
<event>
 8    1  0.1054833E+005  0.1043930E+01  0.7957747E-01            NaN
         13   -1    0    0    0    0  0.00000000000E+00  0.00000000000E+00  0.74505805969E-08  0.10566000000E+00  0.10566000000E+00 0. -1.
     999900   -1    0    0    0    0 -0.00000000000E+00 -0.00000000000E+00 -0.74505805969E-08  0.93827000000E+00  0.93827000000E+00 0.  1.
     999902    2    1    2    0    0  0.24225166645E-01 -0.17411891569E-01 -0.12636447325E-01  0.10115307335E+01  0.10110117271E+01 0.  0.
     999903    2    3    3    0    0  0.62489727612E-01 -0.85472315671E-01 -0.66153556516E-01  0.12645419507E+00  0.20096955176E-01 0.  0.
         14    1    1    2    0    0 -0.24225166645E-01  0.17411891569E-01  0.12636447325E-01  0.32399266473E-01  0.00000000000E+00 0. -1.
     999901    1    3    3    0    0 -0.38264560967E-01  0.68060424102E-01  0.53517109191E-01  0.88507653846E+00  0.88000000000E+00 0. -1.
        -11    1    4    4    0    0  0.36844973348E-02 -0.58324532942E-02 -0.11367132173E-01  0.13306609143E-01  0.51100000000E-03 0. -1.
         11    1    4    4    0    0  0.58805230277E-01 -0.79639862376E-01 -0.54786424343E-01  0.11314758592E+00  0.51100000000E-03 0.  1.
</event>
<event>
 8    1  0.1054833E+005  0.1043930E+01  0.7957747E-01            NaN
         13   -1    0    0    0    0  0.00000000000E+00  0.00000000000E+00  0.74505805969E-08  0.10566000000E+00  0.10566000000E+00 0. -1.
     999900   -1    0    0    0    0 -0.00000000000E+00 -0.00000000000E+00 -0.74505805969E-08  0.93827000000E+00  0.93827000000E+00 0. -1.
     999902    2    1    2    0    0 -0.22613506178E-01  0.25485579653E-02 -0.66556003909E-02  0.10202200269E+01  0.10199444791E+01 0.  0.
     999903    2    3    3    0    0 -0.11269074102E+00  0.61508727908E-01 -0.29514072012E-01  0.13336450335E+00  0.20796239714E-01 0.  0.
         14    1    1    2    0    0  0.22613506178E-01 -0.25485579653E-02  0.66556003909E-02  0.23709973132E-01  0.00000000000E+00 0. -1.
     999901    1    3    3    0    0  0.90077234839E-01 -0.58960169942E-01  0.22858471621E-01  0.88685552352E+00  0.88000000000E+00 0. -1.
        -11    1    4    4    0    0 -0.55156239084E-01  0.36654981216E-01 -0.62922260968E-02  0.66525570934E-01  0.51100000000E-03 0. -1.
         11    1    4    4    0    0 -0.57534501933E-01  0.24853746692E-01 -0.23221845915E-01  0.66838932412E-01  0.51100000000E-03 0.  1.
</event>
<event>
 8    1  0.1054833E+005  0.1043930E+01  0.7957747E-01            NaN
         13   -1    0    0    0    0  0.00000000000E+00  0.00000000000E+00  0.74505805969E-08  0.10566000000E+00  0.10566000000E+00 0. -1.
     999900   -1    0    0    0    0 -0.00000000000E+00 -0.00000000000E+00 -0.74505805969E-08  0.93827000000E+00  0.93827000000E+00 0. -1.
     999902    2    1    2    0    0  0.21710716892E-01  0.80806793429E-03  0.10023539703E-01  0.10200034551E+01  0.10197227902E+01 0.  0.
     999903    2    3    3    0    0 -0.10111193110E+00  0.57393543931E-01 -0.49180746900E-01  0.12770727867E+00  0.19307036626E-01 0.  0.
         14    1    1    2    0    0 -0.21710716892E-01 -0.80806793429E-03 -0.10023539703E-01  0.23926544880E-01  0.00000000000E+00 0.  1.
     999901    1    3    3    0    0  0.12282264799E+00 -0.56585475997E-01  0.59204286602E-01  0.89229617645E+00  0.88000000000E+00 0.  1.
        -11    1    4    4    0    0 -0.76451396020E-01  0.37135066954E-01 -0.42777549254E-01  0.95152556414E-01  0.51100000000E-03 0.  1.
         11    1    4    4    0    0 -0.24660535083E-01  0.20258476978E-01 -0.64031976460E-02  0.32554722256E-01  0.51100000000E-03 0. -1.
</event>
<event>
 8    1  0.1054833E+005  0.1043930E+01  0.7957747E-01            NaN
         13   -1    0    0    0    0  0.00000000000E+00  0.00000000000E+00  0.74505805969E-08  0.10566000000E+00  0.10566000000E+00 0.  1.
     999900   -1    0    0    0    0 -0.00000000000E+00 -0.00000000000E+00 -0.74505805969E-08  0.93827000000E+00  0.93827000000E+00 0.  1.
     999902    2    1    2    0    0  0.18119133903E-01 -0.10121868799E-01  0.11629581037E-01  0.10201391951E+01  0.10198617431E+01 0.  0.
     999903    2    3    3    0    0  0.12992871912E+00  0.31314233758E-03  0.19121937895E-01  0.13297156259E+00  0.20837894284E-01 0.  0.
         14    1    1    2    0    0 -0.18119133903E-01  0.10121868799E-01 -0.11629581037E-01  0.23790804872E-01  0.00000000000E+00 0. -1.
     999901    1    3    3    0    0 -0.11180958522E+00 -0.10435011137E-01 -0.74923568577E-02  0.88716763253E+00  0.88000000000E+00 0.  1.
        -11    1    4    4    0    0  0.38146538094E-01 -0.34717633224E-02  0.14610428201E-01  0.40999234655E-01  0.51100000000E-03 0. -1.
         11    1    4    4    0    0  0.91782181031E-01  0.37849056600E-02  0.45115096939E-02  0.91972327938E-01  0.51100000000E-03 0.  1.
</event>
<event>
 8    1  0.1054833E+005  0.1043930E+01  0.7957747E-01            NaN
         13   -1    0    0    0    0  0.00000000000E+00  0.00000000000E+00  0.74505805969E-08  0.10566000000E+00  0.10566000000E+00 0. -1.
     999900   -1    0    0    0    0 -0.00000000000E+00 -0.00000000000E+00 -0.74505805969E-08  0.93827000000E+00  0.93827000000E+00 0. -1.
     999902    2    1    2    0    0  0.82130703968E-02  0.63678383006E-02 -0.21459574454E-01  0.10200864007E+01  0.10198077014E+01 0.  0.
     999903    2    3    3    0    0  0.83391955074E-01 -0.96743983732E-01 -0.14241941540E-01  0.13085301924E+00  0.24618350603E-01 0.  0.
         14    1    1    2    0    0 -0.82130703968E-02 -0.63678383006E-02  0.21459574454E-01  0.23843599261E-01  0.00000000000E+00 0. -1.
     999901    1    3    3    0    0 -0.75178884677E-01  0.10311182203E+00 -0.72176329147E-02  0.88923338150E+00  0.88000000000E+00 0.  1.
        -11    1    4    4    0    0  0.52153673483E-01 -0.43607681620E-01 -0.20325105331E-02  0.68014908470E-01  0.51100000000E-03 0. -1.
         11    1    4    4    0    0  0.31238281590E-01 -0.53136302112E-01 -0.12209431006E-01  0.62838110772E-01  0.51100000000E-03 0.  1.
</event>
<event>
 8    1  0.1054833E+005  0.1043930E+01  0.7957747E-01            NaN
         13   -1    0    0    0    0  0.00000000000E+00  0.00000000000E+00  0.74505805969E-08  0.10566000000E+00  0.10566000000E+00 0. -1.
     999900   -1    0    0    0    0 -0.00000000000E+00 -0.00000000000E+00 -0.74505805969E-08  0.93827000000E+00  0.93827000000E+00 0. -1.
     999902    2    1    2    0    0 -0.12443487966E-01 -0.18874200607E-01  0.80860972308E-02  0.10199204017E+01  0.10196377617E+01 0.  0.
     999903    2    3    3    0    0 -0.79249271001E-01  0.91825689348E-01  0.41679240265E-01  0.12983839564E+00  0.20210040439E-01 0.  0.
         14    1    1    2    0    0  0.12443487966E-01  0.18874200607E-01 -0.80860972308E-02  0.24009598284E-01  0.00000000000E+00 0. -1.
     999901    1    3    3    0    0  0.66805783035E-01 -0.11069988996E+00 -0.33593143035E-01  0.89008200608E+00  0.88000000000E+00 0. -1.
        -11    1    4    4    0    0 -0.54001331017E-01  0.49987899055E-01  0.30800046775E-01  0.79773666118E-01  0.51100000000E-03 0. -1.
         11    1    4    4    0    0 -0.25247939985E-01  0.41837790293E-01  0.10879193491E-01  0.50064729521E-01  0.51100000000E-03 0.  1.
</event>
<event>
 8    1  0.1054833E+005  0.1043930E+01  0.7957747E-01            NaN
         13   -1    0    0    0    0  0.00000000000E+00  0.00000000000E+00  0.74505805969E-08  0.10566000000E+00  0.10566000000E+00 0.  1.
     999900   -1    0    0    0    0 -0.00000000000E+00 -0.00000000000E+00 -0.74505805969E-08  0.93827000000E+00  0.93827000000E+00 0.  1.
     999902    2    1    2    0    0 -0.99724571102E-02  0.14079106343E-01  0.16309652842E-01  0.10201881401E+01  0.10199118419E+01 0.  0.
     999903    2    3    3    0    0 -0.10837858726E+00  0.74199358342E-01  0.13195552999E-02  0.13253791946E+00  0.17694516506E-01 0.  0.
         14    1    1    2    0    0  0.99724571102E-02 -0.14079106343E-01 -0.16309652842E-01  0.23741859911E-01  0.00000000000E+00 0. -1.
     999901    1    3    3    0    0  0.98406130151E-01 -0.60120251999E-01  0.14990097542E-01  0.88765022063E+00  0.88000000000E+00 0.  1.
        -11    1    4    4    0    0 -0.96823905993E-01  0.59159756916E-01 -0.58806319959E-03  0.11346961069E+00  0.51100000000E-03 0.  1.
         11    1    4    4    0    0 -0.11554681269E-01  0.15039601426E-01  0.19076184995E-02  0.19068308777E-01  0.51100000000E-03 0. -1.
</event>
<event>
 8    1  0.1054833E+005  0.1043930E+01  0.7957747E-01            NaN
         13   -1    0    0    0    0  0.00000000000E+00  0.00000000000E+00  0.74505805969E-08  0.10566000000E+00  0.10566000000E+00 0.  1.
     999900   -1    0    0    0    0 -0.00000000000E+00 -0.00000000000E+00 -0.74505805969E-08  0.93827000000E+00  0.93827000000E+00 0. -1.
     999902    2    1    2    0    0  0.51211771127E-02 -0.13518993788E-02 -0.22608903047E-01  0.10207089625E+01  0.10204447900E+01 0.  0.
     999903    2    3    3    0    0  0.84231998508E-01  0.92491595327E-01 -0.37311593828E-01  0.13206882570E+00  0.20007371375E-01 0.  0.
         14    1    1    2    0    0 -0.51211771127E-02  0.13518993788E-02  0.22608903047E-01  0.23221037530E-01  0.00000000000E+00 0.  1.
     999901    1    3    3    0    0 -0.79110821395E-01 -0.93843494706E-01  0.14702690781E-01  0.88864013677E+00  0.88000000000E+00 0.  1.
        -11    1    4    4    0    0  0.80113268272E-01  0.78779709819E-01 -0.32802671454E-01  0.11704979627E+00  0.51100000000E-03 0.  1.
         11    1    4    4    0    0  0.41187302354E-02  0.13711885508E-01 -0.45089223745E-02  0.15019029427E-01  0.51100000000E-03 0. -1.
</event>
<event>
 8    1  0.1054833E+005  0.1043930E+01  0.7957747E-01            NaN
         13   -1    0    0    0    0  0.00000000000E+00  0.00000000000E+00  0.74505805969E-08  0.10566000000E+00  0.10566000000E+00 0. -1.
     999900   -1    0    0    0    0 -0.00000000000E+00 -0.00000000000E+00 -0.74505805969E-08  0.93827000000E+00  0.93827000000E+00 0. -1.
     999902    2    1    2    0    0  0.20628786500E-01  0.88929070568E-02 -0.36031038178E-02  0.10211788905E+01  0.10209254201E+01 0.  0.
     999903    2    3    3    0    0 -0.11729013662E+00 -0.22495205442E-01 -0.44203435958E-01  0.12895961812E+00  0.20337869541E-01 0.  0.
         14    1    1    2    0    0 -0.20628786500E-01 -0.88929070568E-02  0.36031038178E-02  0.22751109545E-01  0.00000000000E+00 0. -1.
     999901    1    3    3    0    0  0.13791892312E+00  0.31388112499E-01  0.40600332140E-01  0.89221927234E+00  0.88000000000E+00 0. -1.
        -11    1    4    4    0    0 -0.64466520857E-01 -0.15807234359E-01 -0.14340886763E-01  0.67909668853E-01  0.51100000000E-03 0. -1.
         11    1    4    4    0    0 -0.52823615766E-01 -0.66879710833E-02 -0.29862549195E-01  0.61049949264E-01  0.51100000000E-03 0.  1.
</event>
<event>
 8    1  0.1054833E+005  0.1043930E+01  0.7957747E-01            NaN
         13   -1    0    0    0    0  0.00000000000E+00  0.00000000000E+00  0.74505805969E-08  0.10566000000E+00  0.10566000000E+00 0.  1.
     999900   -1    0    0    0    0 -0.00000000000E+00 -0.00000000000E+00 -0.74505805969E-08  0.93827000000E+00  0.93827000000E+00 0. -1.
     999902    2    1    2    0    0 -0.22251461342E-02 -0.56222626640E-02  0.22470139538E-01  0.10206605289E+01  0.10203952406E+01 0.  0.
     999903    2    3    3    0    0 -0.88655418397E-01 -0.85676407342E-02  0.97204453902E-01  0.13326879753E+00  0.19459672633E-01 0.  0.
         14    1    1    2    0    0  0.22251461342E-02  0.56222626640E-02 -0.22470139538E-01  0.23269471065E-01  0.00000000000E+00 0. -1.
     999901    1    3    3    0    0  0.86430272262E-01  0.29453780702E-02 -0.74734314364E-01  0.88739173140E+00  0.88000000000E+00 0. -1.
        -11    1    4    4    0    0 -0.79207818593E-01 -0.75751790840E-02  0.76027694528E-01  0.11005332035E+00  0.51100000000E-03 0. -1.
         11    1    4    4    0    0 -0.94475998040E-02 -0.99246165018E-03  0.21176759375E-01  0.23215477182E-01  0.51100000000E-03 0.  1.
</event>
<event>
 8    1  0.1054833E+005  0.1043930E+01  0.7957747E-01            NaN
         13   -1    0    0    0    0  0.00000000000E+00  0.00000000000E+00  0.74505805969E-08  0.10566000000E+00  0.10566000000E+00 0. -1.
     999900   -1    0    0    0    0 -0.00000000000E+00 -0.00000000000E+00 -0.74505805969E-08  0.93827000000E+00  0.93827000000E+00 0.  1.
     999902    2    1    2    0    0 -0.99878291580E-02 -0.16788875805E-01 -0.15934092443E-01  0.10187205100E+01  0.10184085424E+01 0.  0.
     999903    2    3    3    0    0  0.66501472987E-01 -0.74126912785E-01 -0.82784557578E-01  0.13102278642E+00  0.19910863362E-01 0.  0.
         14    1    1    2    0    0  0.99878291580E-02  0.16788875805E-01  0.15934092443E-01  0.25209489960E-01  0.00000000000E+00 0. -1.
     999901    1    3    3    0    0 -0.76489302145E-01  0.57338036980E-01  0.66850465135E-01  0.88769772362E+00  0.88000000000E+00 0. -1.
        -11    1    4    4    0    0  0.63145733605E-01 -0.60350724752E-01 -0.70325017289E-01  0.11214037109E+00  0.51100000000E-03 0.  1.
         11    1    4    4    0    0  0.33557393817E-02 -0.13776188033E-01 -0.12459540289E-01  0.18882415331E-01  0.51100000000E-03 0. -1.
</event>
<event>
 8    1  0.1054833E+005  0.1043930E+01  0.7957747E-01            NaN
         13   -1    0    0    0    0  0.00000000000E+00  0.00000000000E+00  0.74505805969E-08  0.10566000000E+00  0.10566000000E+00 0.  1.
     999900   -1    0    0    0    0 -0.00000000000E+00 -0.00000000000E+00 -0.74505805969E-08  0.93827000000E+00  0.93827000000E+00 0.  1.
     999902    2    1    2    0    0  0.11358972743E-01 -0.18348163894E-02 -0.20679717540E-01  0.10202647611E+01  0.10199902643E+01 0.  0.
     999903    2    3    3    0    0 -0.12155037909E+00  0.53014250127E-02  0.36029852038E-01  0.12845099301E+00  0.19972671395E-01 0.  0.
         14    1    1    2    0    0 -0.11358972743E-01  0.18348163894E-02  0.20679717540E-01  0.23665238864E-01  0.00000000000E+00 0. -1.
     999901    1    3    3    0    0  0.13290935183E+00 -0.71362414021E-02 -0.56709569579E-01  0.89181376813E+00  0.88000000000E+00 0.  1.
        -11    1    4    4    0    0 -0.59511452030E-01 -0.69683275394E-02  0.20494452523E-01  0.63328147112E-01  0.51100000000E-03 0.  1.
         11    1    4    4    0    0 -0.62038927058E-01  0.12269752552E-01  0.15535399516E-01  0.65122845893E-01  0.51100000000E-03 0. -1.
</event>
<event>
 8    1  0.1054833E+005  0.1043930E+01  0.7957747E-01            NaN
         13   -1    0    0    0    0  0.00000000000E+00  0.00000000000E+00  0.74505805969E-08  0.10566000000E+00  0.10566000000E+00 0.  1.
     999900   -1    0    0    0    0 -0.00000000000E+00 -0.00000000000E+00 -0.74505805969E-08  0.93827000000E+00  0.93827000000E+00 0. -1.
     999902    2    1    2    0    0 -0.40990483121E-02 -0.15991821732E-01  0.12670943658E-01  0.10231191045E+01  0.10229074291E+01 0.  0.
     999903    2    3    3    0    0 -0.84113308222E-01 -0.63538745747E-01 -0.78129861624E-01  0.13356428435E+00  0.24958404288E-01 0.  0.
         14    1    1    2    0    0  0.40990483121E-02  0.15991821732E-01 -0.12670943658E-01  0.20810895525E-01  0.00000000000E+00 0.  1.
     999901    1    3    3    0    0  0.80014259910E-01  0.47546924016E-01  0.90800805282E-01  0.88955482013E+00  0.88000000000E+00 0.  1.
        -11    1    4    4    0    0 -0.37619426503E-01 -0.16002370078E-01 -0.21341347024E-01  0.46119532872E-01  0.51100000000E-03 0. -1.
         11    1    4    4    0    0 -0.46493881719E-01 -0.47536375670E-01 -0.56788514600E-01  0.87444751475E-01  0.51100000000E-03 0.  1.
</event>
<event>
 8    1  0.1054833E+005  0.1043930E+01  0.7957747E-01            NaN
         13   -1    0    0    0    0  0.00000000000E+00  0.00000000000E+00  0.74505805969E-08  0.10566000000E+00  0.10566000000E+00 0. -1.
     999900   -1    0    0    0    0 -0.00000000000E+00 -0.00000000000E+00 -0.74505805969E-08  0.93827000000E+00  0.93827000000E+00 0. -1.
     999902    2    1    2    0    0 -0.39562920048E-02  0.23363840058E-01 -0.43435798151E-03  0.10202295794E+01  0.10199542562E+01 0.  0.
     999903    2    3    3    0    0  0.42012096273E-02 -0.11662901124E+00 -0.48534757227E-01  0.12782933757E+00  0.19098179480E-01 0.  0.
         14    1    1    2    0    0  0.39562920048E-02 -0.23363840058E-01  0.43435798151E-03  0.23700420577E-01  0.00000000000E+00 0. -1.
     999901    1    3    3    0    0 -0.81575016321E-02  0.13999285130E+00  0.48100399245E-01  0.89240024185E+00  0.88000000000E+00 0.  1.
        -11    1    4    4    0    0  0.47867011883E-02 -0.76073386600E-02 -0.59077387342E-02  0.10767850654E-01  0.51100000000E-03 0. -1.
         11    1    4    4    0    0 -0.58549156095E-03 -0.10902167258E+00 -0.42627018493E-01  0.11706148692E+00  0.51100000000E-03 0.  1.
</event>
<event>
 8    1  0.1054833E+005  0.1043930E+01  0.7957747E-01            NaN
         13   -1    0    0    0    0  0.00000000000E+00  0.00000000000E+00  0.74505805969E-08  0.10566000000E+00  0.10566000000E+00 0.  1.
     999900   -1    0    0    0    0 -0.00000000000E+00 -0.00000000000E+00 -0.74505805969E-08  0.93827000000E+00  0.93827000000E+00 0.  1.
     999902    2    1    2    0    0 -0.24606804808E-03  0.53617927371E-02  0.23508701682E-01  0.10198163436E+01  0.10195312189E+01 0.  0.
     999903    2    3    3    0    0  0.13567654251E-01  0.12385268990E+00 -0.31795171851E-01  0.13004703075E+00  0.19435205620E-01 0.  0.
         14    1    1    2    0    0  0.24606804808E-03 -0.53617927371E-02 -0.23508701682E-01  0.24113656413E-01  0.00000000000E+00 0. -1.
     999901    1    3    3    0    0 -0.13813722299E-01 -0.11849089716E+00  0.55303873533E-01  0.88976931283E+00  0.88000000000E+00 0. -1.
        -11    1    4    4    0    0  0.14904916460E-01  0.56502733533E-01 -0.19226532134E-01  0.61519396049E-01  0.51100000000E-03 0. -1.
         11    1    4    4    0    0 -0.13372622092E-02  0.67349956366E-01 -0.12568639717E-01  0.68527634703E-01  0.51100000000E-03 0.  1.
</event>
<event>
 8    1  0.1229880E+005  0.1043930E+01  0.7957747E-01            NaN
         13   -1    0    0    0    0  0.00000000000E+00  0.00000000000E+00  0.74505805969E-08  0.10566000000E+00  0.10566000000E+00 0.  1.
     999900   -1    0    0    0    0 -0.00000000000E+00 -0.00000000000E+00 -0.74505805969E-08  0.93827000000E+00  0.93827000000E+00 0. -1.
     999902    2    1    2    0    0  0.65197640050E-02  0.11527534245E-01 -0.18992367859E-01  0.10207761363E+01  0.10205135075E+01 0.  0.
     999903    2    3    3    0    0  0.18392406952E-01  0.39037820185E-01  0.12028001131E+00  0.12931970376E+00  0.19851262445E-01 0.  0.
         14    1    1    2    0    0 -0.65197640050E-02 -0.11527534245E-01  0.18992367859E-01  0.23153863724E-01  0.00000000000E+00 0.  1.
     999901    1    3    3    0    0 -0.11872642947E-01 -0.27510285940E-01 -0.13927237917E+00  0.89145643252E+00  0.88000000000E+00 0. -1.
        -11    1    4    4    0    0  0.17687257665E-01  0.16546438636E-01  0.50716900994E-01  0.56205772681E-01  0.51100000000E-03 0.  1.
         11    1    4    4    0    0  0.70514928754E-03  0.22491381549E-01  0.69563110315E-01  0.73113931075E-01  0.51100000000E-03 0. -1.
</event>
<event>
 8    1  0.1054833E+005  0.1043930E+01  0.7957747E-01            NaN
         13   -1    0    0    0    0  0.00000000000E+00  0.00000000000E+00  0.74505805969E-08  0.10566000000E+00  0.10566000000E+00 0. -1.
     999900   -1    0    0    0    0 -0.00000000000E+00 -0.00000000000E+00 -0.74505805969E-08  0.93827000000E+00  0.93827000000E+00 0.  1.
     999902    2    1    2    0    0 -0.33282509564E-02 -0.24685706011E-01  0.38261094551E-02  0.10187288006E+01  0.10184170407E+01 0.  0.
     999903    2    3    3    0    0  0.59341460218E-02  0.95722965002E-01  0.81463464544E-01  0.12709457128E+00  0.17850318663E-01 0.  0.
         14    1    1    2    0    0  0.33282509564E-02  0.24685706011E-01 -0.38261094551E-02  0.25201199362E-01  0.00000000000E+00 0.  1.
     999901    1    3    3    0    0 -0.92623969782E-02 -0.12040867101E+00 -0.77637355089E-01  0.89163422936E+00  0.88000000000E+00 0.  1.
        -11    1    4    4    0    0 -0.13234910416E-02  0.13790098100E-01  0.20341449476E-01  0.24616135398E-01  0.51100000000E-03 0. -1.
         11    1    4    4    0    0  0.72576370635E-02  0.81932866902E-01  0.61122015068E-01  0.10247843588E+00  0.51100000000E-03 0.  1.
</event>
<event>
 8    1  0.1054833E+005  0.1043930E+01  0.7957747E-01            NaN
         13   -1    0    0    0    0  0.00000000000E+00  0.00000000000E+00  0.74505805969E-08  0.10566000000E+00  0.10566000000E+00 0. -1.
     999900   -1    0    0    0    0 -0.00000000000E+00 -0.00000000000E+00 -0.74505805969E-08  0.93827000000E+00  0.93827000000E+00 0.  1.
     999902    2    1    2    0    0  0.96363552690E-02 -0.12332036603E-01  0.18468719712E-01  0.10197219006E+01  0.10194345111E+01 0.  0.
     999903    2    3    3    0    0 -0.98565948140E-02  0.32326083563E-01  0.12583160670E+00  0.13185867221E+00  0.20272840226E-01 0.  0.
         14    1    1    2    0    0 -0.96363552690E-02  0.12332036603E-01 -0.18468719712E-01  0.24208099419E-01  0.00000000000E+00 0.  1.
     999901    1    3    3    0    0  0.19492950083E-01 -0.44658120166E-01 -0.10736288699E+00  0.88786322838E+00  0.88000000000E+00 0.  1.
        -11    1    4    4    0    0 -0.33436207990E-02  0.81535176710E-02  0.71402370412E-01  0.71945946876E-01  0.51100000000E-03 0. -1.
         11    1    4    4    0    0 -0.65129740151E-02  0.24172565892E-01  0.54429236290E-01  0.59912725329E-01  0.51100000000E-03 0.  1.
</event>
<event>
 8    1  0.1054833E+005  0.1043930E+01  0.7957747E-01            NaN
         13   -1    0    0    0    0  0.00000000000E+00  0.00000000000E+00  0.74505805969E-08  0.10566000000E+00  0.10566000000E+00 0. -1.
     999900   -1    0    0    0    0 -0.00000000000E+00 -0.00000000000E+00 -0.74505805969E-08  0.93827000000E+00  0.93827000000E+00 0.  1.
     999902    2    1    2    0    0  0.82729467143E-02  0.22615467447E-01 -0.12195158850E-02  0.10198180064E+01  0.10195329215E+01 0.  0.
     999903    2    3    3    0    0  0.28077285361E-02  0.13049621710E+00 -0.15476941792E-01  0.13309854744E+00  0.20941384548E-01 0.  0.
         14    1    1    2    0    0 -0.82729467143E-02 -0.22615467447E-01  0.12195158850E-02  0.24111993575E-01  0.00000000000E+00 0. -1.
     999901    1    3    3    0    0  0.54652181781E-02 -0.10788074965E+00  0.14257425907E-01  0.88671945899E+00  0.88000000000E+00 0. -1.
        -11    1    4    4    0    0  0.12656961051E-02  0.11826460647E+00 -0.77206555039E-02  0.11852421176E+00  0.51100000000E-03 0.  1.
         11    1    4    4    0    0  0.15420324310E-02  0.12231610622E-01 -0.77562862886E-02  0.14574335677E-01  0.51100000000E-03 0. -1.
</event>
<event>
 7    1  0.1054833E+005  0.1043930E+01  0.7957747E-01            NaN
         13   -1    0    0    0    0  0.00000000000E+00  0.00000000000E+00  0.74505805969E-08  0.10566000000E+00  0.10566000000E+00 0. -1.
     999900   -1    0    0    0    0 -0.00000000000E+00 -0.00000000000E+00 -0.74505805969E-08  0.93827000000E+00  0.93827000000E+00 0. -1.
     999903    2    1    2    0    0 -0.99552595770E-01 -0.49046605973E-01 -0.13347633816E-02  0.11272105424E+00  0.19696842207E-01 0.  0.
         14    1    1    2    0    0  0.47297732146E-01  0.41670958758E-02 -0.96366940935E-02  0.48449004399E-01  0.00000000000E+00 0. -1.
     999901    1    1    2    0    0  0.52254863624E-01  0.44879510097E-01  0.10971457475E-01  0.88275994136E+00  0.88000000000E+00 0. -1.
        -11    1    3    3    0    0 -0.48621867133E-01 -0.13276155467E-01  0.13705419682E-02  0.50423028209E-01  0.51100000000E-03 0. -1.
         11    1    3    3    0    0 -0.50930728637E-01 -0.35770450506E-01 -0.27053053498E-02  0.62298026028E-01  0.51100000000E-03 0.  1.
</event>
<event>
 8    1  0.1054833E+005  0.1043930E+01  0.7957747E-01            NaN
         13   -1    0    0    0    0  0.00000000000E+00  0.00000000000E+00  0.74505805969E-08  0.10566000000E+00  0.10566000000E+00 0. -1.
     999900   -1    0    0    0    0 -0.00000000000E+00 -0.00000000000E+00 -0.74505805969E-08  0.93827000000E+00  0.93827000000E+00 0.  1.
     999902    2    1    2    0    0  0.10387079292E-01  0.82517562114E-02 -0.19642936532E-01  0.10202270919E+01  0.10199517102E+01 0.  0.
     999903    2    3    3    0    0  0.48316217434E-01 -0.35864067851E-02  0.11738524107E+00  0.12873649572E+00  0.21129868171E-01 0.  0.
         14    1    1    2    0    0 -0.10387079292E-01 -0.82517562114E-02  0.19642936532E-01  0.23702908100E-01  0.00000000000E+00 0. -1.
     999901    1    3    3    0    0 -0.37929138142E-01  0.11838162996E-01 -0.13702817760E+00  0.89149059618E+00  0.88000000000E+00 0.  1.
        -11    1    4    4    0    0  0.35829089339E-01 -0.97476774132E-02  0.68670229696E-01  0.78067934681E-01  0.51100000000E-03 0.  1.
         11    1    4    4    0    0  0.12487128095E-01  0.61612706281E-02  0.48715011371E-01  0.50668561038E-01  0.51100000000E-03 0. -1.
</event>
<event>
 8    1  0.1054833E+005  0.1043930E+01  0.7957747E-01            NaN
         13   -1    0    0    0    0  0.00000000000E+00  0.00000000000E+00  0.74505805969E-08  0.10566000000E+00  0.10566000000E+00 0. -1.
     999900   -1    0    0    0    0 -0.00000000000E+00 -0.00000000000E+00 -0.74505805969E-08  0.93827000000E+00  0.93827000000E+00 0.  1.
     999902    2    1    2    0    0  0.10139465920E-01  0.33533130545E-02 -0.20679463048E-01  0.10206556865E+01  0.10203902865E+01 0.  0.
     999903    2    3    3    0    0 -0.84141269618E-01 -0.64389433478E-01  0.69810615397E-01  0.12843015945E+00  0.19875397785E-01 0.  0.
         14    1    1    2    0    0 -0.10139465920E-01 -0.33533130545E-02  0.20679463048E-01  0.23274313514E-01  0.00000000000E+00 0. -1.
     999901    1    3    3    0    0  0.94280735538E-01  0.67742746532E-01 -0.90490078445E-01  0.89222552704E+00  0.88000000000E+00 0. -1.
        -11    1    4    4    0    0 -0.74700256122E-01 -0.61746361102E-01  0.68134659363E-01  0.11847081624E+00  0.51100000000E-03 0.  1.
         11    1    4    4    0    0 -0.94410134958E-02 -0.26430723755E-02  0.16759560338E-02  0.99593432031E-02  0.51100000000E-03 0. -1.
</event>
<event>
 8    1  0.1054833E+005  0.1043930E+01  0.7957747E-01            NaN
         13   -1    0    0    0    0  0.00000000000E+00  0.00000000000E+00  0.74505805969E-08  0.10566000000E+00  0.10566000000E+00 0. -1.
     999900   -1    0    0    0    0 -0.00000000000E+00 -0.00000000000E+00 -0.74505805969E-08  0.93827000000E+00  0.93827000000E+00 0. -1.
     999902    2    1    2    0    0 -0.18697710552E-01  0.10991260530E-01  0.10625094399E-01  0.10197782957E+01  0.10194922597E+01 0.  0.
     999903    2    3    3    0    0  0.84888657796E-01 -0.64292096716E-01  0.69238517581E-01  0.12858064484E+00  0.19986294997E-01 0.  0.
         14    1    1    2    0    0  0.18697710552E-01 -0.10991260530E-01 -0.10625094399E-01  0.24151704265E-01  0.00000000000E+00 0.  1.
     999901    1    3    3    0    0 -0.10358636835E+00  0.75283357245E-01 -0.58613423183E-01  0.89119765090E+00  0.88000000000E+00 0.  1.
        -11    1    4    4    0    0  0.41276652832E-01 -0.19529369710E-01  0.32935568968E-01  0.56304273147E-01  0.51100000000E-03 0.  1.
         11    1    4    4    0    0  0.43612004964E-01 -0.44762727006E-01  0.36302948613E-01  0.72276371692E-01  0.51100000000E-03 0. -1.
</event>
<event>
 8    1  0.1054833E+005  0.1043930E+01  0.7957747E-01            NaN
         13   -1    0    0    0    0  0.00000000000E+00  0.00000000000E+00  0.74505805969E-08  0.10566000000E+00  0.10566000000E+00 0.  1.
     999900   -1    0    0    0    0 -0.00000000000E+00 -0.00000000000E+00 -0.74505805969E-08  0.93827000000E+00  0.93827000000E+00 0.  1.
     999902    2    1    2    0    0  0.43310616477E-02  0.16950204848E-01 -0.17026749061E-01  0.10195173450E+01  0.10192250189E+01 0.  0.
     999903    2    3    3    0    0 -0.31427833121E-01 -0.12143663933E+00 -0.14438187612E-01  0.12798141314E+00  0.20885755471E-01 0.  0.
         14    1    1    2    0    0 -0.43310616477E-02 -0.16950204848E-01  0.17026749061E-01  0.24412654976E-01  0.00000000000E+00 0.  1.
     999901    1    3    3    0    0  0.35758894769E-01  0.13838684417E+00 -0.25885614490E-02  0.89153593189E+00  0.88000000000E+00 0.  1.
        -11    1    4    4    0    0  0.21007023523E-02 -0.23640016139E-01 -0.14476537446E-02  0.23782769725E-01  0.51100000000E-03 0. -1.
         11    1    4    4    0    0 -0.33528535474E-01 -0.97796623187E-01 -0.12990533867E-01  0.10419864341E+00  0.51100000000E-03 0.  1.
</event>
<event>
 8    1  0.1054833E+005  0.1043930E+01  0.7957747E-01            NaN
         13   -1    0    0    0    0  0.00000000000E+00  0.00000000000E+00  0.74505805969E-08  0.10566000000E+00  0.10566000000E+00 0.  1.
     999900   -1    0    0    0    0 -0.00000000000E+00 -0.00000000000E+00 -0.74505805969E-08  0.93827000000E+00  0.93827000000E+00 0. -1.
     999902    2    1    2    0    0 -0.69838109462E-02  0.14477954939E-01 -0.15881359805E-01  0.10213334874E+01  0.10210834883E+01 0.  0.
     999903    2    3    3    0    0 -0.98858962498E-01 -0.59234195561E-01 -0.61840035305E-01  0.13229652273E+00  0.19909685364E-01 0.  0.
         14    1    1    2    0    0  0.69838109462E-02 -0.14477954939E-01  0.15881359805E-01  0.22596512647E-01  0.00000000000E+00 0.  1.
     999901    1    3    3    0    0  0.91875151551E-01  0.73712150501E-01  0.45958675501E-01  0.88903696462E+00  0.88000000000E+00 0.  1.
        -11    1    4    4    0    0 -0.46368966767E-01 -0.18982827351E-01 -0.33854202221E-01  0.60471455599E-01  0.51100000000E-03 0.  1.
         11    1    4    4    0    0 -0.52489995731E-01 -0.40251368210E-01 -0.27985833084E-01  0.71825067136E-01  0.51100000000E-03 0. -1.
</event>
<event>
 8    1  0.1054833E+005  0.1043930E+01  0.7957747E-01            NaN
         13   -1    0    0    0    0  0.00000000000E+00  0.00000000000E+00  0.74505805969E-08  0.10566000000E+00  0.10566000000E+00 0. -1.
     999900   -1    0    0    0    0 -0.00000000000E+00 -0.00000000000E+00 -0.74505805969E-08  0.93827000000E+00  0.93827000000E+00 0. -1.
     999902    2    1    2    0    0 -0.20565602320E-01  0.76982530476E-02 -0.79764569258E-02  0.10205669744E+01  0.10202995238E+01 0.  0.
     999903    2    3    3    0    0  0.63878545228E-01 -0.10964650414E+00 -0.61361660823E-02  0.12876879504E+00  0.20998229226E-01 0.  0.
         14    1    1    2    0    0  0.20565602320E-01 -0.76982530476E-02  0.79764569258E-02  0.23363025571E-01  0.00000000000E+00 0.  1.
     999901    1    3    3    0    0 -0.84444147548E-01  0.11734475719E+00 -0.18402908435E-02  0.89179817939E+00  0.88000000000E+00 0. -1.
        -11    1    4    4    0    0  0.55399262889E-01 -0.10479237599E+00 -0.80134839642E-02  0.11880655470E+00  0.51100000000E-03 0. -1.
         11    1    4    4    0    0  0.84792823387E-02 -0.48541281550E-02  0.18773178820E-02  0.99622403381E-02  0.51100000000E-03 0.  1.
</event>
<event>
 8    1  0.1054833E+005  0.1043930E+01  0.7957747E-01            NaN
         13   -1    0    0    0    0  0.00000000000E+00  0.00000000000E+00  0.74505805969E-08  0.10566000000E+00  0.10566000000E+00 0.  1.
     999900   -1    0    0    0    0 -0.00000000000E+00 -0.00000000000E+00 -0.74505805969E-08  0.93827000000E+00  0.93827000000E+00 0. -1.
     999902    2    1    2    0    0  0.87407685157E-02  0.98110123520E-02 -0.20065292682E-01  0.10199451513E+01  0.10196631006E+01 0.  0.
     999903    2    3    3    0    0  0.43490769389E-01 -0.11797812354E+00  0.20578498762E-01  0.12910872208E+00  0.20863912581E-01 0.  0.
         14    1    1    2    0    0 -0.87407685157E-02 -0.98110123520E-02  0.20065292682E-01  0.23984848718E-01  0.00000000000E+00 0.  1.
     999901    1    3    3    0    0 -0.34750000873E-01  0.12778913590E+00 -0.40643791444E-01  0.89083642920E+00  0.88000000000E+00 0.  1.
        -11    1    4    4    0    0  0.21511435895E-01 -0.37585610449E-01  0.13952926844E-01  0.45501266748E-01  0.51100000000E-03 0.  1.
         11    1    4    4    0    0  0.21979333494E-01 -0.80392513095E-01  0.66255719178E-02  0.83607455331E-01  0.51100000000E-03 0. -1.
</event>
<event>
 7    1  0.1054833E+005  0.1043930E+01  0.7957747E-01            NaN
         13   -1    0    0    0    0  0.00000000000E+00  0.00000000000E+00  0.74505805969E-08  0.10566000000E+00  0.10566000000E+00 0.  1.
     999900   -1    0    0    0    0 -0.00000000000E+00 -0.00000000000E+00 -0.74505805969E-08  0.93827000000E+00  0.93827000000E+00 0. -1.
     999902    2    1    2    0    0 -0.12026230809E-01  0.11421772075E-01 -0.16573110062E-01  0.10204831435E+01  0.10202137477E+01 0.  0.
         14    1    1    2    0    0  0.12026230809E-01 -0.11421772075E-01  0.16573110062E-01  0.23446856547E-01  0.00000000000E+00 0.  1.
     999901    1    3    3    0    0 -0.26673438283E-01  0.96445160283E-01 -0.11093659357E+00  0.89259177066E+00  0.88000000000E+00 0. -1.
        -11    1    3    3    0    0  0.10309428366E-01 -0.65540201135E-01  0.71767693421E-01  0.97737736919E-01  0.51100000000E-03 0. -1.
         11    1    3    3    0    0  0.43377791074E-02 -0.19483187073E-01  0.22595790084E-01  0.30153635877E-01  0.51100000000E-03 0.  1.
</event>
<event>
 8    1  0.1054833E+005  0.1043930E+01  0.7957747E-01            NaN
         13   -1    0    0    0    0  0.00000000000E+00  0.00000000000E+00  0.74505805969E-08  0.10566000000E+00  0.10566000000E+00 0.  1.
     999900   -1    0    0    0    0 -0.00000000000E+00 -0.00000000000E+00 -0.74505805969E-08  0.93827000000E+00  0.93827000000E+00 0. -1.
     999902    2    1    2    0    0  0.23135643852E-01 -0.38585540558E-02 -0.48512272957E-03  0.10204697826E+01  0.10202000762E+01 0.  0.
     999903    2    3    3    0    0  0.78707262253E-01  0.10143393549E+00  0.23748394983E-01  0.13212189101E+00  0.20212160200E-01 0.  0.
         14    1    1    2    0    0 -0.23135643852E-01  0.38585540558E-02  0.48512272957E-03  0.23460217388E-01  0.00000000000E+00 0.  1.
     999901    1    3    3    0    0 -0.55571618402E-01 -0.10529248955E+00 -0.24233517713E-01  0.88834789160E+00  0.88000000000E+00 0. -1.
        -11    1    4    4    0    0  0.19009359070E-01  0.12286658444E-01  0.53694073688E-02  0.23268205012E-01  0.51100000000E-03 0. -1.
         11    1    4    4    0    0  0.59697903184E-01  0.89147277047E-01  0.18378987614E-01  0.10885368600E+00  0.51100000000E-03 0.  1.
</event>
<event>
 8    1  0.1054833E+005  0.1043930E+01  0.7957747E-01            NaN
         13   -1    0    0    0    0  0.00000000000E+00  0.00000000000E+00  0.74505805969E-08  0.10566000000E+00  0.10566000000E+00 0. -1.
     999900   -1    0    0    0    0 -0.00000000000E+00 -0.00000000000E+00 -0.74505805969E-08  0.93827000000E+00  0.93827000000E+00 0.  1.
     999902    2    1    2    0    0 -0.17530026774E-01 -0.11922567311E-01  0.13607188814E-01  0.10187386317E+01  0.10184271180E+01 0.  0.
     999903    2    3    3    0    0  0.78216309172E-01  0.98935484894E-01  0.86099240621E-02  0.12661653173E+00  0.71829048843E-02 0.  0.
         14    1    1    2    0    0  0.17530026774E-01  0.11922567311E-01 -0.13607188814E-01  0.25191368311E-01  0.00000000000E+00 0.  1.
     999901    1    3    3    0    0 -0.95746335946E-01 -0.11085805220E+00  0.49972647514E-02  0.89212209996E+00  0.88000000000E+00 0.  1.
        -11    1    4    4    0    0  0.25361958253E-01  0.27066509236E-01  0.16513175357E-02  0.37132368888E-01  0.51100000000E-03 0.  1.
         11    1    4    4    0    0  0.52854350919E-01  0.71868975658E-01  0.69586065265E-02  0.89484162839E-01  0.51100000000E-03 0. -1.
</event>
<event>
 8    1  0.1054833E+005  0.1043930E+01  0.7957747E-01            NaN
         13   -1    0    0    0    0  0.00000000000E+00  0.00000000000E+00  0.74505805969E-08  0.10566000000E+00  0.10566000000E+00 0.  1.
     999900   -1    0    0    0    0 -0.00000000000E+00 -0.00000000000E+00 -0.74505805969E-08  0.93827000000E+00  0.93827000000E+00 0.  1.
     999902    2    1    2    0    0 -0.11710188623E-03 -0.90972304170E-02  0.30812776288E-01  0.10118021227E+01  0.10112919139E+01 0.  0.
     999903    2    3    3    0    0 -0.11388179542E+00 -0.23704602876E-01 -0.33003822497E-01  0.12206714024E+00  0.16738067430E-01 0.  0.
         14    1    1    2    0    0  0.11710188623E-03  0.90972304170E-02 -0.30812776288E-01  0.32127877252E-01  0.00000000000E+00 0. -1.
     999901    1    3    3    0    0  0.11376469353E+00  0.14607372459E-01  0.63816598785E-01  0.88973498251E+00  0.88000000000E+00 0.  1.
        -11    1    4    4    0    0 -0.85231834062E-01 -0.21701030682E-01 -0.18453493527E-01  0.89867640531E-01  0.51100000000E-03 0. -1.
         11    1    4    4    0    0 -0.28649961355E-01 -0.20035721942E-02 -0.14550328970E-01  0.32199499706E-01  0.51100000000E-03 0.  1.
</event>
<event>
 8    1  0.1054833E+005  0.1043930E+01  0.7957747E-01            NaN
         13   -1    0    0    0    0  0.00000000000E+00  0.00000000000E+00  0.74505805969E-08  0.10566000000E+00  0.10566000000E+00 0.  1.
     999900   -1    0    0    0    0 -0.00000000000E+00 -0.00000000000E+00 -0.74505805969E-08  0.93827000000E+00  0.93827000000E+00 0.  1.
     999902    2    1    2    0    0 -0.37933574005E-02 -0.10613046832E-02  0.19717702873E-01  0.10238226945E+01  0.10236252273E+01 0.  0.
     999903    2    3    3    0    0 -0.88367288689E-01  0.53534947843E-01 -0.80375464894E-01  0.13244615067E+00  0.20174219210E-01 0.  0.
         14    1    1    2    0    0  0.37933574005E-02  0.10613046832E-02 -0.19717702873E-01  0.20107305503E-01  0.00000000000E+00 0. -1.
     999901    1    3    3    0    0  0.84573931289E-01 -0.54596252526E-01  0.10009316777E+00  0.89137654382E+00  0.88000000000E+00 0. -1.
        -11    1    4    4    0    0 -0.32978798292E-01  0.30323122688E-01 -0.28618591450E-01  0.53163688773E-01  0.51100000000E-03 0. -1.
         11    1    4    4    0    0 -0.55388490397E-01  0.23211825155E-01 -0.51756873444E-01  0.79282461902E-01  0.51100000000E-03 0.  1.
</event>
<event>
 8    1  0.1054833E+005  0.1043930E+01  0.7957747E-01            NaN
         13   -1    0    0    0    0  0.00000000000E+00  0.00000000000E+00  0.74505805969E-08  0.10566000000E+00  0.10566000000E+00 0. -1.
     999900   -1    0    0    0    0 -0.00000000000E+00 -0.00000000000E+00 -0.74505805969E-08  0.93827000000E+00  0.93827000000E+00 0. -1.
     999902    2    1    2    0    0  0.15305630769E-01 -0.17835383667E-01 -0.59785027182E-02  0.10196791085E+01  0.10193906899E+01 0.  0.
     999903    2    3    3    0    0  0.58978611040E-01 -0.45297190017E-01 -0.10764243324E+00  0.13232515726E+00  0.19817714946E-01 0.  0.
         14    1    1    2    0    0 -0.15305630769E-01  0.17835383667E-01  0.59785027182E-02  0.24250891500E-01  0.00000000000E+00 0. -1.
     999901    1    3    3    0    0 -0.43672980271E-01  0.27461806350E-01  0.10166393052E+00  0.88735395124E+00  0.88000000000E+00 0.  1.
        -11    1    4    4    0    0  0.43996302631E-01 -0.41378276240E-01 -0.75872034817E-01  0.96977642672E-01  0.51100000000E-03 0.  1.
         11    1    4    4    0    0  0.14982308408E-01 -0.39189137775E-02 -0.31770398424E-01  0.35347514587E-01  0.51100000000E-03 0. -1.
</event>
<event>
 8    1  0.1054833E+005  0.1043930E+01  0.7957747E-01            NaN
         13   -1    0    0    0    0  0.00000000000E+00  0.00000000000E+00  0.74505805969E-08  0.10566000000E+00  0.10566000000E+00 0.  1.
     999900   -1    0    0    0    0 -0.00000000000E+00 -0.00000000000E+00 -0.74505805969E-08  0.93827000000E+00  0.93827000000E+00 0.  1.
     999902    2    1    2    0    0 -0.16040536502E-01  0.85059822341E-02  0.14089633849E-01  0.10209480870E+01  0.10206893886E+01 0.  0.
     999903    2    3    3    0    0  0.91862457366E-01 -0.81910735203E-01 -0.31298085687E-01  0.12860382382E+00  0.20280377654E-01 0.  0.
         14    1    1    2    0    0  0.16040536502E-01 -0.85059822341E-02 -0.14089633849E-01  0.22981913041E-01  0.00000000000E+00 0. -1.
     999901    1    3    3    0    0 -0.10790299387E+00  0.90416717437E-01  0.45387719536E-01  0.89234426314E+00  0.88000000000E+00 0. -1.
        -11    1    4    4    0    0  0.42941682038E-01 -0.44630645983E-01 -0.24933047195E-01  0.66766762544E-01  0.51100000000E-03 0.  1.
         11    1    4    4    0    0  0.48920775327E-01 -0.37280089220E-01 -0.63650384930E-02  0.61837061273E-01  0.51100000000E-03 0. -1.
</event>
<event>
 8    1  0.1054833E+005  0.1043930E+01  0.7957747E-01            NaN
         13   -1    0    0    0    0  0.00000000000E+00  0.00000000000E+00  0.74505805969E-08  0.10566000000E+00  0.10566000000E+00 0.  1.
     999900   -1    0    0    0    0 -0.00000000000E+00 -0.00000000000E+00 -0.74505805969E-08  0.93827000000E+00  0.93827000000E+00 0. -1.
     999902    2    1    2    0    0  0.36563818837E-01 -0.20342088337E-02  0.36287294288E-02  0.10071302917E+01  0.10064577517E+01 0.  0.
     999903    2    3    3    0    0 -0.20948670858E-01  0.91350299580E-01 -0.67812450643E-01  0.11744934041E+00  0.20300124542E-01 0.  0.
         14    1    1    2    0    0 -0.36563818837E-01  0.20342088337E-02 -0.36287294288E-02  0.36799708297E-01  0.00000000000E+00 0. -1.
     999901    1    3    3    0    0  0.57512489695E-01 -0.93384508414E-01  0.71441180072E-01  0.88968095129E+00  0.88000000000E+00 0.  1.
        -11    1    4    4    0    0 -0.13913459769E-01  0.50948720767E-01 -0.50019892595E-01  0.72743434664E-01  0.51100000000E-03 0. -1.
         11    1    4    4    0    0 -0.70352110889E-02  0.40401578813E-01 -0.17792558048E-01  0.44705905746E-01  0.51100000000E-03 0.  1.
</event>
<event>
 8    1  0.1054833E+005  0.1043930E+01  0.7957747E-01            NaN
         13   -1    0    0    0    0  0.00000000000E+00  0.00000000000E+00  0.74505805969E-08  0.10566000000E+00  0.10566000000E+00 0. -1.
     999900   -1    0    0    0    0 -0.00000000000E+00 -0.00000000000E+00 -0.74505805969E-08  0.93827000000E+00  0.93827000000E+00 0.  1.
     999902    2    1    2    0    0  0.22018734979E-01  0.78460788438E-02 -0.37931214828E-02  0.10202493452E+01  0.10199744864E+01 0.  0.
     999903    2    3    3    0    0  0.65440732933E-01 -0.65953700026E-01  0.90812179125E-01  0.13104630863E+00  0.17143600951E-01 0.  0.
         14    1    1    2    0    0 -0.22018734979E-01 -0.78460788438E-02  0.37931214828E-02  0.23680654844E-01  0.00000000000E+00 0.  1.
     999901    1    3    3    0    0 -0.43421997955E-01  0.73799778870E-01 -0.94605300607E-01  0.88920303653E+00  0.88000000000E+00 0.  1.
        -11    1    4    4    0    0  0.10083707131E-01 -0.32013604340E-02  0.13096402821E-01  0.16843596587E-01  0.51100000000E-03 0. -1.
         11    1    4    4    0    0  0.55357025802E-01 -0.62752339592E-01  0.77715776304E-01  0.11420271204E+00  0.51100000000E-03 0.  1.
</event>
<event>
 8    1  0.1054833E+005  0.1043930E+01  0.7957747E-01            NaN
         13   -1    0    0    0    0  0.00000000000E+00  0.00000000000E+00  0.74505805969E-08  0.10566000000E+00  0.10566000000E+00 0. -1.
     999900   -1    0    0    0    0 -0.00000000000E+00 -0.00000000000E+00 -0.74505805969E-08  0.93827000000E+00  0.93827000000E+00 0. -1.
     999902    2    1    2    0    0 -0.41448556034E-03 -0.55559139531E-02  0.22175400667E-01  0.10210654341E+01  0.10208094006E+01 0.  0.
     999903    2    3    3    0    0  0.66173994653E-01 -0.45930869662E-01  0.10416631973E+00  0.13383002367E+00  0.23900014925E-01 0.  0.
         14    1    1    2    0    0  0.41448556034E-03  0.55559139531E-02 -0.22175400667E-01  0.22864565880E-01  0.00000000000E+00 0.  1.
     999901    1    3    3    0    0 -0.66588480214E-01  0.40374955709E-01 -0.81990919064E-01  0.88723541045E+00  0.88000000000E+00 0. -1.
        -11    1    4    4    0    0  0.47235847956E-01 -0.43299444563E-01  0.87534792546E-01  0.10848349302E+00  0.51100000000E-03 0. -1.
         11    1    4    4    0    0  0.18938146697E-01 -0.26314250991E-02  0.16631527184E-01  0.25346530647E-01  0.51100000000E-03 0.  1.
</event>
<event>
 8    1  0.1054833E+005  0.1043930E+01  0.7957747E-01            NaN
         13   -1    0    0    0    0  0.00000000000E+00  0.00000000000E+00  0.74505805969E-08  0.10566000000E+00  0.10566000000E+00 0.  1.
     999900   -1    0    0    0    0 -0.00000000000E+00 -0.00000000000E+00 -0.74505805969E-08  0.93827000000E+00  0.93827000000E+00 0. -1.
     999902    2    1    2    0    0 -0.58100824016E-02  0.23161521951E-01  0.16301515379E-02  0.10199952857E+01  0.10197144268E+01 0.  0.
     999903    2    3    3    0    0  0.98382824221E-01 -0.78816368878E-01  0.10266078691E-01  0.12795816129E+00  0.19408723937E-01 0.  0.
         14    1    1    2    0    0  0.58100824016E-02 -0.23161521951E-01 -0.16301515379E-02  0.23934714342E-01  0.00000000000E+00 0.  1.
     999901    1    3    3    0    0 -0.10419290662E+00  0.10197789083E+00 -0.86359271533E-02  0.89203712437E+00  0.88000000000E+00 0. -1.
        -11    1    4    4    0    0  0.30797413223E-01 -0.15251980356E-01 -0.16706477478E-02  0.34411564203E-01  0.51100000000E-03 0.  1.
         11    1    4    4    0    0  0.67585410998E-01 -0.63564388522E-01  0.11936726439E-01  0.93546597090E-01  0.51100000000E-03 0. -1.
</event>
<event>
 8    1  0.1054833E+005  0.1043930E+01  0.7957747E-01            NaN
         13   -1    0    0    0    0  0.00000000000E+00  0.00000000000E+00  0.74505805969E-08  0.10566000000E+00  0.10566000000E+00 0.  1.
     999900   -1    0    0    0    0 -0.00000000000E+00 -0.00000000000E+00 -0.74505805969E-08  0.93827000000E+00  0.93827000000E+00 0.  1.
     999902    2    1    2    0    0  0.17514446757E-01 -0.10905801660E-01 -0.10665936426E-01  0.10207038390E+01  0.10204395486E+01 0.  0.
     999903    2    3    3    0    0 -0.14260062246E-01 -0.13009908171E-01 -0.12932458995E+00  0.13216913358E+00  0.19267153903E-01 0.  0.
         14    1    1    2    0    0 -0.17514446757E-01  0.10905801660E-01  0.10665936426E-01  0.23226161002E-01  0.00000000000E+00 0.  1.
     999901    1    3    3    0    0  0.31774509003E-01  0.21041065112E-02  0.11865865352E+00  0.88853470542E+00  0.88000000000E+00 0. -1.
        -11    1    4    4    0    0 -0.84788000963E-02  0.38551234176E-02 -0.38953410802E-01  0.40054729580E-01  0.51100000000E-03 0. -1.
         11    1    4    4    0    0 -0.57812621501E-02 -0.16865031588E-01 -0.90371179144E-01  0.92114403995E-01  0.51100000000E-03 0.  1.
</event>
<event>
 8    1  0.1054833E+005  0.1043930E+01  0.7957747E-01            NaN
         13   -1    0    0    0    0  0.00000000000E+00  0.00000000000E+00  0.74505805969E-08  0.10566000000E+00  0.10566000000E+00 0.  1.
     999900   -1    0    0    0    0 -0.00000000000E+00 -0.00000000000E+00 -0.74505805969E-08  0.93827000000E+00  0.93827000000E+00 0.  1.
     999902    2    1    2    0    0 -0.93684203950E-02  0.11996697943E-01 -0.17067579309E-01  0.10210610183E+01  0.10208048847E+01 0.  0.
     999903    2    3    3    0    0  0.11502387964E+00 -0.13813301916E-01 -0.57775462311E-01  0.13100667602E+00  0.20085938350E-01 0.  0.
         14    1    1    2    0    0  0.93684203950E-02 -0.11996697943E-01  0.17067579309E-01  0.22868981737E-01  0.00000000000E+00 0.  1.
     999901    1    3    3    0    0 -0.12439230004E+00  0.25809999859E-01  0.40707883003E-01  0.89005434224E+00  0.88000000000E+00 0. -1.
        -11    1    4    4    0    0  0.52404770435E-01 -0.10533882583E-01 -0.36746755336E-01  0.64867617463E-01  0.51100000000E-03 0. -1.
         11    1    4    4    0    0  0.62619109207E-01 -0.32794193328E-02 -0.21028706975E-01  0.66139058559E-01  0.51100000000E-03 0.  1.
</event>
<event>
 8    1  0.1054833E+005  0.1043930E+01  0.7957747E-01            NaN
         13   -1    0    0    0    0  0.00000000000E+00  0.00000000000E+00  0.74505805969E-08  0.10566000000E+00  0.10566000000E+00 0. -1.
     999900   -1    0    0    0    0 -0.00000000000E+00 -0.00000000000E+00 -0.74505805969E-08  0.93827000000E+00  0.93827000000E+00 0. -1.
     999902    2    1    2    0    0 -0.17633311221E-02 -0.20243547101E-01 -0.14710942199E-01  0.10188437018E+01  0.10185348135E+01 0.  0.
     999903    2    3    3    0    0 -0.90874906238E-01 -0.42868851003E-01  0.78604747592E-01  0.12914678986E+00  0.20104726230E-01 0.  0.
         14    1    1    2    0    0  0.17633311221E-02  0.20243547101E-01  0.14710942199E-01  0.25086298177E-01  0.00000000000E+00 0. -1.
     999901    1    3    3    0    0  0.89111575116E-01  0.22625303903E-01 -0.93315689791E-01  0.88969691196E+00  0.88000000000E+00 0. -1.
        -11    1    4    4    0    0 -0.67166069771E-01 -0.23512801126E-01  0.61646044795E-01  0.94152157198E-01  0.51100000000E-03 0.  1.
         11    1    4    4    0    0 -0.23708836468E-01 -0.19356049878E-01  0.16958702797E-01  0.34994632661E-01  0.51100000000E-03 0. -1.
</event>
