<event>
 8    1  0.1131349E+005  0.1043930E+01  0.7957747E-01            NaN
         13   -1    0    0    0    0  0.00000000000E+00  0.00000000000E+00  0.74505805969E-08  0.10566000000E+00  0.10566000000E+00 0.  1.
     999900   -1    0    0    0    0 -0.00000000000E+00 -0.00000000000E+00 -0.74505805969E-08  0.93827000000E+00  0.93827000000E+00 0.  1.
     999902    2    1    2    0    0 -0.93582611154E-02  0.40009372337E-02 -0.11563149594E-01  0.10285257480E+01  0.10284103867E+01 0.  0.
     999903    2    3    3    0    0  0.34241599856E-01 -0.12015953061E+00 -0.51374769218E-01  0.13785087206E+00  0.27435306753E-01 0.  0.
         14    1    1    2    0    0  0.93582611154E-02 -0.40009372337E-02  0.11563149594E-01  0.15404251958E-01  0.00000000000E+00 0. -1.
     999901    1    3    3    0    0 -0.43599860972E-01  0.12416046785E+00  0.39811619624E-01  0.89067487598E+00  0.88000000000E+00 0. -1.
        -11    1    4    4    0    0  0.27170242989E-01 -0.10601621967E+00 -0.34577299865E-01  0.11477591962E+00  0.51100000000E-03 0. -1.
         11    1    4    4    0    0  0.70713568673E-02 -0.14143310943E-01 -0.16797469352E-01  0.23074952438E-01  0.51100000000E-03 0.  1.
</event>
<event>
 8    1  0.1131349E+005  0.1043930E+01  0.7957747E-01            NaN
         13   -1    0    0    0    0  0.00000000000E+00  0.00000000000E+00  0.74505805969E-08  0.10566000000E+00  0.10566000000E+00 0.  1.
     999900   -1    0    0    0    0 -0.00000000000E+00 -0.00000000000E+00 -0.74505805969E-08  0.93827000000E+00  0.93827000000E+00 0. -1.
     999902    2    1    2    0    0  0.13600600682E-01 -0.46433982030E-02  0.21014049417E-01  0.10184716466E+01  0.10181534104E+01 0.  0.
     999903    2    3    3    0    0  0.75196302199E-01 -0.10452255255E+00  0.11510780270E-01  0.13063146500E+00  0.18778544382E-01 0.  0.
         14    1    1    2    0    0 -0.13600600682E-01  0.46433982030E-02 -0.21014049417E-01  0.25458353417E-01  0.00000000000E+00 0. -1.
     999901    1    3    3    0    0 -0.61595701517E-01  0.99879154344E-01  0.95032691471E-02  0.88784018159E+00  0.88000000000E+00 0.  1.
        -11    1    4    4    0    0  0.23959119077E-01 -0.42150879207E-01 -0.31560894101E-02  0.48589690534E-01  0.51100000000E-03 0. -1.
         11    1    4    4    0    0  0.51237183122E-01 -0.62371673340E-01  0.14666869680E-01  0.82041774461E-01  0.51100000000E-03 0.  1.
</event>
<event>
 8    1  0.1131349E+005  0.1043930E+01  0.7957747E-01            NaN
         13   -1    0    0    0    0  0.00000000000E+00  0.00000000000E+00  0.74505805969E-08  0.10566000000E+00  0.10566000000E+00 0. -1.
     999900   -1    0    0    0    0 -0.00000000000E+00 -0.00000000000E+00 -0.74505805969E-08  0.93827000000E+00  0.93827000000E+00 0. -1.
     999902    2    1    2    0    0  0.22539182303E-01  0.18358550572E-03  0.84678243444E-02  0.10198519500E+01  0.10195676767E+01 0.  0.
     999903    2    3    3    0    0  0.83156936565E-02  0.85334664500E-01  0.97293081264E-01  0.13117712750E+00  0.19757008658E-01 0.  0.
         14    1    1    2    0    0 -0.22539182303E-01 -0.18358550572E-03 -0.84678243444E-02  0.24078049997E-01  0.00000000000E+00 0. -1.
     999901    1    3    3    0    0  0.14223488647E-01 -0.85151078994E-01 -0.88825256920E-01  0.88867482250E+00  0.88000000000E+00 0. -1.
        -11    1    4    4    0    0 -0.10765684554E-02  0.36124144949E-01  0.53899239782E-01  0.64896086308E-01  0.51100000000E-03 0. -1.
         11    1    4    4    0    0  0.93922621119E-02  0.49210519551E-01  0.43393841482E-01  0.66281041193E-01  0.51100000000E-03 0.  1.
</event>
<event>
 8    1  0.1131349E+005  0.1043930E+01  0.7957747E-01            NaN
         13   -1    0    0    0    0  0.00000000000E+00  0.00000000000E+00  0.74505805969E-08  0.10566000000E+00  0.10566000000E+00 0. -1.
     999900   -1    0    0    0    0 -0.00000000000E+00 -0.00000000000E+00 -0.74505805969E-08  0.93827000000E+00  0.93827000000E+00 0. -1.
     999902    2    1    2    0    0  0.58605623238E-02  0.96417131897E-03  0.22933673607E-01  0.10202397235E+01  0.10199646387E+01 0.  0.
     999903    2    3    3    0    0 -0.38836429801E-01 -0.68490747577E-01 -0.98877390289E-01  0.12801792248E+00  0.20312542503E-01 0.  0.
         14    1    1    2    0    0 -0.58605623238E-02 -0.96417131897E-03 -0.22933673607E-01  0.23690276533E-01  0.00000000000E+00 0.  1.
     999901    1    3    3    0    0  0.44696992125E-01  0.69454918896E-01  0.12181106390E+00  0.89222180098E+00  0.88000000000E+00 0.  1.
        -11    1    4    4    0    0 -0.30641279164E-01 -0.45195870175E-01 -0.54027943407E-01  0.76816889155E-01  0.51100000000E-03 0. -1.
         11    1    4    4    0    0 -0.81951506377E-02 -0.23294877402E-01 -0.44849446883E-01  0.51201033328E-01  0.51100000000E-03 0.  1.
</event>
<event>
 8    1  0.1131349E+005  0.1043930E+01  0.7957747E-01            NaN
         13   -1    0    0    0    0  0.00000000000E+00  0.00000000000E+00  0.74505805969E-08  0.10566000000E+00  0.10566000000E+00 0.  1.
     999900   -1    0    0    0    0 -0.00000000000E+00 -0.00000000000E+00 -0.74505805969E-08  0.93827000000E+00  0.93827000000E+00 0.  1.
     999902    2    1    2    0    0 -0.13493156372E-01  0.14782466531E-01 -0.15301798064E-01  0.10187361196E+01  0.10184245430E+01 0.  0.
     999903    2    3    3    0    0 -0.11097915414E+00  0.60153811931E-01  0.29077196767E-01  0.13108102108E+00  0.20047368216E-01 0.  0.
         14    1    1    2    0    0  0.13493156372E-01 -0.14782466531E-01  0.15301798064E-01  0.25193880400E-01  0.00000000000E+00 0.  1.
     999901    1    3    3    0    0  0.97485997767E-01 -0.45371345400E-01 -0.44378994830E-01  0.88765509852E+00  0.88000000000E+00 0.  1.
        -11    1    4    4    0    0 -0.91536039367E-01  0.45097363368E-01  0.16212932756E-01  0.10332346779E+00  0.51100000000E-03 0. -1.
         11    1    4    4    0    0 -0.19443114773E-01  0.15056448563E-01  0.12864264010E-01  0.27757553295E-01  0.51100000000E-03 0.  1.
</event>
<event>
 8    1  0.1131349E+005  0.1043930E+01  0.7957747E-01            NaN
         13   -1    0    0    0    0  0.00000000000E+00  0.00000000000E+00  0.74505805969E-08  0.10566000000E+00  0.10566000000E+00 0. -1.
     999900   -1    0    0    0    0 -0.00000000000E+00 -0.00000000000E+00 -0.74505805969E-08  0.93827000000E+00  0.93827000000E+00 0.  1.
     999902    2    1    2    0    0  0.16814888875E-01  0.81550088193E-02  0.13121735959E-01  0.10210952762E+01  0.10208399181E+01 0.  0.
     999903    2    3    3    0    0 -0.18911204325E-01  0.47142999376E-01  0.12122394024E+00  0.13290469771E+00  0.19705809987E-01 0.  0.
         14    1    1    2    0    0 -0.16814888875E-01 -0.81550088193E-02 -0.13121735959E-01  0.22834723806E-01  0.00000000000E+00 0. -1.
     999901    1    3    3    0    0  0.35726093200E-01 -0.38987990557E-01 -0.10810220428E+00  0.88819057849E+00  0.88000000000E+00 0.  1.
        -11    1    4    4    0    0  0.16191562662E-02  0.17773777042E-01  0.51548735102E-01  0.54553295308E-01  0.51100000000E-03 0. -1.
         11    1    4    4    0    0 -0.20530360591E-01  0.29369222335E-01  0.69675205133E-01  0.78351402399E-01  0.51100000000E-03 0.  1.
</event>
<event>
 8    1  0.1131349E+005  0.1043930E+01  0.7957747E-01            NaN
         13   -1    0    0    0    0  0.00000000000E+00  0.00000000000E+00  0.74505805969E-08  0.10566000000E+00  0.10566000000E+00 0.  1.
     999900   -1    0    0    0    0 -0.00000000000E+00 -0.00000000000E+00 -0.74505805969E-08  0.93827000000E+00  0.93827000000E+00 0. -1.
     999902    2    1    2    0    0  0.70572659898E-02  0.18205771544E-01 -0.14605064472E-01  0.10195463368E+01  0.10192547130E+01 0.  0.
     999903    2    3    3    0    0  0.62781618679E-01  0.14752329561E-01 -0.11386264888E+00  0.13220807113E+00  0.18844319843E-01 0.  0.
         14    1    1    2    0    0 -0.70572659898E-02 -0.18205771544E-01  0.14605064472E-01  0.24383663157E-01  0.00000000000E+00 0.  1.
     999901    1    3    3    0    0 -0.55724352689E-01  0.34534419821E-02  0.99257584404E-01  0.88733826572E+00  0.88000000000E+00 0.  1.
        -11    1    4    4    0    0  0.21956626986E-01  0.34434957361E-02 -0.57876768535E-01  0.61999456357E-01  0.51100000000E-03 0. -1.
         11    1    4    4    0    0  0.40824991693E-01  0.11308833825E-01 -0.55985880340E-01  0.70208614768E-01  0.51100000000E-03 0.  1.
</event>
<event>
 8    1  0.1131349E+005  0.1043930E+01  0.7957747E-01            NaN
         13   -1    0    0    0    0  0.00000000000E+00  0.00000000000E+00  0.74505805969E-08  0.10566000000E+00  0.10566000000E+00 0.  1.
     999900   -1    0    0    0    0 -0.00000000000E+00 -0.00000000000E+00 -0.74505805969E-08  0.93827000000E+00  0.93827000000E+00 0. -1.
     999902    2    1    2    0    0 -0.50104450733E-02  0.11333196258E-01 -0.20347379374E-01  0.10201064456E+01  0.10198282201E+01 0.  0.
     999903    2    3    3    0    0 -0.91100285823E-02  0.51414139084E-01 -0.12003142659E+00  0.13356248287E+00  0.26551593995E-01 0.  0.
         14    1    1    2    0    0  0.50104450733E-02 -0.11333196258E-01  0.20347379374E-01  0.23823554409E-01  0.00000000000E+00 0. -1.
     999901    1    3    3    0    0  0.40995835090E-02 -0.40080942825E-01  0.99684047215E-01  0.88654396272E+00  0.88000000000E+00 0.  1.
        -11    1    4    4    0    0 -0.22244481669E-02 -0.12526856086E-03 -0.26085697018E-01  0.26185655840E-01  0.51100000000E-03 0. -1.
         11    1    4    4    0    0 -0.68855804154E-02  0.51539407645E-01 -0.93945729572E-01  0.10737682703E+00  0.51100000000E-03 0.  1.
</event>
<event>
 8    1  0.1131349E+005  0.1043930E+01  0.7957747E-01            NaN
         13   -1    0    0    0    0  0.00000000000E+00  0.00000000000E+00  0.74505805969E-08  0.10566000000E+00  0.10566000000E+00 0.  1.
     999900   -1    0    0    0    0 -0.00000000000E+00 -0.00000000000E+00 -0.74505805969E-08  0.93827000000E+00  0.93827000000E+00 0.  1.
     999902    2    1    2    0    0 -0.21183214468E-01 -0.10904945873E-01 -0.27126498567E-02  0.10199507404E+01  0.10196688227E+01 0.  0.
     999903    2    3    3    0    0 -0.80881447351E-02 -0.42787058308E-01  0.12146518588E+00  0.13056438748E+00  0.19927806047E-01 0.  0.
         14    1    1    2    0    0  0.21183214468E-01  0.10904945873E-01  0.27126498567E-02  0.23979259558E-01  0.00000000000E+00 0. -1.
     999901    1    3    3    0    0 -0.13095069733E-01  0.31882112435E-01 -0.12417783574E+00  0.88938635296E+00  0.88000000000E+00 0.  1.
        -11    1    4    4    0    0 -0.26290825486E-02 -0.99234174049E-02  0.57812479530E-01  0.58719078658E-01  0.51100000000E-03 0. -1.
         11    1    4    4    0    0 -0.54590621865E-02 -0.32863640903E-01  0.63652706349E-01  0.71845308823E-01  0.51100000000E-03 0.  1.
</event>
<event>
 8    1  0.1131349E+005  0.1043930E+01  0.7957747E-01            NaN
         13   -1    0    0    0    0  0.00000000000E+00  0.00000000000E+00  0.74505805969E-08  0.10566000000E+00  0.10566000000E+00 0.  1.
     999900   -1    0    0    0    0 -0.00000000000E+00 -0.00000000000E+00 -0.74505805969E-08  0.93827000000E+00  0.93827000000E+00 0.  1.
     999902    2    1    2    0    0 -0.16015606699E-01 -0.11204919568E-01  0.13188756453E-01  0.10203504924E+01  0.10200780040E+01 0.  0.
     999903    2    3    3    0    0  0.23496453150E-01  0.11303661116E+00 -0.51515562526E-01  0.12839544327E+00  0.22409326104E-01 0.  0.
         14    1    1    2    0    0  0.16015606699E-01  0.11204919568E-01 -0.13188756453E-01  0.23579507570E-01  0.00000000000E+00 0. -1.
     999901    1    3    3    0    0 -0.39512059849E-01 -0.12424153073E+00  0.64704318979E-01  0.89195504916E+00  0.88000000000E+00 0. -1.
        -11    1    4    4    0    0  0.27046285435E-01  0.10324916141E+00 -0.49989354451E-01  0.11786045803E+00  0.51100000000E-03 0. -1.
         11    1    4    4    0    0 -0.35498322858E-02  0.97874497467E-02 -0.15262080749E-02  0.10534985234E-01  0.51100000000E-03 0.  1.
</event>
<event>
 8    1  0.1131349E+005  0.1043930E+01  0.7957747E-01            NaN
         13   -1    0    0    0    0  0.00000000000E+00  0.00000000000E+00  0.74505805969E-08  0.10566000000E+00  0.10566000000E+00 0.  1.
     999900   -1    0    0    0    0 -0.00000000000E+00 -0.00000000000E+00 -0.74505805969E-08  0.93827000000E+00  0.93827000000E+00 0.  1.
     999902    2    1    2    0    0  0.21524920344E-01  0.29752074936E-02 -0.13027735389E-01  0.10185943345E+01  0.10182791967E+01 0.  0.
     999903    2    3    3    0    0  0.24991804775E-01  0.11053179280E+00 -0.61540495146E-01  0.13071262721E+00  0.21370326232E-01 0.  0.
         14    1    1    2    0    0 -0.21524920344E-01 -0.29752074936E-02  0.13027735389E-01  0.25335665470E-01  0.00000000000E+00 0.  1.
     999901    1    3    3    0    0 -0.34668844308E-02 -0.10755658531E+00  0.48512759757E-01  0.88788170732E+00  0.88000000000E+00 0. -1.
        -11    1    4    4    0    0  0.19261449546E-01  0.38869325370E-01 -0.24901103705E-01  0.50021535163E-01  0.51100000000E-03 0.  1.
         11    1    4    4    0    0  0.57303552294E-02  0.71662467435E-01 -0.36639391441E-01  0.80691092049E-01  0.51100000000E-03 0. -1.
</event>
<event>
 8    1  0.1131349E+005  0.1043930E+01  0.7957747E-01            NaN
         13   -1    0    0    0    0  0.00000000000E+00  0.00000000000E+00  0.74505805969E-08  0.10566000000E+00  0.10566000000E+00 0. -1.
     999900   -1    0    0    0    0 -0.00000000000E+00 -0.00000000000E+00 -0.74505805969E-08  0.93827000000E+00  0.93827000000E+00 0. -1.
     999902    2    1    2    0    0 -0.14350500405E-01 -0.14784818885E-01 -0.12387806025E-01  0.10198886716E+01  0.10196052751E+01 0.  0.
     999903    2    3    3    0    0 -0.11575052147E+00  0.54611777523E-01 -0.19414079686E-01  0.13132397484E+00  0.22100914307E-01 0.  0.
         14    1    1    2    0    0  0.14350500405E-01  0.14784818885E-01  0.12387806025E-01  0.24041328363E-01  0.00000000000E+00 0.  1.
     999901    1    3    3    0    0  0.10140002107E+00 -0.69396596409E-01  0.70262736618E-02  0.88856469679E+00  0.88000000000E+00 0.  1.
        -11    1    4    4    0    0 -0.53878218290E-01  0.36349412745E-01 -0.14711588079E-01  0.66639584015E-01  0.51100000000E-03 0.  1.
         11    1    4    4    0    0 -0.61872303184E-01  0.18262364779E-01 -0.47024916075E-02  0.64684390829E-01  0.51100000000E-03 0. -1.
</event>
<event>
 8    1  0.1131349E+005  0.1043930E+01  0.7957747E-01            NaN
         13   -1    0    0    0    0  0.00000000000E+00  0.00000000000E+00  0.74505805969E-08  0.10566000000E+00  0.10566000000E+00 0. -1.
     999900   -1    0    0    0    0 -0.00000000000E+00 -0.00000000000E+00 -0.74505805969E-08  0.93827000000E+00  0.93827000000E+00 0.  1.
     999902    2    1    2    0    0 -0.47511382917E-03 -0.17045051689E-01 -0.15593430203E-01  0.10208234082E+01  0.10205618629E+01 0.  0.
     999903    2    3    3    0    0  0.11676437970E-01 -0.12078102750E+00 -0.52415554337E-01  0.13388221412E+00  0.21275833998E-01 0.  0.
         14    1    1    2    0    0  0.47511382917E-03  0.17045051689E-01  0.15593430203E-01  0.23106591824E-01  0.00000000000E+00 0. -1.
     999901    1    3    3    0    0 -0.12151551799E-01  0.10373597582E+00  0.36822124134E-01  0.88694119406E+00  0.88000000000E+00 0.  1.
        -11    1    4    4    0    0  0.47972597821E-02 -0.14721798923E-01 -0.13965530221E-01  0.20857665745E-01  0.51100000000E-03 0. -1.
         11    1    4    4    0    0  0.68791781882E-02 -0.10605922858E+00 -0.38450024115E-01  0.11302454837E+00  0.51100000000E-03 0.  1.
</event>
<event>
 8    1  0.1131349E+005  0.1043930E+01  0.7957747E-01            NaN
         13   -1    0    0    0    0  0.00000000000E+00  0.00000000000E+00  0.74505805969E-08  0.10566000000E+00  0.10566000000E+00 0. -1.
     999900   -1    0    0    0    0 -0.00000000000E+00 -0.00000000000E+00 -0.74505805969E-08  0.93827000000E+00  0.93827000000E+00 0. -1.
     999902    2    1    2    0    0  0.19901795472E-01  0.18197911918E-01  0.13939283703E-01  0.10135729729E+01  0.10131182667E+01 0.  0.
     999903    2    3    3    0    0 -0.10315786317E+00  0.63450204203E-01 -0.11299770801E-01  0.12350080767E+00  0.21384375757E-01 0.  0.
         14    1    1    2    0    0 -0.19901795472E-01 -0.18197911918E-01 -0.13939283703E-01  0.30357027050E-01  0.00000000000E+00 0. -1.
     999901    1    3    3    0    0  0.12305965864E+00 -0.45252292286E-01  0.25239054504E-01  0.89007216528E+00  0.88000000000E+00 0. -1.
        -11    1    4    4    0    0 -0.50951278679E-01  0.21949962863E-01  0.19011332216E-02  0.55513143464E-01  0.51100000000E-03 0. -1.
         11    1    4    4    0    0 -0.52206584491E-01  0.41500241340E-01 -0.13200904023E-01  0.67987664201E-01  0.51100000000E-03 0.  1.
</event>
<event>
 8    1  0.1131349E+005  0.1043930E+01  0.7957747E-01            NaN
         13   -1    0    0    0    0  0.00000000000E+00  0.00000000000E+00  0.74505805969E-08  0.10566000000E+00  0.10566000000E+00 0.  1.
     999900   -1    0    0    0    0 -0.00000000000E+00 -0.00000000000E+00 -0.74505805969E-08  0.93827000000E+00  0.93827000000E+00 0. -1.
     999902    2    1    2    0    0 -0.90637991729E-02  0.10654412102E-01 -0.18174254075E-01  0.10209959104E+01  0.10207382998E+01 0.  0.
     999903    2    3    3    0    0  0.16480312473E-01  0.12979650134E+00  0.19289252156E-02  0.13237254991E+00  0.20000968902E-01 0.  0.
         14    1    1    2    0    0  0.90637991729E-02 -0.10654412102E-01  0.18174254075E-01  0.22934089558E-01  0.00000000000E+00 0.  1.
     999901    1    3    3    0    0 -0.25544111646E-01 -0.11914208924E+00 -0.20103179290E-01  0.88862336053E+00  0.88000000000E+00 0.  1.
        -11    1    4    4    0    0  0.12538951334E-01  0.84732785880E-01  0.10599890664E-01  0.86310422931E-01  0.51100000000E-03 0.  1.
         11    1    4    4    0    0  0.39413611398E-02  0.45063715462E-01 -0.86709654481E-02  0.46062126977E-01  0.51100000000E-03 0. -1.
</event>
<event>
 8    1  0.1131349E+005  0.1043930E+01  0.7957747E-01            NaN
         13   -1    0    0    0    0  0.00000000000E+00  0.00000000000E+00  0.74505805969E-08  0.10566000000E+00  0.10566000000E+00 0.  1.
     999900   -1    0    0    0    0 -0.00000000000E+00 -0.00000000000E+00 -0.74505805969E-08  0.93827000000E+00  0.93827000000E+00 0.  1.
     999902    2    1    2    0    0 -0.16490891317E-01 -0.85368138668E-02  0.14672369800E-01  0.10202634598E+01  0.10199889325E+01 0.  0.
     999903    2    3    3    0    0 -0.11539451017E+00  0.34297204958E-01  0.53087960283E-01  0.13285575389E+00  0.18442574909E-01 0.  0.
         14    1    1    2    0    0  0.16490891317E-01  0.85368138668E-02 -0.14672369800E-01  0.23666540156E-01  0.00000000000E+00 0. -1.
     999901    1    3    3    0    0  0.98903618855E-01 -0.42834018824E-01 -0.38415590484E-01  0.88740770595E+00  0.88000000000E+00 0.  1.
        -11    1    4    4    0    0 -0.41932042001E-01  0.88910167538E-02  0.10152998628E-01  0.44053272607E-01  0.51100000000E-03 0.  1.
         11    1    4    4    0    0 -0.73462468171E-01  0.25406188204E-01  0.42934961656E-01  0.88802481284E-01  0.51100000000E-03 0. -1.
</event>
<event>
 8    1  0.1131349E+005  0.1043930E+01  0.7957747E-01            NaN
         13   -1    0    0    0    0  0.00000000000E+00  0.00000000000E+00  0.74505805969E-08  0.10566000000E+00  0.10566000000E+00 0.  1.
     999900   -1    0    0    0    0 -0.00000000000E+00 -0.00000000000E+00 -0.74505805969E-08  0.93827000000E+00  0.93827000000E+00 0.  1.
     999902    2    1    2    0    0 -0.45994722675E-02  0.22014656919E-01  0.92019367162E-02  0.10196302900E+01  0.10193406950E+01 0.  0.
     999903    2    3    3    0    0 -0.54075498186E-01 -0.10346395953E-01 -0.11473955230E+00  0.12898074753E+00  0.20968093827E-01 0.  0.
         14    1    1    2    0    0  0.45994722675E-02 -0.22014656919E-01 -0.92019367162E-02  0.24299709952E-01  0.00000000000E+00 0. -1.
     999901    1    3    3    0    0  0.49476025918E-01  0.32361052872E-01  0.12394148902E+00  0.89064954252E+00  0.88000000000E+00 0. -1.
        -11    1    4    4    0    0 -0.29267506235E-01  0.31201555684E-02 -0.71700670698E-01  0.77508513026E-01  0.51100000000E-03 0. -1.
         11    1    4    4    0    0 -0.24807991951E-01 -0.13466551521E-01 -0.43038881603E-01  0.51472234507E-01  0.51100000000E-03 0.  1.
</event>
<event>
 8    1  0.1131349E+005  0.1043930E+01  0.7957747E-01            NaN
         13   -1    0    0    0    0  0.00000000000E+00  0.00000000000E+00  0.74505805969E-08  0.10566000000E+00  0.10566000000E+00 0. -1.
     999900   -1    0    0    0    0 -0.00000000000E+00 -0.00000000000E+00 -0.74505805969E-08  0.93827000000E+00  0.93827000000E+00 0.  1.
     999902    2    1    2    0    0  0.22602102999E-01  0.78696573878E-02  0.57884322935E-02  0.10193069921E+01  0.10190095445E+01 0.  0.
     999903    2    3    3    0    0  0.11457800354E+00 -0.39753767056E-01 -0.47323839287E-01  0.13164237630E+00  0.19536851909E-01 0.  0.
         14    1    1    2    0    0 -0.22602102999E-01 -0.78696573878E-02 -0.57884322935E-02  0.24623007855E-01  0.00000000000E+00 0.  1.
     999901    1    3    3    0    0 -0.91975900539E-01  0.47623424443E-01  0.53112271580E-01  0.88766461585E+00  0.88000000000E+00 0. -1.
        -11    1    4    4    0    0  0.84404929462E-01 -0.36590027080E-01 -0.30341488775E-01  0.96870476727E-01  0.51100000000E-03 0.  1.
         11    1    4    4    0    0  0.30173074076E-01 -0.31637399752E-02 -0.16982350512E-01  0.34771899570E-01  0.51100000000E-03 0. -1.
</event>
<event>
 8    1  0.1131349E+005  0.1043930E+01  0.7957747E-01            NaN
         13   -1    0    0    0    0  0.00000000000E+00  0.00000000000E+00  0.74505805969E-08  0.10566000000E+00  0.10566000000E+00 0.  1.
     999900   -1    0    0    0    0 -0.00000000000E+00 -0.00000000000E+00 -0.74505805969E-08  0.93827000000E+00  0.93827000000E+00 0.  1.
     999902    2    1    2    0    0 -0.41208306496E-02 -0.73952715385E-02 -0.22309386911E-01  0.10200683146E+01  0.10197891872E+01 0.  0.
     999903    2    3    3    0    0 -0.12275102844E-01  0.12679533060E+00  0.90343936106E-02  0.12930681877E+00  0.20270646238E-01 0.  0.
         14    1    1    2    0    0  0.41208306496E-02  0.73952715385E-02  0.22309386911E-01  0.23861685412E-01  0.00000000000E+00 0.  1.
     999901    1    3    3    0    0  0.81542721940E-02 -0.13419060214E+00 -0.31343780522E-01  0.89076149582E+00  0.88000000000E+00 0. -1.
        -11    1    4    4    0    0 -0.62841234945E-02  0.89359637933E-01  0.15294427369E-01  0.90878026658E-01  0.51100000000E-03 0.  1.
         11    1    4    4    0    0 -0.59909793491E-02  0.37435692671E-01 -0.62600337589E-02  0.38428792109E-01  0.51100000000E-03 0. -1.
</event>
<event>
 7    1  0.1131349E+005  0.1043930E+01  0.7957747E-01            NaN
         13   -1    0    0    0    0  0.00000000000E+00  0.00000000000E+00  0.74505805969E-08  0.10566000000E+00  0.10566000000E+00 0. -1.
     999900   -1    0    0    0    0 -0.00000000000E+00 -0.00000000000E+00 -0.74505805969E-08  0.93827000000E+00  0.93827000000E+00 0. -1.
     999902    2    1    2    0    0  0.98517940283E-02 -0.34844767788E-02  0.21880395228E-01  0.10196822966E+01  0.10193939547E+01 0.  0.
         14    1    1    2    0    0 -0.98517940283E-02  0.34844767788E-02 -0.21880395228E-01  0.24247703383E-01  0.00000000000E+00 0.  1.
     999901    1    3    3    0    0  0.16009229242E-01 -0.12126728624E+00 -0.18651256948E-01  0.88865624373E+00  0.88000000000E+00 0. -1.
        -11    1    3    3    0    0  0.16963322372E-01  0.60107454630E-01  0.20762380350E-01  0.65817915242E-01  0.51100000000E-03 0. -1.
         11    1    3    3    0    0 -0.23120757586E-01  0.57675354828E-01  0.19769271826E-01  0.65208137647E-01  0.51100000000E-03 0.  1.
</event>
<event>
 8    1  0.1131349E+005  0.1043930E+01  0.7957747E-01            NaN
         13   -1    0    0    0    0  0.00000000000E+00  0.00000000000E+00  0.74505805969E-08  0.10566000000E+00  0.10566000000E+00 0. -1.
     999900   -1    0    0    0    0 -0.00000000000E+00 -0.00000000000E+00 -0.74505805969E-08  0.93827000000E+00  0.93827000000E+00 0. -1.
     999902    2    1    2    0    0 -0.21867581165E-01  0.19263550560E-02 -0.92592101877E-02  0.10201049098E+01  0.10198266480E+01 0.  0.
     999903    2    3    3    0    0  0.71962417202E-01 -0.18136319676E-01  0.10047022276E+00  0.12811436727E+00  0.28487012106E-01 0.  0.
         14    1    1    2    0    0  0.21867581165E-01 -0.19263550560E-02  0.92592101877E-02  0.23825090202E-01  0.00000000000E+00 0.  1.
     999901    1    3    3    0    0 -0.93829998368E-01  0.20062674732E-01 -0.10972943294E+00  0.89199054253E+00  0.88000000000E+00 0.  1.
        -11    1    4    4    0    0  0.86280401275E-02  0.19550925462E-02  0.16219414218E-02  0.90087334449E-02  0.51100000000E-03 0. -1.
         11    1    4    4    0    0  0.63334377075E-01 -0.20091412222E-01  0.98848281334E-01  0.11910563382E+00  0.51100000000E-03 0.  1.
</event>
<event>
 8    1  0.1131349E+005  0.1043930E+01  0.7957747E-01            NaN
         13   -1    0    0    0    0  0.00000000000E+00  0.00000000000E+00  0.74505805969E-08  0.10566000000E+00  0.10566000000E+00 0.  1.
     999900   -1    0    0    0    0 -0.00000000000E+00 -0.00000000000E+00 -0.74505805969E-08  0.93827000000E+00  0.93827000000E+00 0.  1.
     999902    2    1    2    0    0  0.60554621449E-02 -0.23146472180E-01 -0.61607382303E-02  0.10192240798E+01  0.10189246009E+01 0.  0.
     999903    2    3    3    0    0 -0.56973939696E-01  0.98013529660E-01  0.53361409018E-01  0.12670218230E+00  0.18796840885E-01 0.  0.
         14    1    1    2    0    0 -0.60554621449E-02  0.23146472180E-01  0.61607382303E-02  0.24705920175E-01  0.00000000000E+00 0.  1.
     999901    1    3    3    0    0  0.63029401841E-01 -0.12116000184E+00 -0.59522147248E-01  0.89252189752E+00  0.88000000000E+00 0.  1.
        -11    1    4    4    0    0 -0.31728999078E-02  0.16223445839E-01  0.37906637333E-02  0.16967549654E-01  0.51100000000E-03 0.  1.
         11    1    4    4    0    0 -0.53801039788E-01  0.81790083821E-01  0.49570745284E-01  0.10973463265E+00  0.51100000000E-03 0. -1.
</event>
<event>
 8    1  0.1131349E+005  0.1043930E+01  0.7957747E-01            NaN
         13   -1    0    0    0    0  0.00000000000E+00  0.00000000000E+00  0.74505805969E-08  0.10566000000E+00  0.10566000000E+00 0. -1.
     999900   -1    0    0    0    0 -0.00000000000E+00 -0.00000000000E+00 -0.74505805969E-08  0.93827000000E+00  0.93827000000E+00 0. -1.
     999902    2    1    2    0    0 -0.21934217794E-01  0.48347584117E-02 -0.66503042045E-02  0.10205054115E+01  0.10202365332E+01 0.  0.
     999903    2    3    3    0    0  0.28895175776E-01  0.67069012866E-02  0.12424923102E+00  0.12937028121E+00  0.20466669088E-01 0.  0.
         14    1    1    2    0    0  0.21934217794E-01 -0.48347584117E-02  0.66503042045E-02  0.23424588473E-01  0.00000000000E+00 0. -1.
     999901    1    3    3    0    0 -0.50829393571E-01 -0.18721428748E-02 -0.13089953522E+00  0.89113513032E+00  0.88000000000E+00 0. -1.
        -11    1    4    4    0    0  0.14065281714E-01  0.99954943825E-02  0.37278580368E-01  0.41081574129E-01  0.51100000000E-03 0.  1.
         11    1    4    4    0    0  0.14829894062E-01 -0.32885930960E-02  0.86970650648E-01  0.88288707078E-01  0.51100000000E-03 0. -1.
</event>
<event>
 8    1  0.1131349E+005  0.1043930E+01  0.7957747E-01            NaN
         13   -1    0    0    0    0  0.00000000000E+00  0.00000000000E+00  0.74505805969E-08  0.10566000000E+00  0.10566000000E+00 0. -1.
     999900   -1    0    0    0    0 -0.00000000000E+00 -0.00000000000E+00 -0.74505805969E-08  0.93827000000E+00  0.93827000000E+00 0.  1.
     999902    2    1    2    0    0 -0.12549070256E-01 -0.59819374730E-03  0.20125999105E-01  0.10202046372E+01  0.10199287274E+01 0.  0.
     999903    2    3    3    0    0 -0.67389495040E-01  0.10948187488E+00  0.19893749996E-01  0.13165236094E+00  0.20222707114E-01 0.  0.
         14    1    1    2    0    0  0.12549070256E-01  0.59819374730E-03 -0.20125999105E-01  0.23725362801E-01  0.00000000000E+00 0.  1.
     999901    1    3    3    0    0  0.54840424784E-01 -0.11008006863E+00  0.23224910950E-03  0.88855227626E+00  0.88000000000E+00 0. -1.
        -11    1    4    4    0    0 -0.18579726744E-01  0.42446655757E-01 -0.16023787179E-03  0.46338014934E-01  0.51100000000E-03 0. -1.
         11    1    4    4    0    0 -0.48809768296E-01  0.67035219127E-01  0.20053987867E-01  0.85314346009E-01  0.51100000000E-03 0.  1.
</event>
<event>
 8    1  0.1131349E+005  0.1043930E+01  0.7957747E-01            NaN
         13   -1    0    0    0    0  0.00000000000E+00  0.00000000000E+00  0.74505805969E-08  0.10566000000E+00  0.10566000000E+00 0.  1.
     999900   -1    0    0    0    0 -0.00000000000E+00 -0.00000000000E+00 -0.74505805969E-08  0.93827000000E+00  0.93827000000E+00 0. -1.
     999902    2    1    2    0    0 -0.50689231152E-03 -0.19459615919E-01  0.12615193823E-01  0.10207335195E+01  0.10204699119E+01 0.  0.
     999903    2    3    3    0    0  0.88224984386E-01  0.66304861527E-01  0.66766502737E-01  0.13047442477E+00  0.19642481971E-01 0.  0.
         14    1    1    2    0    0  0.50689231152E-03  0.19459615919E-01 -0.12615193823E-01  0.23196480482E-01  0.00000000000E+00 0. -1.
     999901    1    3    3    0    0 -0.88731876698E-01 -0.85764477446E-01 -0.54151308914E-01  0.89025909475E+00  0.88000000000E+00 0. -1.
        -11    1    4    4    0    0  0.70595546515E-01  0.53193090701E-01  0.43669752070E-01  0.98592821508E-01  0.51100000000E-03 0. -1.
         11    1    4    4    0    0  0.17629437871E-01  0.13111770826E-01  0.23096750668E-01  0.31881603257E-01  0.51100000000E-03 0.  1.
</event>
<event>
 8    1  0.1131349E+005  0.1043930E+01  0.7957747E-01            NaN
         13   -1    0    0    0    0  0.00000000000E+00  0.00000000000E+00  0.74505805969E-08  0.10566000000E+00  0.10566000000E+00 0. -1.
     999900   -1    0    0    0    0 -0.00000000000E+00 -0.00000000000E+00 -0.74505805969E-08  0.93827000000E+00  0.93827000000E+00 0. -1.
     999902    2    1    2    0    0 -0.17900042357E-01 -0.36500991998E-02  0.25690560628E-01  0.10124063637E+01  0.10119154637E+01 0.  0.
     999903    2    3    3    0    0  0.11126339265E+00 -0.42263095096E-01 -0.12607781776E-01  0.12131662667E+00  0.19825639851E-01 0.  0.
         14    1    1    2    0    0  0.17900042357E-01  0.36500991998E-02 -0.25690560628E-01  0.31523636306E-01  0.00000000000E+00 0.  1.
     999901    1    3    3    0    0 -0.12916343500E+00  0.38612995896E-01  0.38298342404E-01  0.89108973702E+00  0.88000000000E+00 0.  1.
        -11    1    4    4    0    0  0.40439844314E-01 -0.23595147328E-01  0.92856299865E-03  0.46831990517E-01  0.51100000000E-03 0.  1.
         11    1    4    4    0    0  0.70823548333E-01 -0.18667947768E-01 -0.13536344775E-01  0.74484636156E-01  0.51100000000E-03 0. -1.
</event>
<event>
 8    1  0.1131349E+005  0.1043930E+01  0.7957747E-01            NaN
         13   -1    0    0    0    0  0.00000000000E+00  0.00000000000E+00  0.74505805969E-08  0.10566000000E+00  0.10566000000E+00 0. -1.
     999900   -1    0    0    0    0 -0.00000000000E+00 -0.00000000000E+00 -0.74505805969E-08  0.93827000000E+00  0.93827000000E+00 0.  1.
     999902    2    1    2    0    0 -0.59542806590E-02 -0.19912902341E-01 -0.12186956965E-01  0.10198364519E+01  0.10195518082E+01 0.  0.
     999903    2    3    3    0    0 -0.12724294856E+00 -0.24307955989E-01  0.89529327983E-02  0.13125491241E+00  0.19132494491E-01 0.  0.
         14    1    1    2    0    0  0.59542806590E-02  0.19912902341E-01  0.12186956965E-01  0.24093548054E-01  0.00000000000E+00 0. -1.
     999901    1    3    3    0    0  0.12128866790E+00  0.43950536487E-02 -0.21139889763E-01  0.88858153953E+00  0.88000000000E+00 0. -1.
        -11    1    4    4    0    0 -0.63328158940E-01 -0.55767107609E-02 -0.27263453486E-02  0.63633713530E-01  0.51100000000E-03 0. -1.
         11    1    4    4    0    0 -0.63914789616E-01 -0.18731245228E-01  0.11679278147E-01  0.67621198884E-01  0.51100000000E-03 0.  1.
</event>
<event>
 8    1  0.1131349E+005  0.1043930E+01  0.7957747E-01            NaN
         13   -1    0    0    0    0  0.00000000000E+00  0.00000000000E+00  0.74505805969E-08  0.10566000000E+00  0.10566000000E+00 0. -1.
     999900   -1    0    0    0    0 -0.00000000000E+00 -0.00000000000E+00 -0.74505805969E-08  0.93827000000E+00  0.93827000000E+00 0. -1.
     999902    2    1    2    0    0 -0.77836066383E-02  0.10313357185E-01 -0.17340234827E-01  0.10223051621E+01  0.10220764213E+01 0.  0.
     999903    2    3    3    0    0 -0.13060859424E+00 -0.59619915082E-03 -0.21004277996E-01  0.13370040117E+00  0.19381879083E-01 0.  0.
         14    1    1    2    0    0  0.77836066383E-02 -0.10313357185E-01  0.17340234827E-01  0.21624837863E-01  0.00000000000E+00 0.  1.
     999901    1    3    3    0    0  0.12282498760E+00  0.10909556335E-01  0.36640431685E-02  0.88860476097E+00  0.88000000000E+00 0.  1.
        -11    1    4    4    0    0 -0.10333961570E+00  0.51558424531E-02 -0.10858549966E-01  0.10403762835E+00  0.51100000000E-03 0. -1.
         11    1    4    4    0    0 -0.27268978537E-01 -0.57520416039E-02 -0.10145728029E-01  0.29662772819E-01  0.51100000000E-03 0.  1.
</event>
<event>
 8    1  0.1131349E+005  0.1043930E+01  0.7957747E-01            NaN
         13   -1    0    0    0    0  0.00000000000E+00  0.00000000000E+00  0.74505805969E-08  0.10566000000E+00  0.10566000000E+00 0. -1.
     999900   -1    0    0    0    0 -0.00000000000E+00 -0.00000000000E+00 -0.74505805969E-08  0.93827000000E+00  0.93827000000E+00 0.  1.
     999902    2    1    2    0    0 -0.23938197857E-01 -0.10011604553E-02 -0.22198881546E-03  0.10199698473E+01  0.10196883840E+01 0.  0.
     999903    2    3    3    0    0 -0.92441005189E-01 -0.76224443399E-01 -0.49351887072E-01  0.13274669395E+00  0.28819625025E-01 0.  0.
         14    1    1    2    0    0  0.23938197857E-01  0.10011604553E-02  0.22198881546E-03  0.23960152711E-01  0.00000000000E+00 0.  1.
     999901    1    3    3    0    0  0.68502807332E-01  0.75223282943E-01  0.49129898256E-01  0.88722315333E+00  0.88000000000E+00 0. -1.
        -11    1    4    4    0    0 -0.95250934800E-02 -0.22093859442E-01 -0.12233428860E-01  0.26995998472E-01  0.51100000000E-03 0.  1.
         11    1    4    4    0    0 -0.82915911709E-01 -0.54130583957E-01 -0.37118458212E-01  0.10575069548E+00  0.51100000000E-03 0. -1.
</event>
<event>
 8    1  0.1131349E+005  0.1043930E+01  0.7957747E-01            NaN
         13   -1    0    0    0    0  0.00000000000E+00  0.00000000000E+00  0.74505805969E-08  0.10566000000E+00  0.10566000000E+00 0. -1.
     999900   -1    0    0    0    0 -0.00000000000E+00 -0.00000000000E+00 -0.74505805969E-08  0.93827000000E+00  0.93827000000E+00 0.  1.
     999902    2    1    2    0    0 -0.12621825840E-01  0.11933615188E-01  0.15656116777E-01  0.10205454827E+01  0.10202775341E+01 0.  0.
     999903    2    3    3    0    0  0.12561802279E+00 -0.19722762284E-01 -0.60537595201E-02  0.12892689788E+00  0.20411320139E-01 0.  0.
         14    1    1    2    0    0  0.12621825840E-01 -0.11933615188E-01 -0.15656116777E-01  0.23384517346E-01  0.00000000000E+00 0.  1.
     999901    1    3    3    0    0 -0.13823984863E+00  0.31656377472E-01  0.21709876297E-01  0.89161858477E+00  0.88000000000E+00 0.  1.
        -11    1    4    4    0    0  0.10225466008E+00 -0.15295369423E-01  0.31040660084E-02  0.10344012849E+00  0.51100000000E-03 0. -1.
         11    1    4    4    0    0  0.23363362711E-01 -0.44273928612E-02 -0.91578255286E-02  0.25486769394E-01  0.51100000000E-03 0.  1.
</event>
<event>
 8    1  0.1131349E+005  0.1043930E+01  0.7957747E-01            NaN
         13   -1    0    0    0    0  0.00000000000E+00  0.00000000000E+00  0.74505805969E-08  0.10566000000E+00  0.10566000000E+00 0.  1.
     999900   -1    0    0    0    0 -0.00000000000E+00 -0.00000000000E+00 -0.74505805969E-08  0.93827000000E+00  0.93827000000E+00 0.  1.
     999902    2    1    2    0    0  0.69243635991E-02 -0.22658593395E-01 -0.19259862330E-02  0.10201588391E+01  0.10198818505E+01 0.  0.
     999903    2    3    3    0    0  0.78682332109E-01 -0.31229903711E-01  0.98562771117E-01  0.13149655021E+00  0.20260962333E-01 0.  0.
         14    1    1    2    0    0 -0.69243635991E-02  0.22658593395E-01  0.19259862330E-02  0.23771160865E-01  0.00000000000E+00 0.  1.
     999901    1    3    3    0    0 -0.71757968510E-01  0.85713103158E-02 -0.10048875735E+00  0.88866228893E+00  0.88000000000E+00 0. -1.
        -11    1    4    4    0    0  0.82952273868E-03 -0.13673707554E-02  0.88827619370E-02  0.90400437713E-02  0.51100000000E-03 0. -1.
         11    1    4    4    0    0  0.77852809371E-01 -0.29862532956E-01  0.89680009180E-01  0.12245650644E+00  0.51100000000E-03 0.  1.
</event>
<event>
 7    1  0.1148240E+005  0.1043930E+01  0.7957747E-01            NaN
         13   -1    0    0    0    0  0.00000000000E+00  0.00000000000E+00  0.74505805969E-08  0.10566000000E+00  0.10566000000E+00 0. -1.
     999900   -1    0    0    0    0 -0.00000000000E+00 -0.00000000000E+00 -0.74505805969E-08  0.93827000000E+00  0.93827000000E+00 0.  1.
     999903    2    1    2    0    0 -0.44650990669E-01  0.13829770110E-01  0.10859497788E+00  0.11987689292E+00  0.19814810791E-01 0.  0.
         14    1    1    2    0    0  0.37135089392E-02 -0.19901099326E-01 -0.34460056172E-01  0.39966728343E-01  0.00000000000E+00 0.  1.
     999901    1    1    2    0    0  0.40937481729E-01  0.60713292159E-02 -0.74134921708E-01  0.88408637874E+00  0.88000000000E+00 0.  1.
        -11    1    3    3    0    0 -0.19643084307E-01  0.52812910387E-03  0.64815390923E-01  0.67730537447E-01  0.51100000000E-03 0. -1.
         11    1    3    3    0    0 -0.25007906362E-01  0.13301641006E-01  0.43779586958E-01  0.52146355475E-01  0.51100000000E-03 0.  1.
</event>
<event>
 8    1  0.1131349E+005  0.1043930E+01  0.7957747E-01            NaN
         13   -1    0    0    0    0  0.00000000000E+00  0.00000000000E+00  0.74505805969E-08  0.10566000000E+00  0.10566000000E+00 0. -1.
     999900   -1    0    0    0    0 -0.00000000000E+00 -0.00000000000E+00 -0.74505805969E-08  0.93827000000E+00  0.93827000000E+00 0.  1.
     999902    2    1    2    0    0 -0.20656551227E-01 -0.26162078440E-02  0.15495378133E-01  0.10179753396E+01  0.10176444112E+01 0.  0.
     999903    2    3    3    0    0  0.32989940645E-01  0.12127041524E+00  0.93503024905E-02  0.12765876478E+00  0.20358837695E-01 0.  0.
         14    1    1    2    0    0  0.20656551227E-01  0.26162078440E-02 -0.15495378133E-01  0.25954660382E-01  0.00000000000E+00 0. -1.
     999901    1    3    3    0    0 -0.53646491872E-01 -0.12388662309E+00  0.61450756427E-02  0.89031657483E+00  0.88000000000E+00 0.  1.
        -11    1    4    4    0    0  0.10471544980E-01  0.51630458500E-01 -0.55165739992E-02  0.52972173911E-01  0.51100000000E-03 0.  1.
         11    1    4    4    0    0  0.22518395665E-01  0.69639956744E-01  0.14866876490E-01  0.74686590873E-01  0.51100000000E-03 0. -1.
</event>
<event>
 8    1  0.1131349E+005  0.1043930E+01  0.7957747E-01            NaN
         13   -1    0    0    0    0  0.00000000000E+00  0.00000000000E+00  0.74505805969E-08  0.10566000000E+00  0.10566000000E+00 0.  1.
     999900   -1    0    0    0    0 -0.00000000000E+00 -0.00000000000E+00 -0.74505805969E-08  0.93827000000E+00  0.93827000000E+00 0.  1.
     999902    2    1    2    0    0  0.17916962369E-01  0.12799250857E-02  0.18314263483E-01  0.10182771640E+01  0.10179539846E+01 0.  0.
     999903    2    3    3    0    0 -0.11324269152E+00 -0.25558371531E-01  0.49113908280E-01  0.12761911114E+00  0.19932987848E-01 0.  0.
         14    1    1    2    0    0 -0.17916962369E-01 -0.12799250857E-02 -0.18314263483E-01  0.25652836016E-01  0.00000000000E+00 0. -1.
     999901    1    3    3    0    0  0.13115965389E+00  0.26838296617E-01 -0.30799644796E-01  0.89065805284E+00  0.88000000000E+00 0. -1.
        -11    1    4    4    0    0 -0.32420177755E-01 -0.14878423280E-01  0.91781867052E-02  0.36836607297E-01  0.51100000000E-03 0.  1.
         11    1    4    4    0    0 -0.80822513763E-01 -0.10679948251E-01  0.39935721574E-01  0.90782503844E-01  0.51100000000E-03 0. -1.
</event>
<event>
 8    1  0.1131349E+005  0.1043930E+01  0.7957747E-01            NaN
         13   -1    0    0    0    0  0.00000000000E+00  0.00000000000E+00  0.74505805969E-08  0.10566000000E+00  0.10566000000E+00 0.  1.
     999900   -1    0    0    0    0 -0.00000000000E+00 -0.00000000000E+00 -0.74505805969E-08  0.93827000000E+00  0.93827000000E+00 0.  1.
     999902    2    1    2    0    0  0.40568633206E-02  0.22542792289E-01 -0.64827465399E-02  0.10201253444E+01  0.10198475654E+01 0.  0.
     999903    2    3    3    0    0 -0.16895434363E-02 -0.57236234518E-01 -0.11459927147E+00  0.12990801295E+00  0.21546640311E-01 0.  0.
         14    1    1    2    0    0 -0.40568633206E-02 -0.22542792289E-01  0.64827465399E-02  0.23804655571E-01  0.00000000000E+00 0.  1.
     999901    1    3    3    0    0  0.57464067569E-02  0.79779026806E-01  0.10811652493E+00  0.89021733148E+00  0.88000000000E+00 0. -1.
        -11    1    4    4    0    0 -0.48917786083E-02 -0.14545971470E-01 -0.14859640974E-01  0.21367845817E-01  0.51100000000E-03 0.  1.
         11    1    4    4    0    0  0.32022351719E-02 -0.42690263047E-01 -0.99739630491E-01  0.10854016713E+00  0.51100000000E-03 0. -1.
</event>
<event>
 8    1  0.1131349E+005  0.1043930E+01  0.7957747E-01            NaN
         13   -1    0    0    0    0  0.00000000000E+00  0.00000000000E+00  0.74505805969E-08  0.10566000000E+00  0.10566000000E+00 0. -1.
     999900   -1    0    0    0    0 -0.00000000000E+00 -0.00000000000E+00 -0.74505805969E-08  0.93827000000E+00  0.93827000000E+00 0. -1.
     999902    2    1    2    0    0 -0.16964229252E-01  0.17339004191E-01  0.15552307456E-02  0.10196226990E+01  0.10193329208E+01 0.  0.
     999903    2    3    3    0    0 -0.11812945174E+00  0.46762669637E-01 -0.33031989387E-01  0.13266360740E+00  0.19162613761E-01 0.  0.
         14    1    1    2    0    0  0.16964229252E-01 -0.17339004191E-01 -0.15552307456E-02  0.24307301025E-01  0.00000000000E+00 0.  1.
     999901    1    3    3    0    0  0.10116522249E+00 -0.29423665445E-01  0.34587220132E-01  0.88695909157E+00  0.88000000000E+00 0.  1.
        -11    1    4    4    0    0 -0.46387648121E-01  0.11452290042E-01 -0.55209869141E-02  0.48101052618E-01  0.51100000000E-03 0. -1.
         11    1    4    4    0    0 -0.71741803617E-01  0.35310379595E-01 -0.27511002473E-01  0.84562554783E-01  0.51100000000E-03 0.  1.
</event>
<event>
 8    1  0.1131349E+005  0.1043930E+01  0.7957747E-01            NaN
         13   -1    0    0    0    0  0.00000000000E+00  0.00000000000E+00  0.74505805969E-08  0.10566000000E+00  0.10566000000E+00 0. -1.
     999900   -1    0    0    0    0 -0.00000000000E+00 -0.00000000000E+00 -0.74505805969E-08  0.93827000000E+00  0.93827000000E+00 0. -1.
     999902    2    1    2    0    0  0.18957507636E-02  0.30246565373E-02 -0.20085060464E-01  0.10235301943E+01  0.10233268816E+01 0.  0.
     999903    2    3    3    0    0 -0.11093237654E+00  0.71187593444E-01  0.36997779729E-03  0.13347694823E+00  0.21030767944E-01 0.  0.
         14    1    1    2    0    0 -0.18957507636E-02 -0.30246565373E-02  0.20085060464E-01  0.20399805685E-01  0.00000000000E+00 0. -1.
     999901    1    3    3    0    0  0.11282812730E+00 -0.68162936906E-01 -0.20455038261E-01  0.89005324609E+00  0.88000000000E+00 0. -1.
        -11    1    4    4    0    0 -0.24682364974E-01  0.20071443316E-01  0.83635416373E-02  0.32898205532E-01  0.51100000000E-03 0.  1.
         11    1    4    4    0    0 -0.86250011564E-01  0.51116150127E-01 -0.79935638400E-02  0.10057874270E+00  0.51100000000E-03 0. -1.
</event>
<event>
 8    1  0.1131349E+005  0.1043930E+01  0.7957747E-01            NaN
         13   -1    0    0    0    0  0.00000000000E+00  0.00000000000E+00  0.74505805969E-08  0.10566000000E+00  0.10566000000E+00 0. -1.
     999900   -1    0    0    0    0 -0.00000000000E+00 -0.00000000000E+00 -0.74505805969E-08  0.93827000000E+00  0.93827000000E+00 0.  1.
     999902    2    1    2    0    0  0.10944443243E-01 -0.10515068311E-01  0.17461516109E-01  0.10207944852E+01  0.10205322773E+01 0.  0.
     999903    2    3    3    0    0 -0.51634909451E-01  0.13764327584E-01  0.11803553161E+00  0.13252605898E+00  0.27841497771E-01 0.  0.
         14    1    1    2    0    0 -0.10944443243E-01  0.10515068311E-01 -0.17461516109E-01  0.23135514783E-01  0.00000000000E+00 0.  1.
     999901    1    3    3    0    0  0.62579352694E-01 -0.24279395895E-01 -0.10057401551E+00  0.88826842623E+00  0.88000000000E+00 0.  1.
        -11    1    4    4    0    0 -0.46301337284E-01  0.91011398801E-02  0.72938528939E-01  0.86873095410E-01  0.51100000000E-03 0.  1.
         11    1    4    4    0    0 -0.53335721673E-02  0.46631877041E-02  0.45097002676E-01  0.45652963572E-01  0.51100000000E-03 0. -1.
</event>
<event>
 8    1  0.1131349E+005  0.1043930E+01  0.7957747E-01            NaN
         13   -1    0    0    0    0  0.00000000000E+00  0.00000000000E+00  0.74505805969E-08  0.10566000000E+00  0.10566000000E+00 0.  1.
     999900   -1    0    0    0    0 -0.00000000000E+00 -0.00000000000E+00 -0.74505805969E-08  0.93827000000E+00  0.93827000000E+00 0. -1.
     999902    2    1    2    0    0 -0.12786052884E-01 -0.20035088064E-01  0.18635650732E-02  0.10200896817E+01  0.10198110599E+01 0.  0.
     999903    2    3    3    0    0 -0.74310646929E-01 -0.10525557991E+00  0.25419438721E-01  0.13352175588E+00  0.24106058985E-01 0.  0.
         14    1    1    2    0    0  0.12786052884E-01  0.20035088064E-01 -0.18635650732E-02  0.23840318305E-01  0.00000000000E+00 0.  1.
     999901    1    3    3    0    0  0.61524594044E-01  0.85220491842E-01 -0.23555873648E-01  0.88656792582E+00  0.88000000000E+00 0. -1.
        -11    1    4    4    0    0 -0.16380180834E-01 -0.25989284256E-01 -0.41063638077E-02  0.30998009049E-01  0.51100000000E-03 0.  1.
         11    1    4    4    0    0 -0.57930466095E-01 -0.79266295650E-01  0.29525802529E-01  0.10252374683E+00  0.51100000000E-03 0. -1.
</event>
<event>
 7    1  0.1131349E+005  0.1043930E+01  0.7957747E-01            NaN
         13   -1    0    0    0    0  0.00000000000E+00  0.00000000000E+00  0.74505805969E-08  0.10566000000E+00  0.10566000000E+00 0.  1.
     999900   -1    0    0    0    0 -0.00000000000E+00 -0.00000000000E+00 -0.74505805969E-08  0.93827000000E+00  0.93827000000E+00 0.  1.
     999902    2    1    2    0    0  0.12681709967E-01 -0.14007918501E-01 -0.15701171044E-01  0.10193622504E+01  0.10190661525E+01 0.  0.
         14    1    1    2    0    0 -0.12681709967E-01  0.14007918501E-01  0.15701171044E-01  0.24567749603E-01  0.00000000000E+00 0.  1.
     999901    1    3    3    0    0 -0.31278895885E-01 -0.87322526355E-01 -0.10407815928E+00  0.89097466640E+00  0.88000000000E+00 0.  1.
        -11    1    3    3    0    0  0.18241646644E-01  0.62345276393E-01  0.57827202417E-01  0.86970901002E-01  0.51100000000E-03 0.  1.
         11    1    3    3    0    0  0.25718959209E-01  0.10969331461E-01  0.30549785815E-01  0.41416682990E-01  0.51100000000E-03 0. -1.
</event>
<event>
 8    1  0.1131349E+005  0.1043930E+01  0.7957747E-01            NaN
         13   -1    0    0    0    0  0.00000000000E+00  0.00000000000E+00  0.74505805969E-08  0.10566000000E+00  0.10566000000E+00 0.  1.
     999900   -1    0    0    0    0 -0.00000000000E+00 -0.00000000000E+00 -0.74505805969E-08  0.93827000000E+00  0.93827000000E+00 0.  1.
     999902    2    1    2    0    0  0.14282888284E-01 -0.22461036376E-01  0.88314573976E-03  0.10172977076E+01  0.10169490385E+01 0.  0.
     999903    2    3    3    0    0 -0.88064154395E-01  0.85765480963E-01  0.69394365541E-02  0.12475943118E+00  0.20143159468E-01 0.  0.
         14    1    1    2    0    0 -0.14282888284E-01  0.22461036376E-01 -0.88314573976E-03  0.26632292414E-01  0.00000000000E+00 0. -1.
     999901    1    3    3    0    0  0.10234704268E+00 -0.10822651734E+00 -0.60562908143E-02  0.89253827641E+00  0.88000000000E+00 0.  1.
        -11    1    4    4    0    0 -0.69839770858E-01  0.60528066517E-01  0.12072071852E-01  0.93205345714E-01  0.51100000000E-03 0. -1.
         11    1    4    4    0    0 -0.18224383537E-01  0.25237414446E-01 -0.51326352980E-02  0.31554085462E-01  0.51100000000E-03 0.  1.
</event>
<event>
 8    1  0.1131349E+005  0.1043930E+01  0.7957747E-01            NaN
         13   -1    0    0    0    0  0.00000000000E+00  0.00000000000E+00  0.74505805969E-08  0.10566000000E+00  0.10566000000E+00 0.  1.
     999900   -1    0    0    0    0 -0.00000000000E+00 -0.00000000000E+00 -0.74505805969E-08  0.93827000000E+00  0.93827000000E+00 0.  1.
     999902    2    1    2    0    0  0.10691505235E-01 -0.23740695320E-02  0.21817416330E-01  0.10195180327E+01  0.10192257232E+01 0.  0.
     999903    2    3    3    0    0 -0.94600743921E-01  0.59121504658E-01 -0.58238859010E-01  0.12751065014E+00  0.20555975731E-01 0.  0.
         14    1    1    2    0    0 -0.10691505235E-01  0.23740695320E-02 -0.21817416330E-01  0.24411967263E-01  0.00000000000E+00 0. -1.
     999901    1    3    3    0    0  0.10529224916E+00 -0.61495574190E-01  0.80056275339E-01  0.89200738259E+00  0.88000000000E+00 0. -1.
        -11    1    4    4    0    0 -0.72907333464E-01  0.53078443897E-01 -0.40600425781E-01  0.98901244552E-01  0.51100000000E-03 0.  1.
         11    1    4    4    0    0 -0.21693410457E-01  0.60430607607E-02 -0.17638433229E-01  0.28609405593E-01  0.51100000000E-03 0. -1.
</event>
<event>
 8    1  0.1131349E+005  0.1043930E+01  0.7957747E-01            NaN
         13   -1    0    0    0    0  0.00000000000E+00  0.00000000000E+00  0.74505805969E-08  0.10566000000E+00  0.10566000000E+00 0. -1.
     999900   -1    0    0    0    0 -0.00000000000E+00 -0.00000000000E+00 -0.74505805969E-08  0.93827000000E+00  0.93827000000E+00 0. -1.
     999902    2    1    2    0    0 -0.16572318864E-01 -0.14480934916E-01  0.70051946131E-02  0.10208342865E+01  0.10205729903E+01 0.  0.
     999903    2    3    3    0    0  0.64386106763E-01 -0.10406300910E+00  0.44718313994E-01  0.13178901544E+00  0.19847830513E-01 0.  0.
         14    1    1    2    0    0  0.16572318864E-01  0.14480934916E-01 -0.70051946131E-02  0.23095713458E-01  0.00000000000E+00 0. -1.
     999901    1    3    3    0    0 -0.80958425628E-01  0.89582074188E-01 -0.37713119381E-01  0.88904527110E+00  0.88000000000E+00 0.  1.
        -11    1    4    4    0    0  0.74922376879E-02 -0.17876277038E-01  0.36124946323E-03  0.19392950484E-01  0.51100000000E-03 0. -1.
         11    1    4    4    0    0  0.56893869075E-01 -0.86186732066E-01  0.44357064531E-01  0.11239606496E+00  0.51100000000E-03 0.  1.
</event>
<event>
 8    1  0.1131349E+005  0.1043930E+01  0.7957747E-01            NaN
         13   -1    0    0    0    0  0.00000000000E+00  0.00000000000E+00  0.74505805969E-08  0.10566000000E+00  0.10566000000E+00 0.  1.
     999900   -1    0    0    0    0 -0.00000000000E+00 -0.00000000000E+00 -0.74505805969E-08  0.93827000000E+00  0.93827000000E+00 0. -1.
     999902    2    1    2    0    0  0.18659817383E-01  0.14278346145E-01  0.16144784666E-02  0.10203786414E+01  0.10201068107E+01 0.  0.
     999903    2    3    3    0    0  0.35079447464E-01  0.11757360089E+00 -0.46788486306E-01  0.13286393111E+00  0.20237155878E-01 0.  0.
         14    1    1    2    0    0 -0.18659817383E-01 -0.14278346145E-01 -0.16144784666E-02  0.23551358647E-01  0.00000000000E+00 0. -1.
     999901    1    3    3    0    0 -0.16419630081E-01 -0.10329525474E+00  0.48402964773E-01  0.88751471025E+00  0.88000000000E+00 0.  1.
        -11    1    4    4    0    0  0.10582342078E-01  0.67311235725E-01 -0.21126726850E-01  0.71339947624E-01  0.51100000000E-03 0.  1.
         11    1    4    4    0    0  0.24497105386E-01  0.50262365164E-01 -0.25661759457E-01  0.61523983482E-01  0.51100000000E-03 0. -1.
</event>
<event>
 8    1  0.1131349E+005  0.1043930E+01  0.7957747E-01            NaN
         13   -1    0    0    0    0  0.00000000000E+00  0.00000000000E+00  0.74505805969E-08  0.10566000000E+00  0.10566000000E+00 0. -1.
     999900   -1    0    0    0    0 -0.00000000000E+00 -0.00000000000E+00 -0.74505805969E-08  0.93827000000E+00  0.93827000000E+00 0.  1.
     999902    2    1    2    0    0 -0.63970802963E-02  0.21471265293E-01  0.11370460802E-01  0.10188058035E+01  0.10184959696E+01 0.  0.
     999903    2    3    3    0    0 -0.24504881475E-01 -0.77735079410E-01 -0.95111330202E-01  0.12666895130E+00  0.18858056697E-01 0.  0.
         14    1    1    2    0    0  0.63970802963E-02 -0.21471265293E-01 -0.11370460802E-01  0.25124196474E-01  0.00000000000E+00 0.  1.
     999901    1    3    3    0    0  0.18107801178E-01  0.99206344704E-01  0.10648179100E+00  0.89213685223E+00  0.88000000000E+00 0. -1.
        -11    1    4    4    0    0 -0.22350842084E-01 -0.75766089159E-01 -0.84597565353E-01  0.11574571091E+00  0.51100000000E-03 0. -1.
         11    1    4    4    0    0 -0.21540393909E-02 -0.19689902508E-02 -0.10513764850E-01  0.10923240390E-01  0.51100000000E-03 0.  1.
</event>
<event>
 8    1  0.1131349E+005  0.1043930E+01  0.7957747E-01            NaN
         13   -1    0    0    0    0  0.00000000000E+00  0.00000000000E+00  0.74505805969E-08  0.10566000000E+00  0.10566000000E+00 0.  1.
     999900   -1    0    0    0    0 -0.00000000000E+00 -0.00000000000E+00 -0.74505805969E-08  0.93827000000E+00  0.93827000000E+00 0.  1.
     999902    2    1    2    0    0 -0.14241168988E-02  0.23202574789E-01 -0.42966755636E-02  0.10202900125E+01  0.10200161081E+01 0.  0.
     999903    2    3    3    0    0  0.36313036078E-01 -0.11886670920E-01  0.12186077707E+00  0.12980079266E+00  0.23200587348E-01 0.  0.
         14    1    1    2    0    0  0.14241168988E-02 -0.23202574789E-01  0.42966755636E-02  0.23639987451E-01  0.00000000000E+00 0.  1.
     999901    1    3    3    0    0 -0.37737152977E-01  0.35089245709E-01 -0.12615745263E+00  0.89048921989E+00  0.88000000000E+00 0.  1.
        -11    1    4    4    0    0  0.36559390832E-01 -0.62637571610E-02  0.11540679672E+00  0.12122216613E+00  0.51100000000E-03 0.  1.
         11    1    4    4    0    0 -0.24635475392E-03 -0.56229137590E-02  0.64539803519E-02  0.85786265328E-02  0.51100000000E-03 0. -1.
</event>
<event>
 8    1  0.1131349E+005  0.1043930E+01  0.7957747E-01            NaN
         13   -1    0    0    0    0  0.00000000000E+00  0.00000000000E+00  0.74505805969E-08  0.10566000000E+00  0.10566000000E+00 0. -1.
     999900   -1    0    0    0    0 -0.00000000000E+00 -0.00000000000E+00 -0.74505805969E-08  0.93827000000E+00  0.93827000000E+00 0. -1.
     999902    2    1    2    0    0  0.50317340570E-02  0.96996081573E-02  0.21168091763E-01  0.10201079754E+01  0.10198297861E+01 0.  0.
     999903    2    3    3    0    0  0.33212704604E-01  0.47096818784E-01 -0.11333988601E+00  0.12865684690E+00  0.19633145621E-01 0.  0.
         14    1    1    2    0    0 -0.50317340570E-02 -0.96996081573E-02 -0.21168091763E-01  0.23822024576E-01  0.00000000000E+00 0.  1.
     999901    1    3    3    0    0 -0.28180970547E-01 -0.37397210627E-01  0.13450797777E+00  0.89145112852E+00  0.88000000000E+00 0.  1.
        -11    1    4    4    0    0 -0.14718361251E-02  0.52097892975E-02 -0.19004432643E-01  0.19767088486E-01  0.51100000000E-03 0. -1.
         11    1    4    4    0    0  0.34684540729E-01  0.41887029487E-01 -0.94335453365E-01  0.10888975841E+00  0.51100000000E-03 0.  1.
</event>
<event>
 8    1  0.1131349E+005  0.1043930E+01  0.7957747E-01            NaN
         13   -1    0    0    0    0  0.00000000000E+00  0.00000000000E+00  0.74505805969E-08  0.10566000000E+00  0.10566000000E+00 0.  1.
     999900   -1    0    0    0    0 -0.00000000000E+00 -0.00000000000E+00 -0.74505805969E-08  0.93827000000E+00  0.93827000000E+00 0. -1.
     999902    2    1    2    0    0 -0.13510024254E-01 -0.24466249263E-02  0.18927766465E-01  0.10205469490E+01  0.10202790344E+01 0.  0.
     999903    2    3    3    0    0  0.11690050154E+00 -0.49890018463E-01  0.14857160170E-01  0.12966292142E+00  0.20904467986E-01 0.  0.
         14    1    1    2    0    0  0.13510024254E-01  0.24466249263E-02 -0.18927766465E-01  0.23383050961E-01  0.00000000000E+00 0. -1.
     999901    1    3    3    0    0 -0.13041052579E+00  0.47443393537E-01  0.40706062944E-02  0.89088402762E+00  0.88000000000E+00 0.  1.
        -11    1    4    4    0    0  0.21805831046E-01 -0.14687162310E-02 -0.39300015573E-03  0.21864742512E-01  0.51100000000E-03 0. -1.
         11    1    4    4    0    0  0.95094670490E-01 -0.48421302232E-01  0.15250160326E-01  0.10779817891E+00  0.51100000000E-03 0.  1.
</event>
<event>
 8    1  0.1131349E+005  0.1043930E+01  0.7957747E-01            NaN
         13   -1    0    0    0    0  0.00000000000E+00  0.00000000000E+00  0.74505805969E-08  0.10566000000E+00  0.10566000000E+00 0. -1.
     999900   -1    0    0    0    0 -0.00000000000E+00 -0.00000000000E+00 -0.74505805969E-08  0.93827000000E+00  0.93827000000E+00 0. -1.
     999902    2    1    2    0    0  0.19123502809E-01 -0.59921442196E-02  0.80164698544E-02  0.10223457942E+01  0.10221179212E+01 0.  0.
     999903    2    3    3    0    0  0.12535626232E+00  0.61419513852E-02  0.45461449561E-01  0.13508328400E+00  0.20708311119E-01 0.  0.
         14    1    1    2    0    0 -0.19123502809E-01  0.59921442196E-02 -0.80164698544E-02  0.21584205822E-01  0.00000000000E+00 0.  1.
     999901    1    3    3    0    0 -0.10623275951E+00 -0.12134095605E-01 -0.37444979706E-01  0.88726251018E+00  0.88000000000E+00 0. -1.
        -11    1    4    4    0    0  0.83769634246E-01  0.88183994105E-02  0.21203694403E-01  0.86861807298E-01  0.51100000000E-03 0.  1.
         11    1    4    4    0    0  0.41586628074E-01 -0.26764480252E-02  0.24257755158E-01  0.48221476698E-01  0.51100000000E-03 0. -1.
</event>
<event>
 8    1  0.1131349E+005  0.1043930E+01  0.7957747E-01            NaN
         13   -1    0    0    0    0  0.00000000000E+00  0.00000000000E+00  0.74505805969E-08  0.10566000000E+00  0.10566000000E+00 0. -1.
     999900   -1    0    0    0    0 -0.00000000000E+00 -0.00000000000E+00 -0.74505805969E-08  0.93827000000E+00  0.93827000000E+00 0.  1.
     999902    2    1    2    0    0 -0.17044451399E-01 -0.15391633607E-01  0.82287157248E-02  0.10195347654E+01  0.10192428613E+01 0.  0.
     999903    2    3    3    0    0 -0.12184054031E+00 -0.32208102076E-01  0.37361868924E-01  0.13267865843E+00  0.18034357469E-01 0.  0.
         14    1    1    2    0    0  0.17044451399E-01  0.15391633607E-01 -0.82287157248E-02  0.24395234598E-01  0.00000000000E+00 0.  1.
     999901    1    3    3    0    0  0.10479608891E+00  0.16816468469E-01 -0.29133153199E-01  0.88685610697E+00  0.88000000000E+00 0.  1.
        -11    1    4    4    0    0 -0.28071048836E-01 -0.57568018300E-04  0.10491988414E-01  0.29972154389E-01  0.51100000000E-03 0.  1.
         11    1    4    4    0    0 -0.93769491478E-01 -0.32150534058E-01  0.26869880510E-01  0.10270650404E+00  0.51100000000E-03 0. -1.
</event>
<event>
 8    1  0.1131349E+005  0.1043930E+01  0.7957747E-01            NaN
         13   -1    0    0    0    0  0.00000000000E+00  0.00000000000E+00  0.74505805969E-08  0.10566000000E+00  0.10566000000E+00 0. -1.
     999900   -1    0    0    0    0 -0.00000000000E+00 -0.00000000000E+00 -0.74505805969E-08  0.93827000000E+00  0.93827000000E+00 0. -1.
     999902    2    1    2    0    0 -0.16030562808E-02  0.20296717811E-01  0.13078449143E-01  0.10197313972E+01  0.10194442359E+01 0.  0.
     999903    2    3    3    0    0 -0.63391523835E-01  0.66834393666E-01 -0.90040384620E-01  0.13033999641E+00  0.19897797148E-01 0.  0.
         14    1    1    2    0    0  0.16030562808E-02 -0.20296717811E-01 -0.13078449143E-01  0.24198602756E-01  0.00000000000E+00 0. -1.
     999901    1    3    3    0    0  0.61788467555E-01 -0.46537675855E-01  0.10311883376E+00  0.88939140083E+00  0.88000000000E+00 0.  1.
        -11    1    4    4    0    0 -0.33095511288E-01  0.20745383116E-01 -0.38653090760E-01  0.54954584289E-01  0.51100000000E-03 0. -1.
         11    1    4    4    0    0 -0.30296012547E-01  0.46089010551E-01 -0.51387293860E-01  0.75385412123E-01  0.51100000000E-03 0.  1.
</event>
<event>
 8    1  0.1131349E+005  0.1043930E+01  0.7957747E-01            NaN
         13   -1    0    0    0    0  0.00000000000E+00  0.00000000000E+00  0.74505805969E-08  0.10566000000E+00  0.10566000000E+00 0. -1.
     999900   -1    0    0    0    0 -0.00000000000E+00 -0.00000000000E+00 -0.74505805969E-08  0.93827000000E+00  0.93827000000E+00 0. -1.
     999902    2    1    2    0    0 -0.42556899757E-02 -0.10673736369E-01  0.21972756682E-01  0.10191340007E+01  0.10188323070E+01 0.  0.
     999903    2    3    3    0    0 -0.10422451124E+00 -0.73414465303E-01 -0.17935235067E-01  0.13035798161E+00  0.20471889383E-01 0.  0.
         14    1    1    2    0    0  0.42556899757E-02  0.10673736369E-01 -0.21972756682E-01  0.24795999304E-01  0.00000000000E+00 0.  1.
     999901    1    3    3    0    0  0.99968821262E-01  0.62740728934E-01  0.39907991750E-01  0.88877601908E+00  0.88000000000E+00 0.  1.
        -11    1    4    4    0    0 -0.85217583073E-01 -0.51485576001E-01 -0.89064093966E-02  0.99961924003E-01  0.51100000000E-03 0.  1.
         11    1    4    4    0    0 -0.19006928164E-01 -0.21928889302E-01 -0.90288256707E-02  0.30396057610E-01  0.51100000000E-03 0. -1.
</event>
<event>
 8    1  0.1131349E+005  0.1043930E+01  0.7957747E-01            NaN
         13   -1    0    0    0    0  0.00000000000E+00  0.00000000000E+00  0.74505805969E-08  0.10566000000E+00  0.10566000000E+00 0.  1.
     999900   -1    0    0    0    0 -0.00000000000E+00 -0.00000000000E+00 -0.74505805969E-08  0.93827000000E+00  0.93827000000E+00 0. -1.
     999902    2    1    2    0    0 -0.80882228005E-02  0.20620433172E-01 -0.33065728946E-02  0.10215345755E+01  0.10212890551E+01 0.  0.
     999903    2    3    3    0    0  0.32620436572E-01 -0.91794453763E-01 -0.83528790904E-01  0.12983400584E+00  0.19735641317E-01 0.  0.
         14    1    1    2    0    0  0.80882228005E-02 -0.20620433172E-01  0.33065728946E-02  0.22395424456E-01  0.00000000000E+00 0. -1.
     999901    1    3    3    0    0 -0.40708659372E-01  0.11241488693E+00  0.80222218009E-01  0.89170056971E+00  0.88000000000E+00 0.  1.
        -11    1    4    4    0    0  0.17717218604E-01 -0.28342226240E-01 -0.36259714125E-01  0.49317437208E-01  0.51100000000E-03 0.  1.
         11    1    4    4    0    0  0.14903217968E-01 -0.63452227522E-01 -0.47269076779E-01  0.80516568629E-01  0.51100000000E-03 0. -1.
</event>
<event>
 8    1  0.1131349E+005  0.1043930E+01  0.7957747E-01            NaN
         13   -1    0    0    0    0  0.00000000000E+00  0.00000000000E+00  0.74505805969E-08  0.10566000000E+00  0.10566000000E+00 0.  1.
     999900   -1    0    0    0    0 -0.00000000000E+00 -0.00000000000E+00 -0.74505805969E-08  0.93827000000E+00  0.93827000000E+00 0.  1.
     999902    2    1    2    0    0  0.22267710928E-01  0.62766428352E-02  0.26667729770E-02  0.10206414004E+01  0.10203756706E+01 0.  0.
     999903    2    3    3    0    0 -0.11470509102E+00 -0.52287135055E-01  0.11438189285E-01  0.12807868419E+00  0.19547756149E-01 0.  0.
         14    1    1    2    0    0 -0.22267710928E-01 -0.62766428352E-02 -0.26667729770E-02  0.23288599643E-01  0.00000000000E+00 0. -1.
     999901    1    3    3    0    0  0.13697280195E+00  0.58563777890E-01 -0.87714163083E-02  0.89256271617E+00  0.88000000000E+00 0. -1.
        -11    1    4    4    0    0 -0.31523478755E-01 -0.52072314192E-02  0.40699051495E-02  0.32212889048E-01  0.51100000000E-03 0. -1.
         11    1    4    4    0    0 -0.83181612265E-01 -0.47079903635E-01  0.73682841358E-02  0.95865795138E-01  0.51100000000E-03 0.  1.
</event>
<event>
 8    1  0.1131349E+005  0.1043930E+01  0.7957747E-01            NaN
         13   -1    0    0    0    0  0.00000000000E+00  0.00000000000E+00  0.74505805969E-08  0.10566000000E+00  0.10566000000E+00 0. -1.
     999900   -1    0    0    0    0 -0.00000000000E+00 -0.00000000000E+00 -0.74505805969E-08  0.93827000000E+00  0.93827000000E+00 0. -1.
     999902    2    1    2    0    0 -0.17746212787E-01  0.13920320301E-01 -0.55452659809E-02  0.10207038647E+01  0.10204395749E+01 0.  0.
     999903    2    3    3    0    0  0.58273997788E-01  0.10102378131E+00  0.56382061897E-01  0.13098420141E+00  0.19397445836E-01 0.  0.
         14    1    1    2    0    0  0.17746212787E-01 -0.13920320301E-01  0.55452659809E-02  0.23226135287E-01  0.00000000000E+00 0. -1.
     999901    1    3    3    0    0 -0.76020210575E-01 -0.87103461014E-01 -0.61927327878E-01  0.88971966331E+00  0.88000000000E+00 0. -1.
        -11    1    4    4    0    0  0.10093288303E-01  0.33860152295E-01  0.13166477299E-01  0.37709436852E-01  0.51100000000E-03 0. -1.
         11    1    4    4    0    0  0.48180709485E-01  0.67163629019E-01  0.43215584598E-01  0.93274764554E-01  0.51100000000E-03 0.  1.
</event>
<event>
 8    1  0.1131349E+005  0.1043930E+01  0.7957747E-01            NaN
         13   -1    0    0    0    0  0.00000000000E+00  0.00000000000E+00  0.74505805969E-08  0.10566000000E+00  0.10566000000E+00 0.  1.
     999900   -1    0    0    0    0 -0.00000000000E+00 -0.00000000000E+00 -0.74505805969E-08  0.93827000000E+00  0.93827000000E+00 0.  1.
     999902    2    1    2    0    0 -0.19082395308E-01  0.24068206894E-02  0.14030472657E-01  0.10201227583E+01  0.10198449182E+01 0.  0.
     999903    2    3    3    0    0  0.11500251360E+00  0.16438939245E-02 -0.51417010050E-01  0.12756311440E+00  0.20008965725E-01 0.  0.
         14    1    1    2    0    0  0.19082395308E-01 -0.24068206894E-02 -0.14030472657E-01  0.23807241744E-01  0.00000000000E+00 0. -1.
     999901    1    3    3    0    0 -0.13408490891E+00  0.76292676491E-03  0.65447482706E-01  0.89255964386E+00  0.88000000000E+00 0. -1.
        -11    1    4    4    0    0  0.97122654826E-01 -0.27679253064E-02 -0.49484729491E-01  0.10903885117E+00  0.51100000000E-03 0.  1.
         11    1    4    4    0    0  0.17879858778E-01  0.44118192310E-02 -0.19322805586E-02  0.18524263224E-01  0.51100000000E-03 0. -1.
</event>
<event>
 8    1  0.1131349E+005  0.1043930E+01  0.7957747E-01            NaN
         13   -1    0    0    0    0  0.00000000000E+00  0.00000000000E+00  0.74505805969E-08  0.10566000000E+00  0.10566000000E+00 0. -1.
     999900   -1    0    0    0    0 -0.00000000000E+00 -0.00000000000E+00 -0.74505805969E-08  0.93827000000E+00  0.93827000000E+00 0.  1.
     999902    2    1    2    0    0 -0.20024841939E-01 -0.85406438809E-02  0.52791932395E-02  0.10215289560E+01  0.10212833109E+01 0.  0.
     999903    2    3    3    0    0  0.53536012725E-01  0.18021132863E-01 -0.11540093738E+00  0.12985613410E+00  0.18824806149E-01 0.  0.
         14    1    1    2    0    0  0.20024841939E-01  0.85406438809E-02 -0.52791932395E-02  0.22401044035E-01  0.00000000000E+00 0. -1.
     999901    1    3    3    0    0 -0.73560854664E-01 -0.26561776744E-01  0.12068013062E+00  0.89167282186E+00  0.88000000000E+00 0. -1.
        -11    1    4    4    0    0  0.18109023073E-01  0.85604734582E-02 -0.61347986141E-01  0.64537236903E-01  0.51100000000E-03 0. -1.
         11    1    4    4    0    0  0.35426989652E-01  0.94606594049E-02 -0.54052951243E-01  0.65318897199E-01  0.51100000000E-03 0.  1.
</event>
<event>
 8    1  0.1131349E+005  0.1043930E+01  0.7957747E-01            NaN
         13   -1    0    0    0    0  0.00000000000E+00  0.00000000000E+00  0.74505805969E-08  0.10566000000E+00  0.10566000000E+00 0. -1.
     999900   -1    0    0    0    0 -0.00000000000E+00 -0.00000000000E+00 -0.74505805969E-08  0.93827000000E+00  0.93827000000E+00 0.  1.
     999902    2    1    2    0    0 -0.27668163368E-02  0.21731261417E-01  0.78088584776E-02  0.10206731458E+01  0.10204081484E+01 0.  0.
     999903    2    3    3    0    0 -0.47691114219E-01 -0.71155590656E-01  0.96240287834E-01  0.13024275690E+00  0.19063637239E-01 0.  0.
         14    1    1    2    0    0  0.27668163368E-02 -0.21731261417E-01 -0.78088584776E-02  0.23256854176E-01  0.00000000000E+00 0.  1.
     999901    1    3    3    0    0  0.44924297882E-01  0.92886852073E-01 -0.88431429356E-01  0.89043038893E+00  0.88000000000E+00 0.  1.
        -11    1    4    4    0    0 -0.79920614903E-02 -0.27619216575E-01  0.29027289764E-01  0.40859990738E-01  0.51100000000E-03 0.  1.
         11    1    4    4    0    0 -0.39699052728E-01 -0.43536374080E-01  0.67212998070E-01  0.89382766158E-01  0.51100000000E-03 0. -1.
</event>
<event>
 8    1  0.1131349E+005  0.1043930E+01  0.7957747E-01            NaN
         13   -1    0    0    0    0  0.00000000000E+00  0.00000000000E+00  0.74505805969E-08  0.10566000000E+00  0.10566000000E+00 0.  1.
     999900   -1    0    0    0    0 -0.00000000000E+00 -0.00000000000E+00 -0.74505805969E-08  0.93827000000E+00  0.93827000000E+00 0.  1.
     999902    2    1    2    0    0 -0.86074304307E-02 -0.88796086575E-03  0.20250271596E-01  0.10219084235E+01  0.10216711194E+01 0.  0.
     999903    2    3    3    0    0 -0.96340811197E-01  0.78303272115E-01  0.44471752873E-01  0.13367699100E+00  0.21882568222E-01 0.  0.
         14    1    1    2    0    0  0.86074304307E-02  0.88796086575E-03 -0.20250271596E-01  0.22021576529E-01  0.00000000000E+00 0. -1.
     999901    1    3    3    0    0  0.87733380766E-01 -0.79191232981E-01 -0.24221481277E-01  0.88823143248E+00  0.88000000000E+00 0.  1.
        -11    1    4    4    0    0 -0.54118036108E-01  0.53345302918E-01  0.18657320373E-01  0.78248577624E-01  0.51100000000E-03 0. -1.
         11    1    4    4    0    0 -0.42222775088E-01  0.24957969197E-01  0.25814432500E-01  0.55428413372E-01  0.51100000000E-03 0.  1.
</event>
<event>
 8    1  0.1131349E+005  0.1043930E+01  0.7957747E-01            NaN
         13   -1    0    0    0    0  0.00000000000E+00  0.00000000000E+00  0.74505805969E-08  0.10566000000E+00  0.10566000000E+00 0.  1.
     999900   -1    0    0    0    0 -0.00000000000E+00 -0.00000000000E+00 -0.74505805969E-08  0.93827000000E+00  0.93827000000E+00 0. -1.
     999902    2    1    2    0    0 -0.45164727674E-02 -0.23077280827E-01  0.54606393382E-02  0.10197892047E+01  0.10195034301E+01 0.  0.
     999903    2    3    3    0    0 -0.93638337421E-01  0.20438983122E-01  0.86331143115E-01  0.13053310525E+00  0.19998375673E-01 0.  0.
         14    1    1    2    0    0  0.45164727674E-02  0.23077280827E-01 -0.54606393382E-02  0.24140795319E-01  0.00000000000E+00 0. -1.
     999901    1    3    3    0    0  0.89121864654E-01 -0.43516263950E-01 -0.80870503777E-01  0.88925609943E+00  0.88000000000E+00 0. -1.
        -11    1    4    4    0    0 -0.18859048277E-01  0.36704122027E-02  0.76207625252E-02  0.20675414630E-01  0.51100000000E-03 0. -1.
         11    1    4    4    0    0 -0.74779289144E-01  0.16768570919E-01  0.78710380590E-01  0.10985769062E+00  0.51100000000E-03 0.  1.
</event>
<event>
 8    1  0.1131349E+005  0.1043930E+01  0.7957747E-01            NaN
         13   -1    0    0    0    0  0.00000000000E+00  0.00000000000E+00  0.74505805969E-08  0.10566000000E+00  0.10566000000E+00 0.  1.
     999900   -1    0    0    0    0 -0.00000000000E+00 -0.00000000000E+00 -0.74505805969E-08  0.93827000000E+00  0.93827000000E+00 0.  1.
     999902    2    1    2    0    0  0.23205478909E-01 -0.94899571250E-03  0.34619688015E-02  0.10204485164E+01  0.10201783151E+01 0.  0.
     999903    2    3    3    0    0 -0.94900723749E-01  0.70010835765E-01  0.47681226861E-01  0.12863030870E+00  0.19094303585E-01 0.  0.
         14    1    1    2    0    0 -0.23205478909E-01  0.94899571250E-03 -0.34619688015E-02  0.23481483604E-01  0.00000000000E+00 0. -1.
     999901    1    3    3    0    0  0.11810620266E+00 -0.70959831477E-01 -0.44219258059E-01  0.89181820769E+00  0.88000000000E+00 0.  1.
        -11    1    4    4    0    0 -0.61293419338E-01  0.53474606347E-01  0.38851353971E-01  0.90144914469E-01  0.51100000000E-03 0. -1.
         11    1    4    4    0    0 -0.33607304411E-01  0.16536229417E-01  0.88298728904E-02  0.38485394234E-01  0.51100000000E-03 0.  1.
</event>
<event>
 8    1  0.1131349E+005  0.1043930E+01  0.7957747E-01            NaN
         13   -1    0    0    0    0  0.00000000000E+00  0.00000000000E+00  0.74505805969E-08  0.10566000000E+00  0.10566000000E+00 0. -1.
     999900   -1    0    0    0    0 -0.00000000000E+00 -0.00000000000E+00 -0.74505805969E-08  0.93827000000E+00  0.93827000000E+00 0. -1.
     999902    2    1    2    0    0  0.74868244897E-02 -0.19048485460E-01 -0.12157216906E-01  0.10201246380E+01  0.10198468423E+01 0.  0.
     999903    2    3    3    0    0 -0.10147191833E+00 -0.50156551596E-01  0.61069718910E-01  0.12984271432E+00  0.17815443218E-01 0.  0.
         14    1    1    2    0    0 -0.74868244897E-02  0.19048485460E-01  0.12157216906E-01  0.23805362047E-01  0.00000000000E+00 0. -1.
     999901    1    3    3    0    0  0.10895874282E+00  0.31108066136E-01 -0.73226935816E-01  0.89028192363E+00  0.88000000000E+00 0. -1.
        -11    1    4    4    0    0 -0.26276302923E-01 -0.47695237535E-02  0.12782492522E-01  0.29611580306E-01  0.51100000000E-03 0.  1.
         11    1    4    4    0    0 -0.75195615408E-01 -0.45387027842E-01  0.48287226387E-01  0.10023113402E+00  0.51100000000E-03 0. -1.
</event>
<event>
 8    1  0.1131349E+005  0.1043930E+01  0.7957747E-01            NaN
         13   -1    0    0    0    0  0.00000000000E+00  0.00000000000E+00  0.74505805969E-08  0.10566000000E+00  0.10566000000E+00 0. -1.
     999900   -1    0    0    0    0 -0.00000000000E+00 -0.00000000000E+00 -0.74505805969E-08  0.93827000000E+00  0.93827000000E+00 0.  1.
     999902    2    1    2    0    0 -0.11629796438E-01 -0.19849181674E-01 -0.21298779895E-02  0.10208263518E+01  0.10205648740E+01 0.  0.
     999903    2    3    3    0    0 -0.49055585529E-01  0.85082705985E-01  0.82767735715E-01  0.12974891662E+00  0.18405595866E-01 0.  0.
         14    1    1    2    0    0  0.11629796438E-01  0.19849181674E-01  0.21298779895E-02  0.23103648166E-01  0.00000000000E+00 0.  1.
     999901    1    3    3    0    0  0.37425789091E-01 -0.10493188766E+00 -0.84897613704E-01  0.89107743522E+00  0.88000000000E+00 0.  1.
        -11    1    4    4    0    0 -0.13010434918E-01  0.93230443235E-02  0.13883804913E-01  0.21194615639E-01  0.51100000000E-03 0.  1.
         11    1    4    4    0    0 -0.36045150611E-01  0.75759661661E-01  0.68883930801E-01  0.10855430098E+00  0.51100000000E-03 0. -1.
</event>
<event>
 8    1  0.1131349E+005  0.1043930E+01  0.7957747E-01            NaN
         13   -1    0    0    0    0  0.00000000000E+00  0.00000000000E+00  0.74505805969E-08  0.10566000000E+00  0.10566000000E+00 0. -1.
     999900   -1    0    0    0    0 -0.00000000000E+00 -0.00000000000E+00 -0.74505805969E-08  0.93827000000E+00  0.93827000000E+00 0. -1.
     999902    2    1    2    0    0  0.67500696150E-02 -0.63886712020E-02 -0.22465237832E-01  0.10196181619E+01  0.10193282742E+01 0.  0.
     999903    2    3    3    0    0 -0.11216060702E+00  0.39156063466E-01 -0.48988767312E-01  0.13005783824E+00  0.20048513431E-01 0.  0.
         14    1    1    2    0    0 -0.67500696150E-02  0.63886712020E-02  0.22465237832E-01  0.24311838071E-01  0.00000000000E+00 0. -1.
     999901    1    3    3    0    0  0.11891067663E+00 -0.45544734668E-01  0.26523529480E-01  0.88956032369E+00  0.88000000000E+00 0.  1.
        -11    1    4    4    0    0 -0.14220235790E-01  0.12533721728E-01 -0.86023143869E-02  0.20822349053E-01  0.51100000000E-03 0.  1.
         11    1    4    4    0    0 -0.97940371229E-01  0.26622341737E-01 -0.40386452925E-01  0.10923548918E+00  0.51100000000E-03 0. -1.
</event>
<event>
 8    1  0.1131349E+005  0.1043930E+01  0.7957747E-01            NaN
         13   -1    0    0    0    0  0.00000000000E+00  0.00000000000E+00  0.74505805969E-08  0.10566000000E+00  0.10566000000E+00 0.  1.
     999900   -1    0    0    0    0 -0.00000000000E+00 -0.00000000000E+00 -0.74505805969E-08  0.93827000000E+00  0.93827000000E+00 0. -1.
     999902    2    1    2    0    0  0.93419445327E-02 -0.20048854414E-01 -0.93539043842E-02  0.10199149210E+01  0.10196321504E+01 0.  0.
     999903    2    3    3    0    0 -0.62342396110E-01 -0.70335608143E-01  0.87992459299E-01  0.13022749456E+00  0.19566689024E-01 0.  0.
         14    1    1    2    0    0 -0.93419445327E-02  0.20048854414E-01  0.93539043842E-02  0.24015078975E-01  0.00000000000E+00 0.  1.
     999901    1    3    3    0    0  0.71684340642E-01  0.50286753729E-01 -0.97346363683E-01  0.88968742647E+00  0.88000000000E+00 0. -1.
        -11    1    4    4    0    0 -0.26104564348E-01 -0.18609556046E-01  0.37704281164E-01  0.49493815726E-01  0.51100000000E-03 0. -1.
         11    1    4    4    0    0 -0.36237831761E-01 -0.51726052097E-01  0.50288178135E-01  0.80733678830E-01  0.51100000000E-03 0.  1.
</event>
<event>
 8    1  0.1131349E+005  0.1043930E+01  0.7957747E-01            NaN
         13   -1    0    0    0    0  0.00000000000E+00  0.00000000000E+00  0.74505805969E-08  0.10566000000E+00  0.10566000000E+00 0. -1.
     999900   -1    0    0    0    0 -0.00000000000E+00 -0.00000000000E+00 -0.74505805969E-08  0.93827000000E+00  0.93827000000E+00 0. -1.
     999902    2    1    2    0    0  0.22160315073E-01  0.61126868730E-02 -0.49284525278E-02  0.10204197012E+01  0.10201488286E+01 0.  0.
     999903    2    3    3    0    0 -0.16655590080E-01  0.62425117348E-01  0.11100890160E+00  0.13018420742E+00  0.21228463692E-01 0.  0.
         14    1    1    2    0    0 -0.22160315073E-01 -0.61126868730E-02  0.49284525278E-02  0.23510298791E-01  0.00000000000E+00 0. -1.
     999901    1    3    3    0    0  0.38815905153E-01 -0.56312430475E-01 -0.11593735413E+00  0.89023549379E+00  0.88000000000E+00 0. -1.
        -11    1    4    4    0    0 -0.21459952381E-01  0.53896471392E-01  0.91304664539E-01  0.10817653199E+00  0.51100000000E-03 0. -1.
         11    1    4    4    0    0  0.48043623015E-02  0.85286459557E-02  0.19704237060E-01  0.22007675435E-01  0.51100000000E-03 0.  1.
</event>
<event>
 8    1  0.1131349E+005  0.1043930E+01  0.7957747E-01            NaN
         13   -1    0    0    0    0  0.00000000000E+00  0.00000000000E+00  0.74505805969E-08  0.10566000000E+00  0.10566000000E+00 0. -1.
     999900   -1    0    0    0    0 -0.00000000000E+00 -0.00000000000E+00 -0.74505805969E-08  0.93827000000E+00  0.93827000000E+00 0.  1.
     999902    2    1    2    0    0 -0.14261562663E-01  0.17273529585E-01 -0.10269159010E-01  0.10192881125E+01  0.10189902029E+01 0.  0.
     999903    2    3    3    0    0 -0.67956038496E-01 -0.78921496639E-01 -0.75523356175E-01  0.13002173503E+00  0.18848035794E-01 0.  0.
         14    1    1    2    0    0  0.14261562663E-01 -0.17273529585E-01  0.10269159010E-01  0.24641887523E-01  0.00000000000E+00 0. -1.
     999901    1    3    3    0    0  0.53694475833E-01  0.96195026223E-01  0.65254197164E-01  0.88926637744E+00  0.88000000000E+00 0.  1.
        -11    1    4    4    0    0 -0.76469942550E-02 -0.20272581634E-01 -0.16935708811E-01  0.27505152993E-01  0.51100000000E-03 0.  1.
         11    1    4    4    0    0 -0.60309044241E-01 -0.58648915005E-01 -0.58587647364E-01  0.10251658204E+00  0.51100000000E-03 0. -1.
</event>
<event>
 8    1  0.1131349E+005  0.1043930E+01  0.7957747E-01            NaN
         13   -1    0    0    0    0  0.00000000000E+00  0.00000000000E+00  0.74505805969E-08  0.10566000000E+00  0.10566000000E+00 0.  1.
     999900   -1    0    0    0    0 -0.00000000000E+00 -0.00000000000E+00 -0.74505805969E-08  0.93827000000E+00  0.93827000000E+00 0. -1.
     999902    2    1    2    0    0  0.18881234354E-01 -0.13617264386E-01 -0.14469265210E-02  0.10206056673E+01  0.10203391121E+01 0.  0.
     999903    2    3    3    0    0 -0.12342477175E-01  0.63461500819E-01 -0.11100326461E+00  0.12992129703E+00  0.19445303777E-01 0.  0.
         14    1    1    2    0    0 -0.18881234354E-01  0.13617264386E-01  0.14469265210E-02  0.23324332712E-01  0.00000000000E+00 0.  1.
     999901    1    3    3    0    0  0.31223711529E-01 -0.77078765205E-01  0.10955633809E+00  0.89068437026E+00  0.88000000000E+00 0.  1.
        -11    1    4    4    0    0 -0.89626854112E-02  0.54300096720E-01 -0.77737447143E-01  0.95248107818E-01  0.51100000000E-03 0.  1.
         11    1    4    4    0    0 -0.33797917633E-02  0.91614040993E-02 -0.33265817466E-01  0.34673189212E-01  0.51100000000E-03 0. -1.
</event>
<event>
 8    1  0.1131349E+005  0.1043930E+01  0.7957747E-01            NaN
         13   -1    0    0    0    0  0.00000000000E+00  0.00000000000E+00  0.74505805969E-08  0.10566000000E+00  0.10566000000E+00 0. -1.
     999900   -1    0    0    0    0 -0.00000000000E+00 -0.00000000000E+00 -0.74505805969E-08  0.93827000000E+00  0.93827000000E+00 0.  1.
     999902    2    1    2    0    0 -0.95173739562E-02 -0.18447906443E-01 -0.11943833975E-01  0.10199808700E+01  0.10196996687E+01 0.  0.
     999903    2    3    3    0    0 -0.24923479762E-01 -0.16949236872E-01  0.12418441946E+00  0.12937967107E+00  0.20220602734E-01 0.  0.
         14    1    1    2    0    0  0.95173739562E-02  0.18447906443E-01  0.11943833975E-01  0.23949130029E-01  0.00000000000E+00 0. -1.
     999901    1    3    3    0    0  0.15406105805E-01 -0.14986695704E-02 -0.13612825343E+00  0.89060119890E+00  0.88000000000E+00 0.  1.
        -11    1    4    4    0    0 -0.14191097392E-01 -0.69691547339E-02  0.98846034150E-01  0.10010372596E+00  0.51100000000E-03 0.  1.
         11    1    4    4    0    0 -0.10732382370E-01 -0.99800821382E-02  0.25338385310E-01  0.29275945107E-01  0.51100000000E-03 0. -1.
</event>
<event>
 8    1  0.1131349E+005  0.1043930E+01  0.7957747E-01            NaN
         13   -1    0    0    0    0  0.00000000000E+00  0.00000000000E+00  0.74505805969E-08  0.10566000000E+00  0.10566000000E+00 0.  1.
     999900   -1    0    0    0    0 -0.00000000000E+00 -0.00000000000E+00 -0.74505805969E-08  0.93827000000E+00  0.93827000000E+00 0. -1.
     999902    2    1    2    0    0 -0.14311480594E-01  0.17701946671E-01 -0.45762125386E-02  0.10207110613E+01  0.10204469372E+01 0.  0.
     999903    2    3    3    0    0  0.43114160054E-01 -0.46337370446E-01  0.11100122212E+00  0.12899536573E+00  0.17679094155E-01 0.  0.
         14    1    1    2    0    0  0.14311480594E-01 -0.17701946671E-01  0.45762125386E-02  0.23218938691E-01  0.00000000000E+00 0.  1.
     999901    1    3    3    0    0 -0.57425640647E-01  0.64039317117E-01 -0.11557743466E+00  0.89171569558E+00  0.88000000000E+00 0. -1.
        -11    1    4    4    0    0  0.22111011918E-01 -0.36119794412E-01  0.71649250510E-01  0.83231079628E-01  0.51100000000E-03 0.  1.
         11    1    4    4    0    0  0.21003148136E-01 -0.10217576033E-01  0.39351971611E-01  0.45764286101E-01  0.51100000000E-03 0. -1.
</event>
<event>
 8    1  0.1131349E+005  0.1043930E+01  0.7957747E-01            NaN
         13   -1    0    0    0    0  0.00000000000E+00  0.00000000000E+00  0.74505805969E-08  0.10566000000E+00  0.10566000000E+00 0. -1.
     999900   -1    0    0    0    0 -0.00000000000E+00 -0.00000000000E+00 -0.74505805969E-08  0.93827000000E+00  0.93827000000E+00 0.  1.
     999902    2    1    2    0    0  0.16990938201E-01 -0.11338397785E-01 -0.11955350445E-01  0.10202618431E+01  0.10199872778E+01 0.  0.
     999903    2    3    3    0    0  0.88275728802E-02  0.10853549061E+00  0.65651503892E-01  0.12871307077E+00  0.19976382574E-01 0.  0.
         14    1    1    2    0    0 -0.16990938201E-01  0.11338397785E-01  0.11955350445E-01  0.23668156869E-01  0.00000000000E+00 0. -1.
     999901    1    3    3    0    0  0.81633653213E-02 -0.11987388839E+00 -0.77606854337E-01  0.89154877236E+00  0.88000000000E+00 0.  1.
        -11    1    4    4    0    0  0.10351734999E-01  0.76318937295E-01  0.36479731478E-01  0.85221890011E-01  0.51100000000E-03 0.  1.
         11    1    4    4    0    0 -0.15241621185E-02  0.32216553311E-01  0.29171772414E-01  0.43491180763E-01  0.51100000000E-03 0. -1.
</event>
<event>
 8    1  0.1131349E+005  0.1043930E+01  0.7957747E-01            NaN
         13   -1    0    0    0    0  0.00000000000E+00  0.00000000000E+00  0.74505805969E-08  0.10566000000E+00  0.10566000000E+00 0.  1.
     999900   -1    0    0    0    0 -0.00000000000E+00 -0.00000000000E+00 -0.74505805969E-08  0.93827000000E+00  0.93827000000E+00 0. -1.
     999902    2    1    2    0    0  0.14970565017E-01 -0.14082815461E-01  0.10852760679E-01  0.10206872394E+01  0.10204225667E+01 0.  0.
     999903    2    3    3    0    0  0.11311819244E+00  0.30639080474E-01 -0.55231440135E-01  0.13164273746E+00  0.23341371707E-01 0.  0.
         14    1    1    2    0    0 -0.14970565017E-01  0.14082815461E-01 -0.10852760679E-01  0.23242760649E-01  0.00000000000E+00 0. -1.
     999901    1    3    3    0    0 -0.98147627424E-01 -0.44721895935E-01  0.66084200814E-01  0.88904450189E+00  0.88000000000E+00 0.  1.
        -11    1    4    4    0    0  0.68213428275E-01  0.28176668643E-01 -0.41217536493E-01  0.84534861971E-01  0.51100000000E-03 0. -1.
         11    1    4    4    0    0  0.44904764166E-01  0.24624118310E-02 -0.14013903642E-01  0.47107875489E-01  0.51100000000E-03 0.  1.
</event>
<event>
 8    1  0.1131349E+005  0.1043930E+01  0.7957747E-01            NaN
         13   -1    0    0    0    0  0.00000000000E+00  0.00000000000E+00  0.74505805969E-08  0.10566000000E+00  0.10566000000E+00 0. -1.
     999900   -1    0    0    0    0 -0.00000000000E+00 -0.00000000000E+00 -0.74505805969E-08  0.93827000000E+00  0.93827000000E+00 0.  1.
     999902    2    1    2    0    0  0.13260739134E-01 -0.46092222553E-02  0.19624127642E-01  0.10198012098E+01  0.10195157227E+01 0.  0.
     999903    2    3    3    0    0 -0.99417361234E-01 -0.39498494864E-01 -0.66930097402E-01  0.12772203755E+00  0.19731652885E-01 0.  0.
         14    1    1    2    0    0 -0.13260739134E-01  0.46092222553E-02 -0.19624127642E-01  0.24128790228E-01  0.00000000000E+00 0.  1.
     999901    1    3    3    0    0  0.11267810037E+00  0.34889272609E-01  0.86554225043E-01  0.89207917223E+00  0.88000000000E+00 0. -1.
        -11    1    4    4    0    0 -0.31264483645E-01 -0.16761706979E-01 -0.32239204183E-01  0.47937982496E-01  0.51100000000E-03 0. -1.
         11    1    4    4    0    0 -0.68152877589E-01 -0.22736787886E-01 -0.34690893219E-01  0.79784055050E-01  0.51100000000E-03 0.  1.
</event>
<event>
 8    1  0.1131349E+005  0.1043930E+01  0.7957747E-01            NaN
         13   -1    0    0    0    0  0.00000000000E+00  0.00000000000E+00  0.74505805969E-08  0.10566000000E+00  0.10566000000E+00 0. -1.
     999900   -1    0    0    0    0 -0.00000000000E+00 -0.00000000000E+00 -0.74505805969E-08  0.93827000000E+00  0.93827000000E+00 0.  1.
     999902    2    1    2    0    0 -0.11666258787E-01 -0.17627612808E-01 -0.16752343034E-01  0.10169582495E+01  0.10166005144E+01 0.  0.
     999903    2    3    3    0    0 -0.11376110070E+00 -0.55238333418E-01 -0.23291548946E-01  0.13023355477E+00  0.20625736940E-01 0.  0.
         14    1    1    2    0    0  0.11666258787E-01  0.17627612808E-01  0.16752343034E-01  0.26971750491E-01  0.00000000000E+00 0. -1.
     999901    1    3    3    0    0  0.10209484191E+00  0.37610720610E-01  0.65392059120E-02  0.88672469474E+00  0.88000000000E+00 0.  1.
        -11    1    4    4    0    0 -0.77215832466E-01 -0.46928915493E-01 -0.12434203375E-01  0.91211174904E-01  0.51100000000E-03 0. -1.
         11    1    4    4    0    0 -0.36545268232E-01 -0.83094179255E-02 -0.10857345571E-01  0.39022379864E-01  0.51100000000E-03 0.  1.
</event>
<event>
 8    1  0.1131349E+005  0.1043930E+01  0.7957747E-01            NaN
         13   -1    0    0    0    0  0.00000000000E+00  0.00000000000E+00  0.74505805969E-08  0.10566000000E+00  0.10566000000E+00 0. -1.
     999900   -1    0    0    0    0 -0.00000000000E+00 -0.00000000000E+00 -0.74505805969E-08  0.93827000000E+00  0.93827000000E+00 0. -1.
     999902    2    1    2    0    0 -0.54723088423E-02 -0.84604637505E-02  0.21548188336E-01  0.10201423975E+01  0.10198650211E+01 0.  0.
     999903    2    3    3    0    0  0.88022245675E-01  0.46757604083E-01  0.82157625908E-01  0.13139959409E+00  0.24120293497E-01 0.  0.
         14    1    1    2    0    0  0.54723088423E-02  0.84604637505E-02 -0.21548188336E-01  0.23787602475E-01  0.00000000000E+00 0.  1.
     999901    1    3    3    0    0 -0.93494554517E-01 -0.55218067833E-01 -0.60609437572E-01  0.88874280344E+00  0.88000000000E+00 0. -1.
        -11    1    4    4    0    0  0.40073431434E-01  0.27284349533E-01  0.25938559183E-01  0.54985321767E-01  0.51100000000E-03 0. -1.
         11    1    4    4    0    0  0.47948814241E-01  0.19473254549E-01  0.56219066725E-01  0.76414272320E-01  0.51100000000E-03 0.  1.
</event>
<event>
 8    1  0.1131349E+005  0.1043930E+01  0.7957747E-01            NaN
         13   -1    0    0    0    0  0.00000000000E+00  0.00000000000E+00  0.74505805969E-08  0.10566000000E+00  0.10566000000E+00 0.  1.
     999900   -1    0    0    0    0 -0.00000000000E+00 -0.00000000000E+00 -0.74505805969E-08  0.93827000000E+00  0.93827000000E+00 0.  1.
     999902    2    1    2    0    0 -0.93155734403E-02 -0.15315771389E-01 -0.16257914662E-01  0.10197293275E+01  0.10194421164E+01 0.  0.
     999903    2    3    3    0    0 -0.41909402260E-01 -0.26394468621E-01 -0.12119914678E+00  0.13282586180E+00  0.22369854993E-01 0.  0.
         14    1    1    2    0    0  0.93155734403E-02  0.15315771389E-01  0.16257914662E-01  0.24200672530E-01  0.00000000000E+00 0.  1.
     999901    1    3    3    0    0  0.32593828819E-01  0.11078697231E-01  0.10494123212E+00  0.88690346566E+00  0.88000000000E+00 0. -1.
        -11    1    4    4    0    0 -0.31622535864E-01 -0.27607753235E-01 -0.80055929778E-01  0.90395717968E-01  0.51100000000E-03 0.  1.
         11    1    4    4    0    0 -0.10286866395E-01  0.12132846144E-02 -0.41143217002E-01  0.42430143837E-01  0.51100000000E-03 0. -1.
</event>
<event>
 8    1  0.1131349E+005  0.1043930E+01  0.7957747E-01            NaN
         13   -1    0    0    0    0  0.00000000000E+00  0.00000000000E+00  0.74505805969E-08  0.10566000000E+00  0.10566000000E+00 0. -1.
     999900   -1    0    0    0    0 -0.00000000000E+00 -0.00000000000E+00 -0.74505805969E-08  0.93827000000E+00  0.93827000000E+00 0.  1.
     999902    2    1    2    0    0 -0.38983930948E-02  0.23735351014E-01  0.19498620070E-02  0.10197977328E+01  0.10195121625E+01 0.  0.
     999903    2    3    3    0    0 -0.81718280801E-01 -0.53952302194E-01 -0.81741802753E-01  0.12901403231E+00  0.19343471391E-01 0.  0.
         14    1    1    2    0    0  0.38983930948E-02 -0.23735351014E-01 -0.19498620070E-02  0.24132267161E-01  0.00000000000E+00 0. -1.
     999901    1    3    3    0    0  0.77819887706E-01  0.77687653209E-01  0.83691664760E-01  0.89078370053E+00  0.88000000000E+00 0.  1.
        -11    1    4    4    0    0 -0.47436358967E-01 -0.36955386086E-01 -0.39148279843E-01  0.71754844077E-01  0.51100000000E-03 0.  1.
         11    1    4    4    0    0 -0.34281921834E-01 -0.16996916109E-01 -0.42593522910E-01  0.57259188230E-01  0.51100000000E-03 0. -1.
</event>
<event>
 8    1  0.1131349E+005  0.1043930E+01  0.7957747E-01            NaN
         13   -1    0    0    0    0  0.00000000000E+00  0.00000000000E+00  0.74505805969E-08  0.10566000000E+00  0.10566000000E+00 0.  1.
     999900   -1    0    0    0    0 -0.00000000000E+00 -0.00000000000E+00 -0.74505805969E-08  0.93827000000E+00  0.93827000000E+00 0.  1.
     999902    2    1    2    0    0  0.19085440584E-01 -0.93559951183E-02  0.10515027612E-01  0.10202159853E+01  0.10199403425E+01 0.  0.
     999903    2    3    3    0    0  0.61648325033E-01  0.89387479856E-01 -0.69014738616E-01  0.13011101583E+00  0.19370202870E-01 0.  0.
         14    1    1    2    0    0 -0.19085440584E-01  0.93559951183E-02 -0.10515027612E-01  0.23714014688E-01  0.00000000000E+00 0. -1.
     999901    1    3    3    0    0 -0.42562884449E-01 -0.98743474975E-01  0.79529766228E-01  0.89010496948E+00  0.88000000000E+00 0. -1.
        -11    1    4    4    0    0  0.24521043440E-01  0.40741062939E-01 -0.19524083642E-01  0.51405901839E-01  0.51100000000E-03 0.  1.
         11    1    4    4    0    0  0.37127281593E-01  0.48646416917E-01 -0.49490654974E-01  0.78705113990E-01  0.51100000000E-03 0. -1.
</event>
<event>
 8    1  0.1131349E+005  0.1043930E+01  0.7957747E-01            NaN
         13   -1    0    0    0    0  0.00000000000E+00  0.00000000000E+00  0.74505805969E-08  0.10566000000E+00  0.10566000000E+00 0.  1.
     999900   -1    0    0    0    0 -0.00000000000E+00 -0.00000000000E+00 -0.74505805969E-08  0.93827000000E+00  0.93827000000E+00 0. -1.
     999902    2    1    2    0    0 -0.65300629901E-02  0.93216998231E-02  0.20911320460E-01  0.10201220363E+01  0.10198441792E+01 0.  0.
     999903    2    3    3    0    0  0.38833147634E-01 -0.10550843494E+00 -0.57510041428E-01  0.12804934271E+00  0.21194011027E-01 0.  0.
         14    1    1    2    0    0  0.65300629901E-02 -0.93216998231E-02 -0.20911320460E-01  0.23807963660E-01  0.00000000000E+00 0. -1.
     999901    1    3    3    0    0 -0.45363210625E-01  0.11483013476E+00  0.78421361888E-01  0.89207269363E+00  0.88000000000E+00 0. -1.
        -11    1    4    4    0    0  0.32399835471E-01 -0.64081673249E-01 -0.42915744207E-01  0.83655438597E-01  0.51100000000E-03 0.  1.
         11    1    4    4    0    0  0.64333121633E-02 -0.41426761691E-01 -0.14594297221E-01  0.44393904109E-01  0.51100000000E-03 0. -1.
</event>
<event>
 8    1  0.1131349E+005  0.1043930E+01  0.7957747E-01            NaN
         13   -1    0    0    0    0  0.00000000000E+00  0.00000000000E+00  0.74505805969E-08  0.10566000000E+00  0.10566000000E+00 0. -1.
     999900   -1    0    0    0    0 -0.00000000000E+00 -0.00000000000E+00 -0.74505805969E-08  0.93827000000E+00  0.93827000000E+00 0. -1.
     999902    2    1    2    0    0 -0.17696689600E-01  0.19365984478E-02  0.16589256358E-01  0.10195963471E+01  0.10193059327E+01 0.  0.
     999903    2    3    3    0    0  0.18541579257E-02  0.94953546378E-01  0.89339754168E-01  0.13149329950E+00  0.17008299975E-01 0.  0.
         14    1    1    2    0    0  0.17696689600E-01 -0.19365984478E-02 -0.16589256358E-01  0.24333652888E-01  0.00000000000E+00 0.  1.
     999901    1    3    3    0    0 -0.19550847526E-01 -0.93016947930E-01 -0.72750497810E-01  0.88810304761E+00  0.88000000000E+00 0. -1.
        -11    1    4    4    0    0  0.41182430603E-02  0.70779272298E-01  0.75366604183E-01  0.10347488323E+00  0.51100000000E-03 0.  1.
         11    1    4    4    0    0 -0.22640851346E-02  0.24174274080E-01  0.13973149985E-01  0.28018416270E-01  0.51100000000E-03 0. -1.
</event>
<event>
 8    1  0.1131349E+005  0.1043930E+01  0.7957747E-01            NaN
         13   -1    0    0    0    0  0.00000000000E+00  0.00000000000E+00  0.74505805969E-08  0.10566000000E+00  0.10566000000E+00 0.  1.
     999900   -1    0    0    0    0 -0.00000000000E+00 -0.00000000000E+00 -0.74505805969E-08  0.93827000000E+00  0.93827000000E+00 0.  1.
     999902    2    1    2    0    0  0.15483399411E-01  0.10166152157E-01  0.15356636408E-01  0.10198693976E+01  0.10195855411E+01 0.  0.
     999903    2    3    3    0    0  0.89383254845E-01  0.21596669219E-01  0.94181748960E-01  0.13318724273E+00  0.20318893230E-01 0.  0.
         14    1    1    2    0    0 -0.15483399411E-01 -0.10166152157E-01 -0.15356636408E-01  0.24060602419E-01  0.00000000000E+00 0. -1.
     999901    1    3    3    0    0 -0.73899855434E-01 -0.11430517062E-01 -0.78825112552E-01  0.88668215485E+00  0.88000000000E+00 0.  1.
        -11    1    4    4    0    0  0.25595623979E-01  0.65991345847E-02  0.14962417456E-01  0.30377945968E-01  0.51100000000E-03 0.  1.
         11    1    4    4    0    0  0.63787630866E-01  0.14997534634E-01  0.79219331504E-01  0.10280929677E+00  0.51100000000E-03 0. -1.
</event>
<event>
 8    1  0.1131349E+005  0.1043930E+01  0.7957747E-01            NaN
         13   -1    0    0    0    0  0.00000000000E+00  0.00000000000E+00  0.74505805969E-08  0.10566000000E+00  0.10566000000E+00 0.  1.
     999900   -1    0    0    0    0 -0.00000000000E+00 -0.00000000000E+00 -0.74505805969E-08  0.93827000000E+00  0.93827000000E+00 0.  1.
     999902    2    1    2    0    0 -0.23230205902E-01  0.14756738830E-02  0.36149135196E-03  0.10206501642E+01  0.10203846367E+01 0.  0.
     999903    2    3    3    0    0 -0.96242126918E-01  0.64270496080E-01  0.62738613457E-01  0.13320166671E+00  0.20329946768E-01 0.  0.
         14    1    1    2    0    0  0.23230205902E-01 -0.14756738830E-02 -0.36149135196E-03  0.23279835817E-01  0.00000000000E+00 0. -1.
     999901    1    3    3    0    0  0.73011921016E-01 -0.62794822196E-01 -0.62377122105E-01  0.88744849747E+00  0.88000000000E+00 0.  1.
        -11    1    4    4    0    0 -0.82015603348E-01  0.46754253581E-01  0.55425627393E-01  0.10947502324E+00  0.51100000000E-03 0.  1.
         11    1    4    4    0    0 -0.14226523571E-01  0.17516242499E-01  0.73129860646E-02  0.23726643470E-01  0.51100000000E-03 0. -1.
</event>
<event>
 8    1  0.1131349E+005  0.1043930E+01  0.7957747E-01            NaN
         13   -1    0    0    0    0  0.00000000000E+00  0.00000000000E+00  0.74505805969E-08  0.10566000000E+00  0.10566000000E+00 0.  1.
     999900   -1    0    0    0    0 -0.00000000000E+00 -0.00000000000E+00 -0.74505805969E-08  0.93827000000E+00  0.93827000000E+00 0. -1.
     999902    2    1    2    0    0 -0.70124768613E-02 -0.20168707211E-01  0.97764647078E-02  0.10204453062E+01  0.10201750301E+01 0.  0.
     999903    2    3    3    0    0  0.52429678169E-01  0.43994632734E-01 -0.10674174718E+00  0.12846615972E+00  0.20624130053E-01 0.  0.
         14    1    1    2    0    0  0.70124768613E-02  0.20168707211E-01 -0.97764647078E-02  0.23484693834E-01  0.00000000000E+00 0.  1.
     999901    1    3    3    0    0 -0.59442155030E-01 -0.64163339945E-01  0.11651821189E+00  0.89197914644E+00  0.88000000000E+00 0.  1.
        -11    1    4    4    0    0  0.43670273614E-01  0.32641712172E-01 -0.68045126639E-01  0.87195037424E-01  0.51100000000E-03 0. -1.
         11    1    4    4    0    0  0.87594045546E-02  0.11352920561E-01 -0.38696620542E-01  0.41271122299E-01  0.51100000000E-03 0.  1.
</event>
<event>
 8    1  0.1131349E+005  0.1043930E+01  0.7957747E-01            NaN
         13   -1    0    0    0    0  0.00000000000E+00  0.00000000000E+00  0.74505805969E-08  0.10566000000E+00  0.10566000000E+00 0. -1.
     999900   -1    0    0    0    0 -0.00000000000E+00 -0.00000000000E+00 -0.74505805969E-08  0.93827000000E+00  0.93827000000E+00 0.  1.
     999902    2    1    2    0    0 -0.21673106231E-01  0.81325958848E-03  0.10592877511E-01  0.10197930164E+01  0.10195073331E+01 0.  0.
     999903    2    3    3    0    0 -0.58103228158E-01  0.62226361546E-01  0.99539413845E-01  0.13243164173E+00  0.19543275801E-01 0.  0.
         14    1    1    2    0    0  0.21673106231E-01 -0.81325958848E-03 -0.10592877511E-01  0.24136983631E-01  0.00000000000E+00 0.  1.
     999901    1    3    3    0    0  0.36430121927E-01 -0.61413101957E-01 -0.88946536334E-01  0.88736137464E+00  0.88000000000E+00 0.  1.
        -11    1    4    4    0    0 -0.43324325968E-01  0.56777378583E-01  0.78243505009E-01  0.10593854415E+00  0.51100000000E-03 0.  1.
         11    1    4    4    0    0 -0.14778902190E-01  0.54489829627E-02  0.21295908835E-01  0.26493097580E-01  0.51100000000E-03 0. -1.
</event>
<event>
 8    1  0.1131349E+005  0.1043930E+01  0.7957747E-01            NaN
         13   -1    0    0    0    0  0.00000000000E+00  0.00000000000E+00  0.74505805969E-08  0.10566000000E+00  0.10566000000E+00 0.  1.
     999900   -1    0    0    0    0 -0.00000000000E+00 -0.00000000000E+00 -0.74505805969E-08  0.93827000000E+00  0.93827000000E+00 0.  1.
     999902    2    1    2    0    0 -0.77376851560E-02  0.21677462565E-01 -0.49921717327E-02  0.10203778041E+01  0.10201059539E+01 0.  0.
     999903    2    3    3    0    0  0.39044061295E-01 -0.11973337534E+00 -0.93670799024E-02  0.12785066347E+00  0.19938156118E-01 0.  0.
         14    1    1    2    0    0  0.77376851560E-02 -0.21677462565E-01  0.49921717327E-02  0.23552195936E-01  0.00000000000E+00 0. -1.
     999901    1    3    3    0    0 -0.46781746451E-01  0.14141083791E+00  0.43749081697E-02  0.89252714060E+00  0.88000000000E+00 0. -1.
        -11    1    4    4    0    0  0.11859873656E-01 -0.48061412835E-01 -0.12746696051E-01  0.51120400898E-01  0.51100000000E-03 0. -1.
         11    1    4    4    0    0  0.27184187640E-01 -0.71671962510E-01  0.33796161485E-02  0.76730262569E-01  0.51100000000E-03 0.  1.
</event>
<event>
 8    1  0.1131349E+005  0.1043930E+01  0.7957747E-01            NaN
         13   -1    0    0    0    0  0.00000000000E+00  0.00000000000E+00  0.74505805969E-08  0.10566000000E+00  0.10566000000E+00 0.  1.
     999900   -1    0    0    0    0 -0.00000000000E+00 -0.00000000000E+00 -0.74505805969E-08  0.93827000000E+00  0.93827000000E+00 0. -1.
     999902    2    1    2    0    0 -0.63588913694E-02 -0.19305881715E-02  0.16461306421E-01  0.10261778937E+01  0.10260243331E+01 0.  0.
     999903    2    3    3    0    0 -0.59520716721E-01  0.11079572397E+00 -0.46861565723E-01  0.13514299690E+00  0.15786548061E-01 0.  0.
         14    1    1    2    0    0  0.63588913694E-02  0.19305881715E-02 -0.16461306421E-01  0.17752106332E-01  0.00000000000E+00 0. -1.
     999901    1    3    3    0    0  0.53161825352E-01 -0.11272631214E+00  0.63322872145E-01  0.89103489677E+00  0.88000000000E+00 0.  1.
        -11    1    4    4    0    0 -0.45355085789E-02  0.19836936488E-01 -0.54462740905E-02  0.21071257906E-01  0.51100000000E-03 0.  1.
         11    1    4    4    0    0 -0.54985208142E-01  0.90958787482E-01 -0.41415291633E-01  0.11407173899E+00  0.51100000000E-03 0. -1.
</event>
<event>
 8    1  0.1131349E+005  0.1043930E+01  0.7957747E-01            NaN
         13   -1    0    0    0    0  0.00000000000E+00  0.00000000000E+00  0.74505805969E-08  0.10566000000E+00  0.10566000000E+00 0.  1.
     999900   -1    0    0    0    0 -0.00000000000E+00 -0.00000000000E+00 -0.74505805969E-08  0.93827000000E+00  0.93827000000E+00 0.  1.
     999902    2    1    2    0    0 -0.14866775163E-01 -0.14580463144E-01 -0.11848606526E-01  0.10199716948E+01  0.10196902755E+01 0.  0.
     999903    2    3    3    0    0  0.38353186212E-01  0.31860212424E-01  0.11612949618E+00  0.12791368361E+00  0.19743620322E-01 0.  0.
         14    1    1    2    0    0  0.14866775163E-01  0.14580463144E-01  0.11848606526E-01  0.23958305154E-01  0.00000000000E+00 0.  1.
     999901    1    3    3    0    0 -0.53219961375E-01 -0.46440675568E-01 -0.12797810271E+00  0.89205801123E+00  0.88000000000E+00 0.  1.
        -11    1    4    4    0    0  0.21609465395E-01  0.29137548686E-01  0.85875844057E-01  0.93224929346E-01  0.51100000000E-03 0.  1.
         11    1    4    4    0    0  0.16743720817E-01  0.27226637388E-02  0.30253652124E-01  0.34688754265E-01  0.51100000000E-03 0. -1.
</event>
<event>
 8    1  0.1131349E+005  0.1043930E+01  0.7957747E-01            NaN
         13   -1    0    0    0    0  0.00000000000E+00  0.00000000000E+00  0.74505805969E-08  0.10566000000E+00  0.10566000000E+00 0.  1.
     999900   -1    0    0    0    0 -0.00000000000E+00 -0.00000000000E+00 -0.74505805969E-08  0.93827000000E+00  0.93827000000E+00 0.  1.
     999902    2    1    2    0    0 -0.24837164479E-02  0.23175378230E-01 -0.26863970377E-02  0.10204676103E+01  0.10201978533E+01 0.  0.
     999903    2    3    3    0    0  0.11747755794E+00 -0.19314903541E-01  0.47959005793E-01  0.12987169278E+00  0.19812829936E-01 0.  0.
         14    1    1    2    0    0  0.24837164479E-02 -0.23175378230E-01  0.26863970377E-02  0.23462389745E-01  0.00000000000E+00 0. -1.
     999901    1    3    3    0    0 -0.11996127439E+00  0.42490281771E-01 -0.50645402830E-01  0.89059591748E+00  0.88000000000E+00 0. -1.
        -11    1    4    4    0    0  0.78970978845E-01 -0.17418568569E-01  0.41079365572E-01  0.90706104687E-01  0.51100000000E-03 0.  1.
         11    1    4    4    0    0  0.38506579096E-01 -0.18963349718E-02  0.68796402205E-02  0.39165588092E-01  0.51100000000E-03 0. -1.
</event>
<event>
 8    1  0.1131349E+005  0.1043930E+01  0.7957747E-01            NaN
         13   -1    0    0    0    0  0.00000000000E+00  0.00000000000E+00  0.74505805969E-08  0.10566000000E+00  0.10566000000E+00 0.  1.
     999900   -1    0    0    0    0 -0.00000000000E+00 -0.00000000000E+00 -0.74505805969E-08  0.93827000000E+00  0.93827000000E+00 0.  1.
     999902    2    1    2    0    0 -0.17447980303E-01 -0.19530085953E-01 -0.38655385490E-02  0.10174573979E+01  0.10171129524E+01 0.  0.
     999903    2    3    3    0    0  0.84703453545E-01 -0.26982192938E-01  0.87998967092E-01  0.12676691477E+00  0.20574710014E-01 0.  0.
         14    1    1    2    0    0  0.17447980303E-01  0.19530085953E-01  0.38655385490E-02  0.26472602106E-01  0.00000000000E+00 0.  1.
     999901    1    3    3    0    0 -0.10215143385E+00  0.74521069854E-02 -0.91864505641E-01  0.89069048313E+00  0.88000000000E+00 0.  1.
        -11    1    4    4    0    0  0.38864401244E-01 -0.65835357486E-02  0.26991459597E-01  0.47776402535E-01  0.51100000000E-03 0. -1.
         11    1    4    4    0    0  0.45839052301E-01 -0.20398657190E-01  0.61007507495E-01  0.78990512233E-01  0.51100000000E-03 0.  1.
</event>
<event>
 8    1  0.1131349E+005  0.1043930E+01  0.7957747E-01            NaN
         13   -1    0    0    0    0  0.00000000000E+00  0.00000000000E+00  0.74505805969E-08  0.10566000000E+00  0.10566000000E+00 0.  1.
     999900   -1    0    0    0    0 -0.00000000000E+00 -0.00000000000E+00 -0.74505805969E-08  0.93827000000E+00  0.93827000000E+00 0. -1.
     999902    2    1    2    0    0 -0.61115381521E-02  0.11492961715E-01 -0.20347266531E-01  0.10197752836E+01  0.10194891754E+01 0.  0.
     999903    2    3    3    0    0  0.10792976028E+00 -0.56461549910E-01  0.34278630723E-01  0.12814350871E+00  0.20223613159E-01 0.  0.
         14    1    1    2    0    0  0.61115381521E-02 -0.11492961715E-01  0.20347266531E-01  0.24154716368E-01  0.00000000000E+00 0.  1.
     999901    1    3    3    0    0 -0.11404129843E+00  0.67954511624E-01 -0.54625897254E-01  0.89163177492E+00  0.88000000000E+00 0. -1.
        -11    1    4    4    0    0  0.15201350862E-01 -0.25817556477E-02  0.93432226650E-02  0.18036170908E-01  0.51100000000E-03 0. -1.
         11    1    4    4    0    0  0.92728409414E-01 -0.53879794262E-01  0.24935408058E-01  0.11010733780E+00  0.51100000000E-03 0.  1.
</event>
<event>
 8    1  0.1131349E+005  0.1043930E+01  0.7957747E-01            NaN
         13   -1    0    0    0    0  0.00000000000E+00  0.00000000000E+00  0.74505805969E-08  0.10566000000E+00  0.10566000000E+00 0. -1.
     999900   -1    0    0    0    0 -0.00000000000E+00 -0.00000000000E+00 -0.74505805969E-08  0.93827000000E+00  0.93827000000E+00 0. -1.
     999902    2    1    2    0    0  0.15400230549E-01  0.47601758576E-02 -0.17077996336E-01  0.10204462964E+01  0.10201760434E+01 0.  0.
     999903    2    3    3    0    0 -0.98945494513E-01 -0.37117839769E-01  0.68874073606E-01  0.12791255960E+00  0.21214145617E-01 0.  0.
         14    1    1    2    0    0 -0.15400230549E-01 -0.47601758576E-02  0.17077996336E-01  0.23483703584E-01  0.00000000000E+00 0. -1.
     999901    1    3    3    0    0  0.11434572506E+00  0.41878015627E-01 -0.85952069942E-01  0.89253373682E+00  0.88000000000E+00 0. -1.
        -11    1    4    4    0    0 -0.76119351665E-01 -0.20487209032E-01  0.56964428807E-01  0.97257846481E-01  0.51100000000E-03 0. -1.
         11    1    4    4    0    0 -0.22826142848E-01 -0.16630630737E-01  0.11909644799E-01  0.30654713117E-01  0.51100000000E-03 0.  1.
</event>
<event>
 8    1  0.1131349E+005  0.1043930E+01  0.7957747E-01            NaN
         13   -1    0    0    0    0  0.00000000000E+00  0.00000000000E+00  0.74505805969E-08  0.10566000000E+00  0.10566000000E+00 0.  1.
     999900   -1    0    0    0    0 -0.00000000000E+00 -0.00000000000E+00 -0.74505805969E-08  0.93827000000E+00  0.93827000000E+00 0.  1.
     999902    2    1    2    0    0  0.14191498579E-01 -0.17728927122E-01 -0.75698606113E-02  0.10199922416E+01  0.10197113104E+01 0.  0.
     999903    2    3    3    0    0 -0.92139169802E-03  0.12626079915E+00  0.77203511694E-02  0.12803078988E+00  0.19739325525E-01 0.  0.
         14    1    1    2    0    0 -0.14191498579E-01  0.17728927122E-01  0.75698606113E-02  0.23937758427E-01  0.00000000000E+00 0.  1.
     999901    1    3    3    0    0  0.15112890277E-01 -0.14398972627E+00 -0.15290211781E-01  0.89196145169E+00  0.88000000000E+00 0.  1.
        -11    1    4    4    0    0  0.71672926597E-02  0.35688841119E-01 -0.26831029339E-02  0.36503748120E-01  0.51100000000E-03 0.  1.
         11    1    4    4    0    0 -0.80886843577E-02  0.90571958028E-01  0.10403454103E-01  0.91527041763E-01  0.51100000000E-03 0. -1.
</event>
<event>
 8    1  0.1131349E+005  0.1043930E+01  0.7957747E-01            NaN
         13   -1    0    0    0    0  0.00000000000E+00  0.00000000000E+00  0.74505805969E-08  0.10566000000E+00  0.10566000000E+00 0.  1.
     999900   -1    0    0    0    0 -0.00000000000E+00 -0.00000000000E+00 -0.74505805969E-08  0.93827000000E+00  0.93827000000E+00 0. -1.
     999902    2    1    2    0    0 -0.81526717098E-02 -0.30528047061E-01 -0.46904805345E-02  0.10119858562E+01  0.10114815593E+01 0.  0.
     999903    2    3    3    0    0  0.11364008329E+00 -0.37955829513E-01 -0.21643398813E-01  0.12340493782E+00  0.20140219505E-01 0.  0.
         14    1    1    2    0    0  0.81526717098E-02  0.30528047061E-01  0.46904805345E-02  0.31944143767E-01  0.00000000000E+00 0. -1.
     999901    1    3    3    0    0 -0.12179275500E+00  0.74277824520E-02  0.16952918278E-01  0.88858091841E+00  0.88000000000E+00 0.  1.
        -11    1    4    4    0    0  0.62133985770E-01 -0.29455087493E-01 -0.66261415848E-02  0.69082568280E-01  0.51100000000E-03 0. -1.
         11    1    4    4    0    0  0.51506097524E-01 -0.85007420203E-02 -0.15017257228E-01  0.54322369543E-01  0.51100000000E-03 0.  1.
</event>
<event>
 8    1  0.1131349E+005  0.1043930E+01  0.7957747E-01            NaN
         13   -1    0    0    0    0  0.00000000000E+00  0.00000000000E+00  0.74505805969E-08  0.10566000000E+00  0.10566000000E+00 0.  1.
     999900   -1    0    0    0    0 -0.00000000000E+00 -0.00000000000E+00 -0.74505805969E-08  0.93827000000E+00  0.93827000000E+00 0.  1.
     999902    2    1    2    0    0 -0.15250947231E-01 -0.67980633530E-02  0.18138564244E-01  0.10192761449E+01  0.10189779424E+01 0.  0.
     999903    2    3    3    0    0  0.63912724739E-01 -0.10910388346E+00  0.21684051423E-01  0.12981229616E+00  0.19812631846E-01 0.  0.
         14    1    1    2    0    0  0.15250947231E-01  0.67980633530E-02 -0.18138564244E-01  0.24653855067E-01  0.00000000000E+00 0. -1.
     999901    1    3    3    0    0 -0.79163671970E-01  0.10230582010E+00 -0.35454871790E-02  0.88946384877E+00  0.88000000000E+00 0. -1.
        -11    1    4    4    0    0  0.27238219719E-01 -0.52568682609E-01  0.19673940921E-01  0.62391602617E-01  0.51100000000E-03 0.  1.
         11    1    4    4    0    0  0.36674505020E-01 -0.56535200847E-01  0.20101105024E-02  0.67420693548E-01  0.51100000000E-03 0. -1.
</event>
<event>
 7    1  0.1131349E+005  0.1043930E+01  0.7957747E-01            NaN
         13   -1    0    0    0    0  0.00000000000E+00  0.00000000000E+00  0.74505805969E-08  0.10566000000E+00  0.10566000000E+00 0. -1.
     999900   -1    0    0    0    0 -0.00000000000E+00 -0.00000000000E+00 -0.74505805969E-08  0.93827000000E+00  0.93827000000E+00 0.  1.
     999903    2    1    2    0    0 -0.95111004934E-01  0.35457534932E-01 -0.23727169278E-01  0.10598464506E+00  0.19142266961E-01 0.  0.
         14    1    1    2    0    0 -0.14925485196E-01  0.44708664061E-01 -0.75085887276E-03  0.47140200885E-01  0.00000000000E+00 0. -1.
     999901    1    1    2    0    0  0.11003649013E+00 -0.80166198993E-01  0.24478028150E-01  0.89080515405E+00  0.88000000000E+00 0.  1.
        -11    1    3    3    0    0 -0.57284566682E-01  0.12825882867E-01 -0.83451377879E-02  0.59295255265E-01  0.51100000000E-03 0.  1.
         11    1    3    3    0    0 -0.37826438252E-01  0.22631652066E-01 -0.15382031490E-01  0.46689389799E-01  0.51100000000E-03 0. -1.
</event>
<event>
 8    1  0.1131349E+005  0.1043930E+01  0.7957747E-01            NaN
         13   -1    0    0    0    0  0.00000000000E+00  0.00000000000E+00  0.74505805969E-08  0.10566000000E+00  0.10566000000E+00 0. -1.
     999900   -1    0    0    0    0 -0.00000000000E+00 -0.00000000000E+00 -0.74505805969E-08  0.93827000000E+00  0.93827000000E+00 0. -1.
     999902    2    1    2    0    0  0.70188603006E-02  0.19850672325E-01 -0.99537142867E-02  0.10206407317E+01  0.10203749865E+01 0.  0.
     999903    2    3    3    0    0 -0.44829625345E-02  0.83350180231E-01 -0.10226112235E+00  0.13346254380E+00  0.19686644096E-01 0.  0.
         14    1    1    2    0    0 -0.70188603006E-02 -0.19850672325E-01  0.99537142867E-02  0.23289268339E-01  0.00000000000E+00 0. -1.
     999901    1    3    3    0    0  0.11501822835E-01 -0.63499507906E-01  0.92307408063E-01  0.88717818786E+00  0.88000000000E+00 0.  1.
        -11    1    4    4    0    0  0.62653257162E-03  0.33139376221E-01 -0.55564991081E-01  0.64701933157E-01  0.51100000000E-03 0.  1.
         11    1    4    4    0    0 -0.51094951061E-02  0.50210804010E-01 -0.46696131268E-01  0.68760610643E-01  0.51100000000E-03 0. -1.
</event>
<event>
 8    1  0.1131349E+005  0.1043930E+01  0.7957747E-01            NaN
         13   -1    0    0    0    0  0.00000000000E+00  0.00000000000E+00  0.74505805969E-08  0.10566000000E+00  0.10566000000E+00 0. -1.
     999900   -1    0    0    0    0 -0.00000000000E+00 -0.00000000000E+00 -0.74505805969E-08  0.93827000000E+00  0.93827000000E+00 0.  1.
     999902    2    1    2    0    0  0.80935469309E-02 -0.24030861170E-01  0.25192777754E-02  0.10184479563E+01  0.10181291201E+01 0.  0.
     999903    2    3    3    0    0  0.56232475358E-01  0.95892458602E-01 -0.57976971431E-01  0.12695552491E+00  0.19973011496E-01 0.  0.
         14    1    1    2    0    0 -0.80935469309E-02  0.24030861170E-01 -0.25192777754E-02  0.25482043698E-01  0.00000000000E+00 0. -1.
     999901    1    3    3    0    0 -0.48138928427E-01 -0.11992331977E+00  0.60496249206E-01  0.89149243139E+00  0.88000000000E+00 0. -1.
        -11    1    4    4    0    0  0.36227193512E-01  0.48552630434E-01 -0.39589228645E-01  0.72369438423E-01  0.51100000000E-03 0. -1.
         11    1    4    4    0    0  0.20005281845E-01  0.47339828168E-01 -0.18387742785E-01  0.54586086491E-01  0.51100000000E-03 0.  1.
</event>
<event>
 8    1  0.1131349E+005  0.1043930E+01  0.7957747E-01            NaN
         13   -1    0    0    0    0  0.00000000000E+00  0.00000000000E+00  0.74505805969E-08  0.10566000000E+00  0.10566000000E+00 0.  1.
     999900   -1    0    0    0    0 -0.00000000000E+00 -0.00000000000E+00 -0.74505805969E-08  0.93827000000E+00  0.93827000000E+00 0. -1.
     999902    2    1    2    0    0  0.72146610908E-02  0.22591831032E-01 -0.18620240497E-02  0.10201411518E+01  0.10198637460E+01 0.  0.
     999903    2    3    3    0    0 -0.80547735870E-01 -0.87071046699E-01 -0.43916931133E-01  0.12801066793E+00  0.19716220173E-01 0.  0.
         14    1    1    2    0    0 -0.72146610908E-02 -0.22591831032E-01  0.18620240497E-02  0.23788848178E-01  0.00000000000E+00 0. -1.
     999901    1    3    3    0    0  0.87762396960E-01  0.10966287773E+00  0.42054907083E-01  0.89213048389E+00  0.88000000000E+00 0. -1.
        -11    1    4    4    0    0 -0.69215841348E-01 -0.82145899209E-01 -0.35843955332E-01  0.11324235826E+00  0.51100000000E-03 0. -1.
         11    1    4    4    0    0 -0.11331894522E-01 -0.49251474905E-02 -0.80729758000E-02  0.14768309671E-01  0.51100000000E-03 0.  1.
</event>
<event>
 8    1  0.1131349E+005  0.1043930E+01  0.7957747E-01            NaN
         13   -1    0    0    0    0  0.00000000000E+00  0.00000000000E+00  0.74505805969E-08  0.10566000000E+00  0.10566000000E+00 0. -1.
     999900   -1    0    0    0    0 -0.00000000000E+00 -0.00000000000E+00 -0.74505805969E-08  0.93827000000E+00  0.93827000000E+00 0.  1.
     999902    2    1    2    0    0  0.13840548441E-01 -0.15431071230E-01 -0.12089684142E-01  0.10199333502E+01  0.10196510185E+01 0.  0.
     999903    2    3    3    0    0 -0.11465132436E+00 -0.37025732850E-01  0.40629447486E-01  0.12877915609E+00  0.20432522346E-01 0.  0.
         14    1    1    2    0    0 -0.13840548441E-01  0.15431071230E-01  0.12089684142E-01  0.23996649831E-01  0.00000000000E+00 0. -1.
     999901    1    3    3    0    0  0.12849187280E+00  0.21594661620E-01 -0.52719131628E-01  0.89115419408E+00  0.88000000000E+00 0. -1.
        -11    1    4    4    0    0 -0.52461953760E-01 -0.17177859039E-01  0.79497533371E-02  0.55774502531E-01  0.51100000000E-03 0.  1.
         11    1    4    4    0    0 -0.62189370601E-01 -0.19847873811E-01  0.32679694149E-01  0.73004653558E-01  0.51100000000E-03 0. -1.
</event>
<event>
 8    1  0.1131349E+005  0.1043930E+01  0.7957747E-01            NaN
         13   -1    0    0    0    0  0.00000000000E+00  0.00000000000E+00  0.74505805969E-08  0.10566000000E+00  0.10566000000E+00 0. -1.
     999900   -1    0    0    0    0 -0.00000000000E+00 -0.00000000000E+00 -0.74505805969E-08  0.93827000000E+00  0.93827000000E+00 0.  1.
     999902    2    1    2    0    0  0.11695652475E-01 -0.20684445140E-01 -0.39301103103E-02  0.10198451433E+01  0.10195607073E+01 0.  0.
     999903    2    3    3    0    0 -0.81352692518E-01  0.28672645227E-01  0.92407915271E-01  0.12834352685E+00  0.22191370279E-01 0.  0.
         14    1    1    2    0    0 -0.11695652475E-01  0.20684445140E-01  0.39301103103E-02  0.24084856749E-01  0.00000000000E+00 0. -1.
     999901    1    3    3    0    0  0.93048344993E-01 -0.49357090367E-01 -0.96338025581E-01  0.89150161640E+00  0.88000000000E+00 0. -1.
        -11    1    4    4    0    0 -0.40653480693E-01  0.26593534490E-02  0.43562329206E-01  0.59646586659E-01  0.51100000000E-03 0. -1.
         11    1    4    4    0    0 -0.40699211825E-01  0.26013291778E-01  0.48845586065E-01  0.68696940189E-01  0.51100000000E-03 0.  1.
</event>
<event>
 8    1  0.1131349E+005  0.1043930E+01  0.7957747E-01            NaN
         13   -1    0    0    0    0  0.00000000000E+00  0.00000000000E+00  0.74505805969E-08  0.10566000000E+00  0.10566000000E+00 0. -1.
     999900   -1    0    0    0    0 -0.00000000000E+00 -0.00000000000E+00 -0.74505805969E-08  0.93827000000E+00  0.93827000000E+00 0. -1.
     999902    2    1    2    0    0  0.17076551053E-01  0.21148521800E-02  0.16686283478E-01  0.10199609939E+01  0.10196793201E+01 0.  0.
     999903    2    3    3    0    0  0.45178193506E-01 -0.15104363434E-01 -0.11837970904E+00  0.12904628082E+00  0.19234763289E-01 0.  0.
         14    1    1    2    0    0 -0.17076551053E-01 -0.21148521800E-02 -0.16686283478E-01  0.23969006069E-01  0.00000000000E+00 0.  1.
     999901    1    3    3    0    0 -0.28101642453E-01  0.17219215614E-01  0.13506599252E+00  0.89091471311E+00  0.88000000000E+00 0.  1.
        -11    1    4    4    0    0  0.38923324617E-01 -0.14585249943E-01 -0.80021198791E-01  0.90174320581E-01  0.51100000000E-03 0.  1.
         11    1    4    4    0    0  0.62548688889E-02 -0.51911349142E-03 -0.38358510250E-01  0.38871960244E-01  0.51100000000E-03 0. -1.
</event>
<event>
 8    1  0.1131349E+005  0.1043930E+01  0.7957747E-01            NaN
         13   -1    0    0    0    0  0.00000000000E+00  0.00000000000E+00  0.74505805969E-08  0.10566000000E+00  0.10566000000E+00 0.  1.
     999900   -1    0    0    0    0 -0.00000000000E+00 -0.00000000000E+00 -0.74505805969E-08  0.93827000000E+00  0.93827000000E+00 0.  1.
     999902    2    1    2    0    0  0.34649699994E-02  0.20620371079E-01 -0.13146224365E-01  0.10192312362E+01  0.10189319329E+01 0.  0.
     999903    2    3    3    0    0 -0.33701017204E-01 -0.72206958338E-01  0.96472358125E-01  0.12681067536E+00  0.20601653111E-01 0.  0.
         14    1    1    2    0    0 -0.34649699994E-02 -0.20620371079E-01  0.13146224365E-01  0.24698763848E-01  0.00000000000E+00 0.  1.
     999901    1    3    3    0    0  0.37165987203E-01  0.92827329417E-01 -0.10961858249E+00  0.89242056079E+00  0.88000000000E+00 0.  1.
        -11    1    4    4    0    0 -0.15796195258E-01 -0.55231893526E-01  0.71224132988E-01  0.91505300874E-01  0.51100000000E-03 0.  1.
         11    1    4    4    0    0 -0.17904821946E-01 -0.16975064812E-01  0.25248225137E-01  0.35305374490E-01  0.51100000000E-03 0. -1.
</event>
<event>
 8    1  0.1131349E+005  0.1043930E+01  0.7957747E-01            NaN
         13   -1    0    0    0    0  0.00000000000E+00  0.00000000000E+00  0.74505805969E-08  0.10566000000E+00  0.10566000000E+00 0. -1.
     999900   -1    0    0    0    0 -0.00000000000E+00 -0.00000000000E+00 -0.74505805969E-08  0.93827000000E+00  0.93827000000E+00 0. -1.
     999902    2    1    2    0    0 -0.15408392172E-01  0.12749034039E-01 -0.57354144749E-02  0.10231249190E+01  0.10229133631E+01 0.  0.
     999903    2    3    3    0    0  0.18317627963E-02 -0.91408602703E-01  0.91861358802E-01  0.13145728671E+00  0.21991384331E-01 0.  0.
         14    1    1    2    0    0  0.15408392172E-01 -0.12749034039E-01  0.57354144749E-02  0.20805081049E-01  0.00000000000E+00 0.  1.
     999901    1    3    3    0    0 -0.17240154968E-01  0.10415763674E+00 -0.97596773277E-01  0.89166763224E+00  0.88000000000E+00 0.  1.
        -11    1    4    4    0    0 -0.67391180200E-02 -0.48162361166E-01  0.59039641441E-01  0.76491627824E-01  0.51100000000E-03 0. -1.
         11    1    4    4    0    0  0.85708808164E-02 -0.43246241537E-01  0.32821717361E-01  0.54965658884E-01  0.51100000000E-03 0.  1.
</event>
<event>
 8    1  0.1131349E+005  0.1043930E+01  0.7957747E-01            NaN
         13   -1    0    0    0    0  0.00000000000E+00  0.00000000000E+00  0.74505805969E-08  0.10566000000E+00  0.10566000000E+00 0.  1.
     999900   -1    0    0    0    0 -0.00000000000E+00 -0.00000000000E+00 -0.74505805969E-08  0.93827000000E+00  0.93827000000E+00 0.  1.
     999902    2    1    2    0    0 -0.14995697048E-01 -0.15936415884E-01  0.65943026644E-02  0.10210755670E+01  0.10208197629E+01 0.  0.
     999903    2    3    3    0    0  0.89595949729E-01  0.52582050046E-01 -0.73237298372E-01  0.12865902899E+00  0.19928313345E-01 0.  0.
         14    1    1    2    0    0  0.14995697048E-01  0.15936415884E-01 -0.65943026644E-02  0.22854433024E-01  0.00000000000E+00 0.  1.
     999901    1    3    3    0    0 -0.10459164678E+00 -0.68518465930E-01  0.79831601036E-01  0.89241653799E+00  0.88000000000E+00 0.  1.
        -11    1    4    4    0    0  0.38522405310E-01  0.31685305791E-01 -0.42241232471E-01  0.65364494610E-01  0.51100000000E-03 0. -1.
         11    1    4    4    0    0  0.51073544419E-01  0.20896744255E-01 -0.30996065901E-01  0.63294534379E-01  0.51100000000E-03 0.  1.
</event>
<event>
 8    1  0.1131349E+005  0.1043930E+01  0.7957747E-01            NaN
         13   -1    0    0    0    0  0.00000000000E+00  0.00000000000E+00  0.74505805969E-08  0.10566000000E+00  0.10566000000E+00 0. -1.
     999900   -1    0    0    0    0 -0.00000000000E+00 -0.00000000000E+00 -0.74505805969E-08  0.93827000000E+00  0.93827000000E+00 0. -1.
     999902    2    1    2    0    0 -0.13471581031E-01  0.63571639925E-02 -0.17534890218E-01  0.10209219709E+01  0.10206626775E+01 0.  0.
     999903    2    3    3    0    0 -0.54322759707E-01 -0.11390666374E+00 -0.31760776615E-01  0.13168938999E+00  0.20190548232E-01 0.  0.
         14    1    1    2    0    0  0.13471581031E-01 -0.63571639925E-02  0.17534890218E-01  0.23008029130E-01  0.00000000000E+00 0. -1.
     999901    1    3    3    0    0  0.40851178676E-01  0.12026382773E+00  0.14225886397E-01  0.88923258088E+00  0.88000000000E+00 0.  1.
        -11    1    4    4    0    0 -0.22731364642E-01 -0.58885219528E-01 -0.67211637365E-02  0.63479281505E-01  0.51100000000E-03 0. -1.
         11    1    4    4    0    0 -0.31591395065E-01 -0.55021444210E-01 -0.25039612879E-01  0.68210108483E-01  0.51100000000E-03 0.  1.
</event>
<event>
 8    1  0.1131349E+005  0.1043930E+01  0.7957747E-01            NaN
         13   -1    0    0    0    0  0.00000000000E+00  0.00000000000E+00  0.74505805969E-08  0.10566000000E+00  0.10566000000E+00 0. -1.
     999900   -1    0    0    0    0 -0.00000000000E+00 -0.00000000000E+00 -0.74505805969E-08  0.93827000000E+00  0.93827000000E+00 0. -1.
     999902    2    1    2    0    0 -0.85984140018E-02  0.18484055791E-01  0.11838347801E-01  0.10203558718E+01  0.10200835091E+01 0.  0.
     999903    2    3    3    0    0  0.90959692874E-01 -0.80933270875E-01 -0.34066979932E-01  0.12799780432E+00  0.19975453079E-01 0.  0.
         14    1    1    2    0    0  0.85984140018E-02 -0.18484055791E-01 -0.11838347801E-01  0.23574128202E-01  0.00000000000E+00 0.  1.
     999901    1    3    3    0    0 -0.99558106876E-01  0.99417326666E-01  0.45905327733E-01  0.89235806748E+00  0.88000000000E+00 0.  1.
        -11    1    4    4    0    0  0.59611242979E-01 -0.54668064315E-01 -0.12776200851E-01  0.81887666804E-01  0.51100000000E-03 0.  1.
         11    1    4    4    0    0  0.31348449895E-01 -0.26265206560E-01 -0.21290779081E-01  0.46110137511E-01  0.51100000000E-03 0. -1.
</event>
<event>
 8    1  0.1131349E+005  0.1043930E+01  0.7957747E-01            NaN
         13   -1    0    0    0    0  0.00000000000E+00  0.00000000000E+00  0.74505805969E-08  0.10566000000E+00  0.10566000000E+00 0.  1.
     999900   -1    0    0    0    0 -0.00000000000E+00 -0.00000000000E+00 -0.74505805969E-08  0.93827000000E+00  0.93827000000E+00 0. -1.
     999902    2    1    2    0    0 -0.12219881332E-01 -0.16589908212E-01  0.12084471404E-01  0.10200430788E+01  0.10197633537E+01 0.  0.
     999903    2    3    3    0    0  0.12587512487E-01  0.10938984917E+00 -0.61618340442E-01  0.12767633217E+00  0.19489518884E-01 0.  0.
         14    1    1    2    0    0  0.12219881332E-01  0.16589908212E-01 -0.12084471404E-01  0.23886921178E-01  0.00000000000E+00 0. -1.
     999901    1    3    3    0    0 -0.24807393819E-01 -0.12597975738E+00  0.73702811845E-01  0.89236674665E+00  0.88000000000E+00 0. -1.
        -11    1    4    4    0    0  0.13589133089E-01  0.43613292679E-01 -0.30272924972E-01  0.54804150790E-01  0.51100000000E-03 0. -1.
         11    1    4    4    0    0 -0.10016206016E-02  0.65776556487E-01 -0.31345415470E-01  0.72872181380E-01  0.51100000000E-03 0.  1.
</event>
<event>
 8    1  0.1131349E+005  0.1043930E+01  0.7957747E-01            NaN
         13   -1    0    0    0    0  0.00000000000E+00  0.00000000000E+00  0.74505805969E-08  0.10566000000E+00  0.10566000000E+00 0.  1.
     999900   -1    0    0    0    0 -0.00000000000E+00 -0.00000000000E+00 -0.74505805969E-08  0.93827000000E+00  0.93827000000E+00 0.  1.
     999902    2    1    2    0    0 -0.19759776106E-01  0.75895331734E-02  0.10106726606E-01  0.10204737495E+01  0.10202041353E+01 0.  0.
     999903    2    3    3    0    0 -0.64740910201E-01  0.39227509148E-01 -0.10535608258E+00  0.13122916881E+00  0.19773914184E-01 0.  0.
         14    1    1    2    0    0  0.19759776106E-01 -0.75895331734E-02 -0.10106726606E-01  0.23456250515E-01  0.00000000000E+00 0.  1.
     999901    1    3    3    0    0  0.44981134096E-01 -0.31637975974E-01  0.11546280919E+00  0.88924458067E+00  0.88000000000E+00 0. -1.
        -11    1    4    4    0    0 -0.52707338720E-01  0.29355181151E-01 -0.68875751683E-01  0.91563751050E-01  0.51100000000E-03 0. -1.
         11    1    4    4    0    0 -0.12033571481E-01  0.98723279964E-02 -0.36480330901E-01  0.39665417763E-01  0.51100000000E-03 0.  1.
</event>
<event>
 8    1  0.1131349E+005  0.1043930E+01  0.7957747E-01            NaN
         13   -1    0    0    0    0  0.00000000000E+00  0.00000000000E+00  0.74505805969E-08  0.10566000000E+00  0.10566000000E+00 0.  1.
     999900   -1    0    0    0    0 -0.00000000000E+00 -0.00000000000E+00 -0.74505805969E-08  0.93827000000E+00  0.93827000000E+00 0. -1.
     999902    2    1    2    0    0  0.56636854221E-02  0.63286779489E-02  0.21555013739E-01  0.10207621750E+01  0.10204992258E+01 0.  0.
     999903    2    3    3    0    0 -0.70441439252E-01 -0.39223214426E-01 -0.97885026753E-01  0.12827526297E+00  0.19303049348E-01 0.  0.
         14    1    1    2    0    0 -0.56636854221E-02 -0.63286779489E-02 -0.21555013739E-01  0.23167824983E-01  0.00000000000E+00 0. -1.
     999901    1    3    3    0    0  0.76105124674E-01  0.45551892375E-01  0.11944004049E+00  0.89248691205E+00  0.88000000000E+00 0.  1.
        -11    1    4    4    0    0 -0.41226120785E-01 -0.31485656646E-01 -0.53018607137E-01  0.74176636707E-01  0.51100000000E-03 0.  1.
         11    1    4    4    0    0 -0.29215318467E-01 -0.77375577798E-02 -0.44866419616E-01  0.54098626264E-01  0.51100000000E-03 0. -1.
</event>
<event>
 8    1  0.1131349E+005  0.1043930E+01  0.7957747E-01            NaN
         13   -1    0    0    0    0  0.00000000000E+00  0.00000000000E+00  0.74505805969E-08  0.10566000000E+00  0.10566000000E+00 0. -1.
     999900   -1    0    0    0    0 -0.00000000000E+00 -0.00000000000E+00 -0.74505805969E-08  0.93827000000E+00  0.93827000000E+00 0. -1.
     999902    2    1    2    0    0  0.18821177464E-01  0.11569966349E-01 -0.81999375131E-02  0.10203643509E+01  0.10200921864E+01 0.  0.
     999903    2    3    3    0    0 -0.57464323543E-01  0.15658832100E-01  0.11252964893E+00  0.12884215290E+00  0.19749201797E-01 0.  0.
         14    1    1    2    0    0 -0.18821177464E-01 -0.11569966349E-01  0.81999375131E-02  0.23565649103E-01  0.00000000000E+00 0.  1.
     999901    1    3    3    0    0  0.76285501006E-01 -0.40888657519E-02 -0.12072958644E+00  0.89152219800E+00  0.88000000000E+00 0. -1.
        -11    1    4    4    0    0 -0.44617860094E-01  0.30322875521E-02  0.79487918147E-01  0.91206022058E-01  0.51100000000E-03 0. -1.
         11    1    4    4    0    0 -0.12846463448E-01  0.12626544548E-01  0.33041730782E-01  0.37636130838E-01  0.51100000000E-03 0.  1.
</event>
<event>
 8    1  0.1131349E+005  0.1043930E+01  0.7957747E-01            NaN
         13   -1    0    0    0    0  0.00000000000E+00  0.00000000000E+00  0.74505805969E-08  0.10566000000E+00  0.10566000000E+00 0. -1.
     999900   -1    0    0    0    0 -0.00000000000E+00 -0.00000000000E+00 -0.74505805969E-08  0.93827000000E+00  0.93827000000E+00 0. -1.
     999902    2    1    2    0    0  0.17152492489E-01  0.76045005279E-02  0.31493589636E-02  0.10249048879E+01  0.10247282930E+01 0.  0.
     999903    2    3    3    0    0 -0.45605404039E-01  0.35946890131E-02 -0.12392617576E+00  0.13355600917E+00  0.19665601443E-01 0.  0.
         14    1    1    2    0    0 -0.17152492489E-01 -0.76045005279E-02 -0.31493589636E-02  0.19025112056E-01  0.00000000000E+00 0. -1.
     999901    1    3    3    0    0  0.62757896528E-01  0.40098115148E-02  0.12707553472E+00  0.89134887877E+00  0.88000000000E+00 0.  1.
        -11    1    4    4    0    0 -0.26055168588E-01  0.47389757509E-02 -0.94976250924E-01  0.98600603760E-01  0.51100000000E-03 0.  1.
         11    1    4    4    0    0 -0.19550235451E-01 -0.11442867379E-02 -0.28949924837E-01  0.34955405410E-01  0.51100000000E-03 0. -1.
</event>
<event>
 8    1  0.1131349E+005  0.1043930E+01  0.7957747E-01            NaN
         13   -1    0    0    0    0  0.00000000000E+00  0.00000000000E+00  0.74505805969E-08  0.10566000000E+00  0.10566000000E+00 0. -1.
     999900   -1    0    0    0    0 -0.00000000000E+00 -0.00000000000E+00 -0.74505805969E-08  0.93827000000E+00  0.93827000000E+00 0. -1.
     999902    2    1    2    0    0 -0.81701071968E-02 -0.11969432697E-01  0.18463239122E-01  0.10204585456E+01  0.10201885778E+01 0.  0.
     999903    2    3    3    0    0 -0.21297731413E-01 -0.41576803960E-01 -0.11888482656E+00  0.12921591757E+00  0.19517360913E-01 0.  0.
         14    1    1    2    0    0  0.81701071968E-02  0.11969432697E-01 -0.18463239122E-01  0.23471454356E-01  0.00000000000E+00 0.  1.
     999901    1    3    3    0    0  0.13127624216E-01  0.29607371263E-01  0.13734806568E+00  0.89124262807E+00  0.88000000000E+00 0.  1.
        -11    1    4    4    0    0 -0.63348049280E-02  0.86372609984E-04 -0.14986614738E-01  0.16278727100E-01  0.51100000000E-03 0.  1.
         11    1    4    4    0    0 -0.14962926485E-01 -0.41663176570E-01 -0.10389821182E+00  0.11293719047E+00  0.51100000000E-03 0. -1.
</event>
<event>
 8    1  0.1131349E+005  0.1043930E+01  0.7957747E-01            NaN
         13   -1    0    0    0    0  0.00000000000E+00  0.00000000000E+00  0.74505805969E-08  0.10566000000E+00  0.10566000000E+00 0. -1.
     999900   -1    0    0    0    0 -0.00000000000E+00 -0.00000000000E+00 -0.74505805969E-08  0.93827000000E+00  0.93827000000E+00 0. -1.
     999902    2    1    2    0    0  0.80551520658E-02 -0.15831968235E-01  0.15827140292E-01  0.10201385086E+01  0.10198610404E+01 0.  0.
     999903    2    3    3    0    0 -0.91561008596E-01 -0.91705742575E-01 -0.20815972097E-02  0.13109355362E+00  0.19693279017E-01 0.  0.
         14    1    1    2    0    0 -0.80551520658E-02  0.15831968235E-01 -0.15827140292E-01  0.23791491395E-01  0.00000000000E+00 0.  1.
     999901    1    3    3    0    0  0.99616160662E-01  0.75873774340E-01  0.17908737502E-01  0.88904495498E+00  0.88000000000E+00 0.  1.
        -11    1    4    4    0    0 -0.38422317939E-01 -0.46951025501E-01 -0.87477776495E-02  0.61298108015E-01  0.51100000000E-03 0. -1.
         11    1    4    4    0    0 -0.53138690657E-01 -0.44754717074E-01  0.66661804397E-02  0.69795445609E-01  0.51100000000E-03 0.  1.
</event>
<event>
 8    1  0.1131349E+005  0.1043930E+01  0.7957747E-01            NaN
         13   -1    0    0    0    0  0.00000000000E+00  0.00000000000E+00  0.74505805969E-08  0.10566000000E+00  0.10566000000E+00 0. -1.
     999900   -1    0    0    0    0 -0.00000000000E+00 -0.00000000000E+00 -0.74505805969E-08  0.93827000000E+00  0.93827000000E+00 0.  1.
     999902    2    1    2    0    0 -0.88678771692E-02 -0.17754484302E-01 -0.10323788228E-01  0.10215594488E+01  0.10213144794E+01 0.  0.
     999903    2    3    3    0    0  0.88890658977E-01  0.42057679525E-01  0.81652006694E-01  0.12937461749E+00  0.20008593010E-01 0.  0.
         14    1    1    2    0    0  0.88678771692E-02  0.17754484302E-01  0.10323788228E-01  0.22370551216E-01  0.00000000000E+00 0.  1.
     999901    1    3    3    0    0 -0.97758536146E-01 -0.59812163828E-01 -0.91975794922E-01  0.89218483129E+00  0.88000000000E+00 0.  1.
        -11    1    4    4    0    0  0.45309241803E-01  0.24746529824E-01  0.30441560271E-01  0.59935530730E-01  0.51100000000E-03 0. -1.
         11    1    4    4    0    0  0.43581417173E-01  0.17311149701E-01  0.51210446424E-01  0.69439086765E-01  0.51100000000E-03 0.  1.
</event>
<event>
 8    1  0.1131349E+005  0.1043930E+01  0.7957747E-01            NaN
         13   -1    0    0    0    0  0.00000000000E+00  0.00000000000E+00  0.74505805969E-08  0.10566000000E+00  0.10566000000E+00 0.  1.
     999900   -1    0    0    0    0 -0.00000000000E+00 -0.00000000000E+00 -0.74505805969E-08  0.93827000000E+00  0.93827000000E+00 0. -1.
     999902    2    1    2    0    0  0.23457106556E-01 -0.30795465055E-02  0.43692189623E-02  0.10198715393E+01  0.10195877340E+01 0.  0.
     999903    2    3    3    0    0  0.35037876183E-01 -0.11350001358E+00 -0.52182451527E-01  0.13109435399E+00  0.18783384991E-01 0.  0.
         14    1    1    2    0    0 -0.23457106556E-01  0.30795465055E-02 -0.43692189623E-02  0.24058460653E-01  0.00000000000E+00 0. -1.
     999901    1    3    3    0    0 -0.11580769627E-01  0.11042046707E+00  0.56551670489E-01  0.88877718536E+00  0.88000000000E+00 0. -1.
        -11    1    4    4    0    0  0.25202620333E-01 -0.62026277297E-01 -0.21274809536E-01  0.70251760041E-01  0.51100000000E-03 0. -1.
         11    1    4    4    0    0  0.98352558498E-02 -0.51473736280E-01 -0.30907641991E-01  0.60842593951E-01  0.51100000000E-03 0.  1.
</event>
<event>
 8    1  0.1131349E+005  0.1043930E+01  0.7957747E-01            NaN
         13   -1    0    0    0    0  0.00000000000E+00  0.00000000000E+00  0.74505805969E-08  0.10566000000E+00  0.10566000000E+00 0. -1.
     999900   -1    0    0    0    0 -0.00000000000E+00 -0.00000000000E+00 -0.74505805969E-08  0.93827000000E+00  0.93827000000E+00 0.  1.
     999902    2    1    2    0    0  0.12267080744E-01 -0.71053436057E-02  0.19375142340E-01  0.10199224321E+01  0.10196398404E+01 0.  0.
     999903    2    3    3    0    0  0.48494498238E-01 -0.56832551915E-01 -0.10358690598E+00  0.12924578683E+00  0.19813404754E-01 0.  0.
         14    1    1    2    0    0 -0.12267080744E-01  0.71053436057E-02 -0.19375142340E-01  0.24007567940E-01  0.00000000000E+00 0.  1.
     999901    1    3    3    0    0 -0.36227417495E-01  0.49727208309E-01  0.12296204832E+00  0.89067664523E+00  0.88000000000E+00 0. -1.
        -11    1    4    4    0    0  0.41966608297E-01 -0.39594351628E-01 -0.87292050561E-01  0.10463781393E+00  0.51100000000E-03 0. -1.
         11    1    4    4    0    0  0.65278899411E-02 -0.17238200286E-01 -0.16294855416E-01  0.24607972899E-01  0.51100000000E-03 0.  1.
</event>
<event>
 8    1  0.1131349E+005  0.1043930E+01  0.7957747E-01            NaN
         13   -1    0    0    0    0  0.00000000000E+00  0.00000000000E+00  0.74505805969E-08  0.10566000000E+00  0.10566000000E+00 0. -1.
     999900   -1    0    0    0    0 -0.00000000000E+00 -0.00000000000E+00 -0.74505805969E-08  0.93827000000E+00  0.93827000000E+00 0. -1.
     999902    2    1    2    0    0 -0.18683524144E-01 -0.12009572774E-01  0.81169565572E-02  0.10202828248E+01  0.10200087517E+01 0.  0.
     999903    2    3    3    0    0  0.19129544997E-01 -0.10081343069E+00 -0.78719371878E-01  0.13075682666E+00  0.19269688873E-01 0.  0.
         14    1    1    2    0    0  0.18683524144E-01  0.12009572774E-01 -0.81169565572E-02  0.23647175231E-01  0.00000000000E+00 0.  1.
     999901    1    3    3    0    0 -0.37813069142E-01  0.88803857917E-01  0.86836328435E-01  0.88952599811E+00  0.88000000000E+00 0.  1.
        -11    1    4    4    0    0  0.17415250906E-01 -0.50628747656E-01 -0.47867688985E-01  0.71820176992E-01  0.51100000000E-03 0. -1.
         11    1    4    4    0    0  0.17142940919E-02 -0.50184683035E-01 -0.30851682893E-01  0.58936649666E-01  0.51100000000E-03 0.  1.
</event>
<event>
 6    1  0.1131349E+005  0.1043930E+01  0.7957747E-01            NaN
         13   -1    0    0    0    0  0.00000000000E+00  0.00000000000E+00  0.74505805969E-08  0.10566000000E+00  0.10566000000E+00 0. -1.
     999900   -1    0    0    0    0 -0.00000000000E+00 -0.00000000000E+00 -0.74505805969E-08  0.93827000000E+00  0.93827000000E+00 0.  1.
         14    1    1    2    0    0 -0.16847378841E-02 -0.24254262286E-02 -0.54589628675E-02  0.62065537714E-02  0.00000000000E+00 0.  1.
     999901    1    1    2    0    0  0.22379584870E-01 -0.90997163389E-01 -0.10054424929E+00  0.89066855543E+00  0.88000000000E+00 0.  1.
        -11    1    1    2    0    0 -0.73382526302E-02  0.69398054158E-01  0.54028644708E-01  0.88256985234E-01  0.51100000000E-03 0.  1.
         11    1    1    2    0    0 -0.13356594356E-01  0.24024535459E-01  0.51974567446E-01  0.58797905567E-01  0.51100000000E-03 0. -1.
</event>
<event>
 8    1  0.1131349E+005  0.1043930E+01  0.7957747E-01            NaN
         13   -1    0    0    0    0  0.00000000000E+00  0.00000000000E+00  0.74505805969E-08  0.10566000000E+00  0.10566000000E+00 0.  1.
     999900   -1    0    0    0    0 -0.00000000000E+00 -0.00000000000E+00 -0.74505805969E-08  0.93827000000E+00  0.93827000000E+00 0. -1.
     999902    2    1    2    0    0 -0.89896506161E-02 -0.63466223033E-02 -0.21256863584E-01  0.10199936744E+01  0.10197127773E+01 0.  0.
     999903    2    3    3    0    0  0.72201740145E-01  0.77534256304E-01 -0.73840929681E-01  0.13072817541E+00  0.20315530220E-01 0.  0.
         14    1    1    2    0    0  0.89896506161E-02  0.63466223033E-02  0.21256863584E-01  0.23936325580E-01  0.00000000000E+00 0.  1.
     999901    1    3    3    0    0 -0.81191390761E-01 -0.83880878607E-01  0.52584066097E-01  0.88926549901E+00  0.88000000000E+00 0.  1.
        -11    1    4    4    0    0  0.28382791562E-01  0.45362787426E-01 -0.36833671443E-01  0.64964188696E-01  0.51100000000E-03 0. -1.
         11    1    4    4    0    0  0.43818948583E-01  0.32171468878E-01 -0.37007258238E-01  0.65763986710E-01  0.51100000000E-03 0.  1.
</event>
<event>
 8    1  0.1131349E+005  0.1043930E+01  0.7957747E-01            NaN
         13   -1    0    0    0    0  0.00000000000E+00  0.00000000000E+00  0.74505805969E-08  0.10566000000E+00  0.10566000000E+00 0.  1.
     999900   -1    0    0    0    0 -0.00000000000E+00 -0.00000000000E+00 -0.74505805969E-08  0.93827000000E+00  0.93827000000E+00 0. -1.
     999902    2    1    2    0    0 -0.24664091849E-01 -0.15070300593E-03 -0.66095110565E-02  0.10183952046E+01  0.10180750302E+01 0.  0.
     999903    2    3    3    0    0 -0.37271571489E-01  0.11742137948E+00 -0.37376105777E-01  0.12995346401E+00  0.17719456140E-01 0.  0.
         14    1    1    2    0    0  0.24664091849E-01  0.15070300593E-03  0.66095110565E-02  0.25534795369E-01  0.00000000000E+00 0.  1.
     999901    1    3    3    0    0  0.12607479640E-01 -0.11757208248E+00  0.30766594721E-01  0.88844174062E+00  0.88000000000E+00 0.  1.
        -11    1    4    4    0    0 -0.50390719444E-02  0.14026597995E-01 -0.10868046704E-01  0.18453001315E-01  0.51100000000E-03 0. -1.
         11    1    4    4    0    0 -0.32232499544E-01  0.10339478148E+00 -0.26508059073E-01  0.11150046270E+00  0.51100000000E-03 0.  1.
</event>
<event>
 8    1  0.1131349E+005  0.1043930E+01  0.7957747E-01            NaN
         13   -1    0    0    0    0  0.00000000000E+00  0.00000000000E+00  0.74505805969E-08  0.10566000000E+00  0.10566000000E+00 0.  1.
     999900   -1    0    0    0    0 -0.00000000000E+00 -0.00000000000E+00 -0.74505805969E-08  0.93827000000E+00  0.93827000000E+00 0.  1.
     999902    2    1    2    0    0  0.18944699690E-01  0.53442771906E-02  0.13684970707E-01  0.10199562358E+01  0.10196744489E+01 0.  0.
     999903    2    3    3    0    0 -0.74734090146E-01 -0.87359794546E-01 -0.52010885106E-01  0.12771988483E+00  0.19756489532E-01 0.  0.
         14    1    1    2    0    0 -0.18944699690E-01 -0.53442771906E-02 -0.13684970707E-01  0.23973764166E-01  0.00000000000E+00 0. -1.
     999901    1    3    3    0    0  0.93678789836E-01  0.92704071736E-01  0.65695855812E-01  0.89223635100E+00  0.88000000000E+00 0. -1.
        -11    1    4    4    0    0 -0.67082721522E-01 -0.67239315328E-01 -0.39962820300E-01  0.10304613132E+00  0.51100000000E-03 0. -1.
         11    1    4    4    0    0 -0.76513686240E-02 -0.20120479217E-01 -0.12048064806E-01  0.24673753511E-01  0.51100000000E-03 0.  1.
</event>
<event>
 8    1  0.1131349E+005  0.1043930E+01  0.7957747E-01            NaN
         13   -1    0    0    0    0  0.00000000000E+00  0.00000000000E+00  0.74505805969E-08  0.10566000000E+00  0.10566000000E+00 0.  1.
     999900   -1    0    0    0    0 -0.00000000000E+00 -0.00000000000E+00 -0.74505805969E-08  0.93827000000E+00  0.93827000000E+00 0. -1.
     999902    2    1    2    0    0 -0.22256550113E-01 -0.37517289251E-02 -0.24176565036E-02  0.10212303402E+01  0.10209780278E+01 0.  0.
     999903    2    3    3    0    0 -0.17201038802E-01  0.12228090556E+00 -0.37307437350E-01  0.13155226360E+00  0.25800340587E-01 0.  0.
         14    1    1    2    0    0  0.22256550113E-01  0.37517289251E-02  0.24176565036E-02  0.22699659818E-01  0.00000000000E+00 0.  1.
     999901    1    3    3    0    0 -0.50555113113E-02 -0.12603263449E+00  0.34889780847E-01  0.88967807659E+00  0.88000000000E+00 0.  1.
        -11    1    4    4    0    0  0.43262687826E-02  0.61058166827E-01 -0.16480294161E-01  0.63393040268E-01  0.51100000000E-03 0.  1.
         11    1    4    4    0    0 -0.21527307585E-01  0.61222738737E-01 -0.20827143189E-01  0.68159223328E-01  0.51100000000E-03 0. -1.
</event>
<event>
 8    1  0.1131349E+005  0.1043930E+01  0.7957747E-01            NaN
         13   -1    0    0    0    0  0.00000000000E+00  0.00000000000E+00  0.74505805969E-08  0.10566000000E+00  0.10566000000E+00 0.  1.
     999900   -1    0    0    0    0 -0.00000000000E+00 -0.00000000000E+00 -0.74505805969E-08  0.93827000000E+00  0.93827000000E+00 0. -1.
     999902    2    1    2    0    0  0.21121584542E-01  0.24063314279E-02  0.71288496134E-02  0.10215083082E+01  0.10212622051E+01 0.  0.
     999903    2    3    3    0    0 -0.14888039318E-01 -0.11193719889E+00  0.64238175672E-01  0.13154616800E+00  0.20646086591E-01 0.  0.
         14    1    1    2    0    0 -0.21121584542E-01 -0.24063314279E-02 -0.71288496134E-02  0.22421691759E-01  0.00000000000E+00 0. -1.
     999901    1    3    3    0    0  0.36009623861E-01  0.11434353032E+00 -0.57109326059E-01  0.88996214024E+00  0.88000000000E+00 0.  1.
        -11    1    4    4    0    0 -0.18795299454E-01 -0.99947166728E-01  0.60704526294E-01  0.11843985838E+00  0.51100000000E-03 0.  1.
         11    1    4    4    0    0  0.39072601355E-02 -0.11990032165E-01  0.35336493782E-02  0.13106309626E-01  0.51100000000E-03 0. -1.
</event>
<event>
 8    1  0.1131349E+005  0.1043930E+01  0.7957747E-01            NaN
         13   -1    0    0    0    0  0.00000000000E+00  0.00000000000E+00  0.74505805969E-08  0.10566000000E+00  0.10566000000E+00 0.  1.
     999900   -1    0    0    0    0 -0.00000000000E+00 -0.00000000000E+00 -0.74505805969E-08  0.93827000000E+00  0.93827000000E+00 0. -1.
     999902    2    1    2    0    0  0.22221944649E-01 -0.30233393050E-03 -0.69786386829E-02  0.10206360603E+01  0.10203702073E+01 0.  0.
     999903    2    3    3    0    0  0.57919057795E-01 -0.10428158980E+00  0.52544528800E-01  0.13180031786E+00  0.19522526816E-01 0.  0.
         14    1    1    2    0    0 -0.22221944649E-01  0.30233393050E-03  0.69786386829E-02  0.23293939720E-01  0.00000000000E+00 0.  1.
     999901    1    3    3    0    0 -0.35697113145E-01  0.10397925587E+00 -0.59523167483E-01  0.88883574242E+00  0.88000000000E+00 0.  1.
        -11    1    4    4    0    0  0.16360188159E-02 -0.15414603225E-01  0.44526716741E-02  0.16136107219E-01  0.51100000000E-03 0.  1.
         11    1    4    4    0    0  0.56283038979E-01 -0.88866986578E-01  0.48091857126E-01  0.11566421064E+00  0.51100000000E-03 0. -1.
</event>
<event>
 8    1  0.1131349E+005  0.1043930E+01  0.7957747E-01            NaN
         13   -1    0    0    0    0  0.00000000000E+00  0.00000000000E+00  0.74505805969E-08  0.10566000000E+00  0.10566000000E+00 0. -1.
     999900   -1    0    0    0    0 -0.00000000000E+00 -0.00000000000E+00 -0.74505805969E-08  0.93827000000E+00  0.93827000000E+00 0. -1.
     999902    2    1    2    0    0  0.82049414524E-02 -0.12077552086E-01 -0.16643433192E-01  0.10217897155E+01  0.10215498179E+01 0.  0.
     999903    2    3    3    0    0  0.92610106609E-02  0.11799496709E+00  0.49440641308E-01  0.12977677815E+00  0.19724516659E-01 0.  0.
         14    1    1    2    0    0 -0.82049414524E-02  0.12077552086E-01  0.16643433192E-01  0.22140284485E-01  0.00000000000E+00 0. -1.
     999901    1    3    3    0    0 -0.10560692085E-02 -0.13007251917E+00 -0.66084074500E-01  0.89201293737E+00  0.88000000000E+00 0. -1.
        -11    1    4    4    0    0  0.13079037996E-01  0.44622026533E-01  0.20131228229E-01  0.50672615462E-01  0.51100000000E-03 0. -1.
         11    1    4    4    0    0 -0.38180273349E-02  0.73372940554E-01  0.29309413079E-01  0.79104162687E-01  0.51100000000E-03 0.  1.
</event>
<event>
 8    1  0.1131349E+005  0.1043930E+01  0.7957747E-01            NaN
         13   -1    0    0    0    0  0.00000000000E+00  0.00000000000E+00  0.74505805969E-08  0.10566000000E+00  0.10566000000E+00 0. -1.
     999900   -1    0    0    0    0 -0.00000000000E+00 -0.00000000000E+00 -0.74505805969E-08  0.93827000000E+00  0.93827000000E+00 0. -1.
     999902    2    1    2    0    0  0.18671940235E-01  0.96022883691E-02 -0.11402750350E-01  0.10200371557E+01  0.10197572902E+01 0.  0.
     999903    2    3    3    0    0 -0.12355987410E+00  0.15116320625E-01  0.22087272253E-01  0.12797108460E+00  0.19829403977E-01 0.  0.
         14    1    1    2    0    0 -0.18671940235E-01 -0.96022883691E-02  0.11402750350E-01  0.23892844318E-01  0.00000000000E+00 0.  1.
     999901    1    3    3    0    0  0.14223181433E+00 -0.55140322558E-02 -0.33490022603E-01  0.89206607108E+00  0.88000000000E+00 0. -1.
        -11    1    4    4    0    0 -0.10619441991E+00  0.10565353208E-01  0.12051893772E-01  0.10739828106E+00  0.51100000000E-03 0. -1.
         11    1    4    4    0    0 -0.17365454183E-01  0.45509674166E-02  0.10035378481E-01  0.20572803545E-01  0.51100000000E-03 0.  1.
</event>
<event>
 8    1  0.1131349E+005  0.1043930E+01  0.7957747E-01            NaN
         13   -1    0    0    0    0  0.00000000000E+00  0.00000000000E+00  0.74505805969E-08  0.10566000000E+00  0.10566000000E+00 0.  1.
     999900   -1    0    0    0    0 -0.00000000000E+00 -0.00000000000E+00 -0.74505805969E-08  0.93827000000E+00  0.93827000000E+00 0. -1.
     999902    2    1    2    0    0 -0.14121442541E-01  0.74209379690E-02  0.18243268988E-01  0.10196956788E+01  0.10194076589E+01 0.  0.
     999903    2    3    3    0    0  0.11765474178E+00  0.31361035570E-01  0.38249607012E-01  0.12933713049E+00  0.20950132928E-01 0.  0.
         14    1    1    2    0    0  0.14121442541E-01 -0.74209379690E-02 -0.18243268988E-01  0.24234321181E-01  0.00000000000E+00 0. -1.
     999901    1    3    3    0    0 -0.13177618432E+00 -0.23940097601E-01 -0.20006338025E-01  0.89035854833E+00  0.88000000000E+00 0. -1.
        -11    1    4    4    0    0  0.65560394718E-01  0.99007491827E-02  0.12879730378E-01  0.67545086909E-01  0.51100000000E-03 0.  1.
         11    1    4    4    0    0  0.52094347065E-01  0.21460286387E-01  0.25369876635E-01  0.61792043577E-01  0.51100000000E-03 0. -1.
</event>
<event>
 8    1  0.1131349E+005  0.1043930E+01  0.7957747E-01            NaN
         13   -1    0    0    0    0  0.00000000000E+00  0.00000000000E+00  0.74505805969E-08  0.10566000000E+00  0.10566000000E+00 0.  1.
     999900   -1    0    0    0    0 -0.00000000000E+00 -0.00000000000E+00 -0.74505805969E-08  0.93827000000E+00  0.93827000000E+00 0. -1.
     999902    2    1    2    0    0 -0.13015107874E-01 -0.12105764298E-01 -0.11431332263E-01  0.10227966633E+01  0.10225783083E+01 0.  0.
     999903    2    3    3    0    0 -0.35440414504E-01 -0.53791839251E-01 -0.11713002806E+00  0.13520844938E+00  0.20305082128E-01 0.  0.
         14    1    1    2    0    0  0.13015107874E-01  0.12105764298E-01  0.11431332263E-01  0.21133336687E-01  0.00000000000E+00 0.  1.
     999901    1    3    3    0    0  0.22425306629E-01  0.41686074953E-01  0.10569869580E+00  0.88758821393E+00  0.88000000000E+00 0.  1.
        -11    1    4    4    0    0 -0.90190756611E-02 -0.11201663166E-01 -0.45958132785E-01  0.48158406053E-01  0.51100000000E-03 0.  1.
         11    1    4    4    0    0 -0.26421338843E-01 -0.42590176085E-01 -0.71171895273E-01  0.87050043325E-01  0.51100000000E-03 0. -1.
</event>
<event>
 8    1  0.1131349E+005  0.1043930E+01  0.7957747E-01            NaN
         13   -1    0    0    0    0  0.00000000000E+00  0.00000000000E+00  0.74505805969E-08  0.10566000000E+00  0.10566000000E+00 0. -1.
     999900   -1    0    0    0    0 -0.00000000000E+00 -0.00000000000E+00 -0.74505805969E-08  0.93827000000E+00  0.93827000000E+00 0.  1.
     999902    2    1    2    0    0  0.22990021007E-01 -0.40162439610E-02 -0.10036741214E-02  0.10205702345E+01  0.10203028594E+01 0.  0.
     999903    2    3    3    0    0 -0.10392474760E+00 -0.49166629143E-01  0.53775256104E-01  0.12863601779E+00  0.20922149039E-01 0.  0.
         14    1    1    2    0    0 -0.22990021007E-01  0.40162439610E-02  0.10036741214E-02  0.23359765478E-01  0.00000000000E+00 0.  1.
     999901    1    3    3    0    0  0.12691476860E+00  0.45150385182E-01 -0.54778930226E-01  0.89193421673E+00  0.88000000000E+00 0.  1.
        -11    1    4    4    0    0 -0.19244162579E-01 -0.11129213453E-01  0.19822784827E-01  0.29789278352E-01  0.51100000000E-03 0.  1.
         11    1    4    4    0    0 -0.84680585019E-01 -0.38037415690E-01  0.33952471277E-01  0.98846739443E-01  0.51100000000E-03 0. -1.
</event>
<event>
 8    1  0.1131349E+005  0.1043930E+01  0.7957747E-01            NaN
         13   -1    0    0    0    0  0.00000000000E+00  0.00000000000E+00  0.74505805969E-08  0.10566000000E+00  0.10566000000E+00 0.  1.
     999900   -1    0    0    0    0 -0.00000000000E+00 -0.00000000000E+00 -0.74505805969E-08  0.93827000000E+00  0.93827000000E+00 0.  1.
     999902    2    1    2    0    0 -0.10842314800E-01  0.14515206841E-01  0.73022017720E-02  0.10243962044E+01  0.10242099465E+01 0.  0.
     999903    2    3    3    0    0  0.79583648390E-01 -0.88771801645E-01 -0.52540500442E-01  0.13174497914E+00  0.19551099323E-01 0.  0.
         14    1    1    2    0    0  0.10842314800E-01 -0.14515206841E-01 -0.73022017720E-02  0.19533795601E-01  0.00000000000E+00 0.  1.
     999901    1    3    3    0    0 -0.90425963190E-01  0.10328700849E+00  0.59842702214E-01  0.89265122525E+00  0.88000000000E+00 0.  1.
        -11    1    4    4    0    0  0.18629898129E-01 -0.32817622894E-01 -0.11989033902E-01  0.39598832453E-01  0.51100000000E-03 0.  1.
         11    1    4    4    0    0  0.60953750262E-01 -0.55954178750E-01 -0.40551466540E-01  0.92146146692E-01  0.51100000000E-03 0. -1.
</event>
<event>
 8    1  0.1131349E+005  0.1043930E+01  0.7957747E-01            NaN
         13   -1    0    0    0    0  0.00000000000E+00  0.00000000000E+00  0.74505805969E-08  0.10566000000E+00  0.10566000000E+00 0. -1.
     999900   -1    0    0    0    0 -0.00000000000E+00 -0.00000000000E+00 -0.74505805969E-08  0.93827000000E+00  0.93827000000E+00 0.  1.
     999902    2    1    2    0    0 -0.96844164061E-02 -0.22948958907E-01  0.67150066811E-02  0.10181320553E+01  0.10178051621E+01 0.  0.
     999903    2    3    3    0    0  0.62745303962E-01  0.10676113393E+00 -0.60219801522E-02  0.12558905723E+00  0.20035821959E-01 0.  0.
         14    1    1    2    0    0  0.96844164061E-02  0.22948958907E-01 -0.67150066811E-02  0.25797944701E-01  0.00000000000E+00 0.  1.
     999901    1    3    3    0    0 -0.72429720368E-01 -0.12971009284E+00  0.12736986833E-01  0.89254299807E+00  0.88000000000E+00 0. -1.
        -11    1    4    4    0    0  0.27326236137E-01  0.40418550436E-01 -0.11676886975E-01  0.50169644320E-01  0.51100000000E-03 0.  1.
         11    1    4    4    0    0  0.35419067826E-01  0.66342583498E-01  0.56549068230E-02  0.75419412905E-01  0.51100000000E-03 0. -1.
</event>
<event>
 8    1  0.1131349E+005  0.1043930E+01  0.7957747E-01            NaN
         13   -1    0    0    0    0  0.00000000000E+00  0.00000000000E+00  0.74505805969E-08  0.10566000000E+00  0.10566000000E+00 0.  1.
     999900   -1    0    0    0    0 -0.00000000000E+00 -0.00000000000E+00 -0.74505805969E-08  0.93827000000E+00  0.93827000000E+00 0. -1.
     999902    2    1    2    0    0 -0.21603942416E-01 -0.46732114954E-02 -0.78225643768E-02  0.10204830013E+01  0.10202136023E+01 0.  0.
     999903    2    3    3    0    0 -0.36944931180E-01 -0.12324066259E+00  0.21253498570E-01  0.13192292804E+00  0.19968948041E-01 0.  0.
         14    1    1    2    0    0  0.21603942416E-01  0.46732114954E-02  0.78225643768E-02  0.23446998679E-01  0.00000000000E+00 0.  1.
     999901    1    3    3    0    0  0.15340988764E-01  0.11856745109E+00 -0.29076062947E-01  0.88856007328E+00  0.88000000000E+00 0. -1.
        -11    1    4    4    0    0 -0.13434706553E-01 -0.30316705598E-01 -0.22166787501E-02  0.33238061980E-01  0.51100000000E-03 0. -1.
         11    1    4    4    0    0 -0.23510224627E-01 -0.92923956990E-01  0.23470177320E-01  0.98684866059E-01  0.51100000000E-03 0.  1.
</event>
<event>
 8    1  0.1131349E+005  0.1043930E+01  0.7957747E-01            NaN
         13   -1    0    0    0    0  0.00000000000E+00  0.00000000000E+00  0.74505805969E-08  0.10566000000E+00  0.10566000000E+00 0.  1.
     999900   -1    0    0    0    0 -0.00000000000E+00 -0.00000000000E+00 -0.74505805969E-08  0.93827000000E+00  0.93827000000E+00 0. -1.
     999902    2    1    2    0    0  0.44629067378E-02 -0.22208921485E-01 -0.62113903786E-02  0.10204409579E+01  0.10201705805E+01 0.  0.
     999903    2    3    3    0    0  0.10417492723E-01 -0.52891018010E-01 -0.11953859101E+00  0.13262346392E+00  0.19837452011E-01 0.  0.
         14    1    1    2    0    0 -0.44629067378E-02  0.22208921485E-01  0.62113903786E-02  0.23489042137E-01  0.00000000000E+00 0.  1.
     999901    1    3    3    0    0 -0.59545859852E-02  0.30682096525E-01  0.11332720063E+00  0.88781749394E+00  0.88000000000E+00 0.  1.
        -11    1    4    4    0    0  0.16252837094E-01 -0.34516490805E-01 -0.79090382301E-01  0.87812826766E-01  0.51100000000E-03 0. -1.
         11    1    4    4    0    0 -0.58353443707E-02 -0.18374527205E-01 -0.40448208707E-01  0.44810637158E-01  0.51100000000E-03 0.  1.
</event>
<event>
 8    1  0.1131349E+005  0.1043930E+01  0.7957747E-01            NaN
         13   -1    0    0    0    0  0.00000000000E+00  0.00000000000E+00  0.74505805969E-08  0.10566000000E+00  0.10566000000E+00 0. -1.
     999900   -1    0    0    0    0 -0.00000000000E+00 -0.00000000000E+00 -0.74505805969E-08  0.93827000000E+00  0.93827000000E+00 0.  1.
     999902    2    1    2    0    0 -0.21331555996E-01 -0.66516608487E-02  0.55727339207E-02  0.10209009914E+01  0.10206412195E+01 0.  0.
     999903    2    3    3    0    0 -0.44739144160E-01  0.24923465815E-01  0.12024173146E+00  0.13259142667E+00  0.22352679361E-01 0.  0.
         14    1    1    2    0    0  0.21331555996E-01  0.66516608487E-02 -0.55727339207E-02  0.23029008590E-01  0.00000000000E+00 0. -1.
     999901    1    3    3    0    0  0.23407588163E-01 -0.31575126664E-01 -0.11466899754E+00  0.88830956474E+00  0.88000000000E+00 0.  1.
        -11    1    4    4    0    0 -0.71607614821E-02 -0.16699440544E-02  0.34422766571E-01  0.35203028244E-01  0.51100000000E-03 0.  1.
         11    1    4    4    0    0 -0.37578382678E-01  0.26593409870E-01  0.85818964887E-01  0.97388398429E-01  0.51100000000E-03 0. -1.
</event>
<event>
 8    1  0.1131349E+005  0.1043930E+01  0.7957747E-01            NaN
         13   -1    0    0    0    0  0.00000000000E+00  0.00000000000E+00  0.74505805969E-08  0.10566000000E+00  0.10566000000E+00 0.  1.
     999900   -1    0    0    0    0 -0.00000000000E+00 -0.00000000000E+00 -0.74505805969E-08  0.93827000000E+00  0.93827000000E+00 0. -1.
     999902    2    1    2    0    0 -0.36272971647E-02  0.16720952459E-01 -0.14207321348E-01  0.10216904965E+01  0.10214484202E+01 0.  0.
     999903    2    3    3    0    0  0.12326280915E+00  0.38313893881E-01  0.16952467939E-01  0.13178135133E+00  0.20427036148E-01 0.  0.
         14    1    1    2    0    0  0.36272971647E-02 -0.16720952459E-01  0.14207321348E-01  0.22239503496E-01  0.00000000000E+00 0.  1.
     999901    1    3    3    0    0 -0.12689010631E+00 -0.21592941422E-01 -0.31159789287E-01  0.88990914518E+00  0.88000000000E+00 0. -1.
        -11    1    4    4    0    0  0.59245814143E-01  0.17105196675E-01 -0.20920476982E-02  0.61703257866E-01  0.51100000000E-03 0. -1.
         11    1    4    4    0    0  0.64016995003E-01  0.21208697207E-01  0.19044515637E-01  0.70078093462E-01  0.51100000000E-03 0.  1.
</event>
<event>
 8    1  0.1131349E+005  0.1043930E+01  0.7957747E-01            NaN
         13   -1    0    0    0    0  0.00000000000E+00  0.00000000000E+00  0.74505805969E-08  0.10566000000E+00  0.10566000000E+00 0.  1.
     999900   -1    0    0    0    0 -0.00000000000E+00 -0.00000000000E+00 -0.74505805969E-08  0.93827000000E+00  0.93827000000E+00 0. -1.
     999902    2    1    2    0    0  0.58709850845E-02 -0.20714491129E-01 -0.69766284005E-02  0.10212974581E+01  0.10210466522E+01 0.  0.
     999903    2    3    3    0    0  0.10603907497E+00  0.60696809519E-01  0.41453358988E-01  0.13056354173E+00  0.20001733740E-01 0.  0.
         14    1    1    2    0    0 -0.58709850845E-02  0.20714491129E-01  0.69766284005E-02  0.22632541891E-01  0.00000000000E+00 0. -1.
     999901    1    3    3    0    0 -0.10016808988E+00 -0.81411300648E-01 -0.48429987389E-01  0.89073391638E+00  0.88000000000E+00 0.  1.
        -11    1    4    4    0    0  0.40744489087E-01  0.15482206381E-01  0.21838076386E-01  0.48754228602E-01  0.51100000000E-03 0. -1.
         11    1    4    4    0    0  0.65294585881E-01  0.45214603138E-01  0.19615282602E-01  0.81809313131E-01  0.51100000000E-03 0.  1.
</event>
<event>
 8    1  0.1131349E+005  0.1043930E+01  0.7957747E-01            NaN
         13   -1    0    0    0    0  0.00000000000E+00  0.00000000000E+00  0.74505805969E-08  0.10566000000E+00  0.10566000000E+00 0.  1.
     999900   -1    0    0    0    0 -0.00000000000E+00 -0.00000000000E+00 -0.74505805969E-08  0.93827000000E+00  0.93827000000E+00 0. -1.
     999902    2    1    2    0    0 -0.11802501063E-01 -0.20042545528E-01 -0.48583573393E-02  0.10201685544E+01  0.10198917948E+01 0.  0.
     999903    2    3    3    0    0 -0.63767977391E-01  0.45121232594E-01 -0.10304138063E+00  0.13079426040E+00  0.19680748426E-01 0.  0.
         14    1    1    2    0    0  0.11802501063E-01  0.20042545528E-01  0.48583573393E-02  0.23761445635E-01  0.00000000000E+00 0.  1.
     999901    1    3    3    0    0  0.51965476327E-01 -0.65163778122E-01  0.98183023294E-01  0.88937429397E+00  0.88000000000E+00 0.  1.
        -11    1    4    4    0    0 -0.28220189880E-01  0.31177160880E-01 -0.48218032682E-01  0.63981515097E-01  0.51100000000E-03 0.  1.
         11    1    4    4    0    0 -0.35547787511E-01  0.13944071714E-01 -0.54823347951E-01  0.66812745300E-01  0.51100000000E-03 0. -1.
</event>
<event>
 8    1  0.1131349E+005  0.1043930E+01  0.7957747E-01            NaN
         13   -1    0    0    0    0  0.00000000000E+00  0.00000000000E+00  0.74505805969E-08  0.10566000000E+00  0.10566000000E+00 0.  1.
     999900   -1    0    0    0    0 -0.00000000000E+00 -0.00000000000E+00 -0.74505805969E-08  0.93827000000E+00  0.93827000000E+00 0.  1.
     999902    2    1    2    0    0 -0.14122721381E-01  0.11944824587E-01 -0.17390258303E-01  0.10185419875E+01  0.10182255296E+01 0.  0.
     999903    2    3    3    0    0 -0.93662271957E-01  0.89694179025E-01 -0.12636915980E-02  0.13139399064E+00  0.21097794219E-01 0.  0.
         14    1    1    2    0    0  0.14122721381E-01 -0.11944824587E-01  0.17390258303E-01  0.25388012476E-01  0.00000000000E+00 0.  1.
     999901    1    3    3    0    0  0.79539550575E-01 -0.77749354437E-01 -0.16126566705E-01  0.88714799688E+00  0.88000000000E+00 0.  1.
        -11    1    4    4    0    0 -0.87852202095E-01  0.89697898025E-01 -0.11185236917E-02  0.12555968517E+00  0.51100000000E-03 0.  1.
         11    1    4    4    0    0 -0.58100698618E-02 -0.37190005477E-05 -0.14516790631E-03  0.58343054729E-02  0.51100000000E-03 0. -1.
</event>
<event>
 8    1  0.1131349E+005  0.1043930E+01  0.7957747E-01            NaN
         13   -1    0    0    0    0  0.00000000000E+00  0.00000000000E+00  0.74505805969E-08  0.10566000000E+00  0.10566000000E+00 0. -1.
     999900   -1    0    0    0    0 -0.00000000000E+00 -0.00000000000E+00 -0.74505805969E-08  0.93827000000E+00  0.93827000000E+00 0.  1.
     999902    2    1    2    0    0  0.10287479700E-01  0.21598612804E-01 -0.70443302116E-02  0.10189909763E+01  0.10186857489E+01 0.  0.
     999903    2    3    3    0    0 -0.85414273864E-01  0.85425814408E-01  0.40161910615E-01  0.13024963799E+00  0.27546709149E-01 0.  0.
         14    1    1    2    0    0 -0.10287479700E-01 -0.21598612804E-01  0.70443302116E-02  0.24939023673E-01  0.00000000000E+00 0. -1.
     999901    1    3    3    0    0  0.95701753564E-01 -0.63827201604E-01 -0.47206240827E-01  0.88874133834E+00  0.88000000000E+00 0.  1.
        -11    1    4    4    0    0 -0.83368092766E-01  0.71840635366E-01  0.34008749528E-01  0.11518755118E+00  0.51100000000E-03 0. -1.
         11    1    4    4    0    0 -0.20461810977E-02  0.13585179041E-01  0.61531610871E-02  0.15062086809E-01  0.51100000000E-03 0.  1.
</event>
<event>
 8    1  0.1131349E+005  0.1043930E+01  0.7957747E-01            NaN
         13   -1    0    0    0    0  0.00000000000E+00  0.00000000000E+00  0.74505805969E-08  0.10566000000E+00  0.10566000000E+00 0.  1.
     999900   -1    0    0    0    0 -0.00000000000E+00 -0.00000000000E+00 -0.74505805969E-08  0.93827000000E+00  0.93827000000E+00 0.  1.
     999902    2    1    2    0    0  0.11659544727E-01  0.13925640062E-01  0.13932262395E-01  0.10210394699E+01  0.10207828479E+01 0.  0.
     999903    2    3    3    0    0  0.30631985340E-01 -0.10523955004E+00  0.68124914729E-01  0.13115344368E+00  0.23378202766E-01 0.  0.
         14    1    1    2    0    0 -0.11659544727E-01 -0.13925640062E-01 -0.13932262395E-01  0.22890530134E-01  0.00000000000E+00 0. -1.
     999901    1    3    3    0    0 -0.18972440612E-01  0.11916519010E+00 -0.54192652334E-01  0.88988602619E+00  0.88000000000E+00 0. -1.
        -11    1    4    4    0    0  0.89932767905E-02 -0.68694320172E-01  0.46964855461E-01  0.83700343015E-01  0.51100000000E-03 0. -1.
         11    1    4    4    0    0  0.21638708549E-01 -0.36545229865E-01  0.21160059268E-01  0.47453100666E-01  0.51100000000E-03 0.  1.
</event>
<event>
 8    1  0.1131349E+005  0.1043930E+01  0.7957747E-01            NaN
         13   -1    0    0    0    0  0.00000000000E+00  0.00000000000E+00  0.74505805969E-08  0.10566000000E+00  0.10566000000E+00 0.  1.
     999900   -1    0    0    0    0 -0.00000000000E+00 -0.00000000000E+00 -0.74505805969E-08  0.93827000000E+00  0.93827000000E+00 0. -1.
     999902    2    1    2    0    0 -0.17531266529E-01  0.12482026117E-01  0.94795521697E-02  0.10204138738E+01  0.10201428653E+01 0.  0.
     999903    2    3    3    0    0 -0.18711603588E-01  0.52084937276E-01  0.11900249321E+00  0.13273991430E+00  0.19882823148E-01 0.  0.
         14    1    1    2    0    0  0.17531266529E-01 -0.12482026117E-01 -0.94795521697E-02  0.23516126200E-01  0.00000000000E+00 0.  1.
     999901    1    3    3    0    0  0.11803370590E-02 -0.39602911159E-01 -0.10952294104E+00  0.88767395950E+00  0.88000000000E+00 0. -1.
        -11    1    4    4    0    0 -0.28815492175E-04  0.95928724629E-02  0.39738385675E-01  0.40883058220E-01  0.51100000000E-03 0.  1.
         11    1    4    4    0    0 -0.18682788096E-01  0.42492064813E-01  0.79264107539E-01  0.91856856075E-01  0.51100000000E-03 0. -1.
</event>
<event>
 8    1  0.1131349E+005  0.1043930E+01  0.7957747E-01            NaN
         13   -1    0    0    0    0  0.00000000000E+00  0.00000000000E+00  0.74505805969E-08  0.10566000000E+00  0.10566000000E+00 0.  1.
     999900   -1    0    0    0    0 -0.00000000000E+00 -0.00000000000E+00 -0.74505805969E-08  0.93827000000E+00  0.93827000000E+00 0. -1.
     999902    2    1    2    0    0 -0.13777004814E-01 -0.12793789709E-01  0.14690813841E-01  0.10200698464E+01  0.10197907553E+01 0.  0.
     999903    2    3    3    0    0 -0.19415343708E-01  0.97595273642E-01 -0.78448071140E-01  0.12827817342E+00  0.19984916835E-01 0.  0.
         14    1    1    2    0    0  0.13777004814E-01  0.12793789709E-01 -0.14690813841E-01  0.23860153563E-01  0.00000000000E+00 0. -1.
     999901    1    3    3    0    0  0.56383388935E-02 -0.11038906335E+00  0.93138884981E-01  0.89179167302E+00  0.88000000000E+00 0.  1.
        -11    1    4    4    0    0 -0.12481259255E-01  0.66825295749E-01 -0.41306677902E-01  0.79548128481E-01  0.51100000000E-03 0.  1.
         11    1    4    4    0    0 -0.69340844524E-02  0.30769977893E-01 -0.37141393238E-01  0.48730044936E-01  0.51100000000E-03 0. -1.
</event>
<event>
 8    1  0.1131349E+005  0.1043930E+01  0.7957747E-01            NaN
         13   -1    0    0    0    0  0.00000000000E+00  0.00000000000E+00  0.74505805969E-08  0.10566000000E+00  0.10566000000E+00 0.  1.
     999900   -1    0    0    0    0 -0.00000000000E+00 -0.00000000000E+00 -0.74505805969E-08  0.93827000000E+00  0.93827000000E+00 0.  1.
     999902    2    1    2    0    0 -0.86192341762E-02 -0.14151854916E-01  0.16629460070E-01  0.10204543714E+01  0.10201843064E+01 0.  0.
     999903    2    3    3    0    0  0.90793157410E-01 -0.90325124520E-01  0.23341938784E-01  0.13156166249E+00  0.19015766603E-01 0.  0.
         14    1    1    2    0    0  0.86192341762E-02  0.14151854916E-01 -0.16629460070E-01  0.23475628587E-01  0.00000000000E+00 0. -1.
     999901    1    3    3    0    0 -0.99412391586E-01  0.76173269604E-01 -0.67124787144E-02  0.88889270892E+00  0.88000000000E+00 0. -1.
        -11    1    4    4    0    0  0.40254059022E-01 -0.52243536999E-01  0.15890132079E-01  0.67841977008E-01  0.51100000000E-03 0. -1.
         11    1    4    4    0    0  0.50539098388E-01 -0.38081587520E-01  0.74518067055E-02  0.63719685483E-01  0.51100000000E-03 0.  1.
</event>
<event>
 8    1  0.1131349E+005  0.1043930E+01  0.7957747E-01            NaN
         13   -1    0    0    0    0  0.00000000000E+00  0.00000000000E+00  0.74505805969E-08  0.10566000000E+00  0.10566000000E+00 0. -1.
     999900   -1    0    0    0    0 -0.00000000000E+00 -0.00000000000E+00 -0.74505805969E-08  0.93827000000E+00  0.93827000000E+00 0.  1.
     999902    2    1    2    0    0 -0.13918862284E-01  0.92511776481E-02 -0.16467263720E-01  0.10204674812E+01  0.10201977212E+01 0.  0.
     999903    2    3    3    0    0  0.12483209909E+00  0.25897200936E-01  0.60495265207E-02  0.12915612973E+00  0.19773494801E-01 0.  0.
         14    1    1    2    0    0  0.13918862284E-01 -0.92511776481E-02  0.16467263720E-01  0.23462518824E-01  0.00000000000E+00 0. -1.
     999901    1    3    3    0    0 -0.13875096137E+00 -0.16646023288E-01 -0.22516790241E-01  0.89131135145E+00  0.88000000000E+00 0. -1.
        -11    1    4    4    0    0  0.11174604874E-01  0.48152419749E-02  0.59599843247E-02  0.13558793586E-01  0.51100000000E-03 0. -1.
         11    1    4    4    0    0  0.11365749422E+00  0.21081958961E-01  0.89542196061E-04  0.11559733614E+00  0.51100000000E-03 0.  1.
</event>
<event>
 8    1  0.1131349E+005  0.1043930E+01  0.7957747E-01            NaN
         13   -1    0    0    0    0  0.00000000000E+00  0.00000000000E+00  0.74505805969E-08  0.10566000000E+00  0.10566000000E+00 0. -1.
     999900   -1    0    0    0    0 -0.00000000000E+00 -0.00000000000E+00 -0.74505805969E-08  0.93827000000E+00  0.93827000000E+00 0. -1.
     999902    2    1    2    0    0 -0.17581283311E-01  0.12085422267E-01 -0.94724303539E-02  0.10205872090E+01  0.10203202268E+01 0.  0.
     999903    2    3    3    0    0  0.97291865332E-01  0.14351682980E-01 -0.82638083756E-01  0.13010745683E+00  0.20669290523E-01 0.  0.
         14    1    1    2    0    0  0.17581283311E-01 -0.12085422267E-01  0.94724303539E-02  0.23342790987E-01  0.00000000000E+00 0.  1.
     999901    1    3    3    0    0 -0.11487314864E+00 -0.22662607126E-02  0.73165653402E-01  0.89047975219E+00  0.88000000000E+00 0. -1.
        -11    1    4    4    0    0  0.20077407316E-01  0.84790597212E-02 -0.27258332335E-01  0.34903789780E-01  0.51100000000E-03 0.  1.
         11    1    4    4    0    0  0.77214458016E-01  0.58726232586E-02 -0.55379751421E-01  0.95203667046E-01  0.51100000000E-03 0. -1.
</event>
<event>
 8    1  0.1131349E+005  0.1043930E+01  0.7957747E-01            NaN
         13   -1    0    0    0    0  0.00000000000E+00  0.00000000000E+00  0.74505805969E-08  0.10566000000E+00  0.10566000000E+00 0. -1.
     999900   -1    0    0    0    0 -0.00000000000E+00 -0.00000000000E+00 -0.74505805969E-08  0.93827000000E+00  0.93827000000E+00 0. -1.
     999902    2    1    2    0    0  0.23504148267E-01 -0.22953665540E-02  0.40085932283E-02  0.10199762422E+01  0.10196949309E+01 0.  0.
     999903    2    3    3    0    0 -0.52521486273E-01  0.10323699975E+00  0.52723042702E-01  0.12908338947E+00  0.21596702678E-01 0.  0.
         14    1    1    2    0    0 -0.23504148267E-01  0.22953665540E-02 -0.40085932283E-02  0.23953757807E-01  0.00000000000E+00 0.  1.
     999901    1    3    3    0    0  0.76025634540E-01 -0.10553236631E+00 -0.48714449474E-01  0.89089285272E+00  0.88000000000E+00 0.  1.
        -11    1    4    4    0    0 -0.64202665977E-02  0.32553962335E-01  0.11142457040E-01  0.35005653211E-01  0.51100000000E-03 0.  1.
         11    1    4    4    0    0 -0.46101219675E-01  0.70683037420E-01  0.41580585663E-01  0.94077736259E-01  0.51100000000E-03 0. -1.
</event>
<event>
 8    1  0.1131349E+005  0.1043930E+01  0.7957747E-01            NaN
         13   -1    0    0    0    0  0.00000000000E+00  0.00000000000E+00  0.74505805969E-08  0.10566000000E+00  0.10566000000E+00 0.  1.
     999900   -1    0    0    0    0 -0.00000000000E+00 -0.00000000000E+00 -0.74505805969E-08  0.93827000000E+00  0.93827000000E+00 0.  1.
     999902    2    1    2    0    0 -0.17235504498E-01  0.24636844326E-02  0.15957840807E-01  0.10203125268E+01  0.10200391499E+01 0.  0.
     999903    2    3    3    0    0 -0.39046746664E-01 -0.64929170982E-01 -0.10311301736E+00  0.12947281255E+00  0.19760292829E-01 0.  0.
         14    1    1    2    0    0  0.17235504498E-01 -0.24636844326E-02 -0.15957840807E-01  0.23617473182E-01  0.00000000000E+00 0. -1.
     999901    1    3    3    0    0  0.21811242166E-01  0.67392855414E-01  0.11907085816E+00  0.89083971426E+00  0.88000000000E+00 0. -1.
        -11    1    4    4    0    0 -0.31319108542E-01 -0.34483111706E-01 -0.55964062892E-01  0.72816268850E-01  0.51100000000E-03 0. -1.
         11    1    4    4    0    0 -0.77276381222E-02 -0.30446059275E-01 -0.47148954465E-01  0.56656543704E-01  0.51100000000E-03 0.  1.
</event>
<event>
 8    1  0.1131349E+005  0.1043930E+01  0.7957747E-01            NaN
         13   -1    0    0    0    0  0.00000000000E+00  0.00000000000E+00  0.74505805969E-08  0.10566000000E+00  0.10566000000E+00 0. -1.
     999900   -1    0    0    0    0 -0.00000000000E+00 -0.00000000000E+00 -0.74505805969E-08  0.93827000000E+00  0.93827000000E+00 0. -1.
     999902    2    1    2    0    0  0.57940655958E-02 -0.15661058208E-01 -0.16116685758E-01  0.10207225120E+01  0.10204586513E+01 0.  0.
     999903    2    3    3    0    0  0.60104328352E-01 -0.11050367497E+00 -0.40316733342E-01  0.13363155334E+00  0.20207933924E-01 0.  0.
         14    1    1    2    0    0 -0.57940655958E-02  0.15661058208E-01  0.16116685758E-01  0.23207488019E-01  0.00000000000E+00 0.  1.
     999901    1    3    3    0    0 -0.54310262756E-01  0.94842616760E-01  0.24200047584E-01  0.88709095864E+00  0.88000000000E+00 0.  1.
        -11    1    4    4    0    0  0.32359542763E-01 -0.60252999592E-01 -0.32413290951E-01  0.75686501563E-01  0.51100000000E-03 0. -1.
         11    1    4    4    0    0  0.27744785589E-01 -0.50250675377E-01 -0.79034423913E-02  0.57945051780E-01  0.51100000000E-03 0.  1.
</event>
<event>
 8    1  0.1131349E+005  0.1043930E+01  0.7957747E-01            NaN
         13   -1    0    0    0    0  0.00000000000E+00  0.00000000000E+00  0.74505805969E-08  0.10566000000E+00  0.10566000000E+00 0. -1.
     999900   -1    0    0    0    0 -0.00000000000E+00 -0.00000000000E+00 -0.74505805969E-08  0.93827000000E+00  0.93827000000E+00 0. -1.
     999902    2    1    2    0    0 -0.60849737686E-02  0.21994693345E-01  0.24434295649E-02  0.10209786648E+01  0.10207206621E+01 0.  0.
     999903    2    3    3    0    0 -0.29546682761E-01  0.30930491019E-01  0.12359509832E+00  0.13232348579E+00  0.20101115088E-01 0.  0.
         14    1    1    2    0    0  0.60849737686E-02 -0.21994693345E-01 -0.24434295649E-02  0.22951335237E-01  0.00000000000E+00 0.  1.
     999901    1    3    3    0    0  0.23461708992E-01 -0.89357976736E-02 -0.12115166875E+00  0.88865517897E+00  0.88000000000E+00 0. -1.
        -11    1    4    4    0    0 -0.12886494727E-01  0.21571085307E-01  0.46101807304E-01  0.52507249265E-01  0.51100000000E-03 0.  1.
         11    1    4    4    0    0 -0.16660188034E-01  0.93594057114E-02  0.77493291012E-01  0.79816236528E-01  0.51100000000E-03 0. -1.
</event>
<event>
 8    1  0.1131349E+005  0.1043930E+01  0.7957747E-01            NaN
         13   -1    0    0    0    0  0.00000000000E+00  0.00000000000E+00  0.74505805969E-08  0.10566000000E+00  0.10566000000E+00 0.  1.
     999900   -1    0    0    0    0 -0.00000000000E+00 -0.00000000000E+00 -0.74505805969E-08  0.93827000000E+00  0.93827000000E+00 0.  1.
     999902    2    1    2    0    0 -0.22159577609E-01  0.81904790425E-02 -0.46376169174E-02  0.10198543210E+01  0.10195701044E+01 0.  0.
     999903    2    3    3    0    0 -0.33861891804E-01 -0.11184984644E+00 -0.54177733763E-01  0.13024719029E+00  0.19289579515E-01 0.  0.
         14    1    1    2    0    0  0.22159577609E-01 -0.81904790425E-02  0.46376169174E-02  0.24075678961E-01  0.00000000000E+00 0.  1.
     999901    1    3    3    0    0  0.11702314196E-01  0.12004032548E+00  0.49540116845E-01  0.88960713075E+00  0.88000000000E+00 0.  1.
        -11    1    4    4    0    0 -0.13558511442E-01 -0.72122672728E-01 -0.28210292458E-01  0.78623119218E-01  0.51100000000E-03 0. -1.
         11    1    4    4    0    0 -0.20303380363E-01 -0.39727173713E-01 -0.25967441305E-01  0.51624071074E-01  0.51100000000E-03 0.  1.
</event>
<event>
 8    1  0.1131349E+005  0.1043930E+01  0.7957747E-01            NaN
         13   -1    0    0    0    0  0.00000000000E+00  0.00000000000E+00  0.74505805969E-08  0.10566000000E+00  0.10566000000E+00 0. -1.
     999900   -1    0    0    0    0 -0.00000000000E+00 -0.00000000000E+00 -0.74505805969E-08  0.93827000000E+00  0.93827000000E+00 0. -1.
     999902    2    1    2    0    0  0.32417999622E-02  0.22776392287E-01  0.51196479532E-02  0.10203612896E+01  0.10200890536E+01 0.  0.
     999903    2    3    3    0    0 -0.11041339753E+00  0.53873455336E-01 -0.40018296811E-01  0.13136074673E+00  0.23679403657E-01 0.  0.
         14    1    1    2    0    0 -0.32417999622E-02 -0.22776392287E-01 -0.51196479532E-02  0.23568710355E-01  0.00000000000E+00 0. -1.
     999901    1    3    3    0    0  0.11365519749E+00 -0.31097063049E-01  0.45137944764E-01  0.88900054292E+00  0.88000000000E+00 0.  1.
        -11    1    4    4    0    0 -0.67579711203E-01  0.32281569159E-01 -0.12127852575E-01  0.75871358250E-01  0.51100000000E-03 0.  1.
         11    1    4    4    0    0 -0.42833686327E-01  0.21591886178E-01 -0.27890444236E-01  0.55489388479E-01  0.51100000000E-03 0. -1.
</event>
<event>
 8    1  0.1131349E+005  0.1043930E+01  0.7957747E-01            NaN
         13   -1    0    0    0    0  0.00000000000E+00  0.00000000000E+00  0.74505805969E-08  0.10566000000E+00  0.10566000000E+00 0.  1.
     999900   -1    0    0    0    0 -0.00000000000E+00 -0.00000000000E+00 -0.74505805969E-08  0.93827000000E+00  0.93827000000E+00 0. -1.
     999902    2    1    2    0    0 -0.12312798338E-01  0.14093411530E-01 -0.18427001880E-01  0.10176662674E+01  0.10173273063E+01 0.  0.
     999903    2    3    3    0    0 -0.45622170108E-01  0.98579349552E-01  0.66595315727E-01  0.12891648121E+00  0.19627849797E-01 0.  0.
         14    1    1    2    0    0  0.12312798338E-01 -0.14093411530E-01  0.18427001880E-01  0.26263732594E-01  0.00000000000E+00 0. -1.
     999901    1    3    3    0    0  0.33309371770E-01 -0.84485938021E-01 -0.85022317607E-01  0.88874978620E+00  0.88000000000E+00 0. -1.
        -11    1    4    4    0    0 -0.30044295726E-01  0.47455908333E-01  0.26526641804E-01  0.62118006953E-01  0.51100000000E-03 0.  1.
         11    1    4    4    0    0 -0.15577874382E-01  0.51123441218E-01  0.40068673923E-01  0.66798474258E-01  0.51100000000E-03 0. -1.
</event>
<event>
 8    1  0.1131349E+005  0.1043930E+01  0.7957747E-01            NaN
         13   -1    0    0    0    0  0.00000000000E+00  0.00000000000E+00  0.74505805969E-08  0.10566000000E+00  0.10566000000E+00 0. -1.
     999900   -1    0    0    0    0 -0.00000000000E+00 -0.00000000000E+00 -0.74505805969E-08  0.93827000000E+00  0.93827000000E+00 0.  1.
     999902    2    1    2    0    0 -0.20722456160E-01 -0.96980794573E-02 -0.59273851472E-02  0.10202951353E+01  0.10200213509E+01 0.  0.
     999903    2    3    3    0    0  0.19626909227E-01  0.12463662364E+00 -0.17425991858E-01  0.12911271756E+00  0.21140603683E-01 0.  0.
         14    1    1    2    0    0  0.20722456160E-01  0.96980794573E-02  0.59273851472E-02  0.23634864695E-01  0.00000000000E+00 0. -1.
     999901    1    3    3    0    0 -0.40349365386E-01 -0.13433470310E+00  0.11498606711E-01  0.89118241775E+00  0.88000000000E+00 0. -1.
        -11    1    4    4    0    0  0.36917467337E-02  0.74621331138E-01 -0.34727218736E-02  0.74795006337E-01  0.51100000000E-03 0. -1.
         11    1    4    4    0    0  0.15935162493E-01  0.50015292506E-01 -0.13953269984E-01  0.54317711222E-01  0.51100000000E-03 0.  1.
</event>
<event>
 8    1  0.1131349E+005  0.1043930E+01  0.7957747E-01            NaN
         13   -1    0    0    0    0  0.00000000000E+00  0.00000000000E+00  0.74505805969E-08  0.10566000000E+00  0.10566000000E+00 0. -1.
     999900   -1    0    0    0    0 -0.00000000000E+00 -0.00000000000E+00 -0.74505805969E-08  0.93827000000E+00  0.93827000000E+00 0.  1.
     999902    2    1    2    0    0 -0.80183431850E-02 -0.11282188083E-01 -0.19452547320E-01  0.10200556792E+01  0.10197762527E+01 0.  0.
     999903    2    3    3    0    0 -0.75259765690E-01 -0.87055836003E-01  0.58781604830E-01  0.13079551640E+00  0.20234602291E-01 0.  0.
         14    1    1    2    0    0  0.80183431850E-02  0.11282188083E-01  0.19452547320E-01  0.23874320778E-01  0.00000000000E+00 0. -1.
     999901    1    3    3    0    0  0.67241422505E-01  0.75773647920E-01 -0.78234152150E-01  0.88926016282E+00  0.88000000000E+00 0. -1.
        -11    1    4    4    0    0 -0.22995255853E-01 -0.17226561139E-01  0.21734049215E-01  0.36030073782E-01  0.51100000000E-03 0. -1.
         11    1    4    4    0    0 -0.52264509837E-01 -0.69829274864E-01  0.37047555615E-01  0.94765442618E-01  0.51100000000E-03 0.  1.
</event>
<event>
 7    1  0.1131349E+005  0.1043930E+01  0.7957747E-01            NaN
         13   -1    0    0    0    0  0.00000000000E+00  0.00000000000E+00  0.74505805969E-08  0.10566000000E+00  0.10566000000E+00 0. -1.
     999900   -1    0    0    0    0 -0.00000000000E+00 -0.00000000000E+00 -0.74505805969E-08  0.93827000000E+00  0.93827000000E+00 0.  1.
     999903    2    1    2    0    0  0.30942450973E-01 -0.76583567226E-01  0.11182972576E-01  0.85743080090E-01  0.20108179092E-01 0.  0.
         14    1    1    2    0    0 -0.68459963794E-01  0.29025017750E-01  0.14369822153E-01  0.75734470928E-01  0.00000000000E+00 0.  1.
     999901    1    1    2    0    0  0.37517512821E-01  0.47558549476E-01 -0.25552794729E-01  0.88245244898E+00  0.88000000000E+00 0.  1.
        -11    1    3    3    0    0  0.23991853079E-01 -0.32661302551E-01  0.46904155809E-02  0.40799887473E-01  0.51100000000E-03 0.  1.
         11    1    3    3    0    0  0.69505978938E-02 -0.43922264674E-01  0.64925569953E-02  0.44943192616E-01  0.51100000000E-03 0. -1.
</event>
<event>
 8    1  0.1131349E+005  0.1043930E+01  0.7957747E-01            NaN
         13   -1    0    0    0    0  0.00000000000E+00  0.00000000000E+00  0.74505805969E-08  0.10566000000E+00  0.10566000000E+00 0. -1.
     999900   -1    0    0    0    0 -0.00000000000E+00 -0.00000000000E+00 -0.74505805969E-08  0.93827000000E+00  0.93827000000E+00 0. -1.
     999902    2    1    2    0    0  0.42652666898E-02 -0.21946317242E-01 -0.44042943495E-02  0.10211433559E+01  0.10208890842E+01 0.  0.
     999903    2    3    3    0    0 -0.64036227319E-01  0.27766759016E-01  0.10786365295E+00  0.12999770225E+00  0.19829363284E-01 0.  0.
         14    1    1    2    0    0 -0.42652666898E-02  0.21946317242E-01  0.44042943495E-02  0.22786644095E-01  0.00000000000E+00 0. -1.
     999901    1    3    3    0    0  0.68301494009E-01 -0.49713076258E-01 -0.11226794730E+00  0.89114565365E+00  0.88000000000E+00 0. -1.
        -11    1    4    4    0    0 -0.49951195491E-01  0.23115097615E-01  0.68154996234E-01  0.87605903347E-01  0.51100000000E-03 0.  1.
         11    1    4    4    0    0 -0.14085031828E-01  0.46516614017E-02  0.39708656713E-01  0.42391798904E-01  0.51100000000E-03 0. -1.
</event>
<event>
 8    1  0.1131349E+005  0.1043930E+01  0.7957747E-01            NaN
         13   -1    0    0    0    0  0.00000000000E+00  0.00000000000E+00  0.74505805969E-08  0.10566000000E+00  0.10566000000E+00 0. -1.
     999900   -1    0    0    0    0 -0.00000000000E+00 -0.00000000000E+00 -0.74505805969E-08  0.93827000000E+00  0.93827000000E+00 0.  1.
     999902    2    1    2    0    0 -0.21154772936E-01 -0.60136246862E-02 -0.26452179373E-01  0.10095293330E+01  0.10089430451E+01 0.  0.
     999903    2    3    3    0    0  0.13011835724E-01 -0.10038040811E+00 -0.66820317592E-01  0.12290538023E+00  0.19880730487E-01 0.  0.
         14    1    1    2    0    0  0.21154772936E-01  0.60136246862E-02  0.26452179373E-01  0.34400667049E-01  0.00000000000E+00 0. -1.
     999901    1    3    3    0    0 -0.34166608660E-01  0.94366783422E-01  0.40368138219E-01  0.88662395272E+00  0.88000000000E+00 0. -1.
        -11    1    4    4    0    0  0.58743820153E-03 -0.65118016074E-01 -0.35749088255E-01  0.74289700048E-01  0.51100000000E-03 0.  1.
         11    1    4    4    0    0  0.12424397523E-01 -0.35262392033E-01 -0.31071229338E-01  0.48615680179E-01  0.51100000000E-03 0. -1.
</event>
<event>
 8    1  0.1131349E+005  0.1043930E+01  0.7957747E-01            NaN
         13   -1    0    0    0    0  0.00000000000E+00  0.00000000000E+00  0.74505805969E-08  0.10566000000E+00  0.10566000000E+00 0. -1.
     999900   -1    0    0    0    0 -0.00000000000E+00 -0.00000000000E+00 -0.74505805969E-08  0.93827000000E+00  0.93827000000E+00 0.  1.
     999902    2    1    2    0    0 -0.17274156242E-01 -0.13998360320E-01 -0.93256863663E-02  0.10198194423E+01  0.10195343917E+01 0.  0.
     999903    2    3    3    0    0  0.81510821266E-01 -0.90446675887E-01 -0.41872544133E-01  0.13040271508E+00  0.20662598740E-01 0.  0.
         14    1    1    2    0    0  0.17274156242E-01  0.13998360320E-01  0.93256863663E-02  0.24110557681E-01  0.00000000000E+00 0. -1.
     999901    1    3    3    0    0 -0.98784977508E-01  0.76448315567E-01  0.32546857767E-01  0.88941672723E+00  0.88000000000E+00 0. -1.
        -11    1    4    4    0    0  0.28935537455E-01 -0.29268641873E-01 -0.24453288621E-01  0.47876332047E-01  0.51100000000E-03 0.  1.
         11    1    4    4    0    0  0.52575283810E-01 -0.61178034013E-01 -0.17419255513E-01  0.82526383037E-01  0.51100000000E-03 0. -1.
</event>
<event>
 8    1  0.1131349E+005  0.1043930E+01  0.7957747E-01            NaN
         13   -1    0    0    0    0  0.00000000000E+00  0.00000000000E+00  0.74505805969E-08  0.10566000000E+00  0.10566000000E+00 0.  1.
     999900   -1    0    0    0    0 -0.00000000000E+00 -0.00000000000E+00 -0.74505805969E-08  0.93827000000E+00  0.93827000000E+00 0.  1.
     999902    2    1    2    0    0 -0.18779558837E-01  0.94218700014E-02  0.82591990202E-02  0.10213543974E+01  0.10211048659E+01 0.  0.
     999903    2    3    3    0    0 -0.60926183313E-01  0.43421337569E-01  0.10923768622E+00  0.13392611487E+00  0.20147451095E-01 0.  0.
         14    1    1    2    0    0  0.18779558837E-01 -0.94218700014E-02 -0.82591990202E-02  0.22575602603E-01  0.00000000000E+00 0. -1.
     999901    1    3    3    0    0  0.42146624477E-01 -0.33999467567E-01 -0.10097848720E+00  0.88742828253E+00  0.88000000000E+00 0. -1.
        -11    1    4    4    0    0 -0.45299835779E-02  0.11050268060E-01  0.22974999114E-01  0.25898665616E-01  0.51100000000E-03 0.  1.
         11    1    4    4    0    0 -0.56396199735E-01  0.32371069509E-01  0.86262687101E-01  0.10802744926E+00  0.51100000000E-03 0. -1.
</event>
<event>
 8    1  0.1131349E+005  0.1043930E+01  0.7957747E-01            NaN
         13   -1    0    0    0    0  0.00000000000E+00  0.00000000000E+00  0.74505805969E-08  0.10566000000E+00  0.10566000000E+00 0.  1.
     999900   -1    0    0    0    0 -0.00000000000E+00 -0.00000000000E+00 -0.74505805969E-08  0.93827000000E+00  0.93827000000E+00 0.  1.
     999902    2    1    2    0    0  0.10447886330E-01 -0.74015630361E-02 -0.19322756251E-01  0.10207500437E+01  0.10204868159E+01 0.  0.
     999903    2    3    3    0    0  0.11184602718E+00 -0.40350929569E-01 -0.57280069004E-01  0.13350261413E+00  0.20104983487E-01 0.  0.
         14    1    1    2    0    0 -0.10447886330E-01  0.74015630361E-02  0.19322756251E-01  0.23179956283E-01  0.00000000000E+00 0.  1.
     999901    1    3    3    0    0 -0.10139814085E+00  0.32949366533E-01  0.37957312753E-01  0.88724742959E+00  0.88000000000E+00 0.  1.
        -11    1    4    4    0    0  0.17024264325E-01  0.83979561421E-03 -0.58076407862E-02  0.18014456555E-01  0.51100000000E-03 0.  1.
         11    1    4    4    0    0  0.94821762854E-01 -0.41190725183E-01 -0.51472428218E-01  0.11548815757E+00  0.51100000000E-03 0. -1.
</event>
<event>
 8    1  0.1131349E+005  0.1043930E+01  0.7957747E-01            NaN
         13   -1    0    0    0    0  0.00000000000E+00  0.00000000000E+00  0.74505805969E-08  0.10566000000E+00  0.10566000000E+00 0. -1.
     999900   -1    0    0    0    0 -0.00000000000E+00 -0.00000000000E+00 -0.74505805969E-08  0.93827000000E+00  0.93827000000E+00 0. -1.
     999902    2    1    2    0    0 -0.11323767492E-01 -0.10357502737E-01 -0.19891850066E-01  0.10188064797E+01  0.10184966626E+01 0.  0.
     999903    2    3    3    0    0  0.12195145076E+00  0.27683567740E-01  0.13651483347E-01  0.12732761733E+00  0.19683060490E-01 0.  0.
         14    1    1    2    0    0  0.11323767492E-01  0.10357502737E-01  0.19891850066E-01  0.25123520299E-01  0.00000000000E+00 0.  1.
     999901    1    3    3    0    0 -0.13327521826E+00 -0.38041070476E-01 -0.33543333413E-01  0.89147886237E+00  0.88000000000E+00 0. -1.
        -11    1    4    4    0    0  0.57030813911E-01  0.13981062985E-01  0.16234082450E-01  0.60924464803E-01  0.51100000000E-03 0.  1.
         11    1    4    4    0    0  0.64920636854E-01  0.13702504754E-01 -0.25825991028E-02  0.66403152524E-01  0.51100000000E-03 0. -1.
</event>
<event>
 8    1  0.1131349E+005  0.1043930E+01  0.7957747E-01            NaN
         13   -1    0    0    0    0  0.00000000000E+00  0.00000000000E+00  0.74505805969E-08  0.10566000000E+00  0.10566000000E+00 0. -1.
     999900   -1    0    0    0    0 -0.00000000000E+00 -0.00000000000E+00 -0.74505805969E-08  0.93827000000E+00  0.93827000000E+00 0. -1.
     999902    2    1    2    0    0 -0.82118793338E-02  0.25086925445E-02 -0.20887015523E-01  0.10213469108E+01  0.10210972120E+01 0.  0.
     999903    2    3    3    0    0 -0.10413937587E+00 -0.78322748951E-01  0.59984936595E-02  0.13204457912E+00  0.20501861813E-01 0.  0.
         14    1    1    2    0    0  0.82118793338E-02 -0.25086925445E-02  0.20887015523E-01  0.22583089203E-01  0.00000000000E+00 0. -1.
     999901    1    3    3    0    0  0.95927496539E-01  0.80831441495E-01 -0.26885509183E-01  0.88930233168E+00  0.88000000000E+00 0. -1.
        -11    1    4    4    0    0 -0.51987729260E-01 -0.35954603611E-01 -0.70205375748E-02  0.63600366220E-01  0.51100000000E-03 0.  1.
         11    1    4    4    0    0 -0.52151646613E-01 -0.42368145340E-01  0.13019031234E-01  0.68444212898E-01  0.51100000000E-03 0. -1.
</event>
<event>
 8    1  0.1131349E+005  0.1043930E+01  0.7957747E-01            NaN
         13   -1    0    0    0    0  0.00000000000E+00  0.00000000000E+00  0.74505805969E-08  0.10566000000E+00  0.10566000000E+00 0.  1.
     999900   -1    0    0    0    0 -0.00000000000E+00 -0.00000000000E+00 -0.74505805969E-08  0.93827000000E+00  0.93827000000E+00 0.  1.
     999902    2    1    2    0    0  0.89723860925E-02  0.17861342145E-01  0.13745006893E-01  0.10196718783E+01  0.10193832856E+01 0.  0.
     999903    2    3    3    0    0  0.34831020885E-01 -0.75886542100E-01 -0.94806265598E-01  0.12768493131E+00  0.18526910101E-01 0.  0.
         14    1    1    2    0    0 -0.89723860925E-02 -0.17861342145E-01 -0.13745006893E-01  0.24258121731E-01  0.00000000000E+00 0. -1.
     999901    1    3    3    0    0 -0.25858634793E-01  0.93747884245E-01  0.10855127249E+00  0.89198694696E+00  0.88000000000E+00 0. -1.
        -11    1    4    4    0    0  0.56551004747E-02 -0.15451988100E-01 -0.90343318657E-02  0.18778295207E-01  0.51100000000E-03 0. -1.
         11    1    4    4    0    0  0.29175920411E-01 -0.60434554000E-01 -0.85771933733E-01  0.10890663610E+00  0.51100000000E-03 0.  1.
</event>
<event>
 8    1  0.1131349E+005  0.1043930E+01  0.7957747E-01            NaN
         13   -1    0    0    0    0  0.00000000000E+00  0.00000000000E+00  0.74505805969E-08  0.10566000000E+00  0.10566000000E+00 0. -1.
     999900   -1    0    0    0    0 -0.00000000000E+00 -0.00000000000E+00 -0.74505805969E-08  0.93827000000E+00  0.93827000000E+00 0.  1.
     999902    2    1    2    0    0  0.49094295078E-02  0.20498576438E-01 -0.10818672434E-01  0.10202374314E+01  0.10199622927E+01 0.  0.
     999903    2    3    3    0    0  0.82008659560E-01 -0.85950370139E-01 -0.47957426058E-01  0.12970110056E+00  0.20237944647E-01 0.  0.
         14    1    1    2    0    0 -0.49094295078E-02 -0.20498576438E-01  0.10818672434E-01  0.23692568610E-01  0.00000000000E+00 0. -1.
     999901    1    3    3    0    0 -0.77099230052E-01  0.10644894658E+00  0.37138753624E-01  0.89053633083E+00  0.88000000000E+00 0. -1.
        -11    1    4    4    0    0  0.43797988780E-01 -0.56708573892E-01 -0.21614997035E-01  0.74843806636E-01  0.51100000000E-03 0. -1.
         11    1    4    4    0    0  0.38210670779E-01 -0.29241796247E-01 -0.26342429023E-01  0.54857293927E-01  0.51100000000E-03 0.  1.
</event>
<event>
 8    1  0.1131349E+005  0.1043930E+01  0.7957747E-01            NaN
         13   -1    0    0    0    0  0.00000000000E+00  0.00000000000E+00  0.74505805969E-08  0.10566000000E+00  0.10566000000E+00 0.  1.
     999900   -1    0    0    0    0 -0.00000000000E+00 -0.00000000000E+00 -0.74505805969E-08  0.93827000000E+00  0.93827000000E+00 0.  1.
     999902    2    1    2    0    0  0.12740554064E-01  0.12367732285E-01 -0.11600076443E-01  0.10227204669E+01  0.10225005179E+01 0.  0.
     999903    2    3    3    0    0 -0.11840479396E-01 -0.14874131300E-01  0.12817465718E+00  0.13093387671E+00  0.18801611408E-01 0.  0.
         14    1    1    2    0    0 -0.12740554064E-01 -0.12367732285E-01  0.11600076443E-01  0.21209533074E-01  0.00000000000E+00 0.  1.
     999901    1    3    3    0    0  0.24581033460E-01  0.27241863585E-01 -0.13977473362E+00  0.89178659022E+00  0.88000000000E+00 0.  1.
        -11    1    4    4    0    0 -0.74007423731E-02 -0.22658127563E-02  0.14230552124E-01  0.16207240045E-01  0.51100000000E-03 0.  1.
         11    1    4    4    0    0 -0.44397370230E-02 -0.12608318543E-01  0.11394410506E+00  0.11472663666E+00  0.51100000000E-03 0. -1.
</event>
<event>
 7    1  0.1131349E+005  0.1043930E+01  0.7957747E-01            NaN
         13   -1    0    0    0    0  0.00000000000E+00  0.00000000000E+00  0.74505805969E-08  0.10566000000E+00  0.10566000000E+00 0.  1.
     999900   -1    0    0    0    0 -0.00000000000E+00 -0.00000000000E+00 -0.74505805969E-08  0.93827000000E+00  0.93827000000E+00 0.  1.
     999903    2    1    2    0    0  0.96929720196E-01 -0.26187494696E-01 -0.23905337678E-01  0.10570187399E+00  0.22809328355E-01 0.  0.
         14    1    1    2    0    0  0.42293859305E-01 -0.16406120408E-01 -0.60288966303E-02  0.45763292236E-01  0.00000000000E+00 0. -1.
     999901    1    1    2    0    0 -0.13922357950E+00  0.42593615104E-01  0.29934234309E-01  0.89246483377E+00  0.88000000000E+00 0.  1.
        -11    1    3    3    0    0  0.33261156455E-01 -0.14339257776E-01 -0.18602770374E-01  0.40721530286E-01  0.51100000000E-03 0.  1.
         11    1    3    3    0    0  0.63668563741E-01 -0.11848236920E-01 -0.53025673042E-02  0.64980343705E-01  0.51100000000E-03 0. -1.
</event>
<event>
 8    1  0.1131349E+005  0.1043930E+01  0.7957747E-01            NaN
         13   -1    0    0    0    0  0.00000000000E+00  0.00000000000E+00  0.74505805969E-08  0.10566000000E+00  0.10566000000E+00 0.  1.
     999900   -1    0    0    0    0 -0.00000000000E+00 -0.00000000000E+00 -0.74505805969E-08  0.93827000000E+00  0.93827000000E+00 0.  1.
     999902    2    1    2    0    0  0.23862673894E-01  0.14894940211E-02 -0.19428091011E-02  0.10199420800E+01  0.10196599562E+01 0.  0.
     999903    2    3    3    0    0 -0.11024930096E+00 -0.12205965767E-01  0.59761701357E-01  0.12754024563E+00  0.19777748668E-01 0.  0.
         14    1    1    2    0    0 -0.23862673894E-01 -0.14894940211E-02  0.19428091011E-02  0.23987919981E-01  0.00000000000E+00 0. -1.
     999901    1    3    3    0    0  0.13411197486E+00  0.13695459788E-01 -0.61704510458E-01  0.89240183439E+00  0.88000000000E+00 0.  1.
        -11    1    4    4    0    0 -0.62240730181E-01 -0.16218730173E-01  0.30664976263E-01  0.71256982761E-01  0.51100000000E-03 0.  1.
         11    1    4    4    0    0 -0.48008570780E-01  0.40127644063E-02  0.29096725094E-01  0.56283262865E-01  0.51100000000E-03 0. -1.
</event>
<event>
 8    1  0.1131349E+005  0.1043930E+01  0.7957747E-01            NaN
         13   -1    0    0    0    0  0.00000000000E+00  0.00000000000E+00  0.74505805969E-08  0.10566000000E+00  0.10566000000E+00 0.  1.
     999900   -1    0    0    0    0 -0.00000000000E+00 -0.00000000000E+00 -0.74505805969E-08  0.93827000000E+00  0.93827000000E+00 0. -1.
     999902    2    1    2    0    0  0.41559370656E-02 -0.15110408999E-01 -0.17783892019E-01  0.10202263486E+01  0.10199509495E+01 0.  0.
     999903    2    3    3    0    0  0.10031213070E+00  0.65812331090E-01 -0.47780853876E-01  0.13079151619E+00  0.20727378547E-01 0.  0.
         14    1    1    2    0    0 -0.41559370656E-02  0.15110408999E-01  0.17783892019E-01  0.23703651372E-01  0.00000000000E+00 0.  1.
     999901    1    3    3    0    0 -0.96156193630E-01 -0.80922740089E-01  0.29996961857E-01  0.88943483244E+00  0.88000000000E+00 0.  1.
        -11    1    4    4    0    0  0.42304910585E-01  0.37616311248E-01 -0.29034338538E-01  0.63623472609E-01  0.51100000000E-03 0.  1.
         11    1    4    4    0    0  0.58007220111E-01  0.28196019842E-01 -0.18746515338E-01  0.67168043579E-01  0.51100000000E-03 0. -1.
</event>
<event>
 8    1  0.1131349E+005  0.1043930E+01  0.7957747E-01            NaN
         13   -1    0    0    0    0  0.00000000000E+00  0.00000000000E+00  0.74505805969E-08  0.10566000000E+00  0.10566000000E+00 0. -1.
     999900   -1    0    0    0    0 -0.00000000000E+00 -0.00000000000E+00 -0.74505805969E-08  0.93827000000E+00  0.93827000000E+00 0.  1.
     999902    2    1    2    0    0 -0.92837739282E-02  0.18627320544E-01 -0.89138533817E-02  0.10212888359E+01  0.10210378367E+01 0.  0.
     999903    2    3    3    0    0 -0.59094682733E-01 -0.71200431422E-01 -0.91281384065E-01  0.13149416198E+00  0.19918348201E-01 0.  0.
         14    1    1    2    0    0  0.92837739282E-02 -0.18627320544E-01  0.89138533817E-02  0.22641164085E-01  0.00000000000E+00 0. -1.
     999901    1    3    3    0    0  0.49810908805E-01  0.89827751966E-01  0.82367530684E-01  0.88979467394E+00  0.88000000000E+00 0.  1.
        -11    1    4    4    0    0 -0.22865441697E-01 -0.40161079507E-01 -0.53029784965E-01  0.70343158485E-01  0.51100000000E-03 0. -1.
         11    1    4    4    0    0 -0.36229241036E-01 -0.31039351915E-01 -0.38251599101E-01  0.61151003492E-01  0.51100000000E-03 0.  1.
</event>
<event>
 8    1  0.1131349E+005  0.1043930E+01  0.7957747E-01            NaN
         13   -1    0    0    0    0  0.00000000000E+00  0.00000000000E+00  0.74505805969E-08  0.10566000000E+00  0.10566000000E+00 0.  1.
     999900   -1    0    0    0    0 -0.00000000000E+00 -0.00000000000E+00 -0.74505805969E-08  0.93827000000E+00  0.93827000000E+00 0.  1.
     999902    2    1    2    0    0 -0.23361713323E-01  0.24176864188E-02 -0.46428458427E-02  0.10199890127E+01  0.10197080048E+01 0.  0.
     999903    2    3    3    0    0  0.92501568265E-01  0.84744704165E-01 -0.18439166019E-01  0.12847772484E+00  0.20695843080E-01 0.  0.
         14    1    1    2    0    0  0.23361713323E-01 -0.24176864188E-02  0.46428458427E-02  0.23940987334E-01  0.00000000000E+00 0.  1.
     999901    1    3    3    0    0 -0.11586328159E+00 -0.82327017747E-01  0.13796320176E-01  0.89151128783E+00  0.88000000000E+00 0. -1.
        -11    1    4    4    0    0  0.39044313205E-01  0.25063820866E-01 -0.12919038396E-01  0.48164470143E-01  0.51100000000E-03 0. -1.
         11    1    4    4    0    0  0.53457255060E-01  0.59680883300E-01 -0.55201276228E-02  0.80313254697E-01  0.51100000000E-03 0.  1.
</event>
<event>
 7    1  0.1131349E+005  0.1043930E+01  0.7957747E-01            NaN
         13   -1    0    0    0    0  0.00000000000E+00  0.00000000000E+00  0.74505805969E-08  0.10566000000E+00  0.10566000000E+00 0. -1.
     999900   -1    0    0    0    0 -0.00000000000E+00 -0.00000000000E+00 -0.74505805969E-08  0.93827000000E+00  0.93827000000E+00 0.  1.
     999903    2    1    2    0    0  0.71179271538E-01 -0.73192470491E-01 -0.55951910079E-01  0.11798413420E+00  0.19131472738E-01 0.  0.
         14    1    1    2    0    0 -0.64389512287E-03  0.11003653664E-01  0.39260539112E-01  0.40778486071E-01  0.00000000000E+00 0. -1.
     999901    1    1    2    0    0 -0.70535376415E-01  0.62188816828E-01  0.16691370966E-01  0.88516737972E+00  0.88000000000E+00 0. -1.
        -11    1    3    3    0    0  0.55450515435E-01 -0.49466805114E-01 -0.32533579033E-01  0.81119783998E-01  0.51100000000E-03 0.  1.
         11    1    3    3    0    0  0.15728756103E-01 -0.23725665377E-01 -0.23418331045E-01  0.36864350205E-01  0.51100000000E-03 0. -1.
</event>
<event>
 8    1  0.1131349E+005  0.1043930E+01  0.7957747E-01            NaN
         13   -1    0    0    0    0  0.00000000000E+00  0.00000000000E+00  0.74505805969E-08  0.10566000000E+00  0.10566000000E+00 0. -1.
     999900   -1    0    0    0    0 -0.00000000000E+00 -0.00000000000E+00 -0.74505805969E-08  0.93827000000E+00  0.93827000000E+00 0.  1.
     999902    2    1    2    0    0 -0.18418417323E-01 -0.37284839059E-02 -0.13942726240E-01  0.10205304422E+01  0.10202621448E+01 0.  0.
     999903    2    3    3    0    0 -0.79593761307E-01 -0.92883817625E-01 -0.48075668642E-01  0.13325587706E+00  0.21983822211E-01 0.  0.
         14    1    1    2    0    0  0.18418417323E-01  0.37284839059E-02  0.13942726240E-01  0.23399557772E-01  0.00000000000E+00 0. -1.
     999901    1    3    3    0    0  0.61175343984E-01  0.89155333720E-01  0.34132942403E-01  0.88727456517E+00  0.88000000000E+00 0.  1.
        -11    1    4    4    0    0 -0.41572589334E-01 -0.64512287351E-01 -0.27240538778E-01  0.81439692270E-01  0.51100000000E-03 0. -1.
         11    1    4    4    0    0 -0.38021171974E-01 -0.28371530275E-01 -0.20835129864E-01  0.51816184787E-01  0.51100000000E-03 0.  1.
</event>
<event>
 8    1  0.1131349E+005  0.1043930E+01  0.7957747E-01            NaN
         13   -1    0    0    0    0  0.00000000000E+00  0.00000000000E+00  0.74505805969E-08  0.10566000000E+00  0.10566000000E+00 0.  1.
     999900   -1    0    0    0    0 -0.00000000000E+00 -0.00000000000E+00 -0.74505805969E-08  0.93827000000E+00  0.93827000000E+00 0. -1.
     999902    2    1    2    0    0  0.18247121242E-01 -0.12498286353E-01 -0.47510975769E-02  0.10213083837E+01  0.10210578226E+01 0.  0.
     999903    2    3    3    0    0  0.75117213133E-01 -0.61851958294E-01 -0.89725942117E-01  0.13401434198E+00  0.20996159502E-01 0.  0.
         14    1    1    2    0    0 -0.18247121242E-01  0.12498286353E-01  0.47510975769E-02  0.22621616290E-01  0.00000000000E+00 0. -1.
     999901    1    3    3    0    0 -0.56870091891E-01  0.49353671942E-01  0.84974844540E-01  0.88729404173E+00  0.88000000000E+00 0.  1.
        -11    1    4    4    0    0  0.48202906436E-01 -0.46991613888E-01 -0.71792564360E-01  0.98418318331E-01  0.51100000000E-03 0.  1.
         11    1    4    4    0    0  0.26914306697E-01 -0.14860344407E-01 -0.17933377757E-01  0.35596023649E-01  0.51100000000E-03 0. -1.
</event>
<event>
 8    1  0.1131349E+005  0.1043930E+01  0.7957747E-01            NaN
         13   -1    0    0    0    0  0.00000000000E+00  0.00000000000E+00  0.74505805969E-08  0.10566000000E+00  0.10566000000E+00 0.  1.
     999900   -1    0    0    0    0 -0.00000000000E+00 -0.00000000000E+00 -0.74505805969E-08  0.93827000000E+00  0.93827000000E+00 0.  1.
     999902    2    1    2    0    0 -0.15441690250E-01 -0.56620427777E-02 -0.16808483005E-01  0.10204134180E+01  0.10201423989E+01 0.  0.
     999903    2    3    3    0    0 -0.88126547734E-01 -0.84060760045E-01 -0.50445643456E-01  0.13330524767E+00  0.19824891354E-01 0.  0.
         14    1    1    2    0    0  0.15441690250E-01  0.56620427777E-02  0.16808483005E-01  0.23516581961E-01  0.00000000000E+00 0.  1.
     999901    1    3    3    0    0  0.72684857484E-01  0.78398717267E-01  0.33637160451E-01  0.88710817037E+00  0.88000000000E+00 0.  1.
        -11    1    4    4    0    0 -0.56834916150E-01 -0.66078347243E-01 -0.38516335845E-01  0.95290738879E-01  0.51100000000E-03 0. -1.
         11    1    4    4    0    0 -0.31291631584E-01 -0.17982412801E-01 -0.11929307611E-01  0.38014508788E-01  0.51100000000E-03 0.  1.
</event>
<event>
 8    1  0.1131349E+005  0.1043930E+01  0.7957747E-01            NaN
         13   -1    0    0    0    0  0.00000000000E+00  0.00000000000E+00  0.74505805969E-08  0.10566000000E+00  0.10566000000E+00 0.  1.
     999900   -1    0    0    0    0 -0.00000000000E+00 -0.00000000000E+00 -0.74505805969E-08  0.93827000000E+00  0.93827000000E+00 0. -1.
     999902    2    1    2    0    0 -0.10876993170E-01  0.81505558458E-02  0.18917723018E-01  0.10206357779E+01  0.10203699183E+01 0.  0.
     999903    2    3    3    0    0 -0.69199627750E-01 -0.10856145755E+00 -0.83498545739E-02  0.13059828170E+00  0.20298092663E-01 0.  0.
         14    1    1    2    0    0  0.10876993170E-01 -0.81505558458E-02 -0.18917723018E-01  0.23294222142E-01  0.00000000000E+00 0. -1.
     999901    1    3    3    0    0  0.58322634580E-01  0.11671201340E+00  0.27267577592E-01  0.89003749616E+00  0.88000000000E+00 0. -1.
        -11    1    4    4    0    0 -0.56072308990E-01 -0.98577611575E-01 -0.37656196843E-02  0.11347286174E+00  0.51100000000E-03 0.  1.
         11    1    4    4    0    0 -0.13127318759E-01 -0.99838459770E-02 -0.45842348896E-02  0.17125419960E-01  0.51100000000E-03 0. -1.
</event>
<event>
 8    1  0.1131349E+005  0.1043930E+01  0.7957747E-01            NaN
         13   -1    0    0    0    0  0.00000000000E+00  0.00000000000E+00  0.74505805969E-08  0.10566000000E+00  0.10566000000E+00 0.  1.
     999900   -1    0    0    0    0 -0.00000000000E+00 -0.00000000000E+00 -0.74505805969E-08  0.93827000000E+00  0.93827000000E+00 0.  1.
     999902    2    1    2    0    0  0.81463906193E-02  0.21827071854E-01 -0.50518996764E-02  0.10200908214E+01  0.10198122266E+01 0.  0.
     999903    2    3    3    0    0  0.12815563967E+00  0.75948769808E-02 -0.21353197435E-01  0.13168184602E+00  0.20064879646E-01 0.  0.
         14    1    1    2    0    0 -0.81463906193E-02 -0.21827071854E-01  0.50518996764E-02  0.23839178597E-01  0.00000000000E+00 0. -1.
     999901    1    3    3    0    0 -0.12000924905E+00  0.14232194873E-01  0.16301297758E-01  0.88840897538E+00  0.88000000000E+00 0.  1.
        -11    1    4    4    0    0  0.73413973973E-02  0.41153301784E-02  0.17926942039E-02  0.86201468509E-02  0.51100000000E-03 0. -1.
         11    1    4    4    0    0  0.12081424227E+00  0.34795468024E-02 -0.23145891639E-01  0.12306169917E+00  0.51100000000E-03 0.  1.
</event>
<event>
 8    1  0.1131349E+005  0.1043930E+01  0.7957747E-01            NaN
         13   -1    0    0    0    0  0.00000000000E+00  0.00000000000E+00  0.74505805969E-08  0.10566000000E+00  0.10566000000E+00 0. -1.
     999900   -1    0    0    0    0 -0.00000000000E+00 -0.00000000000E+00 -0.74505805969E-08  0.93827000000E+00  0.93827000000E+00 0.  1.
     999902    2    1    2    0    0  0.22718698107E-01 -0.23351415405E-02 -0.48186144207E-02  0.10205888095E+01  0.10203218644E+01 0.  0.
     999903    2    3    3    0    0 -0.10786681183E+00  0.47860947251E-01  0.46430152298E-01  0.12806505136E+00  0.17859982333E-01 0.  0.
         14    1    1    2    0    0 -0.22718698107E-01  0.23351415405E-02  0.48186144207E-02  0.23341190515E-01  0.00000000000E+00 0. -1.
     999901    1    3    3    0    0  0.13058550994E+00 -0.50196088792E-01 -0.51248766719E-01  0.89252375813E+00  0.88000000000E+00 0.  1.
        -11    1    4    4    0    0 -0.67995761325E-01  0.20603691272E-01  0.27380118127E-01  0.76143730155E-01  0.51100000000E-03 0. -1.
         11    1    4    4    0    0 -0.39871050510E-01  0.27257255980E-01  0.19050034171E-01  0.51921321201E-01  0.51100000000E-03 0.  1.
</event>
<event>
 8    1  0.1131349E+005  0.1043930E+01  0.7957747E-01            NaN
         13   -1    0    0    0    0  0.00000000000E+00  0.00000000000E+00  0.74505805969E-08  0.10566000000E+00  0.10566000000E+00 0. -1.
     999900   -1    0    0    0    0 -0.00000000000E+00 -0.00000000000E+00 -0.74505805969E-08  0.93827000000E+00  0.93827000000E+00 0. -1.
     999902    2    1    2    0    0  0.24741902352E-02 -0.19300729228E-01  0.18770650233E-01  0.10168934123E+01  0.10165339320E+01 0.  0.
     999903    2    3    3    0    0  0.10938146946E+00 -0.55437649873E-01  0.35400378449E-01  0.12953125889E+00  0.22079885679E-01 0.  0.
         14    1    1    2    0    0 -0.24741902352E-02  0.19300729228E-01 -0.18770650233E-01  0.27036587733E-01  0.00000000000E+00 0.  1.
     999901    1    3    3    0    0 -0.10690727922E+00  0.36136920645E-01 -0.16629728216E-01  0.88736215338E+00  0.88000000000E+00 0. -1.
        -11    1    4    4    0    0  0.10515060123E+00 -0.54026468296E-01  0.29018398932E-01  0.12172853738E+00  0.51100000000E-03 0. -1.
         11    1    4    4    0    0  0.42308682267E-02 -0.14111815768E-02  0.63819795166E-02  0.78027215089E-02  0.51100000000E-03 0.  1.
</event>
<event>
 8    1  0.1131349E+005  0.1043930E+01  0.7957747E-01            NaN
         13   -1    0    0    0    0  0.00000000000E+00  0.00000000000E+00  0.74505805969E-08  0.10566000000E+00  0.10566000000E+00 0.  1.
     999900   -1    0    0    0    0 -0.00000000000E+00 -0.00000000000E+00 -0.74505805969E-08  0.93827000000E+00  0.93827000000E+00 0. -1.
     999902    2    1    2    0    0  0.12064892007E-01  0.15907644856E-01 -0.13269349378E-01  0.10199572985E+01  0.10196755368E+01 0.  0.
     999903    2    3    3    0    0  0.28008510739E-01 -0.25908807827E-03 -0.12759642879E+00  0.13227140625E+00  0.20744456390E-01 0.  0.
         14    1    1    2    0    0 -0.12064892007E-01 -0.15907644856E-01  0.13269349378E-01  0.23972701494E-01  0.00000000000E+00 0.  1.
     999901    1    3    3    0    0 -0.15943618733E-01  0.16166732934E-01  0.11432707941E+00  0.88768589226E+00  0.88000000000E+00 0.  1.
        -11    1    4    4    0    0  0.50290348574E-02  0.87959987335E-02 -0.36081950400E-01  0.37481049225E-01  0.51100000000E-03 0.  1.
         11    1    4    4    0    0  0.22979475882E-01 -0.90550868118E-02 -0.91514478386E-01  0.94790357021E-01  0.51100000000E-03 0. -1.
</event>
<event>
 8    1  0.1131349E+005  0.1043930E+01  0.7957747E-01            NaN
         13   -1    0    0    0    0  0.00000000000E+00  0.00000000000E+00  0.74505805969E-08  0.10566000000E+00  0.10566000000E+00 0.  1.
     999900   -1    0    0    0    0 -0.00000000000E+00 -0.00000000000E+00 -0.74505805969E-08  0.93827000000E+00  0.93827000000E+00 0.  1.
     999902    2    1    2    0    0 -0.59566519305E-03  0.15458302275E-01  0.17890544164E-01  0.10202786682E+01  0.10200044977E+01 0.  0.
     999903    2    3    3    0    0 -0.11067322986E+00 -0.45703415322E-01 -0.44070583457E-01  0.12915746022E+00  0.20051613995E-01 0.  0.
         14    1    1    2    0    0  0.59566519305E-03 -0.15458302275E-01 -0.17890544164E-01  0.23651331817E-01  0.00000000000E+00 0. -1.
     999901    1    3    3    0    0  0.11007756467E+00  0.61161717597E-01  0.61961127622E-01  0.89112120796E+00  0.88000000000E+00 0. -1.
        -11    1    4    4    0    0 -0.65244081948E-01 -0.17747120234E-01 -0.19130162995E-01  0.70270724794E-01  0.51100000000E-03 0. -1.
         11    1    4    4    0    0 -0.45429147916E-01 -0.27956295088E-01 -0.24940420463E-01  0.58886735427E-01  0.51100000000E-03 0.  1.
</event>
<event>
 8    1  0.1131349E+005  0.1043930E+01  0.7957747E-01            NaN
         13   -1    0    0    0    0  0.00000000000E+00  0.00000000000E+00  0.74505805969E-08  0.10566000000E+00  0.10566000000E+00 0.  1.
     999900   -1    0    0    0    0 -0.00000000000E+00 -0.00000000000E+00 -0.74505805969E-08  0.93827000000E+00  0.93827000000E+00 0.  1.
     999902    2    1    2    0    0 -0.15648298051E-01  0.16120294309E-01 -0.87245643859E-02  0.10198291464E+01  0.10195443280E+01 0.  0.
     999903    2    3    3    0    0 -0.10305667719E-01  0.11251547459E+00  0.64297301433E-01  0.13154272448E+00  0.20084984043E-01 0.  0.
         14    1    1    2    0    0  0.15648298051E-01 -0.16120294309E-01  0.87245643859E-02  0.24100853599E-01  0.00000000000E+00 0.  1.
     999901    1    3    3    0    0 -0.53426303315E-02 -0.96395180277E-01 -0.73021865819E-01  0.88828642192E+00  0.88000000000E+00 0.  1.
        -11    1    4    4    0    0 -0.50597228648E-02  0.10506231726E+00  0.62116349546E-01  0.12215724828E+00  0.51100000000E-03 0.  1.
         11    1    4    4    0    0 -0.52459448543E-02  0.74531573220E-02  0.21809518875E-02  0.93854762061E-02  0.51100000000E-03 0. -1.
</event>
<event>
 8    1  0.1131349E+005  0.1043930E+01  0.7957747E-01            NaN
         13   -1    0    0    0    0  0.00000000000E+00  0.00000000000E+00  0.74505805969E-08  0.10566000000E+00  0.10566000000E+00 0.  1.
     999900   -1    0    0    0    0 -0.00000000000E+00 -0.00000000000E+00 -0.74505805969E-08  0.93827000000E+00  0.93827000000E+00 0.  1.
     999902    2    1    2    0    0 -0.97171824216E-02 -0.21298535878E-01  0.36627492183E-02  0.10202347052E+01  0.10199595025E+01 0.  0.
     999903    2    3    3    0    0  0.38831690513E-01 -0.53643360362E-01  0.11251302028E+00  0.13161129662E+00  0.16638610723E-01 0.  0.
         14    1    1    2    0    0  0.97171824216E-02  0.21298535878E-01 -0.36627492183E-02  0.23695294819E-01  0.00000000000E+00 0. -1.
     999901    1    3    3    0    0 -0.48548872934E-01  0.32344824484E-01 -0.10885027106E+00  0.88862340856E+00  0.88000000000E+00 0.  1.
        -11    1    4    4    0    0  0.12920449788E-01 -0.71657912710E-02  0.29673659096E-01  0.33152281255E-01  0.51100000000E-03 0.  1.
         11    1    4    4    0    0  0.25911240724E-01 -0.46477569091E-01  0.82839361182E-01  0.98459015364E-01  0.51100000000E-03 0. -1.
</event>
<event>
 8    1  0.1131349E+005  0.1043930E+01  0.7957747E-01            NaN
         13   -1    0    0    0    0  0.00000000000E+00  0.00000000000E+00  0.74505805969E-08  0.10566000000E+00  0.10566000000E+00 0. -1.
     999900   -1    0    0    0    0 -0.00000000000E+00 -0.00000000000E+00 -0.74505805969E-08  0.93827000000E+00  0.93827000000E+00 0. -1.
     999902    2    1    2    0    0 -0.22814976034E-02 -0.14747784094E-01 -0.18245929306E-01  0.10203584853E+01  0.10200861838E+01 0.  0.
     999903    2    3    3    0    0  0.86632551203E-01 -0.94175425351E-01  0.21775890989E-01  0.13141742747E+00  0.20546073753E-01 0.  0.
         14    1    1    2    0    0  0.22814976034E-02  0.14747784094E-01  0.18245929306E-01  0.23571514657E-01  0.00000000000E+00 0. -1.
     999901    1    3    3    0    0 -0.88914048806E-01  0.79427641257E-01 -0.40021820295E-01  0.88894105787E+00  0.88000000000E+00 0.  1.
        -11    1    4    4    0    0  0.35622377246E-01 -0.51781761589E-01  0.15870206512E-01  0.64826145726E-01  0.51100000000E-03 0. -1.
         11    1    4    4    0    0  0.51010173957E-01 -0.42393663762E-01  0.59056844772E-02  0.66591281745E-01  0.51100000000E-03 0.  1.
</event>
<event>
 8    1  0.1131349E+005  0.1043930E+01  0.7957747E-01            NaN
         13   -1    0    0    0    0  0.00000000000E+00  0.00000000000E+00  0.74505805969E-08  0.10566000000E+00  0.10566000000E+00 0. -1.
     999900   -1    0    0    0    0 -0.00000000000E+00 -0.00000000000E+00 -0.74505805969E-08  0.93827000000E+00  0.93827000000E+00 0.  1.
     999902    2    1    2    0    0 -0.26768422182E-02  0.48989953274E-02 -0.22911881790E-01  0.10203478040E+01  0.10200752527E+01 0.  0.
     999903    2    3    3    0    0  0.12470273738E+00 -0.24654430974E-01  0.16641040902E-01  0.12980673480E+00  0.20353144233E-01 0.  0.
         14    1    1    2    0    0  0.26768422182E-02 -0.48989953274E-02  0.22911881790E-01  0.23582195967E-01  0.00000000000E+00 0. -1.
     999901    1    3    3    0    0 -0.12737957960E+00  0.29553426301E-01 -0.39552922692E-01  0.89054106924E+00  0.88000000000E+00 0. -1.
        -11    1    4    4    0    0  0.62728610274E-01 -0.50173342538E-02  0.10004334266E-02  0.62938971854E-01  0.51100000000E-03 0. -1.
         11    1    4    4    0    0  0.61974127103E-01 -0.19637096720E-01  0.15640607475E-01  0.66867762942E-01  0.51100000000E-03 0.  1.
</event>
<event>
 8    1  0.1131349E+005  0.1043930E+01  0.7957747E-01            NaN
         13   -1    0    0    0    0  0.00000000000E+00  0.00000000000E+00  0.74505805969E-08  0.10566000000E+00  0.10566000000E+00 0. -1.
     999900   -1    0    0    0    0 -0.00000000000E+00 -0.00000000000E+00 -0.74505805969E-08  0.93827000000E+00  0.93827000000E+00 0. -1.
     999902    2    1    2    0    0  0.41085574133E-02  0.51395652058E-02  0.26952555404E-01  0.10161858904E+01  0.10158070822E+01 0.  0.
     999903    2    3    3    0    0  0.23084629291E-01  0.10087064055E+00 -0.68314481787E-01  0.12568022593E+00  0.20514983107E-01 0.  0.
         14    1    1    2    0    0 -0.41085574133E-02 -0.51395652058E-02 -0.26952555404E-01  0.27744109597E-01  0.00000000000E+00 0.  1.
     999901    1    3    3    0    0 -0.18976071878E-01 -0.95731075347E-01  0.95267037191E-01  0.89050566448E+00  0.88000000000E+00 0.  1.
        -11    1    4    4    0    0  0.36062022192E-02  0.68314394114E-02 -0.12206650938E-01  0.14454643095E-01  0.51100000000E-03 0. -1.
         11    1    4    4    0    0  0.19478427072E-01  0.94039201141E-01 -0.56107830849E-01  0.11122558283E+00  0.51100000000E-03 0.  1.
</event>
<event>
 8    1  0.1131349E+005  0.1043930E+01  0.7957747E-01            NaN
         13   -1    0    0    0    0  0.00000000000E+00  0.00000000000E+00  0.74505805969E-08  0.10566000000E+00  0.10566000000E+00 0.  1.
     999900   -1    0    0    0    0 -0.00000000000E+00 -0.00000000000E+00 -0.74505805969E-08  0.93827000000E+00  0.93827000000E+00 0. -1.
     999902    2    1    2    0    0 -0.43583831769E-02  0.49971223320E-02  0.22267312941E-01  0.10206964045E+01  0.10204319429E+01 0.  0.
     999903    2    3    3    0    0 -0.11537572144E+00 -0.59350659455E-01  0.13869089550E-01  0.13135056816E+00  0.15051984418E-01 0.  0.
         14    1    1    2    0    0  0.43583831769E-02 -0.49971223320E-02 -0.22267312941E-01  0.23233595528E-01  0.00000000000E+00 0. -1.
     999901    1    3    3    0    0  0.11101733826E+00  0.64347781787E-01  0.83982233911E-02  0.88934583632E+00  0.88000000000E+00 0.  1.
        -11    1    4    4    0    0 -0.22758394731E-01 -0.98870701743E-02  0.84270965586E-02  0.26210222524E-01  0.51100000000E-03 0.  1.
         11    1    4    4    0    0 -0.92617326708E-01 -0.49463589281E-01  0.54419929914E-02  0.10514034563E+00  0.51100000000E-03 0. -1.
</event>
<event>
 8    1  0.1131349E+005  0.1043930E+01  0.7957747E-01            NaN
         13   -1    0    0    0    0  0.00000000000E+00  0.00000000000E+00  0.74505805969E-08  0.10566000000E+00  0.10566000000E+00 0. -1.
     999900   -1    0    0    0    0 -0.00000000000E+00 -0.00000000000E+00 -0.74505805969E-08  0.93827000000E+00  0.93827000000E+00 0. -1.
     999902    2    1    2    0    0  0.71199123014E-02  0.32081330614E-02 -0.22051915182E-01  0.10205361497E+01  0.10202679847E+01 0.  0.
     999903    2    3    3    0    0  0.54078272291E-01 -0.11750068115E+00 -0.28887666042E-02  0.13084916448E+00  0.19552218969E-01 0.  0.
         14    1    1    2    0    0 -0.71199123014E-02 -0.32081330614E-02  0.22051915182E-01  0.23393850305E-01  0.00000000000E+00 0. -1.
     999901    1    3    3    0    0 -0.46958359990E-01  0.12070881421E+00 -0.19163148578E-01  0.88968698522E+00  0.88000000000E+00 0. -1.
        -11    1    4    4    0    0  0.25052729256E-01 -0.55561442813E-01 -0.11100812357E-01  0.61953226927E-01  0.51100000000E-03 0.  1.
         11    1    4    4    0    0  0.29025543035E-01 -0.61939238339E-01  0.82120457524E-02  0.68895937550E-01  0.51100000000E-03 0. -1.
</event>
<event>
 8    1  0.1131349E+005  0.1043930E+01  0.7957747E-01            NaN
         13   -1    0    0    0    0  0.00000000000E+00  0.00000000000E+00  0.74505805969E-08  0.10566000000E+00  0.10566000000E+00 0. -1.
     999900   -1    0    0    0    0 -0.00000000000E+00 -0.00000000000E+00 -0.74505805969E-08  0.93827000000E+00  0.93827000000E+00 0.  1.
     999902    2    1    2    0    0 -0.53845026780E-02 -0.17517666917E-01  0.92176493624E-02  0.10234159418E+01  0.10232103222E+01 0.  0.
     999903    2    3    3    0    0 -0.73632334029E-01 -0.10929226253E+00  0.26162142680E-01  0.13585329122E+00  0.20128083918E-01 0.  0.
         14    1    1    2    0    0  0.53845026780E-02  0.17517666917E-01 -0.92176493624E-02  0.20514058182E-01  0.00000000000E+00 0. -1.
     999901    1    3    3    0    0  0.68247831351E-01  0.91774595612E-01 -0.16944493317E-01  0.88756265060E+00  0.88000000000E+00 0. -1.
        -11    1    4    4    0    0 -0.18519035455E-01 -0.17038331804E-01 -0.32983313496E-03  0.25171995069E-01  0.51100000000E-03 0. -1.
         11    1    4    4    0    0 -0.55113298574E-01 -0.92253930726E-01  0.26491975815E-01  0.11068129615E+00  0.51100000000E-03 0.  1.
</event>
<event>
 8    1  0.1131349E+005  0.1043930E+01  0.7957747E-01            NaN
         13   -1    0    0    0    0  0.00000000000E+00  0.00000000000E+00  0.74505805969E-08  0.10566000000E+00  0.10566000000E+00 0. -1.
     999900   -1    0    0    0    0 -0.00000000000E+00 -0.00000000000E+00 -0.74505805969E-08  0.93827000000E+00  0.93827000000E+00 0.  1.
     999902    2    1    2    0    0 -0.48899576312E-02  0.11262657905E-01 -0.20451608363E-01  0.10200757041E+01  0.10197967516E+01 0.  0.
     999903    2    3    3    0    0  0.35705158517E-02  0.11670410329E+00  0.54454621336E-01  0.13058122897E+00  0.21296836994E-01 0.  0.
         14    1    1    2    0    0  0.48899576312E-02 -0.11262657905E-01  0.20451608363E-01  0.23854295910E-01  0.00000000000E+00 0. -1.
     999901    1    3    3    0    0 -0.84604734829E-02 -0.10544144539E+00 -0.74906229699E-01  0.88949447512E+00  0.88000000000E+00 0.  1.
        -11    1    4    4    0    0 -0.68201730559E-02  0.62298015201E-01  0.22231071539E-01  0.66498414427E-01  0.51100000000E-03 0.  1.
         11    1    4    4    0    0  0.10390688908E-01  0.54406088093E-01  0.32223549797E-01  0.64082814546E-01  0.51100000000E-03 0. -1.
</event>
<event>
 8    1  0.1131349E+005  0.1043930E+01  0.7957747E-01            NaN
         13   -1    0    0    0    0  0.00000000000E+00  0.00000000000E+00  0.74505805969E-08  0.10566000000E+00  0.10566000000E+00 0. -1.
     999900   -1    0    0    0    0 -0.00000000000E+00 -0.00000000000E+00 -0.74505805969E-08  0.93827000000E+00  0.93827000000E+00 0. -1.
     999902    2    1    2    0    0  0.76170863010E-02  0.40189849212E-02 -0.22333699831E-01  0.10199932836E+01  0.10197123772E+01 0.  0.
     999903    2    3    3    0    0  0.30810710905E-01 -0.76525747614E-01  0.95769488120E-01  0.12815598838E+00  0.21134629105E-01 0.  0.
         14    1    1    2    0    0 -0.76170863010E-02 -0.40189849212E-02  0.22333699831E-01  0.23936716393E-01  0.00000000000E+00 0. -1.
     999901    1    3    3    0    0 -0.23193624604E-01  0.80544732535E-01 -0.11810318795E+00  0.89183729523E+00  0.88000000000E+00 0. -1.
        -11    1    4    4    0    0 -0.69361168022E-03 -0.64377668847E-02  0.16598068130E-01  0.17823661977E-01  0.51100000000E-03 0.  1.
         11    1    4    4    0    0  0.31504322585E-01 -0.70087980729E-01  0.79171419990E-01  0.11033232640E+00  0.51100000000E-03 0. -1.
</event>
<event>
 8    1  0.1131349E+005  0.1043930E+01  0.7957747E-01            NaN
         13   -1    0    0    0    0  0.00000000000E+00  0.00000000000E+00  0.74505805969E-08  0.10566000000E+00  0.10566000000E+00 0. -1.
     999900   -1    0    0    0    0 -0.00000000000E+00 -0.00000000000E+00 -0.74505805969E-08  0.93827000000E+00  0.93827000000E+00 0.  1.
     999902    2    1    2    0    0  0.19079537407E-01  0.78746504225E-02  0.15161426732E-01  0.10183193044E+01  0.10179971994E+01 0.  0.
     999903    2    3    3    0    0  0.19140864827E-01  0.86727664013E-01  0.94493520371E-01  0.13123904730E+00  0.20164367892E-01 0.  0.
         14    1    1    2    0    0 -0.19079537407E-01 -0.78746504225E-02 -0.15161426732E-01  0.25610695568E-01  0.00000000000E+00 0. -1.
     999901    1    3    3    0    0 -0.61327419784E-04 -0.78853013590E-01 -0.79332093639E-01  0.88708025713E+00  0.88000000000E+00 0.  1.
        -11    1    4    4    0    0  0.54237575355E-03  0.16165118098E-01  0.28879488072E-01  0.33104246962E-01  0.51100000000E-03 0.  1.
         11    1    4    4    0    0  0.18598489073E-01  0.70562545915E-01  0.65614032298E-01  0.98134800337E-01  0.51100000000E-03 0. -1.
</event>
<event>
 8    1  0.1131349E+005  0.1043930E+01  0.7957747E-01            NaN
         13   -1    0    0    0    0  0.00000000000E+00  0.00000000000E+00  0.74505805969E-08  0.10566000000E+00  0.10566000000E+00 0. -1.
     999900   -1    0    0    0    0 -0.00000000000E+00 -0.00000000000E+00 -0.74505805969E-08  0.93827000000E+00  0.93827000000E+00 0. -1.
     999902    2    1    2    0    0 -0.10554244497E-01 -0.10057732585E-01  0.17182362416E-01  0.10213959449E+01  0.10211473413E+01 0.  0.
     999903    2    3    3    0    0 -0.80405298815E-02 -0.12985420874E+00 -0.16272854927E-01  0.13264583038E+00  0.20083447491E-01 0.  0.
         14    1    1    2    0    0  0.10554244497E-01  0.10057732585E-01 -0.17182362416E-01  0.22534055113E-01  0.00000000000E+00 0.  1.
     999901    1    3    3    0    0 -0.25137146157E-02  0.11979647615E+00  0.33455217343E-01  0.88875011450E+00  0.88000000000E+00 0. -1.
        -11    1    4    4    0    0  0.67445535603E-02 -0.41259617439E-01 -0.60115429433E-02  0.42240322009E-01  0.51100000000E-03 0. -1.
         11    1    4    4    0    0 -0.14785083442E-01 -0.88594591300E-01 -0.10261311984E-01  0.90405508375E-01  0.51100000000E-03 0.  1.
</event>
<event>
 8    1  0.1131349E+005  0.1043930E+01  0.7957747E-01            NaN
         13   -1    0    0    0    0  0.00000000000E+00  0.00000000000E+00  0.74505805969E-08  0.10566000000E+00  0.10566000000E+00 0.  1.
     999900   -1    0    0    0    0 -0.00000000000E+00 -0.00000000000E+00 -0.74505805969E-08  0.93827000000E+00  0.93827000000E+00 0. -1.
     999902    2    1    2    0    0 -0.16896465092E-01  0.31611318474E-03  0.16586877672E-01  0.10202505792E+01  0.10199757494E+01 0.  0.
     999903    2    3    3    0    0  0.32448812426E-03  0.12545486623E-02 -0.12704373209E+00  0.12843939178E+00  0.18838479559E-01 0.  0.
         14    1    1    2    0    0  0.16896465092E-01 -0.31611318474E-03 -0.16586877672E-01  0.23679420835E-01  0.00000000000E+00 0.  1.
     999901    1    3    3    0    0 -0.17220953216E-01 -0.93843547757E-03  0.14363060976E+00  0.89181118739E+00  0.88000000000E+00 0.  1.
        -11    1    4    4    0    0  0.94061744629E-02  0.85859834947E-06 -0.53275529014E-01  0.54101933713E-01  0.51100000000E-03 0. -1.
         11    1    4    4    0    0 -0.90816863387E-02  0.12536900640E-02 -0.73768203074E-01  0.74337458064E-01  0.51100000000E-03 0.  1.
</event>
<event>
 8    1  0.1131349E+005  0.1043930E+01  0.7957747E-01            NaN
         13   -1    0    0    0    0  0.00000000000E+00  0.00000000000E+00  0.74505805969E-08  0.10566000000E+00  0.10566000000E+00 0. -1.
     999900   -1    0    0    0    0 -0.00000000000E+00 -0.00000000000E+00 -0.74505805969E-08  0.93827000000E+00  0.93827000000E+00 0. -1.
     999902    2    1    2    0    0  0.10426199831E-01 -0.76137080696E-03 -0.13894391472E-01  0.10265420892E+01  0.10263948175E+01 0.  0.
     999903    2    3    3    0    0 -0.11275924183E+00 -0.84274160151E-02 -0.72757036659E-01  0.13598146110E+00  0.20290476069E-01 0.  0.
         14    1    1    2    0    0 -0.10426199831E-01  0.76137080696E-03  0.13894391472E-01  0.17387910823E-01  0.00000000000E+00 0. -1.
     999901    1    3    3    0    0  0.12318544167E+00  0.76660452082E-02  0.58862645187E-01  0.89056062808E+00  0.88000000000E+00 0. -1.
        -11    1    4    4    0    0 -0.35999588362E-01 -0.22975118648E-02 -0.34815121848E-01  0.50135843000E-01  0.51100000000E-03 0. -1.
         11    1    4    4    0    0 -0.76759653471E-01 -0.61299041503E-02 -0.37941914811E-01  0.85845618097E-01  0.51100000000E-03 0.  1.
</event>
<event>
 8    1  0.1131349E+005  0.1043930E+01  0.7957747E-01            NaN
         13   -1    0    0    0    0  0.00000000000E+00  0.00000000000E+00  0.74505805969E-08  0.10566000000E+00  0.10566000000E+00 0.  1.
     999900   -1    0    0    0    0 -0.00000000000E+00 -0.00000000000E+00 -0.74505805969E-08  0.93827000000E+00  0.93827000000E+00 0. -1.
     999902    2    1    2    0    0  0.16062417580E-01 -0.15066712508E-01 -0.74056437176E-02  0.10206953138E+01  0.10204308271E+01 0.  0.
     999903    2    3    3    0    0  0.45187782561E-01 -0.50608164328E-01  0.11092634332E+00  0.13158680476E+00  0.20181961119E-01 0.  0.
         14    1    1    2    0    0 -0.16062417580E-01  0.15066712508E-01  0.74056437176E-02  0.23234686208E-01  0.00000000000E+00 0.  1.
     999901    1    3    3    0    0 -0.29125364981E-01  0.35541451820E-01 -0.11833198704E+00  0.88910850904E+00  0.88000000000E+00 0. -1.
        -11    1    4    4    0    0  0.73976996126E-02 -0.22276313127E-01  0.39670236581E-01  0.46097167782E-01  0.51100000000E-03 0. -1.
         11    1    4    4    0    0  0.37790082949E-01 -0.28331851201E-01  0.71256106737E-01  0.85489636975E-01  0.51100000000E-03 0.  1.
</event>
<event>
 8    1  0.1131349E+005  0.1043930E+01  0.7957747E-01            NaN
         13   -1    0    0    0    0  0.00000000000E+00  0.00000000000E+00  0.74505805969E-08  0.10566000000E+00  0.10566000000E+00 0.  1.
     999900   -1    0    0    0    0 -0.00000000000E+00 -0.00000000000E+00 -0.74505805969E-08  0.93827000000E+00  0.93827000000E+00 0.  1.
     999902    2    1    2    0    0  0.43301581583E-02  0.21246319217E-01 -0.55679684543E-02  0.10215434276E+01  0.10212981033E+01 0.  0.
     999903    2    3    3    0    0  0.22030127071E-01 -0.80215538099E-01  0.97452389446E-01  0.12956753584E+00  0.19259259673E-01 0.  0.
         14    1    1    2    0    0 -0.43301581583E-02 -0.21246319217E-01  0.55679684543E-02  0.22386572374E-01  0.00000000000E+00 0.  1.
     999901    1    3    3    0    0 -0.17699968913E-01  0.10146185732E+00 -0.10302035790E+00  0.89197589179E+00  0.88000000000E+00 0.  1.
        -11    1    4    4    0    0  0.23336102427E-01 -0.75975156158E-01  0.85152146737E-01  0.11648153177E+00  0.51100000000E-03 0.  1.
         11    1    4    4    0    0 -0.13059753563E-02 -0.42403819408E-02  0.12300242709E-01  0.13086004063E-01  0.51100000000E-03 0. -1.
</event>
<event>
 8    1  0.1131349E+005  0.1043930E+01  0.7957747E-01            NaN
         13   -1    0    0    0    0  0.00000000000E+00  0.00000000000E+00  0.74505805969E-08  0.10566000000E+00  0.10566000000E+00 0. -1.
     999900   -1    0    0    0    0 -0.00000000000E+00 -0.00000000000E+00 -0.74505805969E-08  0.93827000000E+00  0.93827000000E+00 0.  1.
     999902    2    1    2    0    0  0.18934865894E-01  0.47249613290E-02 -0.62616755522E-02  0.10234345618E+01  0.10232293190E+01 0.  0.
     999903    2    3    3    0    0 -0.52086382972E-01  0.11641823092E+00  0.30209662866E-01  0.13278897416E+00  0.21309437978E-01 0.  0.
         14    1    1    2    0    0 -0.18934865894E-01 -0.47249613290E-02  0.62616755522E-02  0.20495438192E-01  0.00000000000E+00 0. -1.
     999901    1    3    3    0    0  0.71021248865E-01 -0.11169326959E+00 -0.36471338418E-01  0.89064558764E+00  0.88000000000E+00 0.  1.
        -11    1    4    4    0    0 -0.21691151728E-01  0.26147694444E-01  0.59249456657E-02  0.34490202814E-01  0.51100000000E-03 0. -1.
         11    1    4    4    0    0 -0.30395231244E-01  0.90270536478E-01  0.24284717200E-01  0.98298771350E-01  0.51100000000E-03 0.  1.
</event>
<event>
 8    1  0.1131349E+005  0.1043930E+01  0.7957747E-01            NaN
         13   -1    0    0    0    0  0.00000000000E+00  0.00000000000E+00  0.74505805969E-08  0.10566000000E+00  0.10566000000E+00 0. -1.
     999900   -1    0    0    0    0 -0.00000000000E+00 -0.00000000000E+00 -0.74505805969E-08  0.93827000000E+00  0.93827000000E+00 0. -1.
     999902    2    1    2    0    0  0.47886563398E-02  0.14399738017E-01 -0.18042699717E-01  0.10203541077E+01  0.10200817038E+01 0.  0.
     999903    2    3    3    0    0  0.11594308897E+00 -0.23391419105E-01  0.51738502723E-01  0.12981893397E+00  0.13642748436E-01 0.  0.
         14    1    1    2    0    0 -0.47886563398E-02 -0.14399738017E-01  0.18042699717E-01  0.23575892296E-01  0.00000000000E+00 0. -1.
     999901    1    3    3    0    0 -0.11115443263E+00  0.37791157122E-01 -0.69781202439E-01  0.89053517374E+00  0.88000000000E+00 0. -1.
        -11    1    4    4    0    0  0.10402671268E+00 -0.16831033385E-01  0.47215436964E-01  0.11547466927E+00  0.51100000000E-03 0. -1.
         11    1    4    4    0    0  0.11916376291E-01 -0.65603857198E-02  0.45230657589E-02  0.14344264692E-01  0.51100000000E-03 0.  1.
</event>
<event>
 8    1  0.1131349E+005  0.1043930E+01  0.7957747E-01            NaN
         13   -1    0    0    0    0  0.00000000000E+00  0.00000000000E+00  0.74505805969E-08  0.10566000000E+00  0.10566000000E+00 0.  1.
     999900   -1    0    0    0    0 -0.00000000000E+00 -0.00000000000E+00 -0.74505805969E-08  0.93827000000E+00  0.93827000000E+00 0.  1.
     999902    2    1    2    0    0 -0.12852579555E-01  0.21095903398E-01  0.17114966426E-03  0.10192266554E+01  0.10189272397E+01 0.  0.
     999903    2    3    3    0    0  0.90974594357E-01  0.85563534029E-01 -0.30980242439E-01  0.13023477319E+00  0.20095411201E-01 0.  0.
         14    1    1    2    0    0  0.12852579555E-01 -0.21095903398E-01 -0.17114966426E-03  0.24703344583E-01  0.00000000000E+00 0. -1.
     999901    1    3    3    0    0 -0.10382717391E+00 -0.64467630632E-01  0.31151392104E-01  0.88899188223E+00  0.88000000000E+00 0. -1.
        -11    1    4    4    0    0  0.31961510758E-01  0.39564646037E-01 -0.19788721138E-01  0.54577962506E-01  0.51100000000E-03 0. -1.
         11    1    4    4    0    0  0.59013083598E-01  0.45998887992E-01 -0.11191521301E-01  0.75656810680E-01  0.51100000000E-03 0.  1.
</event>
<event>
 8    1  0.1131349E+005  0.1043930E+01  0.7957747E-01            NaN
         13   -1    0    0    0    0  0.00000000000E+00  0.00000000000E+00  0.74505805969E-08  0.10566000000E+00  0.10566000000E+00 0. -1.
     999900   -1    0    0    0    0 -0.00000000000E+00 -0.00000000000E+00 -0.74505805969E-08  0.93827000000E+00  0.93827000000E+00 0.  1.
     999902    2    1    2    0    0  0.74580866499E-02  0.18312839008E-01  0.13774546020E-01  0.10198318414E+01  0.10195470874E+01 0.  0.
     999903    2    3    3    0    0  0.78963444888E-01  0.54908784307E-01 -0.86074045416E-01  0.13055009715E+00  0.19605773384E-01 0.  0.
         14    1    1    2    0    0 -0.74580866499E-02 -0.18312839008E-01 -0.13774546020E-01  0.24098158582E-01  0.00000000000E+00 0.  1.
     999901    1    3    3    0    0 -0.71505358238E-01 -0.36595945299E-01  0.99848591436E-01  0.88928174426E+00  0.88000000000E+00 0. -1.
        -11    1    4    4    0    0  0.58959259962E-01  0.31202713898E-01 -0.52967275297E-01  0.85179792576E-01  0.51100000000E-03 0.  1.
         11    1    4    4    0    0  0.20004184925E-01  0.23706070409E-01 -0.33106770119E-01  0.45370304578E-01  0.51100000000E-03 0. -1.
</event>
<event>
 8    1  0.1131349E+005  0.1043930E+01  0.7957747E-01            NaN
         13   -1    0    0    0    0  0.00000000000E+00  0.00000000000E+00  0.74505805969E-08  0.10566000000E+00  0.10566000000E+00 0.  1.
     999900   -1    0    0    0    0 -0.00000000000E+00 -0.00000000000E+00 -0.74505805969E-08  0.93827000000E+00  0.93827000000E+00 0.  1.
     999902    2    1    2    0    0 -0.18902352768E-01 -0.10562978321E-01 -0.12334922632E-01  0.10190096114E+01  0.10187048456E+01 0.  0.
     999903    2    3    3    0    0 -0.99898587523E-01 -0.81904508500E-01 -0.20795973027E-01  0.13237462826E+00  0.20062238429E-01 0.  0.
         14    1    1    2    0    0  0.18902352768E-01  0.10562978321E-01  0.12334922632E-01  0.24920388590E-01  0.00000000000E+00 0.  1.
     999901    1    3    3    0    0  0.80996234755E-01  0.71341530179E-01  0.84610503951E-02  0.88663498315E+00  0.88000000000E+00 0. -1.
        -11    1    4    4    0    0 -0.40606355834E-01 -0.21400348799E-01 -0.46875810528E-02  0.46142015560E-01  0.51100000000E-03 0. -1.
         11    1    4    4    0    0 -0.59292231689E-01 -0.60504159701E-01 -0.16108391974E-01  0.86232612698E-01  0.51100000000E-03 0.  1.
</event>
<event>
 8    1  0.1131349E+005  0.1043930E+01  0.7957747E-01            NaN
         13   -1    0    0    0    0  0.00000000000E+00  0.00000000000E+00  0.74505805969E-08  0.10566000000E+00  0.10566000000E+00 0. -1.
     999900   -1    0    0    0    0 -0.00000000000E+00 -0.00000000000E+00 -0.74505805969E-08  0.93827000000E+00  0.93827000000E+00 0.  1.
     999902    2    1    2    0    0 -0.48710227168E-02 -0.23584675691E-01  0.22376115041E-02  0.10197438326E+01  0.10194569698E+01 0.  0.
     999903    2    3    3    0    0  0.10079834248E+00  0.11156871606E-01 -0.77797026208E-01  0.12913812122E+00  0.18425401906E-01 0.  0.
         14    1    1    2    0    0  0.48710227168E-02  0.23584675691E-01 -0.22376115041E-02  0.24186167431E-01  0.00000000000E+00 0. -1.
     999901    1    3    3    0    0 -0.10566936520E+00 -0.34741547297E-01  0.80034637712E-01  0.89060571135E+00  0.88000000000E+00 0. -1.
        -11    1    4    4    0    0  0.16641787206E-01 -0.20780633792E-03 -0.52832360650E-02  0.17469000235E-01  0.51100000000E-03 0. -1.
         11    1    4    4    0    0  0.84156555274E-01  0.11364677944E-01 -0.72513790143E-01  0.11166912099E+00  0.51100000000E-03 0.  1.
</event>
<event>
 8    1  0.1131349E+005  0.1043930E+01  0.7957747E-01            NaN
         13   -1    0    0    0    0  0.00000000000E+00  0.00000000000E+00  0.74505805969E-08  0.10566000000E+00  0.10566000000E+00 0. -1.
     999900   -1    0    0    0    0 -0.00000000000E+00 -0.00000000000E+00 -0.74505805969E-08  0.93827000000E+00  0.93827000000E+00 0.  1.
     999902    2    1    2    0    0  0.11520891662E-01 -0.56094328737E-02  0.20208449085E-01  0.10200013959E+01  0.10197206821E+01 0.  0.
     999903    2    3    3    0    0 -0.10080130519E+00  0.56984299810E-01  0.54819830003E-01  0.12998330673E+00  0.21962074494E-01 0.  0.
         14    1    1    2    0    0 -0.11520891662E-01  0.56094328737E-02 -0.20208449085E-01  0.23928604144E-01  0.00000000000E+00 0.  1.
     999901    1    3    3    0    0  0.11232219685E+00 -0.62593732683E-01 -0.34611380917E-01  0.89001808912E+00  0.88000000000E+00 0. -1.
        -11    1    4    4    0    0 -0.74872916758E-01  0.41281312249E-01  0.50660211619E-01  0.99382184355E-01  0.51100000000E-03 0. -1.
         11    1    4    4    0    0 -0.25928388427E-01  0.15702987561E-01  0.41596183841E-02  0.30601122379E-01  0.51100000000E-03 0.  1.
</event>
<event>
 8    1  0.1131349E+005  0.1043930E+01  0.7957747E-01            NaN
         13   -1    0    0    0    0  0.00000000000E+00  0.00000000000E+00  0.74505805969E-08  0.10566000000E+00  0.10566000000E+00 0. -1.
     999900   -1    0    0    0    0 -0.00000000000E+00 -0.00000000000E+00 -0.74505805969E-08  0.93827000000E+00  0.93827000000E+00 0. -1.
     999902    2    1    2    0    0  0.19542041339E-01 -0.81962305495E-02 -0.65066406184E-03  0.10227287515E+01  0.10225089761E+01 0.  0.
     999903    2    3    3    0    0  0.12141335809E+00  0.12212115467E-01 -0.54177044181E-01  0.13500168806E+00  0.19999109378E-01 0.  0.
         14    1    1    2    0    0 -0.19542041339E-01  0.81962305495E-02  0.65066406184E-03  0.21201248516E-01  0.00000000000E+00 0.  1.
     999901    1    3    3    0    0 -0.10187131675E+00 -0.20408346017E-01  0.53526380120E-01  0.88772706342E+00  0.88000000000E+00 0.  1.
        -11    1    4    4    0    0  0.39067364289E-01 -0.53379408740E-02 -0.18506815248E-01  0.43560485498E-01  0.51100000000E-03 0. -1.
         11    1    4    4    0    0  0.82345993803E-01  0.17550056341E-01 -0.35670228933E-01  0.91441202563E-01  0.51100000000E-03 0.  1.
</event>
<event>
 8    1  0.1131349E+005  0.1043930E+01  0.7957747E-01            NaN
         13   -1    0    0    0    0  0.00000000000E+00  0.00000000000E+00  0.74505805969E-08  0.10566000000E+00  0.10566000000E+00 0.  1.
     999900   -1    0    0    0    0 -0.00000000000E+00 -0.00000000000E+00 -0.74505805969E-08  0.93827000000E+00  0.93827000000E+00 0. -1.
     999902    2    1    2    0    0  0.25026695934E-01  0.47240473437E-02  0.73286903578E-03  0.10184508079E+01  0.10181320439E+01 0.  0.
     999903    2    3    3    0    0  0.11884866929E-01  0.10957686636E+00 -0.65176284532E-01  0.12968152522E+00  0.20518533414E-01 0.  0.
         14    1    1    2    0    0 -0.25026695934E-01 -0.47240473437E-02 -0.73286903578E-03  0.25479192093E-01  0.00000000000E+00 0. -1.
     999901    1    3    3    0    0  0.13141829006E-01 -0.10485281902E+00  0.65909153567E-01  0.88876928269E+00  0.88000000000E+00 0.  1.
        -11    1    4    4    0    0  0.31353961095E-02  0.27689953501E-01 -0.66647278801E-02  0.28657354246E-01  0.51100000000E-03 0. -1.
         11    1    4    4    0    0  0.87494708191E-02  0.81886912863E-01 -0.58511556651E-01  0.10102417097E+00  0.51100000000E-03 0.  1.
</event>
<event>
 8    1  0.1131349E+005  0.1043930E+01  0.7957747E-01            NaN
         13   -1    0    0    0    0  0.00000000000E+00  0.00000000000E+00  0.74505805969E-08  0.10566000000E+00  0.10566000000E+00 0.  1.
     999900   -1    0    0    0    0 -0.00000000000E+00 -0.00000000000E+00 -0.74505805969E-08  0.93827000000E+00  0.93827000000E+00 0.  1.
     999902    2    1    2    0    0  0.15993842215E-01  0.13828544525E-01 -0.11311021952E-01  0.10199514502E+01  0.10196695494E+01 0.  0.
     999903    2    3    3    0    0  0.12769945220E+00 -0.23504721250E-01  0.10664220026E-01  0.13183274908E+00  0.20162493133E-01 0.  0.
         14    1    1    2    0    0 -0.15993842215E-01 -0.13828544525E-01  0.11311021952E-01  0.23978549791E-01  0.00000000000E+00 0.  1.
     999901    1    3    3    0    0 -0.11170560998E+00  0.37333265775E-01 -0.21975241978E-01  0.88811870113E+00  0.88000000000E+00 0.  1.
        -11    1    4    4    0    0  0.77828950711E-01 -0.80454557118E-02  0.14100209201E-01  0.79505672419E-01  0.51100000000E-03 0. -1.
         11    1    4    4    0    0  0.49870501484E-01 -0.15459265538E-01 -0.34359891747E-02  0.52327076661E-01  0.51100000000E-03 0.  1.
</event>
<event>
 8    1  0.1131349E+005  0.1043930E+01  0.7957747E-01            NaN
         13   -1    0    0    0    0  0.00000000000E+00  0.00000000000E+00  0.74505805969E-08  0.10566000000E+00  0.10566000000E+00 0. -1.
     999900   -1    0    0    0    0 -0.00000000000E+00 -0.00000000000E+00 -0.74505805969E-08  0.93827000000E+00  0.93827000000E+00 0. -1.
     999902    2    1    2    0    0 -0.97221734964E-02 -0.86598578901E-02  0.19007830380E-01  0.10208906551E+01  0.10206306474E+01 0.  0.
     999903    2    3    3    0    0 -0.31075692670E-01 -0.11966657586E+00 -0.40348932134E-01  0.13167656985E+00  0.20612973344E-01 0.  0.
         14    1    1    2    0    0  0.97221734964E-02  0.86598578901E-02 -0.19007830380E-01  0.23039344868E-01  0.00000000000E+00 0.  1.
     999901    1    3    3    0    0  0.21353519174E-01  0.11100671797E+00  0.59356762514E-01  0.88921408529E+00  0.88000000000E+00 0. -1.
        -11    1    4    4    0    0 -0.23357067242E-01 -0.52577987049E-01 -0.22908446221E-01  0.61927823646E-01  0.51100000000E-03 0. -1.
         11    1    4    4    0    0 -0.77186254283E-02 -0.67088588808E-01 -0.17440485912E-01  0.69748746201E-01  0.51100000000E-03 0.  1.
</event>
<event>
 8    1  0.1131349E+005  0.1043930E+01  0.7957747E-01            NaN
         13   -1    0    0    0    0  0.00000000000E+00  0.00000000000E+00  0.74505805969E-08  0.10566000000E+00  0.10566000000E+00 0.  1.
     999900   -1    0    0    0    0 -0.00000000000E+00 -0.00000000000E+00 -0.74505805969E-08  0.93827000000E+00  0.93827000000E+00 0.  1.
     999902    2    1    2    0    0 -0.19969878188E-01 -0.52315899172E-03 -0.12931597698E-01  0.10201330265E+01  0.10198554288E+01 0.  0.
     999903    2    3    3    0    0  0.94479508408E-02 -0.70386143554E-01  0.10576302529E+00  0.12893458684E+00  0.19870510463E-01 0.  0.
         14    1    1    2    0    0  0.19969878188E-01  0.52315899172E-03  0.12931597698E-01  0.23796973530E-01  0.00000000000E+00 0.  1.
     999901    1    3    3    0    0 -0.29417829029E-01  0.69862984562E-01 -0.11869462298E+00  0.89119843963E+00  0.88000000000E+00 0.  1.
        -11    1    4    4    0    0  0.76289049655E-02 -0.56703098448E-01  0.68845706570E-01  0.89517785935E-01  0.51100000000E-03 0. -1.
         11    1    4    4    0    0  0.18190458753E-02 -0.13683045106E-01  0.36917318716E-01  0.39416800903E-01  0.51100000000E-03 0.  1.
</event>
<event>
 8    1  0.1131349E+005  0.1043930E+01  0.7957747E-01            NaN
         13   -1    0    0    0    0  0.00000000000E+00  0.00000000000E+00  0.74505805969E-08  0.10566000000E+00  0.10566000000E+00 0. -1.
     999900   -1    0    0    0    0 -0.00000000000E+00 -0.00000000000E+00 -0.74505805969E-08  0.93827000000E+00  0.93827000000E+00 0. -1.
     999902    2    1    2    0    0 -0.11684170669E-01 -0.28670627142E-01 -0.65572332364E-03  0.10129630066E+01  0.10124895546E+01 0.  0.
     999903    2    3    3    0    0  0.61183137913E-01  0.73658970292E-01  0.71672821708E-01  0.12110404380E+00  0.18978297681E-01 0.  0.
         14    1    1    2    0    0  0.11684170669E-01  0.28670627142E-01  0.65572332364E-03  0.30966993364E-01  0.00000000000E+00 0. -1.
     999901    1    3    3    0    0 -0.72867308581E-01 -0.10232959743E+00 -0.72328545032E-01  0.89185896284E+00  0.88000000000E+00 0. -1.
        -11    1    4    4    0    0  0.18990466127E-01  0.35169753049E-01  0.35792775050E-01  0.53655691217E-01  0.51100000000E-03 0.  1.
         11    1    4    4    0    0  0.42192671786E-01  0.38489217243E-01  0.35880046658E-01  0.67448352579E-01  0.51100000000E-03 0. -1.
</event>
<event>
 8    1  0.1131349E+005  0.1043930E+01  0.7957747E-01            NaN
         13   -1    0    0    0    0  0.00000000000E+00  0.00000000000E+00  0.74505805969E-08  0.10566000000E+00  0.10566000000E+00 0.  1.
     999900   -1    0    0    0    0 -0.00000000000E+00 -0.00000000000E+00 -0.74505805969E-08  0.93827000000E+00  0.93827000000E+00 0.  1.
     999902    2    1    2    0    0  0.21703165756E-02  0.18603613522E-01 -0.14859361789E-01  0.10200217307E+01  0.10197414994E+01 0.  0.
     999903    2    3    3    0    0  0.22252607981E-01 -0.10618344030E+00  0.63803741484E-01  0.12751795417E+00  0.20489257017E-01 0.  0.
         14    1    1    2    0    0 -0.21703165756E-02 -0.18603613522E-01  0.14859361789E-01  0.23908269342E-01  0.00000000000E+00 0. -1.
     999901    1    3    3    0    0 -0.20082291405E-01  0.12478705382E+00 -0.78663103273E-01  0.89250377649E+00  0.88000000000E+00 0. -1.
        -11    1    4    4    0    0  0.13025928044E-01 -0.92779615860E-01  0.50142408567E-01  0.10626501860E+00  0.51100000000E-03 0.  1.
         11    1    4    4    0    0  0.92266799374E-02 -0.13403824437E-01  0.13661332917E-01  0.21252935569E-01  0.51100000000E-03 0. -1.
</event>
<event>
 8    1  0.1131349E+005  0.1043930E+01  0.7957747E-01            NaN
         13   -1    0    0    0    0  0.00000000000E+00  0.00000000000E+00  0.74505805969E-08  0.10566000000E+00  0.10566000000E+00 0. -1.
     999900   -1    0    0    0    0 -0.00000000000E+00 -0.00000000000E+00 -0.74505805969E-08  0.93827000000E+00  0.93827000000E+00 0. -1.
     999902    2    1    2    0    0  0.17362752254E-01  0.30032825367E-02 -0.15049358084E-01  0.10207574289E+01  0.10204943707E+01 0.  0.
     999903    2    3    3    0    0  0.22643346010E-01  0.91948141550E-01 -0.91130766090E-01  0.13299200198E+00  0.20368461172E-01 0.  0.
         14    1    1    2    0    0 -0.17362752254E-01 -0.30032825367E-02  0.15049358084E-01  0.23172571082E-01  0.00000000000E+00 0. -1.
     999901    1    3    3    0    0 -0.52805937553E-02 -0.88944859013E-01  0.76081408006E-01  0.88776542693E+00  0.88000000000E+00 0.  1.
        -11    1    4    4    0    0  0.16585149394E-01  0.41339890813E-01 -0.53595580178E-01  0.69690753249E-01  0.51100000000E-03 0.  1.
         11    1    4    4    0    0  0.60581966157E-02  0.50608250737E-01 -0.37535185912E-01  0.63301248734E-01  0.51100000000E-03 0. -1.
</event>
<event>
 8    1  0.1131349E+005  0.1043930E+01  0.7957747E-01            NaN
         13   -1    0    0    0    0  0.00000000000E+00  0.00000000000E+00  0.74505805969E-08  0.10566000000E+00  0.10566000000E+00 0. -1.
     999900   -1    0    0    0    0 -0.00000000000E+00 -0.00000000000E+00 -0.74505805969E-08  0.93827000000E+00  0.93827000000E+00 0. -1.
     999902    2    1    2    0    0  0.23104538997E-01 -0.80855840949E-02 -0.17863751835E-02  0.10193864157E+01  0.10190909072E+01 0.  0.
     999903    2    3    3    0    0  0.37926750797E-01  0.12170771811E+00 -0.12682443915E-01  0.12967594396E+00  0.20094750204E-01 0.  0.
         14    1    1    2    0    0 -0.23104538997E-01  0.80855840949E-02  0.17863751835E-02  0.24543584268E-01  0.00000000000E+00 0.  1.
     999901    1    3    3    0    0 -0.14822211801E-01 -0.12979330220E+00  0.10896068731E-01  0.88971047177E+00  0.88000000000E+00 0.  1.
        -11    1    4    4    0    0  0.25764430314E-02  0.31362978865E-01  0.20888254701E-02  0.31542016657E-01  0.51100000000E-03 0. -1.
         11    1    4    4    0    0  0.35350307766E-01  0.90344739245E-01 -0.14771269385E-01  0.98133927307E-01  0.51100000000E-03 0.  1.
</event>
<event>
 8    1  0.1131349E+005  0.1043930E+01  0.7957747E-01            NaN
         13   -1    0    0    0    0  0.00000000000E+00  0.00000000000E+00  0.74505805969E-08  0.10566000000E+00  0.10566000000E+00 0.  1.
     999900   -1    0    0    0    0 -0.00000000000E+00 -0.00000000000E+00 -0.74505805969E-08  0.93827000000E+00  0.93827000000E+00 0. -1.
     999902    2    1    2    0    0 -0.19772945331E-01  0.51257482759E-02 -0.11796156971E-01  0.10203420374E+01  0.10200693512E+01 0.  0.
     999903    2    3    3    0    0  0.67245301933E-02 -0.48463064872E-01  0.11755741221E+00  0.12887906955E+00  0.19904307057E-01 0.  0.
         14    1    1    2    0    0  0.19772945331E-01 -0.51257482759E-02  0.11796156971E-01  0.23587962645E-01  0.00000000000E+00 0.  1.
     999901    1    3    3    0    0 -0.26497475525E-01  0.53588813148E-01 -0.12935356918E+00  0.89146296780E+00  0.88000000000E+00 0. -1.
        -11    1    4    4    0    0  0.10396621656E-01 -0.12121501218E-01  0.29586975580E-01  0.33625448378E-01  0.51100000000E-03 0. -1.
         11    1    4    4    0    0 -0.36720914624E-02 -0.36341563654E-01  0.87970436632E-01  0.95253621174E-01  0.51100000000E-03 0.  1.
</event>
<event>
 8    1  0.1131349E+005  0.1043930E+01  0.7957747E-01            NaN
         13   -1    0    0    0    0  0.00000000000E+00  0.00000000000E+00  0.74505805969E-08  0.10566000000E+00  0.10566000000E+00 0. -1.
     999900   -1    0    0    0    0 -0.00000000000E+00 -0.00000000000E+00 -0.74505805969E-08  0.93827000000E+00  0.93827000000E+00 0. -1.
     999902    2    1    2    0    0  0.38474642683E-03 -0.13832497781E-01  0.17622423031E-01  0.10215238442E+01  0.10212780857E+01 0.  0.
     999903    2    3    3    0    0  0.12664758235E+00 -0.26657467627E-01  0.19827319036E-01  0.13241662616E+00  0.19768905117E-01 0.  0.
         14    1    1    2    0    0 -0.38474642683E-03  0.13832497781E-01 -0.17622423031E-01  0.22406155809E-01  0.00000000000E+00 0.  1.
     999901    1    3    3    0    0 -0.12626283592E+00  0.12824969846E-01 -0.22048960051E-02  0.88910721803E+00  0.88000000000E+00 0. -1.
        -11    1    4    4    0    0  0.43960281851E-01 -0.17440834320E-01  0.20690674264E-02  0.47341643859E-01  0.51100000000E-03 0.  1.
         11    1    4    4    0    0  0.82687300494E-01 -0.92166333063E-02  0.17758251610E-01  0.85074982302E-01  0.51100000000E-03 0. -1.
</event>
<event>
 8    1  0.1131349E+005  0.1043930E+01  0.7957747E-01            NaN
         13   -1    0    0    0    0  0.00000000000E+00  0.00000000000E+00  0.74505805969E-08  0.10566000000E+00  0.10566000000E+00 0.  1.
     999900   -1    0    0    0    0 -0.00000000000E+00 -0.00000000000E+00 -0.74505805969E-08  0.93827000000E+00  0.93827000000E+00 0.  1.
     999902    2    1    2    0    0 -0.22244649567E-01 -0.21686737255E-02  0.67454289071E-02  0.10205841569E+01  0.10203171041E+01 0.  0.
     999903    2    3    3    0    0  0.76998589520E-01  0.94982630458E-01 -0.35159837670E-01  0.12870768125E+00  0.19467155682E-01 0.  0.
         14    1    1    2    0    0  0.22244649567E-01  0.21686737255E-02 -0.67454289071E-02  0.23345843126E-01  0.00000000000E+00 0. -1.
     999901    1    3    3    0    0 -0.99243239088E-01 -0.97151304184E-01  0.41905266577E-01  0.89187647563E+00  0.88000000000E+00 0. -1.
        -11    1    4    4    0    0  0.61085025371E-01  0.66980706986E-01 -0.32816967737E-01  0.96410631807E-01  0.51100000000E-03 0.  1.
         11    1    4    4    0    0  0.15913564149E-01  0.28001923472E-01 -0.23428699329E-02  0.32297049441E-01  0.51100000000E-03 0. -1.
</event>
<event>
 8    1  0.1131349E+005  0.1043930E+01  0.7957747E-01            NaN
         13   -1    0    0    0    0  0.00000000000E+00  0.00000000000E+00  0.74505805969E-08  0.10566000000E+00  0.10566000000E+00 0. -1.
     999900   -1    0    0    0    0 -0.00000000000E+00 -0.00000000000E+00 -0.74505805969E-08  0.93827000000E+00  0.93827000000E+00 0.  1.
     999902    2    1    2    0    0  0.78244174382E-02 -0.22797175314E-01 -0.11504579741E-02  0.10198000132E+01  0.10195144975E+01 0.  0.
     999903    2    3    3    0    0 -0.29424534623E-01  0.12194057337E+00  0.39787225871E-02  0.12718430145E+00  0.20608484436E-01 0.  0.
         14    1    1    2    0    0 -0.78244174382E-02  0.22797175314E-01  0.11504579741E-02  0.24129986823E-01  0.00000000000E+00 0.  1.
     999901    1    3    3    0    0  0.37248952061E-01 -0.14473774868E+00 -0.51291805612E-02  0.89261571172E+00  0.88000000000E+00 0.  1.
        -11    1    4    4    0    0 -0.12418824053E-02  0.47568005558E-01  0.15945295382E-02  0.47613664742E-01  0.51100000000E-03 0.  1.
         11    1    4    4    0    0 -0.28182652217E-01  0.74372567813E-01  0.23841930488E-02  0.79570636711E-01  0.51100000000E-03 0. -1.
</event>
<event>
 8    1  0.1131349E+005  0.1043930E+01  0.7957747E-01            NaN
         13   -1    0    0    0    0  0.00000000000E+00  0.00000000000E+00  0.74505805969E-08  0.10566000000E+00  0.10566000000E+00 0.  1.
     999900   -1    0    0    0    0 -0.00000000000E+00 -0.00000000000E+00 -0.74505805969E-08  0.93827000000E+00  0.93827000000E+00 0. -1.
     999902    2    1    2    0    0 -0.36427299387E-02 -0.14929158924E-01  0.32301196526E-01  0.10081596692E+01  0.10075248891E+01 0.  0.
     999903    2    3    3    0    0 -0.56164528698E-01 -0.12491036731E-01  0.10738742070E+00  0.12339844445E+00  0.19612182079E-01 0.  0.
         14    1    1    2    0    0  0.36427299387E-02  0.14929158924E-01 -0.32301196526E-01  0.35770330786E-01  0.00000000000E+00 0. -1.
     999901    1    3    3    0    0  0.52521798759E-01 -0.24381221929E-02 -0.75086224173E-01  0.88476122476E+00  0.88000000000E+00 0. -1.
        -11    1    4    4    0    0 -0.28142367467E-01 -0.16227136282E-01  0.59113530718E-01  0.67453565017E-01  0.51100000000E-03 0.  1.
         11    1    4    4    0    0 -0.28022161232E-01  0.37360995510E-02  0.48273889980E-01  0.55944879433E-01  0.51100000000E-03 0. -1.
</event>
<event>
 8    1  0.1131349E+005  0.1043930E+01  0.7957747E-01            NaN
         13   -1    0    0    0    0  0.00000000000E+00  0.00000000000E+00  0.74505805969E-08  0.10566000000E+00  0.10566000000E+00 0. -1.
     999900   -1    0    0    0    0 -0.00000000000E+00 -0.00000000000E+00 -0.74505805969E-08  0.93827000000E+00  0.93827000000E+00 0.  1.
     999902    2    1    2    0    0  0.89125412684E-02 -0.41712903430E-02 -0.21433338645E-01  0.10203456607E+01  0.10200730593E+01 0.  0.
     999903    2    3    3    0    0  0.37424112899E-01 -0.11865212526E+00  0.37978479038E-01  0.13048694418E+00  0.10275537726E-01 0.  0.
         14    1    1    2    0    0 -0.89125412684E-02  0.41712903430E-02  0.21433338645E-01  0.23584339305E-01  0.00000000000E+00 0. -1.
     999901    1    3    3    0    0 -0.28511571631E-01  0.11448083492E+00 -0.59411817683E-01  0.88985871652E+00  0.88000000000E+00 0.  1.
        -11    1    4    4    0    0  0.18015061098E-01 -0.46427301310E-01  0.19208630874E-01  0.53378547698E-01  0.51100000000E-03 0. -1.
         11    1    4    4    0    0  0.19409051801E-01 -0.72224823951E-01  0.18769848164E-01  0.77108396480E-01  0.51100000000E-03 0.  1.
</event>
<event>
 8    1  0.1131349E+005  0.1043930E+01  0.7957747E-01            NaN
         13   -1    0    0    0    0  0.00000000000E+00  0.00000000000E+00  0.74505805969E-08  0.10566000000E+00  0.10566000000E+00 0. -1.
     999900   -1    0    0    0    0 -0.00000000000E+00 -0.00000000000E+00 -0.74505805969E-08  0.93827000000E+00  0.93827000000E+00 0. -1.
     999902    2    1    2    0    0  0.64992721279E-02 -0.23430452468E-01  0.10010470390E-01  0.10176348263E+01  0.10172950425E+01 0.  0.
     999903    2    3    3    0    0 -0.11170780082E+00  0.40739067592E-01  0.41796093627E-01  0.12684811491E+00  0.14325725829E-01 0.  0.
         14    1    1    2    0    0 -0.64992721279E-02  0.23430452468E-01 -0.10010470390E-01  0.26295173673E-01  0.00000000000E+00 0.  1.
     999901    1    3    3    0    0  0.11820707295E+00 -0.64169520060E-01 -0.31785623237E-01  0.89078671142E+00  0.88000000000E+00 0.  1.
        -11    1    4    4    0    0 -0.84120896350E-01  0.24306817490E-01  0.32704275171E-01  0.93471799569E-01  0.51100000000E-03 0.  1.
         11    1    4    4    0    0 -0.27586904469E-01  0.16432250103E-01  0.90918184563E-02  0.33376315337E-01  0.51100000000E-03 0. -1.
</event>
<event>
 8    1  0.1131349E+005  0.1043930E+01  0.7957747E-01            NaN
         13   -1    0    0    0    0  0.00000000000E+00  0.00000000000E+00  0.74505805969E-08  0.10566000000E+00  0.10566000000E+00 0. -1.
     999900   -1    0    0    0    0 -0.00000000000E+00 -0.00000000000E+00 -0.74505805969E-08  0.93827000000E+00  0.93827000000E+00 0. -1.
     999902    2    1    2    0    0 -0.39245924848E-02  0.15514567143E-01 -0.17516218596E-01  0.10202040199E+01  0.10199280955E+01 0.  0.
     999903    2    3    3    0    0 -0.71451992417E-02 -0.95098730491E-01  0.81794152258E-01  0.12773092576E+00  0.23023545338E-01 0.  0.
         14    1    1    2    0    0  0.39245924848E-02 -0.15514567143E-01  0.17516218596E-01  0.23725980142E-01  0.00000000000E+00 0. -1.
     999901    1    3    3    0    0  0.32206067568E-02  0.11061329763E+00 -0.99310370853E-01  0.89247309409E+00  0.88000000000E+00 0.  1.
        -11    1    4    4    0    0 -0.12367262261E-01 -0.31190677823E-01  0.33863612681E-01  0.47674027979E-01  0.51100000000E-03 0.  1.
         11    1    4    4    0    0  0.52220630197E-02 -0.63908052669E-01  0.47930539576E-01  0.80056897786E-01  0.51100000000E-03 0. -1.
</event>
<event>
 8    1  0.1131349E+005  0.1043930E+01  0.7957747E-01            NaN
         13   -1    0    0    0    0  0.00000000000E+00  0.00000000000E+00  0.74505805969E-08  0.10566000000E+00  0.10566000000E+00 0.  1.
     999900   -1    0    0    0    0 -0.00000000000E+00 -0.00000000000E+00 -0.74505805969E-08  0.93827000000E+00  0.93827000000E+00 0.  1.
     999902    2    1    2    0    0 -0.11095589793E-01  0.20048990201E-01  0.70964849665E-02  0.10199417900E+01  0.10196596593E+01 0.  0.
     999903    2    3    3    0    0 -0.10737726824E+00 -0.19524315690E-01  0.70473640339E-01  0.13154274002E+00  0.20636904613E-01 0.  0.
         14    1    1    2    0    0  0.11095589793E-01 -0.20048990201E-01 -0.70964849665E-02  0.23988210016E-01  0.00000000000E+00 0. -1.
     999901    1    3    3    0    0  0.96281678451E-01  0.39573305890E-01 -0.63377155373E-01  0.88839904996E+00  0.88000000000E+00 0.  1.
        -11    1    4    4    0    0 -0.17427286069E-01  0.25773518356E-02  0.17504896032E-01  0.24840200247E-01  0.51100000000E-03 0. -1.
         11    1    4    4    0    0 -0.89949982174E-01 -0.22101667525E-01  0.52968744307E-01  0.10670253978E+00  0.51100000000E-03 0.  1.
</event>
<event>
 8    1  0.1131349E+005  0.1043930E+01  0.7957747E-01            NaN
         13   -1    0    0    0    0  0.00000000000E+00  0.00000000000E+00  0.74505805969E-08  0.10566000000E+00  0.10566000000E+00 0. -1.
     999900   -1    0    0    0    0 -0.00000000000E+00 -0.00000000000E+00 -0.74505805969E-08  0.93827000000E+00  0.93827000000E+00 0. -1.
     999902    2    1    2    0    0  0.15218215567E-01  0.33890095619E-02 -0.16934670663E-01  0.10209112567E+01  0.10206517190E+01 0.  0.
     999903    2    3    3    0    0  0.57187399425E-02 -0.10895202204E+00 -0.69908212746E-01  0.13213853912E+00  0.25887993701E-01 0.  0.
         14    1    1    2    0    0 -0.15218215567E-01 -0.33890095619E-02  0.16934670663E-01  0.23018743261E-01  0.00000000000E+00 0. -1.
     999901    1    3    3    0    0  0.94994756244E-02  0.11234103161E+00  0.52973542082E-01  0.88877271762E+00  0.88000000000E+00 0. -1.
        -11    1    4    4    0    0  0.86954676457E-02 -0.73824622359E-01 -0.33760496956E-01  0.81643850349E-01  0.51100000000E-03 0.  1.
         11    1    4    4    0    0 -0.29767277032E-02 -0.35127399685E-01 -0.36147715790E-01  0.50494688773E-01  0.51100000000E-03 0. -1.
</event>
<event>
 8    1  0.1131349E+005  0.1043930E+01  0.7957747E-01            NaN
         13   -1    0    0    0    0  0.00000000000E+00  0.00000000000E+00  0.74505805969E-08  0.10566000000E+00  0.10566000000E+00 0.  1.
     999900   -1    0    0    0    0 -0.00000000000E+00 -0.00000000000E+00 -0.74505805969E-08  0.93827000000E+00  0.93827000000E+00 0. -1.
     999902    2    1    2    0    0  0.15016712969E-01  0.18769463903E-01  0.55651474111E-02  0.10192568302E+01  0.10189581545E+01 0.  0.
     999903    2    3    3    0    0  0.34110230010E-01 -0.64611673594E-01 -0.10381950544E+00  0.12836852137E+00  0.19021340999E-01 0.  0.
         14    1    1    2    0    0 -0.15016712969E-01 -0.18769463903E-01 -0.55651474111E-02  0.24673169827E-01  0.00000000000E+00 0.  1.
     999901    1    3    3    0    0 -0.19093517041E-01  0.83381137497E-01  0.10938465285E+00  0.89088830880E+00  0.88000000000E+00 0.  1.
        -11    1    4    4    0    0  0.30995689600E-02 -0.24658896307E-02 -0.15522717240E-01  0.16028219206E-01  0.51100000000E-03 0. -1.
         11    1    4    4    0    0  0.31010661050E-01 -0.62145783964E-01 -0.88296788198E-01  0.11234030216E+00  0.51100000000E-03 0.  1.
</event>
<event>
 8    1  0.1131349E+005  0.1043930E+01  0.7957747E-01            NaN
         13   -1    0    0    0    0  0.00000000000E+00  0.00000000000E+00  0.74505805969E-08  0.10566000000E+00  0.10566000000E+00 0. -1.
     999900   -1    0    0    0    0 -0.00000000000E+00 -0.00000000000E+00 -0.74505805969E-08  0.93827000000E+00  0.93827000000E+00 0.  1.
     999902    2    1    2    0    0  0.71218369690E-02  0.15753600217E-01 -0.15978908797E-01  0.10203880798E+01  0.10201164695E+01 0.  0.
     999903    2    3    3    0    0  0.58322808877E-02 -0.12084450128E+00 -0.41804542817E-01  0.12947412901E+00  0.19455623707E-01 0.  0.
         14    1    1    2    0    0 -0.71218369690E-02 -0.15753600217E-01  0.15978908797E-01  0.23541920227E-01  0.00000000000E+00 0. -1.
     999901    1    3    3    0    0  0.12895560813E-02  0.13659810150E+00  0.25825634020E-01  0.89091395076E+00  0.88000000000E+00 0.  1.
        -11    1    4    4    0    0  0.61542486845E-02 -0.52048259220E-01 -0.87205228259E-02  0.53133837657E-01  0.51100000000E-03 0.  1.
         11    1    4    4    0    0 -0.32196779679E-03 -0.68796242058E-01 -0.33084019991E-01  0.76340291356E-01  0.51100000000E-03 0. -1.
</event>
<event>
 8    1  0.1131349E+005  0.1043930E+01  0.7957747E-01            NaN
         13   -1    0    0    0    0  0.00000000000E+00  0.00000000000E+00  0.74505805969E-08  0.10566000000E+00  0.10566000000E+00 0. -1.
     999900   -1    0    0    0    0 -0.00000000000E+00 -0.00000000000E+00 -0.74505805969E-08  0.93827000000E+00  0.93827000000E+00 0. -1.
     999902    2    1    2    0    0  0.10567521533E-02 -0.21884067012E-01 -0.56172093386E-02  0.10213118180E+01  0.10210613339E+01 0.  0.
     999903    2    3    3    0    0  0.69309235301E-01 -0.47911414510E-01  0.99737669437E-01  0.13202250924E+00  0.19572084804E-01 0.  0.
         14    1    1    2    0    0 -0.10567521533E-02  0.21884067012E-01  0.56172093386E-02  0.22618181953E-01  0.00000000000E+00 0. -1.
     999901    1    3    3    0    0 -0.68252483148E-01  0.26027347498E-01 -0.10535487878E+00  0.88928930881E+00  0.88000000000E+00 0.  1.
        -11    1    4    4    0    0  0.15576511003E-01 -0.14738692273E-01  0.14300352196E-01  0.25780185005E-01  0.51100000000E-03 0.  1.
         11    1    4    4    0    0  0.53732724298E-01 -0.33172722237E-01  0.85437317241E-01  0.10624232424E+00  0.51100000000E-03 0. -1.
</event>
<event>
 8    1  0.1131349E+005  0.1043930E+01  0.7957747E-01            NaN
         13   -1    0    0    0    0  0.00000000000E+00  0.00000000000E+00  0.74505805969E-08  0.10566000000E+00  0.10566000000E+00 0. -1.
     999900   -1    0    0    0    0 -0.00000000000E+00 -0.00000000000E+00 -0.74505805969E-08  0.93827000000E+00  0.93827000000E+00 0. -1.
     999902    2    1    2    0    0 -0.17898448811E-01  0.24512755030E-01  0.17532522245E-02  0.10135276395E+01  0.10130715535E+01 0.  0.
     999903    2    3    3    0    0  0.11263712702E+00  0.39385101939E-01 -0.24371323221E-01  0.12339101142E+00  0.19826034992E-01 0.  0.
         14    1    1    2    0    0  0.17898448811E-01 -0.24512755030E-01 -0.17532522245E-02  0.30402360474E-01  0.00000000000E+00 0.  1.
     999901    1    3    3    0    0 -0.13053557584E+00 -0.14872346909E-01  0.26124575445E-01  0.89013662811E+00  0.88000000000E+00 0.  1.
        -11    1    4    4    0    0  0.62778807818E-01  0.32064396906E-01 -0.12145773569E-01  0.71533804572E-01  0.51100000000E-03 0. -1.
         11    1    4    4    0    0  0.49858319207E-01  0.73207050327E-02 -0.12225549651E-01  0.51857206843E-01  0.51100000000E-03 0.  1.
</event>
<event>
 8    1  0.1131349E+005  0.1043930E+01  0.7957747E-01            NaN
         13   -1    0    0    0    0  0.00000000000E+00  0.00000000000E+00  0.74505805969E-08  0.10566000000E+00  0.10566000000E+00 0. -1.
     999900   -1    0    0    0    0 -0.00000000000E+00 -0.00000000000E+00 -0.74505805969E-08  0.93827000000E+00  0.93827000000E+00 0.  1.
     999902    2    1    2    0    0 -0.10863967935E-01  0.20308374794E-01 -0.38138758344E-02  0.10205847321E+01  0.10203176926E+01 0.  0.
     999903    2    3    3    0    0  0.60517433663E-01  0.11260894418E+00  0.27717247850E-01  0.13232299622E+00  0.19949822431E-01 0.  0.
         14    1    1    2    0    0  0.10863967935E-01 -0.20308374794E-01  0.38138758344E-02  0.23345267935E-01  0.00000000000E+00 0. -1.
     999901    1    3    3    0    0 -0.71381401598E-01 -0.92300569383E-01 -0.31531123685E-01  0.88826173584E+00  0.88000000000E+00 0.  1.
        -11    1    4    4    0    0  0.11607072527E-01  0.25009782259E-01 -0.20986771999E-02  0.27656444245E-01  0.51100000000E-03 0. -1.
         11    1    4    4    0    0  0.48910361136E-01  0.87599161918E-01  0.29815925050E-01  0.10466655198E+00  0.51100000000E-03 0.  1.
</event>
<event>
 8    1  0.1131349E+005  0.1043930E+01  0.7957747E-01            NaN
         13   -1    0    0    0    0  0.00000000000E+00  0.00000000000E+00  0.74505805969E-08  0.10566000000E+00  0.10566000000E+00 0. -1.
     999900   -1    0    0    0    0 -0.00000000000E+00 -0.00000000000E+00 -0.74505805969E-08  0.93827000000E+00  0.93827000000E+00 0.  1.
     999902    2    1    2    0    0 -0.21268213113E-01 -0.89717540981E-02  0.98256003728E-03  0.10208260028E+01  0.10205645170E+01 0.  0.
     999903    2    3    3    0    0 -0.84401829242E-01 -0.79983453448E-01 -0.62083310144E-01  0.13346710199E+00  0.20931037020E-01 0.  0.
         14    1    1    2    0    0  0.21268213113E-01  0.89717540981E-02 -0.98256003728E-03  0.23103997162E-01  0.00000000000E+00 0.  1.
     999901    1    3    3    0    0  0.63133616129E-01  0.71011699350E-01  0.63065870181E-01  0.88735890085E+00  0.88000000000E+00 0.  1.
        -11    1    4    4    0    0 -0.42302409538E-01 -0.49622248199E-01 -0.43253256412E-01  0.78249387731E-01  0.51100000000E-03 0. -1.
         11    1    4    4    0    0 -0.42099419705E-01 -0.30361205248E-01 -0.18830053731E-01  0.55217714260E-01  0.51100000000E-03 0.  1.
</event>
<event>
 7    1  0.1131349E+005  0.1043930E+01  0.7957747E-01            NaN
         13   -1    0    0    0    0  0.00000000000E+00  0.00000000000E+00  0.74505805969E-08  0.10566000000E+00  0.10566000000E+00 0.  1.
     999900   -1    0    0    0    0 -0.00000000000E+00 -0.00000000000E+00 -0.74505805969E-08  0.93827000000E+00  0.93827000000E+00 0. -1.
     999903    2    1    2    0    0  0.14820421514E-01 -0.86916573524E-01 -0.71873925310E-01  0.11549950238E+00  0.20003456298E-01 0.  0.
         14    1    1    2    0    0  0.71050310366E-02  0.32894154449E-01 -0.23958308221E-01  0.41309894647E-01  0.00000000000E+00 0. -1.
     999901    1    1    2    0    0 -0.21925452550E-01  0.54022419075E-01  0.95832233531E-01  0.88712060297E+00  0.88000000000E+00 0.  1.
        -11    1    3    3    0    0  0.16251620023E-02 -0.51181739642E-01 -0.49991524757E-01  0.71565531458E-01  0.51100000000E-03 0. -1.
         11    1    3    3    0    0  0.13195259511E-01 -0.35734833882E-01 -0.21882400554E-01  0.43933970924E-01  0.51100000000E-03 0.  1.
</event>
<event>
 8    1  0.1131349E+005  0.1043930E+01  0.7957747E-01            NaN
         13   -1    0    0    0    0  0.00000000000E+00  0.00000000000E+00  0.74505805969E-08  0.10566000000E+00  0.10566000000E+00 0.  1.
     999900   -1    0    0    0    0 -0.00000000000E+00 -0.00000000000E+00 -0.74505805969E-08  0.93827000000E+00  0.93827000000E+00 0. -1.
     999902    2    1    2    0    0  0.22388355824E-01 -0.46587689904E-02  0.34581740110E-02  0.10208020608E+01  0.10205400265E+01 0.  0.
     999903    2    3    3    0    0 -0.35974301892E-01 -0.84604147036E-01  0.90887606634E-01  0.13094737097E+00  0.20848137392E-01 0.  0.
         14    1    1    2    0    0 -0.22388355824E-01  0.46587689904E-02 -0.34581740110E-02  0.23127939219E-01  0.00000000000E+00 0.  1.
     999901    1    3    3    0    0  0.58362657716E-01  0.79945378045E-01 -0.87429432623E-01  0.88985468981E+00  0.88000000000E+00 0.  1.
        -11    1    4    4    0    0 -0.97957147341E-02 -0.63406728751E-02  0.12877426925E-01  0.17385321535E-01  0.51100000000E-03 0.  1.
         11    1    4    4    0    0 -0.26178587158E-01 -0.78263474161E-01  0.78010179709E-01  0.11356204944E+00  0.51100000000E-03 0. -1.
</event>
<event>
 8    1  0.1131349E+005  0.1043930E+01  0.7957747E-01            NaN
         13   -1    0    0    0    0  0.00000000000E+00  0.00000000000E+00  0.74505805969E-08  0.10566000000E+00  0.10566000000E+00 0.  1.
     999900   -1    0    0    0    0 -0.00000000000E+00 -0.00000000000E+00 -0.74505805969E-08  0.93827000000E+00  0.93827000000E+00 0. -1.
     999902    2    1    2    0    0 -0.17611923993E-01 -0.14481294511E-01 -0.63354916313E-02  0.10202651271E+01  0.10199906388E+01 0.  0.
     999903    2    3    3    0    0  0.10236151190E+00  0.72526688399E-01  0.13634606859E-01  0.12764940949E+00  0.19247586568E-01 0.  0.
         14    1    1    2    0    0  0.17611923993E-01  0.14481294511E-01  0.63354916313E-02  0.23664872948E-01  0.00000000000E+00 0. -1.
     999901    1    3    3    0    0 -0.11997343590E+00 -0.87007982909E-01 -0.19970098490E-01  0.89261571757E+00  0.88000000000E+00 0.  1.
        -11    1    4    4    0    0  0.77399755899E-02  0.98563785354E-02  0.59843594896E-02  0.13897089604E-01  0.51100000000E-03 0.  1.
         11    1    4    4    0    0  0.94621536314E-01  0.62670309863E-01  0.76502473692E-02  0.11375231988E+00  0.51100000000E-03 0. -1.
</event>
<event>
 8    1  0.1131349E+005  0.1043930E+01  0.7957747E-01            NaN
         13   -1    0    0    0    0  0.00000000000E+00  0.00000000000E+00  0.74505805969E-08  0.10566000000E+00  0.10566000000E+00 0.  1.
     999900   -1    0    0    0    0 -0.00000000000E+00 -0.00000000000E+00 -0.74505805969E-08  0.93827000000E+00  0.93827000000E+00 0. -1.
     999902    2    1    2    0    0  0.74986812475E-02  0.14022013524E-01 -0.17143191695E-01  0.10205476112E+01  0.10202797120E+01 0.  0.
     999903    2    3    3    0    0  0.76573969921E-02  0.12100698581E+00  0.47569830338E-01  0.13170927681E+00  0.19573413030E-01 0.  0.
         14    1    1    2    0    0 -0.74986812475E-02 -0.14022013524E-01  0.17143191695E-01  0.23382388783E-01  0.00000000000E+00 0.  1.
     999901    1    3    3    0    0 -0.15871574462E-03 -0.10698497228E+00 -0.64713022033E-01  0.88883833440E+00  0.88000000000E+00 0. -1.
        -11    1    4    4    0    0  0.50727741048E-02  0.33084476690E-01  0.45236425562E-02  0.33779285042E-01  0.51100000000E-03 0.  1.
         11    1    4    4    0    0  0.25846228874E-02  0.87922509116E-01  0.43046187781E-01  0.97929991771E-01  0.51100000000E-03 0. -1.
</event>
<event>
 8    1  0.1131349E+005  0.1043930E+01  0.7957747E-01            NaN
         13   -1    0    0    0    0  0.00000000000E+00  0.00000000000E+00  0.74505805969E-08  0.10566000000E+00  0.10566000000E+00 0. -1.
     999900   -1    0    0    0    0 -0.00000000000E+00 -0.00000000000E+00 -0.74505805969E-08  0.93827000000E+00  0.93827000000E+00 0.  1.
     999902    2    1    2    0    0  0.13695554284E-01  0.14969016057E-01  0.12996001219E-01  0.10198356916E+01  0.10195510297E+01 0.  0.
     999903    2    3    3    0    0 -0.56567104203E-01 -0.11276548240E+00 -0.30120171953E-02  0.12769825830E+00  0.19541791769E-01 0.  0.
         14    1    1    2    0    0 -0.13695554284E-01 -0.14969016057E-01 -0.12996001219E-01  0.24094308385E-01  0.00000000000E+00 0.  1.
     999901    1    3    3    0    0  0.70262658487E-01  0.12773449846E+00  0.16008018414E-01  0.89213743332E+00  0.88000000000E+00 0.  1.
        -11    1    4    4    0    0 -0.44804402727E-01 -0.72006254571E-01  0.29226681040E-02  0.84859521039E-01  0.51100000000E-03 0.  1.
         11    1    4    4    0    0 -0.11762701476E-01 -0.40759227829E-01 -0.59346852993E-02  0.42838737258E-01  0.51100000000E-03 0. -1.
</event>
<event>
 8    1  0.1131349E+005  0.1043930E+01  0.7957747E-01            NaN
         13   -1    0    0    0    0  0.00000000000E+00  0.00000000000E+00  0.74505805969E-08  0.10566000000E+00  0.10566000000E+00 0. -1.
     999900   -1    0    0    0    0 -0.00000000000E+00 -0.00000000000E+00 -0.74505805969E-08  0.93827000000E+00  0.93827000000E+00 0. -1.
     999902    2    1    2    0    0  0.16999724175E-01  0.15297301100E-01  0.39603765404E-02  0.10207204626E+01  0.10204565548E+01 0.  0.
     999903    2    3    3    0    0  0.43330614647E-01  0.89217193654E-01 -0.85965259099E-01  0.13266410954E+00  0.19300009796E-01 0.  0.
         14    1    1    2    0    0 -0.16999724175E-01 -0.15297301100E-01 -0.39603765404E-02  0.23209537379E-01  0.00000000000E+00 0. -1.
     999901    1    3    3    0    0 -0.26330890471E-01 -0.73919892554E-01  0.89925635639E-01  0.88805635308E+00  0.88000000000E+00 0.  1.
        -11    1    4    4    0    0  0.25186219351E-01  0.37166990096E-01 -0.29328516136E-01  0.53629784427E-01  0.51100000000E-03 0.  1.
         11    1    4    4    0    0  0.18144395296E-01  0.52050203558E-01 -0.56636742963E-01  0.79034325110E-01  0.51100000000E-03 0. -1.
</event>
<event>
 8    1  0.1131349E+005  0.1043930E+01  0.7957747E-01            NaN
         13   -1    0    0    0    0  0.00000000000E+00  0.00000000000E+00  0.74505805969E-08  0.10566000000E+00  0.10566000000E+00 0.  1.
     999900   -1    0    0    0    0 -0.00000000000E+00 -0.00000000000E+00 -0.74505805969E-08  0.93827000000E+00  0.93827000000E+00 0.  1.
     999902    2    1    2    0    0 -0.10778922567E-03  0.19031277761E-01  0.11357976252E-01  0.10217668600E+01  0.10215264614E+01 0.  0.
     999903    2    3    3    0    0  0.12393407387E+00  0.27662984426E-01  0.31170811040E-01  0.13280485932E+00  0.23251146790E-01 0.  0.
         14    1    1    2    0    0  0.10778922567E-03 -0.19031277761E-01 -0.11357976252E-01  0.22163140036E-01  0.00000000000E+00 0. -1.
     999901    1    3    3    0    0 -0.12404186309E+00 -0.86317066651E-02 -0.19812834788E-01  0.88896200064E+00  0.88000000000E+00 0.  1.
        -11    1    4    4    0    0  0.87543866485E-01  0.25722353150E-01  0.13288068472E-01  0.92208469760E-01  0.51100000000E-03 0.  1.
         11    1    4    4    0    0  0.36390207380E-01  0.19406312762E-02  0.17882742568E-01  0.40596389564E-01  0.51100000000E-03 0. -1.
</event>
<event>
 8    1  0.1131349E+005  0.1043930E+01  0.7957747E-01            NaN
         13   -1    0    0    0    0  0.00000000000E+00  0.00000000000E+00  0.74505805969E-08  0.10566000000E+00  0.10566000000E+00 0.  1.
     999900   -1    0    0    0    0 -0.00000000000E+00 -0.00000000000E+00 -0.74505805969E-08  0.93827000000E+00  0.93827000000E+00 0.  1.
     999902    2    1    2    0    0  0.21806632950E-01  0.80573643413E-02 -0.51525530615E-02  0.10201182558E+01  0.10198403093E+01 0.  0.
     999903    2    3    3    0    0 -0.11653044262E+00  0.18440066938E-01  0.45479377543E-01  0.12781307288E+00  0.18666217955E-01 0.  0.
         14    1    1    2    0    0 -0.21806632950E-01 -0.80573643413E-02  0.51525530615E-02  0.23811744241E-01  0.00000000000E+00 0. -1.
     999901    1    3    3    0    0  0.13833707557E+00 -0.10382702597E-01 -0.50631930604E-01  0.89230518288E+00  0.88000000000E+00 0. -1.
        -11    1    4    4    0    0 -0.51344906676E-01  0.14500332234E-01  0.27761337523E-01  0.60145756779E-01  0.51100000000E-03 0.  1.
         11    1    4    4    0    0 -0.65185535942E-01  0.39397347044E-02  0.17718040020E-01  0.67667316104E-01  0.51100000000E-03 0. -1.
</event>
<event>
 8    1  0.1131349E+005  0.1043930E+01  0.7957747E-01            NaN
         13   -1    0    0    0    0  0.00000000000E+00  0.00000000000E+00  0.74505805969E-08  0.10566000000E+00  0.10566000000E+00 0.  1.
     999900   -1    0    0    0    0 -0.00000000000E+00 -0.00000000000E+00 -0.74505805969E-08  0.93827000000E+00  0.93827000000E+00 0.  1.
     999902    2    1    2    0    0  0.14303808130E-01  0.24918224919E-02  0.18064987611E-01  0.10207534626E+01  0.10204903133E+01 0.  0.
     999903    2    3    3    0    0  0.70627321595E-01 -0.90143250019E-01 -0.59705937875E-01  0.13069621073E+00  0.20066798529E-01 0.  0.
         14    1    1    2    0    0 -0.14303808130E-01 -0.24918224919E-02 -0.18064987611E-01  0.23176537355E-01  0.00000000000E+00 0. -1.
     999901    1    3    3    0    0 -0.56323513465E-01  0.92635072511E-01  0.77770925486E-01  0.89005725191E+00  0.88000000000E+00 0. -1.
        -11    1    4    4    0    0  0.61459743758E-01 -0.67462666955E-01 -0.41821313589E-01  0.10038822106E+00  0.51100000000E-03 0. -1.
         11    1    4    4    0    0  0.91675778373E-02 -0.22680583064E-01 -0.17884624285E-01  0.30307989679E-01  0.51100000000E-03 0.  1.
</event>
<event>
 8    1  0.1131349E+005  0.1043930E+01  0.7957747E-01            NaN
         13   -1    0    0    0    0  0.00000000000E+00  0.00000000000E+00  0.74505805969E-08  0.10566000000E+00  0.10566000000E+00 0. -1.
     999900   -1    0    0    0    0 -0.00000000000E+00 -0.00000000000E+00 -0.74505805969E-08  0.93827000000E+00  0.93827000000E+00 0.  1.
     999902    2    1    2    0    0  0.12111848212E-01 -0.18741492183E-01  0.88061559316E-02  0.10199406528E+01  0.10196584950E+01 0.  0.
     999903    2    3    3    0    0 -0.67501975261E-01  0.63768168953E-01  0.87275547693E-01  0.12904018109E+00  0.20284256814E-01 0.  0.
         14    1    1    2    0    0 -0.12111848212E-01  0.18741492183E-01 -0.88061559316E-02  0.23989347191E-01  0.00000000000E+00 0. -1.
     999901    1    3    3    0    0  0.79613823473E-01 -0.82509661136E-01 -0.78469391761E-01  0.89090047172E+00  0.88000000000E+00 0.  1.
        -11    1    4    4    0    0 -0.38294359748E-01  0.25147672070E-01  0.34054125860E-01  0.57085970327E-01  0.51100000000E-03 0. -1.
         11    1    4    4    0    0 -0.29207615513E-01  0.38620496883E-01  0.53221421832E-01  0.71954210761E-01  0.51100000000E-03 0.  1.
</event>
<event>
 8    1  0.1131349E+005  0.1043930E+01  0.7957747E-01            NaN
         13   -1    0    0    0    0  0.00000000000E+00  0.00000000000E+00  0.74505805969E-08  0.10566000000E+00  0.10566000000E+00 0.  1.
     999900   -1    0    0    0    0 -0.00000000000E+00 -0.00000000000E+00 -0.74505805969E-08  0.93827000000E+00  0.93827000000E+00 0. -1.
     999902    2    1    2    0    0 -0.16901761176E-02  0.17683356652E-01  0.16642910963E-01  0.10195877675E+01  0.10192971458E+01 0.  0.
     999903    2    3    3    0    0 -0.12183807984E+00 -0.12368427837E-01  0.40624973571E-01  0.13059183509E+00  0.20157956399E-01 0.  0.
         14    1    1    2    0    0  0.16901761176E-02 -0.17683356652E-01 -0.16642910963E-01  0.24342232501E-01  0.00000000000E+00 0.  1.
     999901    1    3    3    0    0  0.12014790373E+00  0.30051784489E-01 -0.23982062608E-01  0.88899593241E+00  0.88000000000E+00 0. -1.
        -11    1    4    4    0    0 -0.58511300583E-01 -0.15148152694E-01  0.15450047338E-01  0.62385927176E-01  0.51100000000E-03 0.  1.
         11    1    4    4    0    0 -0.63326779261E-01  0.27797248566E-02  0.25174926233E-01  0.68205907909E-01  0.51100000000E-03 0. -1.
</event>
<event>
 8    1  0.1131349E+005  0.1043930E+01  0.7957747E-01            NaN
         13   -1    0    0    0    0  0.00000000000E+00  0.00000000000E+00  0.74505805969E-08  0.10566000000E+00  0.10566000000E+00 0. -1.
     999900   -1    0    0    0    0 -0.00000000000E+00 -0.00000000000E+00 -0.74505805969E-08  0.93827000000E+00  0.93827000000E+00 0.  1.
     999902    2    1    2    0    0 -0.78561243264E-02  0.15379722384E-01  0.14505437500E-01  0.10213764578E+01  0.10211274192E+01 0.  0.
     999903    2    3    3    0    0  0.12885354477E+00  0.83848344825E-02 -0.18635658115E-02  0.13064282399E+00  0.19761911160E-01 0.  0.
         14    1    1    2    0    0  0.78561243264E-02 -0.15379722384E-01 -0.14505437500E-01  0.22553542230E-01  0.00000000000E+00 0. -1.
     999901    1    3    3    0    0 -0.13670966910E+00  0.69948879011E-02  0.16369003312E-01  0.89073363378E+00  0.88000000000E+00 0. -1.
        -11    1    4    4    0    0  0.30673380370E-01  0.49382750573E-02  0.74718824955E-02  0.31958300532E-01  0.51100000000E-03 0. -1.
         11    1    4    4    0    0  0.98180164401E-01  0.34465594253E-02 -0.93354483070E-02  0.98684523456E-01  0.51100000000E-03 0.  1.
</event>
<event>
 8    1  0.1131349E+005  0.1043930E+01  0.7957747E-01            NaN
         13   -1    0    0    0    0  0.00000000000E+00  0.00000000000E+00  0.74505805969E-08  0.10566000000E+00  0.10566000000E+00 0. -1.
     999900   -1    0    0    0    0 -0.00000000000E+00 -0.00000000000E+00 -0.74505805969E-08  0.93827000000E+00  0.93827000000E+00 0.  1.
     999902    2    1    2    0    0 -0.12195512990E-01 -0.34453858388E-02  0.19644353518E-01  0.10205526211E+01  0.10202848379E+01 0.  0.
     999903    2    3    3    0    0 -0.93270603107E-01 -0.78471888021E-01 -0.44639170447E-01  0.13132007684E+00  0.19876227719E-01 0.  0.
         14    1    1    2    0    0  0.12195512990E-01  0.34453858388E-02 -0.19644353518E-01  0.23377378933E-01  0.00000000000E+00 0.  1.
     999901    1    3    3    0    0  0.81075090117E-01  0.75026502182E-01  0.64283523964E-01  0.88923254423E+00  0.88000000000E+00 0.  1.
        -11    1    4    4    0    0 -0.35097744462E-01 -0.35520431385E-01 -0.91558867249E-02  0.50770504181E-01  0.51100000000E-03 0.  1.
         11    1    4    4    0    0 -0.58172858645E-01 -0.42951456636E-01 -0.35483283722E-01  0.80549572654E-01  0.51100000000E-03 0. -1.
</event>
<event>
 7    1  0.1131349E+005  0.1043930E+01  0.7957747E-01            NaN
         13   -1    0    0    0    0  0.00000000000E+00  0.00000000000E+00  0.74505805969E-08  0.10566000000E+00  0.10566000000E+00 0.  1.
     999900   -1    0    0    0    0 -0.00000000000E+00 -0.00000000000E+00 -0.74505805969E-08  0.93827000000E+00  0.93827000000E+00 0.  1.
     999903    2    1    2    0    0  0.84637406967E-01  0.21086275997E-01 -0.48196112159E-01  0.10160438311E+00  0.19810697781E-01 0.  0.
         14    1    1    2    0    0  0.22858136323E-02  0.47430371438E-01  0.28075738117E-01  0.55164410171E-01  0.00000000000E+00 0.  1.
     999901    1    1    2    0    0 -0.86923220599E-01 -0.68516647434E-01  0.20120374043E-01  0.88716120672E+00  0.88000000000E+00 0. -1.
        -11    1    3    3    0    0  0.21832501124E-01  0.11247886434E-01 -0.21532744897E-01  0.32666393715E-01  0.51100000000E-03 0. -1.
         11    1    3    3    0    0  0.62804905843E-01  0.98383895631E-02 -0.26663367262E-01  0.68937989395E-01  0.51100000000E-03 0.  1.
</event>
<event>
 8    1  0.1131349E+005  0.1043930E+01  0.7957747E-01            NaN
         13   -1    0    0    0    0  0.00000000000E+00  0.00000000000E+00  0.74505805969E-08  0.10566000000E+00  0.10566000000E+00 0.  1.
     999900   -1    0    0    0    0 -0.00000000000E+00 -0.00000000000E+00 -0.74505805969E-08  0.93827000000E+00  0.93827000000E+00 0. -1.
     999902    2    1    2    0    0 -0.23186304932E-01 -0.24362721069E-02  0.35693503110E-02  0.10203444023E+01  0.10200717714E+01 0.  0.
     999903    2    3    3    0    0  0.19734579648E-01 -0.67246702192E-01  0.10843822146E+00  0.13071522430E+00  0.20397289038E-01 0.  0.
         14    1    1    2    0    0  0.23186304932E-01  0.24362721069E-02 -0.35693503110E-02  0.23585597721E-01  0.00000000000E+00 0. -1.
     999901    1    3    3    0    0 -0.42920884581E-01  0.64810430085E-01 -0.10486887115E+00  0.88962917798E+00  0.88000000000E+00 0. -1.
        -11    1    4    4    0    0  0.96660299950E-02 -0.40867512258E-01  0.81513547108E-01  0.91696811161E-01  0.51100000000E-03 0. -1.
         11    1    4    4    0    0  0.10068549653E-01 -0.26379189934E-01  0.26924674352E-01  0.39018413136E-01  0.51100000000E-03 0.  1.
</event>
<event>
 8    1  0.1131349E+005  0.1043930E+01  0.7957747E-01            NaN
         13   -1    0    0    0    0  0.00000000000E+00  0.00000000000E+00  0.74505805969E-08  0.10566000000E+00  0.10566000000E+00 0. -1.
     999900   -1    0    0    0    0 -0.00000000000E+00 -0.00000000000E+00 -0.74505805969E-08  0.93827000000E+00  0.93827000000E+00 0.  1.
     999902    2    1    2    0    0 -0.13380292599E-01 -0.19418499266E-01  0.20704392972E-03  0.10203470992E+01  0.10200745314E+01 0.  0.
     999903    2    3    3    0    0  0.11310365000E+00  0.35051586253E-01  0.45959534174E-01  0.12846231497E+00  0.19215572927E-01 0.  0.
         14    1    1    2    0    0  0.13380292599E-01  0.19418499266E-01 -0.20704392972E-03  0.23582900817E-01  0.00000000000E+00 0. -1.
     999901    1    3    3    0    0 -0.12648394260E+00 -0.54470085519E-01 -0.45752490244E-01  0.89188478422E+00  0.88000000000E+00 0.  1.
        -11    1    4    4    0    0  0.29722799156E-01  0.12828487181E-01  0.21152473579E-01  0.38674321358E-01  0.51100000000E-03 0. -1.
         11    1    4    4    0    0  0.83380850845E-01  0.22223099072E-01  0.24807060595E-01  0.89787993609E-01  0.51100000000E-03 0.  1.
</event>
<event>
 8    1  0.1131349E+005  0.1043930E+01  0.7957747E-01            NaN
         13   -1    0    0    0    0  0.00000000000E+00  0.00000000000E+00  0.74505805969E-08  0.10566000000E+00  0.10566000000E+00 0.  1.
     999900   -1    0    0    0    0 -0.00000000000E+00 -0.00000000000E+00 -0.74505805969E-08  0.93827000000E+00  0.93827000000E+00 0.  1.
     999902    2    1    2    0    0 -0.84925100793E-02  0.15453436726E-01 -0.17975696588E-01  0.10187495095E+01  0.10184382681E+01 0.  0.
     999903    2    3    3    0    0  0.85033784843E-01  0.91334252859E-01  0.27076131933E-01  0.12940439462E+00  0.20968789124E-01 0.  0.
         14    1    1    2    0    0  0.84925100793E-02 -0.15453436726E-01  0.17975696588E-01  0.25180490502E-01  0.00000000000E+00 0. -1.
     999901    1    3    3    0    0 -0.93526294922E-01 -0.75880816133E-01 -0.45051828521E-01  0.88934511487E+00  0.88000000000E+00 0.  1.
        -11    1    4    4    0    0  0.67653719311E-01  0.73770453277E-01  0.30053218097E-01  0.10451106426E+00  0.51100000000E-03 0.  1.
         11    1    4    4    0    0  0.17380065532E-01  0.17563799582E-01 -0.29770861645E-02  0.24893330365E-01  0.51100000000E-03 0. -1.
</event>
<event>
 8    1  0.1131349E+005  0.1043930E+01  0.7957747E-01            NaN
         13   -1    0    0    0    0  0.00000000000E+00  0.00000000000E+00  0.74505805969E-08  0.10566000000E+00  0.10566000000E+00 0.  1.
     999900   -1    0    0    0    0 -0.00000000000E+00 -0.00000000000E+00 -0.74505805969E-08  0.93827000000E+00  0.93827000000E+00 0. -1.
     999902    2    1    2    0    0  0.81701640220E-02 -0.15835373286E-01 -0.15690937977E-01  0.10201872924E+01  0.10199109743E+01 0.  0.
     999903    2    3    3    0    0 -0.92324335682E-01 -0.74879539338E-01  0.49397077870E-01  0.13011886372E+00  0.18976802229E-01 0.  0.
         14    1    1    2    0    0 -0.81701640220E-02  0.15835373286E-01  0.15690937977E-01  0.23742707551E-01  0.00000000000E+00 0.  1.
     999901    1    3    3    0    0  0.10049449970E+00  0.59044166051E-01 -0.65088015847E-01  0.89006842873E+00  0.88000000000E+00 0. -1.
        -11    1    4    4    0    0 -0.56684637483E-01 -0.33843664259E-01  0.26684731436E-01  0.71210095842E-01  0.51100000000E-03 0.  1.
         11    1    4    4    0    0 -0.35639698199E-01 -0.41035875079E-01  0.22712346434E-01  0.58908767877E-01  0.51100000000E-03 0. -1.
</event>
<event>
 8    1  0.1131349E+005  0.1043930E+01  0.7957747E-01            NaN
         13   -1    0    0    0    0  0.00000000000E+00  0.00000000000E+00  0.74505805969E-08  0.10566000000E+00  0.10566000000E+00 0.  1.
     999900   -1    0    0    0    0 -0.00000000000E+00 -0.00000000000E+00 -0.74505805969E-08  0.93827000000E+00  0.93827000000E+00 0.  1.
     999902    2    1    2    0    0  0.94030600513E-02 -0.21112568432E-01 -0.67551881827E-02  0.10198511576E+01  0.10195668654E+01 0.  0.
     999903    2    3    3    0    0  0.76923115075E-01  0.10084017327E+00  0.72159932733E-02  0.12876944252E+00  0.21061637856E-01 0.  0.
         14    1    1    2    0    0 -0.94030600513E-02  0.21112568432E-01  0.67551881827E-02  0.24078842404E-01  0.00000000000E+00 0. -1.
     999901    1    3    3    0    0 -0.67520055024E-01 -0.12195274170E+00 -0.13971181456E-01  0.89108171508E+00  0.88000000000E+00 0. -1.
        -11    1    4    4    0    0  0.33262450566E-01  0.31446933942E-01 -0.42930790750E-02  0.45978167873E-01  0.51100000000E-03 0. -1.
         11    1    4    4    0    0  0.43660664509E-01  0.69393239328E-01  0.11509072348E-01  0.82791274643E-01  0.51100000000E-03 0.  1.
</event>
<event>
 8    1  0.1131349E+005  0.1043930E+01  0.7957747E-01            NaN
         13   -1    0    0    0    0  0.00000000000E+00  0.00000000000E+00  0.74505805969E-08  0.10566000000E+00  0.10566000000E+00 0. -1.
     999900   -1    0    0    0    0 -0.00000000000E+00 -0.00000000000E+00 -0.74505805969E-08  0.93827000000E+00  0.93827000000E+00 0.  1.
     999902    2    1    2    0    0 -0.12245980505E-01 -0.63610957927E-02  0.26384982068E-01  0.10141542572E+01  0.10137170525E+01 0.  0.
     999903    2    3    3    0    0  0.21721812879E-01  0.47931377251E-01  0.11435052127E+00  0.12745283077E+00  0.19973188952E-01 0.  0.
         14    1    1    2    0    0  0.12245980505E-01  0.63610957927E-02 -0.26384982068E-01  0.29775742761E-01  0.00000000000E+00 0.  1.
     999901    1    3    3    0    0 -0.33967793384E-01 -0.54292473044E-01 -0.87965539200E-01  0.88670142647E+00  0.88000000000E+00 0.  1.
        -11    1    4    4    0    0  0.19242389235E-02  0.24125713650E-01  0.62962018396E-01  0.67455389970E-01  0.51100000000E-03 0. -1.
         11    1    4    4    0    0  0.19797573955E-01  0.23805663601E-01  0.51388502873E-01  0.59997440800E-01  0.51100000000E-03 0.  1.
</event>
<event>
 8    1  0.1131349E+005  0.1043930E+01  0.7957747E-01            NaN
         13   -1    0    0    0    0  0.00000000000E+00  0.00000000000E+00  0.74505805969E-08  0.10566000000E+00  0.10566000000E+00 0.  1.
     999900   -1    0    0    0    0 -0.00000000000E+00 -0.00000000000E+00 -0.74505805969E-08  0.93827000000E+00  0.93827000000E+00 0. -1.
     999902    2    1    2    0    0  0.13081342315E-01 -0.38676946767E-02 -0.20083045330E-01  0.10196522470E+01  0.10193631814E+01 0.  0.
     999903    2    3    3    0    0 -0.11898492153E-02  0.64208256272E-01 -0.11332939607E+00  0.13199641062E+00  0.21339739654E-01 0.  0.
         14    1    1    2    0    0 -0.13081342315E-01  0.38676946767E-02  0.20083045330E-01  0.24277752956E-01  0.00000000000E+00 0.  1.
     999901    1    3    3    0    0  0.14271191530E-01 -0.68075950949E-01  0.93246350742E-01  0.88765583642E+00  0.88000000000E+00 0.  1.
        -11    1    4    4    0    0  0.63840341505E-02  0.19171060538E-01 -0.49868732924E-01  0.53809265918E-01  0.51100000000E-03 0.  1.
         11    1    4    4    0    0 -0.75738833658E-02  0.45037195735E-01 -0.63460663148E-01  0.78187144705E-01  0.51100000000E-03 0. -1.
</event>
<event>
 8    1  0.1131349E+005  0.1043930E+01  0.7957747E-01            NaN
         13   -1    0    0    0    0  0.00000000000E+00  0.00000000000E+00  0.74505805969E-08  0.10566000000E+00  0.10566000000E+00 0. -1.
     999900   -1    0    0    0    0 -0.00000000000E+00 -0.00000000000E+00 -0.74505805969E-08  0.93827000000E+00  0.93827000000E+00 0. -1.
     999902    2    1    2    0    0  0.11576817912E-02  0.13621239174E-02  0.22961868394E-01  0.10208986516E+01  0.10206388263E+01 0.  0.
     999903    2    3    3    0    0  0.96409467715E-01  0.53127745813E-02  0.89554078783E-01  0.13324836414E+00  0.20302277686E-01 0.  0.
         14    1    1    2    0    0 -0.11576817912E-02 -0.13621239174E-02 -0.22961868394E-01  0.23031348394E-01  0.00000000000E+00 0.  1.
     999901    1    3    3    0    0 -0.95251785924E-01 -0.39506506639E-02 -0.66592210389E-01  0.88765028747E+00  0.88000000000E+00 0.  1.
        -11    1    4    4    0    0  0.76725734328E-01 -0.11324249088E-02  0.61313053995E-01  0.98222565663E-01  0.51100000000E-03 0.  1.
         11    1    4    4    0    0  0.19683733388E-01  0.64451994901E-02  0.28241024788E-01  0.35025798472E-01  0.51100000000E-03 0. -1.
</event>
<event>
 7    1  0.1131349E+005  0.1043930E+01  0.7957747E-01            NaN
         13   -1    0    0    0    0  0.00000000000E+00  0.00000000000E+00  0.74505805969E-08  0.10566000000E+00  0.10566000000E+00 0. -1.
     999900   -1    0    0    0    0 -0.00000000000E+00 -0.00000000000E+00 -0.74505805969E-08  0.93827000000E+00  0.93827000000E+00 0.  1.
     999903    2    1    2    0    0  0.36456988632E-01  0.58231843854E-01 -0.90142469753E-01  0.11445054746E+00  0.15912363192E-01 0.  0.
         14    1    1    2    0    0 -0.20290134761E-03 -0.28523851906E-01 -0.28451251067E-01  0.40288025315E-01  0.00000000000E+00 0.  1.
     999901    1    1    2    0    0 -0.36254087284E-01 -0.29707991948E-01  0.11859372082E+00  0.88919142722E+00  0.88000000000E+00 0. -1.
        -11    1    3    3    0    0  0.16711743357E-01  0.38726211019E-01 -0.61383521677E-01  0.74479524975E-01  0.51100000000E-03 0. -1.
         11    1    3    3    0    0  0.19745245274E-01  0.19505632835E-01 -0.28758948076E-01  0.39971022487E-01  0.51100000000E-03 0.  1.
</event>
<event>
 8    1  0.1131349E+005  0.1043930E+01  0.7957747E-01            NaN
         13   -1    0    0    0    0  0.00000000000E+00  0.00000000000E+00  0.74505805969E-08  0.10566000000E+00  0.10566000000E+00 0.  1.
     999900   -1    0    0    0    0 -0.00000000000E+00 -0.00000000000E+00 -0.74505805969E-08  0.93827000000E+00  0.93827000000E+00 0.  1.
     999902    2    1    2    0    0  0.16865795308E-02  0.12592228284E-01 -0.18304725833E-01  0.10216483539E+01  0.10214053492E+01 0.  0.
     999903    2    3    3    0    0  0.12773845919E+00 -0.23723958973E-01 -0.10299996312E-01  0.13188882602E+00  0.20214656057E-01 0.  0.
         14    1    1    2    0    0 -0.16865795308E-02 -0.12592228284E-01  0.18304725833E-01  0.22281646068E-01  0.00000000000E+00 0.  1.
     999901    1    3    3    0    0 -0.12605187965E+00  0.36316187257E-01 -0.80047295213E-02  0.88975952792E+00  0.88000000000E+00 0.  1.
        -11    1    4    4    0    0  0.65392279832E-01 -0.21556214342E-01 -0.94181897561E-02  0.69496647816E-01  0.51100000000E-03 0.  1.
         11    1    4    4    0    0  0.62346179354E-01 -0.21677446307E-02 -0.88180655602E-03  0.62392178201E-01  0.51100000000E-03 0. -1.
</event>
<event>
 8    1  0.1131349E+005  0.1043930E+01  0.7957747E-01            NaN
         13   -1    0    0    0    0  0.00000000000E+00  0.00000000000E+00  0.74505805969E-08  0.10566000000E+00  0.10566000000E+00 0.  1.
     999900   -1    0    0    0    0 -0.00000000000E+00 -0.00000000000E+00 -0.74505805969E-08  0.93827000000E+00  0.93827000000E+00 0. -1.
     999902    2    1    2    0    0  0.97765868614E-02 -0.10534845625E-01 -0.18370577144E-01  0.10206052765E+01  0.10203387122E+01 0.  0.
     999903    2    3    3    0    0  0.12084048889E+00  0.22757710031E-01  0.40489126237E-01  0.13105030387E+00  0.20358675789E-01 0.  0.
         14    1    1    2    0    0 -0.97765868614E-02  0.10534845625E-01  0.18370577144E-01  0.23324723527E-01  0.00000000000E+00 0.  1.
     999901    1    3    3    0    0 -0.11106390203E+00 -0.33292555656E-01 -0.58859703381E-01  0.88955497260E+00  0.88000000000E+00 0.  1.
        -11    1    4    4    0    0  0.65490995538E-01  0.11387280923E-01  0.11231944794E-01  0.67417789701E-01  0.51100000000E-03 0.  1.
         11    1    4    4    0    0  0.55349493355E-01  0.11370429108E-01  0.29257181443E-01  0.63632514171E-01  0.51100000000E-03 0. -1.
</event>
<event>
 8    1  0.1131349E+005  0.1043930E+01  0.7957747E-01            NaN
         13   -1    0    0    0    0  0.00000000000E+00  0.00000000000E+00  0.74505805969E-08  0.10566000000E+00  0.10566000000E+00 0. -1.
     999900   -1    0    0    0    0 -0.00000000000E+00 -0.00000000000E+00 -0.74505805969E-08  0.93827000000E+00  0.93827000000E+00 0. -1.
     999902    2    1    2    0    0  0.23681368404E-01  0.16858155433E-03 -0.21596799165E-02  0.10201497593E+01  0.10198725566E+01 0.  0.
     999903    2    3    3    0    0 -0.10868267261E+00  0.60505629684E-01 -0.22259993834E-01  0.12798115343E+00  0.20268541112E-01 0.  0.
         14    1    1    2    0    0 -0.23681368404E-01 -0.16858155433E-03  0.21596799165E-02  0.23780240675E-01  0.00000000000E+00 0. -1.
     999901    1    3    3    0    0  0.13236404101E+00 -0.60337048129E-01  0.20100313917E-01  0.89216860590E+00  0.88000000000E+00 0. -1.
        -11    1    4    4    0    0 -0.18633833296E-01  0.13384216470E-01 -0.11816953181E-01  0.25811983599E-01  0.51100000000E-03 0. -1.
         11    1    4    4    0    0 -0.90048839311E-01  0.47121413213E-01 -0.10443040653E-01  0.10216916983E+00  0.51100000000E-03 0.  1.
</event>
<event>
 8    1  0.1131349E+005  0.1043930E+01  0.7957747E-01            NaN
         13   -1    0    0    0    0  0.00000000000E+00  0.00000000000E+00  0.74505805969E-08  0.10566000000E+00  0.10566000000E+00 0.  1.
     999900   -1    0    0    0    0 -0.00000000000E+00 -0.00000000000E+00 -0.74505805969E-08  0.93827000000E+00  0.93827000000E+00 0. -1.
     999902    2    1    2    0    0  0.19360867805E-01 -0.13581077521E-01 -0.20066024477E-02  0.10201957353E+01  0.10199196159E+01 0.  0.
     999903    2    3    3    0    0  0.65896143008E-01  0.21645120774E-01  0.10980582044E+00  0.13120280234E+00  0.18602263912E-01 0.  0.
         14    1    1    2    0    0 -0.19360867805E-01  0.13581077521E-01  0.20066024477E-02  0.23734264728E-01  0.00000000000E+00 0. -1.
     999901    1    3    3    0    0 -0.46535275202E-01 -0.35226198295E-01 -0.11181242289E+00  0.88899293293E+00  0.88000000000E+00 0. -1.
        -11    1    4    4    0    0  0.35085838096E-01  0.20582481054E-01  0.56489486788E-01  0.69613057682E-01  0.51100000000E-03 0.  1.
         11    1    4    4    0    0  0.30810304912E-01  0.10626397204E-02  0.53316333656E-01  0.61589744662E-01  0.51100000000E-03 0. -1.
</event>
<event>
 8    1  0.1131349E+005  0.1043930E+01  0.7957747E-01            NaN
         13   -1    0    0    0    0  0.00000000000E+00  0.00000000000E+00  0.74505805969E-08  0.10566000000E+00  0.10566000000E+00 0. -1.
     999900   -1    0    0    0    0 -0.00000000000E+00 -0.00000000000E+00 -0.74505805969E-08  0.93827000000E+00  0.93827000000E+00 0. -1.
     999902    2    1    2    0    0 -0.13268030082E-01 -0.12831654892E-02 -0.20524439629E-01  0.10194567542E+01  0.10191629575E+01 0.  0.
     999903    2    3    3    0    0 -0.64738143533E-01 -0.81358066992E-01 -0.79415176183E-01  0.13236640863E+00  0.20098100202E-01 0.  0.
         14    1    1    2    0    0  0.13268030082E-01  0.12831654892E-02  0.20524439629E-01  0.24473245760E-01  0.00000000000E+00 0. -1.
     999901    1    3    3    0    0  0.51470113451E-01  0.80074901503E-01  0.58890736553E-01  0.88709034561E+00  0.88000000000E+00 0.  1.
        -11    1    4    4    0    0 -0.36088641419E-01 -0.60432889033E-01 -0.54156029582E-01  0.88812503497E-01  0.51100000000E-03 0. -1.
         11    1    4    4    0    0 -0.28649502114E-01 -0.20925177959E-01 -0.25259146600E-01  0.43553905129E-01  0.51100000000E-03 0.  1.
</event>
<event>
 8    1  0.1131349E+005  0.1043930E+01  0.7957747E-01            NaN
         13   -1    0    0    0    0  0.00000000000E+00  0.00000000000E+00  0.74505805969E-08  0.10566000000E+00  0.10566000000E+00 0.  1.
     999900   -1    0    0    0    0 -0.00000000000E+00 -0.00000000000E+00 -0.74505805969E-08  0.93827000000E+00  0.93827000000E+00 0. -1.
     999902    2    1    2    0    0 -0.12149709653E-01 -0.59363270095E-02 -0.19818868650E-01  0.10199374391E+01  0.10196552048E+01 0.  0.
     999903    2    3    3    0    0  0.12297342495E+00  0.30202823307E-01  0.91535595501E-02  0.12841979976E+00  0.19317958939E-01 0.  0.
         14    1    1    2    0    0  0.12149709653E-01  0.59363270095E-02  0.19818868650E-01  0.23992560880E-01  0.00000000000E+00 0.  1.
     999901    1    3    3    0    0 -0.13512313461E+00 -0.36139150316E-01 -0.28972428200E-01  0.89151763936E+00  0.88000000000E+00 0. -1.
        -11    1    4    4    0    0  0.80703298526E-01  0.23549730980E-01 -0.23623794317E-02  0.84103829757E-01  0.51100000000E-03 0.  1.
         11    1    4    4    0    0  0.42270126429E-01  0.66530923264E-02  0.11515938982E-01  0.44315970005E-01  0.51100000000E-03 0. -1.
</event>
<event>
 8    1  0.1131349E+005  0.1043930E+01  0.7957747E-01            NaN
         13   -1    0    0    0    0  0.00000000000E+00  0.00000000000E+00  0.74505805969E-08  0.10566000000E+00  0.10566000000E+00 0. -1.
     999900   -1    0    0    0    0 -0.00000000000E+00 -0.00000000000E+00 -0.74505805969E-08  0.93827000000E+00  0.93827000000E+00 0. -1.
     999902    2    1    2    0    0 -0.12221898655E-01 -0.12478049797E-01 -0.20013153095E-01  0.10173668144E+01  0.10170199763E+01 0.  0.
     999903    2    3    3    0    0  0.50081113489E-01 -0.44157965915E-01 -0.10985185637E+00  0.13003583047E+00  0.19591910935E-01 0.  0.
         14    1    1    2    0    0  0.12221898655E-01  0.12478049797E-01  0.20013153095E-01  0.26563185619E-01  0.00000000000E+00 0. -1.
     999901    1    3    3    0    0 -0.62303012144E-01  0.31679916118E-01  0.89838703280E-01  0.88733098391E+00  0.88000000000E+00 0.  1.
        -11    1    4    4    0    0  0.25703513266E-01 -0.22240254712E-01 -0.74109834371E-01  0.81534214875E-01  0.51100000000E-03 0.  1.
         11    1    4    4    0    0  0.24377600223E-01 -0.21917711203E-01 -0.35742022003E-01  0.48501615591E-01  0.51100000000E-03 0. -1.
</event>
<event>
 8    1  0.1131349E+005  0.1043930E+01  0.7957747E-01            NaN
         13   -1    0    0    0    0  0.00000000000E+00  0.00000000000E+00  0.74505805969E-08  0.10566000000E+00  0.10566000000E+00 0.  1.
     999900   -1    0    0    0    0 -0.00000000000E+00 -0.00000000000E+00 -0.74505805969E-08  0.93827000000E+00  0.93827000000E+00 0. -1.
     999902    2    1    2    0    0  0.96355562474E-02 -0.10415225985E-01  0.17976292270E-01  0.10210287345E+01  0.10207718691E+01 0.  0.
     999903    2    3    3    0    0  0.82501681196E-01 -0.10257467097E+00  0.94877729603E-04  0.13304079517E+00  0.19280914175E-01 0.  0.
         14    1    1    2    0    0 -0.96355562474E-02  0.10415225985E-01 -0.17976292270E-01  0.22901265474E-01  0.00000000000E+00 0. -1.
     999901    1    3    3    0    0 -0.72866124948E-01  0.92159444986E-01  0.17881414540E-01  0.88798793936E+00  0.88000000000E+00 0. -1.
        -11    1    4    4    0    0  0.51815544497E-01 -0.54760974274E-01  0.74149804754E-02  0.75755250718E-01  0.51100000000E-03 0.  1.
         11    1    4    4    0    0  0.30686136699E-01 -0.47813696698E-01 -0.73201027458E-02  0.57285544447E-01  0.51100000000E-03 0. -1.
</event>
<event>
 8    1  0.1131349E+005  0.1043930E+01  0.7957747E-01            NaN
         13   -1    0    0    0    0  0.00000000000E+00  0.00000000000E+00  0.74505805969E-08  0.10566000000E+00  0.10566000000E+00 0. -1.
     999900   -1    0    0    0    0 -0.00000000000E+00 -0.00000000000E+00 -0.74505805969E-08  0.93827000000E+00  0.93827000000E+00 0. -1.
     999902    2    1    2    0    0 -0.66385148449E-02 -0.22650278996E-01  0.29801481633E-02  0.10201395334E+01  0.10198620894E+01 0.  0.
     999903    2    3    3    0    0  0.95812010382E-01  0.79394165818E-01 -0.22041555205E-01  0.12798749228E+00  0.20287758000E-01 0.  0.
         14    1    1    2    0    0  0.66385148449E-02  0.22650278996E-01 -0.29801481633E-02  0.23790466600E-01  0.00000000000E+00 0.  1.
     999901    1    3    3    0    0 -0.10245052523E+00 -0.10204444481E+00  0.25021703368E-01  0.89215204112E+00  0.88000000000E+00 0. -1.
        -11    1    4    4    0    0  0.21053296145E-01  0.84415121418E-02 -0.75057364638E-02  0.23897648560E-01  0.51100000000E-03 0. -1.
         11    1    4    4    0    0  0.74758714237E-01  0.70952653677E-01 -0.14535818741E-01  0.10408984372E+00  0.51100000000E-03 0.  1.
</event>
<event>
 7    1  0.1131349E+005  0.1043930E+01  0.7957747E-01            NaN
         13   -1    0    0    0    0  0.00000000000E+00  0.00000000000E+00  0.74505805969E-08  0.10566000000E+00  0.10566000000E+00 0. -1.
     999900   -1    0    0    0    0 -0.00000000000E+00 -0.00000000000E+00 -0.74505805969E-08  0.93827000000E+00  0.93827000000E+00 0. -1.
     999903    2    1    2    0    0  0.23229743453E-01  0.17571412327E-01 -0.74853761304E-01  0.82945383588E-01  0.20699651327E-01 0.  0.
         14    1    1    2    0    0 -0.20591219859E-01 -0.63753772235E-01  0.42170665160E-01  0.79163797341E-01  0.00000000000E+00 0. -1.
     999901    1    1    2    0    0 -0.26385235938E-02  0.46182359908E-01  0.32683096144E-01  0.88182081907E+00  0.88000000000E+00 0. -1.
        -11    1    3    3    0    0  0.15752182412E-01  0.68979580469E-02 -0.19183599062E-01  0.25767899991E-01  0.51100000000E-03 0.  1.
         11    1    3    3    0    0  0.74775610402E-02  0.10673454280E-01 -0.55670162242E-01  0.57177483597E-01  0.51100000000E-03 0. -1.
</event>
<event>
 8    1  0.1131349E+005  0.1043930E+01  0.7957747E-01            NaN
         13   -1    0    0    0    0  0.00000000000E+00  0.00000000000E+00  0.74505805969E-08  0.10566000000E+00  0.10566000000E+00 0.  1.
     999900   -1    0    0    0    0 -0.00000000000E+00 -0.00000000000E+00 -0.74505805969E-08  0.93827000000E+00  0.93827000000E+00 0. -1.
     999902    2    1    2    0    0  0.74212904780E-02 -0.21875095352E-01 -0.40171612806E-02  0.10204836158E+01  0.10202142310E+01 0.  0.
     999903    2    3    3    0    0 -0.10846719043E+00 -0.49261724235E-01 -0.52028016989E-01  0.13116634408E+00  0.17488464580E-01 0.  0.
         14    1    1    2    0    0 -0.74212904780E-02  0.21875095352E-01  0.40171612806E-02  0.23446384237E-01  0.00000000000E+00 0. -1.
     999901    1    3    3    0    0  0.11588848091E+00  0.27386628883E-01  0.48010855709E-01  0.88931727168E+00  0.88000000000E+00 0. -1.
        -11    1    4    4    0    0 -0.10370882320E-01 -0.88609228931E-02 -0.17427747489E-02  0.13761160541E-01  0.51100000000E-03 0.  1.
         11    1    4    4    0    0 -0.98096308108E-01 -0.40400801342E-01 -0.50285242240E-01  0.11740518354E+00  0.51100000000E-03 0. -1.
</event>
<event>
 8    1  0.1131349E+005  0.1043930E+01  0.7957747E-01            NaN
         13   -1    0    0    0    0  0.00000000000E+00  0.00000000000E+00  0.74505805969E-08  0.10566000000E+00  0.10566000000E+00 0. -1.
     999900   -1    0    0    0    0 -0.00000000000E+00 -0.00000000000E+00 -0.74505805969E-08  0.93827000000E+00  0.93827000000E+00 0.  1.
     999902    2    1    2    0    0 -0.93910192856E-02  0.42577786056E-02  0.20946589806E-01  0.10205830613E+01  0.10203159832E+01 0.  0.
     999903    2    3    3    0    0  0.26649617778E-01  0.71172868035E-01 -0.10201497740E+00  0.12878930504E+00  0.20096024620E-01 0.  0.
         14    1    1    2    0    0  0.93910192856E-02 -0.42577786056E-02 -0.20946589806E-01  0.23346938694E-01  0.00000000000E+00 0.  1.
     999901    1    3    3    0    0 -0.36040637064E-01 -0.66915089430E-01  0.12296156721E+00  0.89179375627E+00  0.88000000000E+00 0. -1.
        -11    1    4    4    0    0  0.15212705853E-01  0.15454266231E-01 -0.26428619056E-01  0.34190551185E-01  0.51100000000E-03 0.  1.
         11    1    4    4    0    0  0.11436911925E-01  0.55718601804E-01 -0.75586358344E-01  0.94598753851E-01  0.51100000000E-03 0. -1.
</event>
<event>
 8    1  0.1131349E+005  0.1043930E+01  0.7957747E-01            NaN
         13   -1    0    0    0    0  0.00000000000E+00  0.00000000000E+00  0.74505805969E-08  0.10566000000E+00  0.10566000000E+00 0.  1.
     999900   -1    0    0    0    0 -0.00000000000E+00 -0.00000000000E+00 -0.74505805969E-08  0.93827000000E+00  0.93827000000E+00 0.  1.
     999902    2    1    2    0    0 -0.16102223113E-01  0.25290378978E-02 -0.17211534878E-01  0.10202252630E+01  0.10199498384E+01 0.  0.
     999903    2    3    3    0    0  0.45522479101E-02 -0.12302711625E+00 -0.39457749218E-01  0.13079519323E+00  0.19851304890E-01 0.  0.
         14    1    1    2    0    0  0.16102223113E-01 -0.25290378978E-02  0.17211534878E-01  0.23704736968E-01  0.00000000000E+00 0.  1.
     999901    1    3    3    0    0 -0.20654471023E-01  0.12555615414E+00  0.22246214340E-01  0.88943006980E+00  0.88000000000E+00 0.  1.
        -11    1    4    4    0    0  0.30737700801E-03 -0.53243284918E-01 -0.69696216576E-02  0.53700825101E-01  0.51100000000E-03 0. -1.
         11    1    4    4    0    0  0.42448709021E-02 -0.69783831328E-01 -0.32488127561E-01  0.77094368129E-01  0.51100000000E-03 0.  1.
</event>
<event>
 8    1  0.1131349E+005  0.1043930E+01  0.7957747E-01            NaN
         13   -1    0    0    0    0  0.00000000000E+00  0.00000000000E+00  0.74505805969E-08  0.10566000000E+00  0.10566000000E+00 0.  1.
     999900   -1    0    0    0    0 -0.00000000000E+00 -0.00000000000E+00 -0.74505805969E-08  0.93827000000E+00  0.93827000000E+00 0. -1.
     999902    2    1    2    0    0 -0.18535415370E-01 -0.13592073945E-01  0.54303012155E-02  0.10203123314E+01  0.10200389499E+01 0.  0.
     999903    2    3    3    0    0 -0.42165605637E-01 -0.74614616435E-01  0.99320810116E-01  0.13290173637E+00  0.21283066569E-01 0.  0.
         14    1    1    2    0    0  0.18535415370E-01  0.13592073945E-01 -0.54303012155E-02  0.23617668563E-01  0.00000000000E+00 0.  1.
     999901    1    3    3    0    0  0.23630190267E-01  0.61022542490E-01 -0.93890508900E-01  0.88741059507E+00  0.88000000000E+00 0. -1.
        -11    1    4    4    0    0 -0.33302755280E-01 -0.37619278867E-01  0.55218192520E-01  0.74656503789E-01  0.51100000000E-03 0. -1.
         11    1    4    4    0    0 -0.88628503562E-02 -0.36995337567E-01  0.44102617596E-01  0.58245232577E-01  0.51100000000E-03 0.  1.
</event>
<event>
 8    1  0.1131349E+005  0.1043930E+01  0.7957747E-01            NaN
         13   -1    0    0    0    0  0.00000000000E+00  0.00000000000E+00  0.74505805969E-08  0.10566000000E+00  0.10566000000E+00 0. -1.
     999900   -1    0    0    0    0 -0.00000000000E+00 -0.00000000000E+00 -0.74505805969E-08  0.93827000000E+00  0.93827000000E+00 0. -1.
     999902    2    1    2    0    0 -0.13992867312E-01  0.51107054443E-03  0.11148815484E-01  0.10260314633E+01  0.10258753365E+01 0.  0.
     999903    2    3    3    0    0 -0.12424048057E+00 -0.50821847554E-01  0.23485309416E-01  0.13758236866E+00  0.18941784685E-01 0.  0.
         14    1    1    2    0    0  0.13992867312E-01 -0.51107054443E-03 -0.11148815484E-01  0.17898536683E-01  0.00000000000E+00 0.  1.
     999901    1    3    3    0    0  0.11024761326E+00  0.51332918099E-01 -0.12336493932E-01  0.88844909465E+00  0.88000000000E+00 0.  1.
        -11    1    4    4    0    0 -0.61665446947E-01 -0.15836659644E-01  0.14793091358E-01  0.65364545503E-01  0.51100000000E-03 0. -1.
         11    1    4    4    0    0 -0.62575033624E-01 -0.34985187910E-01  0.86922180583E-02  0.72217823160E-01  0.51100000000E-03 0.  1.
</event>
<event>
 8    1  0.1131349E+005  0.1043930E+01  0.7957747E-01            NaN
         13   -1    0    0    0    0  0.00000000000E+00  0.00000000000E+00  0.74505805969E-08  0.10566000000E+00  0.10566000000E+00 0.  1.
     999900   -1    0    0    0    0 -0.00000000000E+00 -0.00000000000E+00 -0.74505805969E-08  0.93827000000E+00  0.93827000000E+00 0. -1.
     999902    2    1    2    0    0  0.14112373858E-01 -0.43497900157E-02  0.16079616935E-01  0.10220980544E+01  0.10218648633E+01 0.  0.
     999903    2    3    3    0    0 -0.12575359057E+00  0.15679891175E-01  0.25037747385E-01  0.13078221572E+00  0.20427301005E-01 0.  0.
         14    1    1    2    0    0 -0.14112373858E-01  0.43497900157E-02 -0.16079616935E-01  0.21831945627E-01  0.00000000000E+00 0. -1.
     999901    1    3    3    0    0  0.13986596443E+00 -0.20029681191E-01 -0.89581304503E-02  0.89131583865E+00  0.88000000000E+00 0.  1.
        -11    1    4    4    0    0 -0.11438079123E+00  0.92635789552E-02  0.26047094934E-01  0.11767536519E+00  0.51100000000E-03 0.  1.
         11    1    4    4    0    0 -0.11372799339E-01  0.64163122201E-02 -0.10093475488E-02  0.13106850529E-01  0.51100000000E-03 0. -1.
</event>
<event>
 8    1  0.1131349E+005  0.1043930E+01  0.7957747E-01            NaN
         13   -1    0    0    0    0  0.00000000000E+00  0.00000000000E+00  0.74505805969E-08  0.10566000000E+00  0.10566000000E+00 0.  1.
     999900   -1    0    0    0    0 -0.00000000000E+00 -0.00000000000E+00 -0.74505805969E-08  0.93827000000E+00  0.93827000000E+00 0. -1.
     999902    2    1    2    0    0  0.11411152781E-01 -0.22031560996E-02 -0.21304778719E-01  0.10196614627E+01  0.10193726192E+01 0.  0.
     999903    2    3    3    0    0 -0.98447530848E-01  0.44278505701E-01  0.64762527424E-01  0.12745237489E+00  0.19935408434E-01 0.  0.
         14    1    1    2    0    0 -0.11411152781E-01  0.22031560996E-02  0.21304778719E-01  0.24268537262E-01  0.00000000000E+00 0.  1.
     999901    1    3    3    0    0  0.10985868363E+00 -0.46481661801E-01 -0.86067306142E-01  0.89220908785E+00  0.88000000000E+00 0.  1.
        -11    1    4    4    0    0 -0.58495809418E-02 -0.20666545500E-03 -0.24604146940E-03  0.58806432649E-02  0.51100000000E-03 0. -1.
         11    1    4    4    0    0 -0.92597949907E-01  0.44485171156E-01  0.65008568893E-01  0.12157173162E+00  0.51100000000E-03 0.  1.
</event>
<event>
 8    1  0.1131349E+005  0.1043930E+01  0.7957747E-01            NaN
         13   -1    0    0    0    0  0.00000000000E+00  0.00000000000E+00  0.74505805969E-08  0.10566000000E+00  0.10566000000E+00 0. -1.
     999900   -1    0    0    0    0 -0.00000000000E+00 -0.00000000000E+00 -0.74505805969E-08  0.93827000000E+00  0.93827000000E+00 0. -1.
     999902    2    1    2    0    0  0.44254831286E-02 -0.68267571731E-02 -0.22561844540E-01  0.10199461233E+01  0.10196640957E+01 0.  0.
     999903    2    3    3    0    0  0.12273261233E+00 -0.17943368022E-01 -0.39582858464E-01  0.13179643387E+00  0.20450885312E-01 0.  0.
         14    1    1    2    0    0 -0.44254831286E-02  0.68267571731E-02  0.22561844540E-01  0.23983876740E-01  0.00000000000E+00 0. -1.
     999901    1    3    3    0    0 -0.11830712920E+00  0.11116610849E-01  0.17021013924E-01  0.88814968939E+00  0.88000000000E+00 0. -1.
        -11    1    4    4    0    0  0.11808619280E+00 -0.18274586043E-01 -0.33466032709E-01  0.12409087755E+00  0.51100000000E-03 0. -1.
         11    1    4    4    0    0  0.46464195346E-02  0.33121802087E-03 -0.61168257544E-02  0.77055563186E-02  0.51100000000E-03 0.  1.
</event>
<event>
 8    1  0.1131349E+005  0.1043930E+01  0.7957747E-01            NaN
         13   -1    0    0    0    0  0.00000000000E+00  0.00000000000E+00  0.74505805969E-08  0.10566000000E+00  0.10566000000E+00 0.  1.
     999900   -1    0    0    0    0 -0.00000000000E+00 -0.00000000000E+00 -0.74505805969E-08  0.93827000000E+00  0.93827000000E+00 0.  1.
     999902    2    1    2    0    0  0.13783143791E-01  0.41128062577E-02  0.19069454706E-01  0.10200441395E+01  0.10197644396E+01 0.  0.
     999903    2    3    3    0    0  0.62200583408E-01  0.50734705175E-01 -0.99972980558E-01  0.12948872220E+00  0.18160656675E-01 0.  0.
         14    1    1    2    0    0 -0.13783143791E-01 -0.41128062577E-02 -0.19069454706E-01  0.23885860480E-01  0.00000000000E+00 0. -1.
     999901    1    3    3    0    0 -0.48417439617E-01 -0.46621898917E-01  0.11904243526E+00  0.89055541732E+00  0.88000000000E+00 0. -1.
        -11    1    4    4    0    0  0.22573491555E-01  0.82811597323E-02 -0.25572204728E-01  0.35104684917E-01  0.51100000000E-03 0.  1.
         11    1    4    4    0    0  0.39627091852E-01  0.42453545443E-01 -0.74400775830E-01  0.94384037286E-01  0.51100000000E-03 0. -1.
</event>
<event>
 8    1  0.1131349E+005  0.1043930E+01  0.7957747E-01            NaN
         13   -1    0    0    0    0  0.00000000000E+00  0.00000000000E+00  0.74505805969E-08  0.10566000000E+00  0.10566000000E+00 0.  1.
     999900   -1    0    0    0    0 -0.00000000000E+00 -0.00000000000E+00 -0.74505805969E-08  0.93827000000E+00  0.93827000000E+00 0.  1.
     999902    2    1    2    0    0 -0.19095862215E-01  0.12234260909E-01 -0.37583258895E-02  0.10209418703E+01  0.10206830303E+01 0.  0.
     999903    2    3    3    0    0  0.46647182084E-01 -0.17975706981E-02  0.11985586166E+00  0.12976315223E+00  0.17142264927E-01 0.  0.
         14    1    1    2    0    0  0.19095862215E-01 -0.12234260909E-01  0.37583258895E-02  0.22988129702E-01  0.00000000000E+00 0.  1.
     999901    1    3    3    0    0 -0.65743044299E-01  0.14031831607E-01 -0.12361418755E+00  0.89117871807E+00  0.88000000000E+00 0.  1.
        -11    1    4    4    0    0  0.14507677871E-01 -0.51692282930E-02  0.57500208465E-01  0.59529225872E-01  0.51100000000E-03 0. -1.
         11    1    4    4    0    0  0.32139504212E-01  0.33716575948E-02  0.62355653191E-01  0.70233926359E-01  0.51100000000E-03 0.  1.
</event>
<event>
 8    1  0.1131349E+005  0.1043930E+01  0.7957747E-01            NaN
         13   -1    0    0    0    0  0.00000000000E+00  0.00000000000E+00  0.74505805969E-08  0.10566000000E+00  0.10566000000E+00 0. -1.
     999900   -1    0    0    0    0 -0.00000000000E+00 -0.00000000000E+00 -0.74505805969E-08  0.93827000000E+00  0.93827000000E+00 0.  1.
     999902    2    1    2    0    0 -0.19292677933E-01  0.41408904246E-02  0.14098223135E-01  0.10196789322E+01  0.10193905093E+01 0.  0.
     999903    2    3    3    0    0 -0.90277028895E-01 -0.93034266071E-01 -0.62056184332E-02  0.13125671548E+00  0.19608647317E-01 0.  0.
         14    1    1    2    0    0  0.19292677933E-01 -0.41408904246E-02 -0.14098223135E-01  0.24251067830E-01  0.00000000000E+00 0.  1.
     999901    1    3    3    0    0  0.70984350962E-01  0.97175156496E-01  0.20303841568E-01  0.88842221669E+00  0.88000000000E+00 0. -1.
        -11    1    4    4    0    0 -0.43841699641E-01 -0.31480288850E-01 -0.12211882730E-02  0.53989402990E-01  0.51100000000E-03 0. -1.
         11    1    4    4    0    0 -0.46435329254E-01 -0.61553977222E-01 -0.49844301602E-02  0.77267312492E-01  0.51100000000E-03 0.  1.
</event>
<event>
 8    1  0.1131349E+005  0.1043930E+01  0.7957747E-01            NaN
         13   -1    0    0    0    0  0.00000000000E+00  0.00000000000E+00  0.74505805969E-08  0.10566000000E+00  0.10566000000E+00 0. -1.
     999900   -1    0    0    0    0 -0.00000000000E+00 -0.00000000000E+00 -0.74505805969E-08  0.93827000000E+00  0.93827000000E+00 0.  1.
     999902    2    1    2    0    0  0.18478962368E-01 -0.16359871198E-01 -0.46526702003E-02  0.10188149691E+01  0.10185053640E+01 0.  0.
     999903    2    3    3    0    0  0.20858711288E-01  0.11956297429E+00  0.34889968503E-01  0.12749891777E+00  0.17557718347E-01 0.  0.
         14    1    1    2    0    0 -0.18478962368E-01  0.16359871198E-01  0.46526702003E-02  0.25115030874E-01  0.00000000000E+00 0.  1.
     999901    1    3    3    0    0 -0.23797489195E-02 -0.13592284548E+00 -0.39542638704E-01  0.89131605136E+00  0.88000000000E+00 0. -1.
        -11    1    4    4    0    0  0.47146922655E-03  0.49673367463E-01  0.11066197764E-01  0.50895850246E-01  0.51100000000E-03 0.  1.
         11    1    4    4    0    0  0.20387242061E-01  0.69889606824E-01  0.23823770740E-01  0.76603067524E-01  0.51100000000E-03 0. -1.
</event>
<event>
 8    1  0.1131349E+005  0.1043930E+01  0.7957747E-01            NaN
         13   -1    0    0    0    0  0.00000000000E+00  0.00000000000E+00  0.74505805969E-08  0.10566000000E+00  0.10566000000E+00 0. -1.
     999900   -1    0    0    0    0 -0.00000000000E+00 -0.00000000000E+00 -0.74505805969E-08  0.93827000000E+00  0.93827000000E+00 0. -1.
     999902    2    1    2    0    0 -0.19248866033E-01  0.21679962276E-01 -0.35059966722E-02  0.10147267190E+01  0.10143064047E+01 0.  0.
     999903    2    3    3    0    0  0.56745257565E-01  0.17065255044E-01 -0.10868189610E+00  0.12519966930E+00  0.18760476178E-01 0.  0.
         14    1    1    2    0    0  0.19248866033E-01 -0.21679962276E-01  0.35059966722E-02  0.29203280989E-01  0.00000000000E+00 0.  1.
     999901    1    3    3    0    0 -0.75994123598E-01  0.46147072327E-02  0.10517589943E+00  0.88952704971E+00  0.88000000000E+00 0.  1.
        -11    1    4    4    0    0  0.14100325779E-01 -0.38535969498E-02 -0.27152690943E-01  0.30841516548E-01  0.51100000000E-03 0. -1.
         11    1    4    4    0    0  0.42644931786E-01  0.20918851993E-01 -0.81529205161E-01  0.94358152753E-01  0.51100000000E-03 0.  1.
</event>
<event>
 8    1  0.1131349E+005  0.1043930E+01  0.7957747E-01            NaN
         13   -1    0    0    0    0  0.00000000000E+00  0.00000000000E+00  0.74505805969E-08  0.10566000000E+00  0.10566000000E+00 0. -1.
     999900   -1    0    0    0    0 -0.00000000000E+00 -0.00000000000E+00 -0.74505805969E-08  0.93827000000E+00  0.93827000000E+00 0.  1.
     999902    2    1    2    0    0 -0.70890674691E-02  0.16857173061E-01  0.14057636624E-01  0.10208640877E+01  0.10206034731E+01 0.  0.
     999903    2    3    3    0    0  0.11446345874E+00  0.15351876807E-02  0.60695111175E-01  0.13115355397E+00  0.20325304651E-01 0.  0.
         14    1    1    2    0    0  0.70890674691E-02 -0.16857173061E-01 -0.14057636624E-01  0.23065912265E-01  0.00000000000E+00 0.  1.
     999901    1    3    3    0    0 -0.12155252621E+00  0.15321985380E-01 -0.46637474551E-01  0.88971053377E+00  0.88000000000E+00 0. -1.
        -11    1    4    4    0    0  0.92934311862E-01  0.21953092130E-02  0.39744330738E-01  0.10110132863E+00  0.51100000000E-03 0. -1.
         11    1    4    4    0    0  0.21529146881E-01 -0.66012153229E-03  0.20950780437E-01  0.30052225338E-01  0.51100000000E-03 0.  1.
</event>
<event>
 8    1  0.1131349E+005  0.1043930E+01  0.7957747E-01            NaN
         13   -1    0    0    0    0  0.00000000000E+00  0.00000000000E+00  0.74505805969E-08  0.10566000000E+00  0.10566000000E+00 0.  1.
     999900   -1    0    0    0    0 -0.00000000000E+00 -0.00000000000E+00 -0.74505805969E-08  0.93827000000E+00  0.93827000000E+00 0. -1.
     999902    2    1    2    0    0  0.12172275343E-01  0.18386799725E-01  0.34615996951E-02  0.10216091272E+01  0.10213652566E+01 0.  0.
     999903    2    3    3    0    0 -0.12849485245E+00 -0.45476566563E-02  0.13428643666E-03  0.13013601982E+00  0.20093713782E-01 0.  0.
         14    1    1    2    0    0 -0.12172275343E-01 -0.18386799725E-01 -0.34615996951E-02  0.22320872824E-01  0.00000000000E+00 0. -1.
     999901    1    3    3    0    0  0.14066712779E+00  0.22934456382E-01  0.33273132585E-02  0.89147310736E+00  0.88000000000E+00 0. -1.
        -11    1    4    4    0    0 -0.10434242772E+00  0.16353275911E-02  0.59652181390E-02  0.10452684568E+00  0.51100000000E-03 0. -1.
         11    1    4    4    0    0 -0.24152424726E-01 -0.61829842474E-02 -0.58309317024E-02  0.25609174135E-01  0.51100000000E-03 0.  1.
</event>
<event>
 8    1  0.1131349E+005  0.1043930E+01  0.7957747E-01            NaN
         13   -1    0    0    0    0  0.00000000000E+00  0.00000000000E+00  0.74505805969E-08  0.10566000000E+00  0.10566000000E+00 0. -1.
     999900   -1    0    0    0    0 -0.00000000000E+00 -0.00000000000E+00 -0.74505805969E-08  0.93827000000E+00  0.93827000000E+00 0. -1.
     999902    2    1    2    0    0 -0.19544087844E-01 -0.78110826945E-02 -0.11459929806E-01  0.10199651429E+01  0.10196835678E+01 0.  0.
     999903    2    3    3    0    0 -0.11379880180E+00  0.49006726724E-01  0.39608585077E-01  0.13164076087E+00  0.20214434370E-01 0.  0.
         14    1    1    2    0    0  0.19544087844E-01  0.78110826945E-02  0.11459929806E-01  0.23964857055E-01  0.00000000000E+00 0. -1.
     999901    1    3    3    0    0  0.94254713954E-01 -0.56817809419E-01 -0.51068514883E-01  0.88832438207E+00  0.88000000000E+00 0. -1.
        -11    1    4    4    0    0 -0.10880895208E+00  0.42198091434E-01  0.39413297788E-01  0.12318171998E+00  0.51100000000E-03 0. -1.
         11    1    4    4    0    0 -0.49898497128E-02  0.68086352899E-02  0.19528728899E-03  0.84590408908E-02  0.51100000000E-03 0.  1.
</event>
<event>
 8    1  0.1131349E+005  0.1043930E+01  0.7957747E-01            NaN
         13   -1    0    0    0    0  0.00000000000E+00  0.00000000000E+00  0.74505805969E-08  0.10566000000E+00  0.10566000000E+00 0. -1.
     999900   -1    0    0    0    0 -0.00000000000E+00 -0.00000000000E+00 -0.74505805969E-08  0.93827000000E+00  0.93827000000E+00 0. -1.
     999902    2    1    2    0    0  0.18300196915E-02  0.24582455063E-01  0.54317889766E-02  0.10186881617E+01  0.10183753829E+01 0.  0.
     999903    2    3    3    0    0 -0.42194511012E-01  0.46934412038E-01 -0.11141953651E+00  0.12959199056E+00  0.19913691438E-01 0.  0.
         14    1    1    2    0    0 -0.18300196915E-02 -0.24582455063E-01 -0.54317889766E-02  0.25241838295E-01  0.00000000000E+00 0. -1.
     999901    1    3    3    0    0  0.44024530703E-01 -0.22351956975E-01  0.11685132549E+00  0.88909617115E+00  0.88000000000E+00 0.  1.
        -11    1    4    4    0    0 -0.36927622058E-01  0.29954801995E-01 -0.71242512675E-01  0.85654516324E-01  0.51100000000E-03 0. -1.
         11    1    4    4    0    0 -0.52668889544E-02  0.16979610043E-01 -0.40177023837E-01  0.43937474232E-01  0.51100000000E-03 0.  1.
</event>
<event>
 8    1  0.1131349E+005  0.1043930E+01  0.7957747E-01            NaN
         13   -1    0    0    0    0  0.00000000000E+00  0.00000000000E+00  0.74505805969E-08  0.10566000000E+00  0.10566000000E+00 0.  1.
     999900   -1    0    0    0    0 -0.00000000000E+00 -0.00000000000E+00 -0.74505805969E-08  0.93827000000E+00  0.93827000000E+00 0.  1.
     999902    2    1    2    0    0  0.12999700999E-01  0.18245139110E-01  0.18660809581E-02  0.10214497957E+01  0.10212023921E+01 0.  0.
     999903    2    3    3    0    0 -0.20819163399E-01 -0.38191322270E-02 -0.12773785110E+00  0.13104105424E+00  0.20168687532E-01 0.  0.
         14    1    1    2    0    0 -0.12999700999E-01 -0.18245139110E-01 -0.18660809581E-02  0.22480204299E-01  0.00000000000E+00 0.  1.
     999901    1    3    3    0    0  0.33818864398E-01  0.22064271337E-01  0.12960393206E+00  0.89040874146E+00  0.88000000000E+00 0. -1.
        -11    1    4    4    0    0 -0.13514968536E-01 -0.11626666540E-01 -0.92877411758E-01  0.94574354268E-01  0.51100000000E-03 0.  1.
         11    1    4    4    0    0 -0.73041948632E-02  0.78075343128E-02 -0.34860439346E-01  0.36466699975E-01  0.51100000000E-03 0. -1.
</event>
<event>
 8    1  0.1131349E+005  0.1043930E+01  0.7957747E-01            NaN
         13   -1    0    0    0    0  0.00000000000E+00  0.00000000000E+00  0.74505805969E-08  0.10566000000E+00  0.10566000000E+00 0. -1.
     999900   -1    0    0    0    0 -0.00000000000E+00 -0.00000000000E+00 -0.74505805969E-08  0.93827000000E+00  0.93827000000E+00 0. -1.
     999902    2    1    2    0    0  0.35492963161E-02  0.12173119216E-01  0.20924955495E-01  0.10194629589E+01  0.10191693130E+01 0.  0.
     999903    2    3    3    0    0 -0.76877667564E-01  0.59383012342E-01 -0.81838945159E-01  0.12858828212E+00  0.20020375315E-01 0.  0.
         14    1    1    2    0    0 -0.35492963161E-02 -0.12173119216E-01 -0.20924955495E-01  0.24467041060E-01  0.00000000000E+00 0.  1.
     999901    1    3    3    0    0  0.80426963880E-01 -0.47209893126E-01  0.10276390065E+00  0.89087467682E+00  0.88000000000E+00 0.  1.
        -11    1    4    4    0    0 -0.47526156000E-01  0.43546182341E-01 -0.43476097220E-01  0.77752412510E-01  0.51100000000E-03 0.  1.
         11    1    4    4    0    0 -0.29351511564E-01  0.15836830002E-01 -0.38362847939E-01  0.50835869606E-01  0.51100000000E-03 0. -1.
</event>
<event>
 8    1  0.1131349E+005  0.1043930E+01  0.7957747E-01            NaN
         13   -1    0    0    0    0  0.00000000000E+00  0.00000000000E+00  0.74505805969E-08  0.10566000000E+00  0.10566000000E+00 0.  1.
     999900   -1    0    0    0    0 -0.00000000000E+00 -0.00000000000E+00 -0.74505805969E-08  0.93827000000E+00  0.93827000000E+00 0.  1.
     999902    2    1    2    0    0  0.23461186611E-01 -0.32224570827E-02 -0.48102946569E-02  0.10197649334E+01  0.10194785770E+01 0.  0.
     999903    2    3    3    0    0  0.99057995995E-01 -0.55085022284E-01 -0.66765680878E-01  0.13283592099E+00  0.18462922607E-01 0.  0.
         14    1    1    2    0    0 -0.23461186611E-01  0.32224570827E-02  0.48102946569E-02  0.24165066553E-01  0.00000000000E+00 0.  1.
     999901    1    3    3    0    0 -0.75596809384E-01  0.51862565201E-01  0.61955386221E-01  0.88692901246E+00  0.88000000000E+00 0. -1.
        -11    1    4    4    0    0  0.44124246256E-01 -0.14509910380E-01 -0.24450349948E-01  0.52493498078E-01  0.51100000000E-03 0. -1.
         11    1    4    4    0    0  0.54933749739E-01 -0.40575111904E-01 -0.42315330929E-01  0.80342422910E-01  0.51100000000E-03 0.  1.
</event>
<event>
 8    1  0.1131349E+005  0.1043930E+01  0.7957747E-01            NaN
         13   -1    0    0    0    0  0.00000000000E+00  0.00000000000E+00  0.74505805969E-08  0.10566000000E+00  0.10566000000E+00 0.  1.
     999900   -1    0    0    0    0 -0.00000000000E+00 -0.00000000000E+00 -0.74505805969E-08  0.93827000000E+00  0.93827000000E+00 0. -1.
     999902    2    1    2    0    0  0.18311666339E-01  0.14061850798E-01  0.17072753060E-02  0.10207790268E+01  0.10205164643E+01 0.  0.
     999903    2    3    3    0    0  0.19249172638E-01 -0.12149590059E+00 -0.36186302901E-01  0.12959290360E+00  0.18790626347E-01 0.  0.
         14    1    1    2    0    0 -0.18311666339E-01 -0.14061850798E-01 -0.17072753060E-02  0.23150973218E-01  0.00000000000E+00 0. -1.
     999901    1    3    3    0    0 -0.93750629908E-03  0.13555775139E+00  0.37893578207E-01  0.89118612318E+00  0.88000000000E+00 0.  1.
        -11    1    4    4    0    0  0.14453343932E-01 -0.98667947400E-01 -0.21468846358E-01  0.10200703642E+00  0.51100000000E-03 0.  1.
         11    1    4    4    0    0  0.47958287060E-02 -0.22827953192E-01 -0.14717456543E-01  0.27585867178E-01  0.51100000000E-03 0. -1.
</event>
<event>
 8    1  0.1131349E+005  0.1043930E+01  0.7957747E-01            NaN
         13   -1    0    0    0    0  0.00000000000E+00  0.00000000000E+00  0.74505805969E-08  0.10566000000E+00  0.10566000000E+00 0. -1.
     999900   -1    0    0    0    0 -0.00000000000E+00 -0.00000000000E+00 -0.74505805969E-08  0.93827000000E+00  0.93827000000E+00 0. -1.
     999902    2    1    2    0    0  0.44805487030E-02  0.20188765144E-01 -0.10884271339E-01  0.10205605987E+01  0.10202930004E+01 0.  0.
     999903    2    3    3    0    0  0.72772548013E-01  0.10926267344E+00  0.10173981671E-01  0.13318164451E+00  0.19991622786E-01 0.  0.
         14    1    1    2    0    0 -0.44805487030E-02 -0.20188765144E-01  0.10884271339E-01  0.23369401303E-01  0.00000000000E+00 0. -1.
     999901    1    3    3    0    0 -0.68291999310E-01 -0.89073908292E-01 -0.21058253010E-01  0.88737895418E+00  0.88000000000E+00 0.  1.
        -11    1    4    4    0    0  0.20561147862E-01  0.43415708123E-01 -0.29271056297E-02  0.48130173297E-01  0.51100000000E-03 0. -1.
         11    1    4    4    0    0  0.52211400151E-01  0.65846965312E-01  0.13101087300E-01  0.85051471216E-01  0.51100000000E-03 0.  1.
</event>
<event>
 8    1  0.1131349E+005  0.1043930E+01  0.7957747E-01            NaN
         13   -1    0    0    0    0  0.00000000000E+00  0.00000000000E+00  0.74505805969E-08  0.10566000000E+00  0.10566000000E+00 0. -1.
     999900   -1    0    0    0    0 -0.00000000000E+00 -0.00000000000E+00 -0.74505805969E-08  0.93827000000E+00  0.93827000000E+00 0.  1.
     999902    2    1    2    0    0 -0.67073512735E-02  0.19581819956E-01 -0.11945768160E-01  0.10200315145E+01  0.10197515153E+01 0.  0.
     999903    2    3    3    0    0  0.68567243586E-01 -0.10607738114E+00 -0.20170421484E-03  0.12784631929E+00  0.19767725937E-01 0.  0.
         14    1    1    2    0    0  0.67073512735E-02 -0.19581819956E-01  0.11945768160E-01  0.23898485534E-01  0.00000000000E+00 0. -1.
     999901    1    3    3    0    0 -0.75274594860E-01  0.12565920110E+00 -0.11744063945E-01  0.89218519518E+00  0.88000000000E+00 0.  1.
        -11    1    4    4    0    0  0.32114398795E-01 -0.67119352166E-01 -0.23808475604E-02  0.74446434442E-01  0.51100000000E-03 0. -1.
         11    1    4    4    0    0  0.36452844792E-01 -0.38958028976E-01  0.21791433456E-02  0.53399884849E-01  0.51100000000E-03 0.  1.
</event>
<event>
 8    1  0.1131349E+005  0.1043930E+01  0.7957747E-01            NaN
         13   -1    0    0    0    0  0.00000000000E+00  0.00000000000E+00  0.74505805969E-08  0.10566000000E+00  0.10566000000E+00 0.  1.
     999900   -1    0    0    0    0 -0.00000000000E+00 -0.00000000000E+00 -0.74505805969E-08  0.93827000000E+00  0.93827000000E+00 0.  1.
     999902    2    1    2    0    0 -0.59361830734E-02 -0.12460187452E-01 -0.19416122562E-01  0.10201081538E+01  0.10198299687E+01 0.  0.
     999903    2    3    3    0    0 -0.10387300031E+00 -0.28488025932E-01 -0.75043783366E-01  0.13278467929E+00  0.19975830820E-01 0.  0.
         14    1    1    2    0    0  0.59361830734E-02  0.12460187452E-01  0.19416122562E-01  0.23821846196E-01  0.00000000000E+00 0.  1.
     999901    1    3    3    0    0  0.97936817239E-01  0.16027838480E-01  0.55627660804E-01  0.88732347451E+00  0.88000000000E+00 0. -1.
        -11    1    4    4    0    0 -0.43221917266E-01 -0.23806477676E-02 -0.25618911505E-01  0.50302995573E-01  0.51100000000E-03 0.  1.
         11    1    4    4    0    0 -0.60651083046E-01 -0.26107378165E-01 -0.49424871861E-01  0.82481683717E-01  0.51100000000E-03 0. -1.
</event>
<event>
 8    1  0.1131349E+005  0.1043930E+01  0.7957747E-01            NaN
         13   -1    0    0    0    0  0.00000000000E+00  0.00000000000E+00  0.74505805969E-08  0.10566000000E+00  0.10566000000E+00 0.  1.
     999900   -1    0    0    0    0 -0.00000000000E+00 -0.00000000000E+00 -0.74505805969E-08  0.93827000000E+00  0.93827000000E+00 0.  1.
     999902    2    1    2    0    0 -0.98530457335E-02 -0.21476069529E-01 -0.35660124761E-02  0.10200339644E+01  0.10197540233E+01 0.  0.
     999903    2    3    3    0    0  0.11965321604E+00  0.40073228866E-01 -0.12408224512E-01  0.12838472132E+00  0.20147378293E-01 0.  0.
         14    1    1    2    0    0  0.98530457335E-02  0.21476069529E-01  0.35660124761E-02  0.23896035605E-01  0.00000000000E+00 0.  1.
     999901    1    3    3    0    0 -0.12950626177E+00 -0.61549298395E-01  0.88422120360E-02  0.89164924308E+00  0.88000000000E+00 0. -1.
        -11    1    4    4    0    0  0.77317730596E-01  0.18249880981E-01 -0.14273905431E-01  0.80716139139E-01  0.51100000000E-03 0.  1.
         11    1    4    4    0    0  0.42335485441E-01  0.21823347885E-01  0.18656809187E-02  0.47668582177E-01  0.51100000000E-03 0. -1.
</event>
<event>
 8    1  0.1131349E+005  0.1043930E+01  0.7957747E-01            NaN
         13   -1    0    0    0    0  0.00000000000E+00  0.00000000000E+00  0.74505805969E-08  0.10566000000E+00  0.10566000000E+00 0.  1.
     999900   -1    0    0    0    0 -0.00000000000E+00 -0.00000000000E+00 -0.74505805969E-08  0.93827000000E+00  0.93827000000E+00 0. -1.
     999902    2    1    2    0    0 -0.11109353187E-01  0.24423923482E-02 -0.17188162323E-01  0.10233189366E+01  0.10231113479E+01 0.  0.
     999903    2    3    3    0    0  0.57540212726E-01  0.11657046648E+00  0.17335216996E-01  0.13262828107E+00  0.19753517538E-01 0.  0.
         14    1    1    2    0    0  0.11109353187E-01 -0.24423923482E-02  0.17188162323E-01  0.20611063356E-01  0.00000000000E+00 0.  1.
     999901    1    3    3    0    0 -0.68649565914E-01 -0.11412807413E+00 -0.34523379319E-01  0.89069065557E+00  0.88000000000E+00 0.  1.
        -11    1    4    4    0    0  0.34448819182E-01  0.86431899903E-01  0.71769616733E-02  0.93321832192E-01  0.51100000000E-03 0.  1.
         11    1    4    4    0    0  0.23091393544E-01  0.30138566579E-01  0.10158255322E-01  0.39306448879E-01  0.51100000000E-03 0. -1.
</event>
<event>
 8    1  0.1131349E+005  0.1043930E+01  0.7957747E-01            NaN
         13   -1    0    0    0    0  0.00000000000E+00  0.00000000000E+00  0.74505805969E-08  0.10566000000E+00  0.10566000000E+00 0.  1.
     999900   -1    0    0    0    0 -0.00000000000E+00 -0.00000000000E+00 -0.74505805969E-08  0.93827000000E+00  0.93827000000E+00 0. -1.
     999902    2    1    2    0    0  0.13612135484E-01 -0.19717737169E-01 -0.29661897751E-02  0.10197871403E+01  0.10195013163E+01 0.  0.
     999903    2    3    3    0    0  0.11013936716E+00  0.67129795852E-01 -0.55046870775E-02  0.13025555324E+00  0.17295024757E-01 0.  0.
         14    1    1    2    0    0 -0.13612135484E-01  0.19717737169E-01  0.29661897751E-02  0.24142859675E-01  0.00000000000E+00 0.  1.
     999901    1    3    3    0    0 -0.96527231676E-01 -0.86847533021E-01  0.25384973024E-02  0.88953158708E+00  0.88000000000E+00 0. -1.
        -11    1    4    4    0    0  0.34058477984E-01  0.24148806535E-01  0.57567509944E-02  0.42149093497E-01  0.51100000000E-03 0.  1.
         11    1    4    4    0    0  0.76080889177E-01  0.42980989318E-01 -0.11261438072E-01  0.88106459747E-01  0.51100000000E-03 0. -1.
</event>
<event>
 8    1  0.1131349E+005  0.1043930E+01  0.7957747E-01            NaN
         13   -1    0    0    0    0  0.00000000000E+00  0.00000000000E+00  0.74505805969E-08  0.10566000000E+00  0.10566000000E+00 0.  1.
     999900   -1    0    0    0    0 -0.00000000000E+00 -0.00000000000E+00 -0.74505805969E-08  0.93827000000E+00  0.93827000000E+00 0.  1.
     999902    2    1    2    0    0  0.12424484575E-01 -0.20086431899E-01 -0.28287107843E-02  0.10201427310E+01  0.10198653624E+01 0.  0.
     999903    2    3    3    0    0  0.17983874106E-01  0.56178427261E-01  0.11316450867E+00  0.12924337497E+00  0.20450147501E-01 0.  0.
         14    1    1    2    0    0 -0.12424484575E-01  0.20086431899E-01  0.28287107843E-02  0.23787269034E-01  0.00000000000E+00 0.  1.
     999901    1    3    3    0    0 -0.55593895316E-02 -0.76264859160E-01 -0.11599321946E+00  0.89089935600E+00  0.88000000000E+00 0.  1.
        -11    1    4    4    0    0 -0.94319707621E-03  0.30380859681E-01  0.57173671527E-01  0.64753193686E-01  0.51100000000E-03 0. -1.
         11    1    4    4    0    0  0.18927071182E-01  0.25797567580E-01  0.55990837147E-01  0.64490181284E-01  0.51100000000E-03 0.  1.
</event>
<event>
 8    1  0.1131349E+005  0.1043930E+01  0.7957747E-01            NaN
         13   -1    0    0    0    0  0.00000000000E+00  0.00000000000E+00  0.74505805969E-08  0.10566000000E+00  0.10566000000E+00 0. -1.
     999900   -1    0    0    0    0 -0.00000000000E+00 -0.00000000000E+00 -0.74505805969E-08  0.93827000000E+00  0.93827000000E+00 0. -1.
     999902    2    1    2    0    0  0.62292543180E-03 -0.18282155431E-01 -0.11212256756E-01  0.10224744659E+01  0.10222493304E+01 0.  0.
     999903    2    3    3    0    0  0.74119411957E-01 -0.70473572853E-01  0.82568635084E-01  0.13291247632E+00  0.19696069689E-01 0.  0.
         14    1    1    2    0    0 -0.62292543180E-03  0.18282155431E-01  0.11212256756E-01  0.21455534131E-01  0.00000000000E+00 0. -1.
     999901    1    3    3    0    0 -0.73496486526E-01  0.52191417422E-01 -0.93780891839E-01  0.88956198955E+00  0.88000000000E+00 0. -1.
        -11    1    4    4    0    0  0.20534988598E-01 -0.31822216968E-01  0.34157392023E-01  0.51003213627E-01  0.51100000000E-03 0. -1.
         11    1    4    4    0    0  0.53584423359E-01 -0.38651355885E-01  0.48411243061E-01  0.81909262689E-01  0.51100000000E-03 0.  1.
</event>
<event>
 8    1  0.1131349E+005  0.1043930E+01  0.7957747E-01            NaN
         13   -1    0    0    0    0  0.00000000000E+00  0.00000000000E+00  0.74505805969E-08  0.10566000000E+00  0.10566000000E+00 0. -1.
     999900   -1    0    0    0    0 -0.00000000000E+00 -0.00000000000E+00 -0.74505805969E-08  0.93827000000E+00  0.93827000000E+00 0. -1.
     999902    2    1    2    0    0 -0.43963221987E-02 -0.23057502757E-02 -0.23246088893E-01  0.10201597501E+01  0.10198827829E+01 0.  0.
     999903    2    3    3    0    0  0.66118047872E-01 -0.26969461658E-01  0.10418109616E+00  0.12784911887E+00  0.19817877860E-01 0.  0.
         14    1    1    2    0    0  0.43963221987E-02  0.23057502757E-02  0.23246088893E-01  0.23770249936E-01  0.00000000000E+00 0. -1.
     999901    1    3    3    0    0 -0.70514370071E-01  0.24663711383E-01 -0.12742718505E+00  0.89231063119E+00  0.88000000000E+00 0. -1.
        -11    1    4    4    0    0  0.32650192563E-01 -0.23943467027E-01  0.57733382407E-01  0.70517581161E-01  0.51100000000E-03 0. -1.
         11    1    4    4    0    0  0.33467855309E-01 -0.30259946316E-02  0.46447713753E-01  0.57331537711E-01  0.51100000000E-03 0.  1.
</event>
<event>
 8    1  0.1131349E+005  0.1043930E+01  0.7957747E-01            NaN
         13   -1    0    0    0    0  0.00000000000E+00  0.00000000000E+00  0.74505805969E-08  0.10566000000E+00  0.10566000000E+00 0.  1.
     999900   -1    0    0    0    0 -0.00000000000E+00 -0.00000000000E+00 -0.74505805969E-08  0.93827000000E+00  0.93827000000E+00 0. -1.
     999902    2    1    2    0    0  0.84315778742E-02 -0.18422681578E-01  0.12281268315E-01  0.10202378863E+01  0.10199627583E+01 0.  0.
     999903    2    3    3    0    0 -0.77190934456E-01  0.86661055509E-01  0.52231797399E-01  0.12896360121E+00  0.20853557823E-01 0.  0.
         14    1    1    2    0    0 -0.84315778742E-02  0.18422681578E-01 -0.12281268315E-01  0.23692113739E-01  0.00000000000E+00 0. -1.
     999901    1    3    3    0    0  0.85622512330E-01 -0.10508373709E+00 -0.39950529083E-01  0.89127428505E+00  0.88000000000E+00 0. -1.
        -11    1    4    4    0    0 -0.59651969313E-01  0.72045353615E-01  0.33258194575E-01  0.99273657371E-01  0.51100000000E-03 0. -1.
         11    1    4    4    0    0 -0.17538965143E-01  0.14615701894E-01  0.18973602824E-01  0.29689943840E-01  0.51100000000E-03 0.  1.
</event>
<event>
 8    1  0.1131349E+005  0.1043930E+01  0.7957747E-01            NaN
         13   -1    0    0    0    0  0.00000000000E+00  0.00000000000E+00  0.74505805969E-08  0.10566000000E+00  0.10566000000E+00 0.  1.
     999900   -1    0    0    0    0 -0.00000000000E+00 -0.00000000000E+00 -0.74505805969E-08  0.93827000000E+00  0.93827000000E+00 0. -1.
     999902    2    1    2    0    0 -0.26707772662E-02  0.21661969727E-01 -0.98249085265E-02  0.10199946117E+01  0.10197137369E+01 0.  0.
     999903    2    3    3    0    0  0.10739277260E+00  0.72709958620E-01  0.83104923918E-02  0.13148531244E+00  0.19984429262E-01 0.  0.
         14    1    1    2    0    0  0.26707772662E-02 -0.21661969727E-01  0.98249085265E-02  0.23935388261E-01  0.00000000000E+00 0.  1.
     999901    1    3    3    0    0 -0.11006354987E+00 -0.51047988893E-01 -0.18135400918E-01  0.88850929930E+00  0.88000000000E+00 0. -1.
        -11    1    4    4    0    0  0.54875316118E-01  0.42074285155E-01 -0.46880644601E-02  0.69309341792E-01  0.51100000000E-03 0.  1.
         11    1    4    4    0    0  0.52517456485E-01  0.30635673465E-01  0.12998556852E-01  0.62175970644E-01  0.51100000000E-03 0. -1.
</event>
<event>
 8    1  0.1131349E+005  0.1043930E+01  0.7957747E-01            NaN
         13   -1    0    0    0    0  0.00000000000E+00  0.00000000000E+00  0.74505805969E-08  0.10566000000E+00  0.10566000000E+00 0.  1.
     999900   -1    0    0    0    0 -0.00000000000E+00 -0.00000000000E+00 -0.74505805969E-08  0.93827000000E+00  0.93827000000E+00 0. -1.
     999902    2    1    2    0    0 -0.92442608039E-02  0.36863931006E-02 -0.21094840501E-01  0.10206053747E+01  0.10203388127E+01 0.  0.
     999903    2    3    3    0    0  0.39739842796E-01  0.12259402740E+00  0.90317155032E-02  0.13074803930E+00  0.20122803901E-01 0.  0.
         14    1    1    2    0    0  0.92442608039E-02 -0.36863931006E-02  0.21094840501E-01  0.23324625349E-01  0.00000000000E+00 0.  1.
     999901    1    3    3    0    0 -0.48984103600E-01 -0.11890763430E+00 -0.30126556004E-01  0.88985733535E+00  0.88000000000E+00 0.  1.
        -11    1    4    4    0    0  0.19366413172E-01  0.52659647122E-01  0.13689090065E-01  0.57755940837E-01  0.51100000000E-03 0. -1.
         11    1    4    4    0    0  0.20373429624E-01  0.69934380277E-01 -0.46573745623E-02  0.72992098464E-01  0.51100000000E-03 0.  1.
</event>
<event>
 8    1  0.1131349E+005  0.1043930E+01  0.7957747E-01            NaN
         13   -1    0    0    0    0  0.00000000000E+00  0.00000000000E+00  0.74505805969E-08  0.10566000000E+00  0.10566000000E+00 0.  1.
     999900   -1    0    0    0    0 -0.00000000000E+00 -0.00000000000E+00 -0.74505805969E-08  0.93827000000E+00  0.93827000000E+00 0. -1.
     999902    2    1    2    0    0 -0.17521304031E-01  0.14505678539E-01 -0.60011070945E-02  0.10204050326E+01  0.10201338179E+01 0.  0.
     999903    2    3    3    0    0 -0.49711296983E-01 -0.26532348513E-01  0.11593099230E+00  0.13046809541E+00  0.20168053397E-01 0.  0.
         14    1    1    2    0    0  0.17521304031E-01 -0.14505678539E-01  0.60011070945E-02  0.23524967400E-01  0.00000000000E+00 0.  1.
     999901    1    3    3    0    0  0.32189992953E-01  0.41038027053E-01 -0.12193209940E+00  0.88993693719E+00  0.88000000000E+00 0. -1.
        -11    1    4    4    0    0 -0.38176816447E-01 -0.23638382024E-01  0.71179708794E-01  0.84160884523E-01  0.51100000000E-03 0.  1.
         11    1    4    4    0    0 -0.11534480536E-01 -0.28939664896E-02  0.44751283511E-01  0.46307210887E-01  0.51100000000E-03 0. -1.
</event>
<event>
 8    1  0.1131349E+005  0.1043930E+01  0.7957747E-01            NaN
         13   -1    0    0    0    0  0.00000000000E+00  0.00000000000E+00  0.74505805969E-08  0.10566000000E+00  0.10566000000E+00 0.  1.
     999900   -1    0    0    0    0 -0.00000000000E+00 -0.00000000000E+00 -0.74505805969E-08  0.93827000000E+00  0.93827000000E+00 0.  1.
     999902    2    1    2    0    0  0.26529001990E-02 -0.16024010001E-02  0.24149561434E-01  0.10195823741E+01  0.10192916220E+01 0.  0.
     999903    2    3    3    0    0  0.14084714583E-01 -0.11956151317E+00  0.49739197127E-01  0.13126944053E+00  0.16258649093E-01 0.  0.
         14    1    1    2    0    0 -0.26529001990E-02  0.16024010001E-02 -0.24149561434E-01  0.24347625878E-01  0.00000000000E+00 0. -1.
     999901    1    3    3    0    0 -0.11431814384E-01  0.11795911217E+00 -0.25589635693E-01  0.88831293359E+00  0.88000000000E+00 0. -1.
        -11    1    4    4    0    0  0.15838985572E-01 -0.82283974409E-01  0.39038421969E-01  0.92443417393E-01  0.51100000000E-03 0. -1.
         11    1    4    4    0    0 -0.17542709889E-02 -0.37277538764E-01  0.10700775158E-01  0.38826023142E-01  0.51100000000E-03 0.  1.
</event>
<event>
 8    1  0.1131349E+005  0.1043930E+01  0.7957747E-01            NaN
         13   -1    0    0    0    0  0.00000000000E+00  0.00000000000E+00  0.74505805969E-08  0.10566000000E+00  0.10566000000E+00 0. -1.
     999900   -1    0    0    0    0 -0.00000000000E+00 -0.00000000000E+00 -0.74505805969E-08  0.93827000000E+00  0.93827000000E+00 0.  1.
     999902    2    1    2    0    0  0.20971249132E-01 -0.10154014427E-01  0.14594340273E-02  0.10205841814E+01  0.10203171292E+01 0.  0.
     999903    2    3    3    0    0  0.32797395445E-01 -0.57118329545E-01  0.11296712557E+00  0.13222644381E+00  0.19598169954E-01 0.  0.
         14    1    1    2    0    0 -0.20971249132E-01  0.10154014427E-01 -0.14594340273E-02  0.23345818615E-01  0.00000000000E+00 0.  1.
     999901    1    3    3    0    0 -0.11826146313E-01  0.46964315119E-01 -0.11150769154E+00  0.88835773757E+00  0.88000000000E+00 0.  1.
        -11    1    4    4    0    0  0.42463000504E-02 -0.90486322486E-02  0.34187166547E-01  0.35622075841E-01  0.51100000000E-03 0. -1.
         11    1    4    4    0    0  0.28551095394E-01 -0.48069697297E-01  0.78779959024E-01  0.96604367972E-01  0.51100000000E-03 0.  1.
</event>
<event>
 8    1  0.1131349E+005  0.1043930E+01  0.7957747E-01            NaN
         13   -1    0    0    0    0  0.00000000000E+00  0.00000000000E+00  0.74505805969E-08  0.10566000000E+00  0.10566000000E+00 0.  1.
     999900   -1    0    0    0    0 -0.00000000000E+00 -0.00000000000E+00 -0.74505805969E-08  0.93827000000E+00  0.93827000000E+00 0.  1.
     999902    2    1    2    0    0  0.10631943019E-02  0.21649553334E-01  0.67203001928E-02  0.10212364772E+01  0.10209843027E+01 0.  0.
     999903    2    3    3    0    0  0.12405129103E+00  0.27891004899E-01  0.30639280234E-01  0.13233988860E+00  0.20210137577E-01 0.  0.
         14    1    1    2    0    0 -0.10631943019E-02 -0.21649553334E-01 -0.67203001928E-02  0.22693522784E-01  0.00000000000E+00 0. -1.
     999901    1    3    3    0    0 -0.12298809672E+00 -0.62414515659E-02 -0.23918980041E-01  0.88889658862E+00  0.88000000000E+00 0.  1.
        -11    1    4    4    0    0  0.65365206973E-01  0.58113653688E-02  0.10359188235E-01  0.66437610975E-01  0.51100000000E-03 0.  1.
         11    1    4    4    0    0  0.58686084053E-01  0.22079639531E-01  0.20280091999E-01  0.65902277622E-01  0.51100000000E-03 0. -1.
</event>
<event>
 8    1  0.1131349E+005  0.1043930E+01  0.7957747E-01            NaN
         13   -1    0    0    0    0  0.00000000000E+00  0.00000000000E+00  0.74505805969E-08  0.10566000000E+00  0.10566000000E+00 0. -1.
     999900   -1    0    0    0    0 -0.00000000000E+00 -0.00000000000E+00 -0.74505805969E-08  0.93827000000E+00  0.93827000000E+00 0.  1.
     999902    2    1    2    0    0 -0.19640921536E-01  0.28712987464E-02  0.13358097748E-01  0.10200040950E+01  0.10197234453E+01 0.  0.
     999903    2    3    3    0    0  0.12600095795E+00  0.31721636476E-02  0.12016328225E-01  0.12803243180E+00  0.19015978050E-01 0.  0.
         14    1    1    2    0    0  0.19640921536E-01 -0.28712987464E-02 -0.13358097748E-01  0.23925905014E-01  0.00000000000E+00 0.  1.
     999901    1    3    3    0    0 -0.14564187949E+00 -0.30086490123E-03  0.13417695236E-02  0.89197166319E+00  0.88000000000E+00 0.  1.
        -11    1    4    4    0    0  0.60465288668E-02  0.43882818060E-02  0.21483669268E-03  0.74916489741E-02  0.51100000000E-03 0. -1.
         11    1    4    4    0    0  0.11995442909E+00 -0.12161181583E-02  0.11801491532E-01  0.12054078283E+00  0.51100000000E-03 0.  1.
</event>
<event>
 8    1  0.1131349E+005  0.1043930E+01  0.7957747E-01            NaN
         13   -1    0    0    0    0  0.00000000000E+00  0.00000000000E+00  0.74505805969E-08  0.10566000000E+00  0.10566000000E+00 0.  1.
     999900   -1    0    0    0    0 -0.00000000000E+00 -0.00000000000E+00 -0.74505805969E-08  0.93827000000E+00  0.93827000000E+00 0. -1.
     999902    2    1    2    0    0 -0.14528157198E-01 -0.11290162753E-01 -0.30515585685E-02  0.10252793395E+01  0.10251096902E+01 0.  0.
     999903    2    3    3    0    0 -0.12014586331E-02  0.12202034591E+00 -0.51516984219E-01  0.13382087717E+00  0.19068801341E-01 0.  0.
         14    1    1    2    0    0  0.14528157198E-01  0.11290162753E-01  0.30515585685E-02  0.18650660477E-01  0.00000000000E+00 0.  1.
     999901    1    3    3    0    0 -0.13326698565E-01 -0.13331050866E+00  0.48465425650E-01  0.89145846235E+00  0.88000000000E+00 0.  1.
        -11    1    4    4    0    0 -0.86221599657E-02  0.45086309778E-01 -0.14659781037E-01  0.48190115926E-01  0.51100000000E-03 0.  1.
         11    1    4    4    0    0  0.74207013327E-02  0.76934036134E-01 -0.36857203182E-01  0.85630761246E-01  0.51100000000E-03 0. -1.
</event>
<event>
 8    1  0.1131349E+005  0.1043930E+01  0.7957747E-01            NaN
         13   -1    0    0    0    0  0.00000000000E+00  0.00000000000E+00  0.74505805969E-08  0.10566000000E+00  0.10566000000E+00 0. -1.
     999900   -1    0    0    0    0 -0.00000000000E+00 -0.00000000000E+00 -0.74505805969E-08  0.93827000000E+00  0.93827000000E+00 0.  1.
     999902    2    1    2    0    0 -0.15207028073E-01  0.62675502293E-02 -0.17525691171E-01  0.10198949061E+01  0.10196116583E+01 0.  0.
     999903    2    3    3    0    0  0.60338012222E-01 -0.11127161535E+00 -0.15228708265E-01  0.12886865243E+00  0.18792762532E-01 0.  0.
         14    1    1    2    0    0  0.15207028073E-01 -0.62675502293E-02  0.17525691171E-01  0.24035093919E-01  0.00000000000E+00 0. -1.
     999901    1    3    3    0    0 -0.75545040294E-01  0.11753916558E+00 -0.22969829067E-02  0.89102625365E+00  0.88000000000E+00 0.  1.
        -11    1    4    4    0    0  0.23898815487E-01 -0.54300084610E-01 -0.15173757321E-01  0.61238522211E-01  0.51100000000E-03 0.  1.
         11    1    4    4    0    0  0.36439196735E-01 -0.56971530738E-01 -0.54950943258E-04  0.67630130222E-01  0.51100000000E-03 0. -1.
</event>
<event>
 8    1  0.1131349E+005  0.1043930E+01  0.7957747E-01            NaN
         13   -1    0    0    0    0  0.00000000000E+00  0.00000000000E+00  0.74505805969E-08  0.10566000000E+00  0.10566000000E+00 0. -1.
     999900   -1    0    0    0    0 -0.00000000000E+00 -0.00000000000E+00 -0.74505805969E-08  0.93827000000E+00  0.93827000000E+00 0.  1.
     999902    2    1    2    0    0 -0.28268992931E-02 -0.21354726997E-01  0.10305843905E-01  0.10200505916E+01  0.10197710446E+01 0.  0.
     999903    2    3    3    0    0 -0.12272343897E+00 -0.33664661321E-01 -0.24731418016E-01  0.13114433988E+00  0.19820266129E-01 0.  0.
         14    1    1    2    0    0  0.28268992931E-02  0.21354726997E-01 -0.10305843905E-01  0.23879408353E-01  0.00000000000E+00 0.  1.
     999901    1    3    3    0    0  0.11989653968E+00  0.12309934324E-01  0.35037261921E-01  0.88890625177E+00  0.88000000000E+00 0. -1.
        -11    1    4    4    0    0 -0.97363864333E-01 -0.19669302296E-01 -0.14311628086E-01  0.10035779666E+00  0.51100000000E-03 0. -1.
         11    1    4    4    0    0 -0.25359574641E-01 -0.13995359025E-01 -0.10419789930E-01  0.30786543219E-01  0.51100000000E-03 0.  1.
</event>
<event>
 8    1  0.1131349E+005  0.1043930E+01  0.7957747E-01            NaN
         13   -1    0    0    0    0  0.00000000000E+00  0.00000000000E+00  0.74505805969E-08  0.10566000000E+00  0.10566000000E+00 0. -1.
     999900   -1    0    0    0    0 -0.00000000000E+00 -0.00000000000E+00 -0.74505805969E-08  0.93827000000E+00  0.93827000000E+00 0. -1.
     999902    2    1    2    0    0  0.12204957326E-01 -0.17733763475E-01  0.48033315424E-02  0.10218728165E+01  0.10216347360E+01 0.  0.
     999903    2    3    3    0    0  0.72306630305E-01 -0.29550378132E-01 -0.10519117396E+00  0.13291239290E+00  0.22339370500E-01 0.  0.
         14    1    1    2    0    0 -0.12204957326E-01  0.17733763475E-01 -0.48033315424E-02  0.22057183506E-01  0.00000000000E+00 0.  1.
     999901    1    3    3    0    0 -0.60101672979E-01  0.11816614657E-01  0.10999450550E+00  0.88896042359E+00  0.88000000000E+00 0.  1.
        -11    1    4    4    0    0  0.41488012473E-01 -0.26920782677E-01 -0.55131513305E-01  0.74065704609E-01  0.51100000000E-03 0.  1.
         11    1    4    4    0    0  0.30818617832E-01 -0.26295954550E-02 -0.50059660651E-01  0.58846688291E-01  0.51100000000E-03 0. -1.
</event>
<event>
 8    1  0.1131349E+005  0.1043930E+01  0.7957747E-01            NaN
         13   -1    0    0    0    0  0.00000000000E+00  0.00000000000E+00  0.74505805969E-08  0.10566000000E+00  0.10566000000E+00 0.  1.
     999900   -1    0    0    0    0 -0.00000000000E+00 -0.00000000000E+00 -0.74505805969E-08  0.93827000000E+00  0.93827000000E+00 0. -1.
     999902    2    1    2    0    0  0.35124245871E-02 -0.10549264632E-02 -0.21087194160E-01  0.10225262678E+01  0.10223022295E+01 0.  0.
     999903    2    3    3    0    0 -0.57540943114E-01  0.11621128343E+00 -0.19135658428E-01  0.13264836255E+00  0.20332046942E-01 0.  0.
         14    1    1    2    0    0 -0.35124245871E-02  0.10549264632E-02  0.21087194160E-01  0.21403732242E-01  0.00000000000E+00 0.  1.
     999901    1    3    3    0    0  0.61053367701E-01 -0.11726620989E+00 -0.19515357319E-02  0.88987790521E+00  0.88000000000E+00 0.  1.
        -11    1    4    4    0    0 -0.31820766728E-01  0.70506107018E-01 -0.16864881746E-02  0.77374270176E-01  0.51100000000E-03 0. -1.
         11    1    4    4    0    0 -0.25720176386E-01  0.45705176410E-01 -0.17449170254E-01  0.55274092372E-01  0.51100000000E-03 0.  1.
</event>
<event>
 8    1  0.1131349E+005  0.1043930E+01  0.7957747E-01            NaN
         13   -1    0    0    0    0  0.00000000000E+00  0.00000000000E+00  0.74505805969E-08  0.10566000000E+00  0.10566000000E+00 0.  1.
     999900   -1    0    0    0    0 -0.00000000000E+00 -0.00000000000E+00 -0.74505805969E-08  0.93827000000E+00  0.93827000000E+00 0. -1.
     999902    2    1    2    0    0  0.11699425458E-01 -0.15095785692E-01  0.14820039016E-01  0.10197557811E+01  0.10194692052E+01 0.  0.
     999903    2    3    3    0    0 -0.29720394878E-01  0.11997715085E+00 -0.24767979205E-01  0.12760808546E+00  0.19812927163E-01 0.  0.
         14    1    1    2    0    0 -0.11699425458E-01  0.15095785692E-01 -0.14820039016E-01  0.24174218873E-01  0.00000000000E+00 0. -1.
     999901    1    3    3    0    0  0.41419820336E-01 -0.13507293654E+00  0.39588018221E-01  0.89214769567E+00  0.88000000000E+00 0.  1.
        -11    1    4    4    0    0 -0.10291016862E-01  0.59885889722E-01 -0.31244893027E-02  0.60846103986E-01  0.51100000000E-03 0. -1.
         11    1    4    4    0    0 -0.19429378016E-01  0.60091261126E-01 -0.21643489902E-01  0.66761981471E-01  0.51100000000E-03 0.  1.
</event>
<event>
 8    1  0.1131349E+005  0.1043930E+01  0.7957747E-01            NaN
         13   -1    0    0    0    0  0.00000000000E+00  0.00000000000E+00  0.74505805969E-08  0.10566000000E+00  0.10566000000E+00 0.  1.
     999900   -1    0    0    0    0 -0.00000000000E+00 -0.00000000000E+00 -0.74505805969E-08  0.93827000000E+00  0.93827000000E+00 0.  1.
     999902    2    1    2    0    0  0.23580069791E-01 -0.30233108910E-02 -0.74412203463E-02  0.10190195231E+01  0.10187150026E+01 0.  0.
     999903    2    3    3    0    0  0.90196190859E-02  0.99314236075E-01 -0.80682953705E-01  0.12994734842E+00  0.20782283995E-01 0.  0.
         14    1    1    2    0    0 -0.23580069791E-01  0.30233108910E-02  0.74412203463E-02  0.24910476919E-01  0.00000000000E+00 0.  1.
     999901    1    3    3    0    0  0.14560450705E-01 -0.10233754697E+00  0.73241733359E-01  0.88907217466E+00  0.88000000000E+00 0. -1.
        -11    1    4    4    0    0  0.26990393597E-02  0.91134951687E-01 -0.75470927988E-01  0.11835956372E+00  0.51100000000E-03 0.  1.
         11    1    4    4    0    0  0.63205797262E-02  0.81792843879E-02 -0.52120257176E-02  0.11587784700E-01  0.51100000000E-03 0. -1.
</event>
<event>
 8    1  0.1131349E+005  0.1043930E+01  0.7957747E-01            NaN
         13   -1    0    0    0    0  0.00000000000E+00  0.00000000000E+00  0.74505805969E-08  0.10566000000E+00  0.10566000000E+00 0.  1.
     999900   -1    0    0    0    0 -0.00000000000E+00 -0.00000000000E+00 -0.74505805969E-08  0.93827000000E+00  0.93827000000E+00 0. -1.
     999902    2    1    2    0    0  0.11968632469E-01 -0.18312457519E-01 -0.91036809643E-02  0.10202346150E+01  0.10199594102E+01 0.  0.
     999903    2    3    3    0    0 -0.18677351849E-01 -0.12329904023E+00  0.38949223236E-01  0.13216342387E+00  0.19965766312E-01 0.  0.
         14    1    1    2    0    0 -0.11968632469E-01  0.18312457519E-01  0.91036809643E-02  0.23695385008E-01  0.00000000000E+00 0.  1.
     999901    1    3    3    0    0  0.30645984318E-01  0.10498658271E+00 -0.48052904200E-01  0.88807119112E+00  0.88000000000E+00 0. -1.
        -11    1    4    4    0    0 -0.16599720002E-01 -0.47606169727E-01  0.12413726375E-01  0.51925521892E-01  0.51100000000E-03 0. -1.
         11    1    4    4    0    0 -0.20776318462E-02 -0.75692870501E-01  0.26535496861E-01  0.80237901975E-01  0.51100000000E-03 0.  1.
</event>
<event>
 8    1  0.1131349E+005  0.1043930E+01  0.7957747E-01            NaN
         13   -1    0    0    0    0  0.00000000000E+00  0.00000000000E+00  0.74505805969E-08  0.10566000000E+00  0.10566000000E+00 0. -1.
     999900   -1    0    0    0    0 -0.00000000000E+00 -0.00000000000E+00 -0.74505805969E-08  0.93827000000E+00  0.93827000000E+00 0.  1.
     999902    2    1    2    0    0 -0.22651041847E-01  0.68534611811E-02 -0.54230187774E-03  0.10202586308E+01  0.10199839901E+01 0.  0.
     999903    2    3    3    0    0  0.24331609748E-01  0.11777421649E+00 -0.47697734688E-01  0.13080125785E+00  0.19264004206E-01 0.  0.
         14    1    1    2    0    0  0.22651041847E-01 -0.68534611811E-02  0.54230187774E-03  0.23671369167E-01  0.00000000000E+00 0. -1.
     999901    1    3    3    0    0 -0.46982651595E-01 -0.11092075531E+00  0.47155432810E-01  0.88945737298E+00  0.88000000000E+00 0.  1.
        -11    1    4    4    0    0  0.20774282157E-01  0.67324674346E-01 -0.34906475813E-01  0.78631455217E-01  0.51100000000E-03 0. -1.
         11    1    4    4    0    0  0.35573275911E-02  0.50449542145E-01 -0.12791258875E-01  0.52169802634E-01  0.51100000000E-03 0.  1.
</event>
<event>
 8    1  0.1131349E+005  0.1043930E+01  0.7957747E-01            NaN
         13   -1    0    0    0    0  0.00000000000E+00  0.00000000000E+00  0.74505805969E-08  0.10566000000E+00  0.10566000000E+00 0. -1.
     999900   -1    0    0    0    0 -0.00000000000E+00 -0.00000000000E+00 -0.74505805969E-08  0.93827000000E+00  0.93827000000E+00 0. -1.
     999902    2    1    2    0    0 -0.51582272154E-02 -0.10145511947E-02  0.23207432418E-01  0.10201345899E+01  0.10198570292E+01 0.  0.
     999903    2    3    3    0    0  0.14757555173E-01 -0.64865427844E-01  0.11358271461E+00  0.13298112828E+00  0.18911326175E-01 0.  0.
         14    1    1    2    0    0  0.51582272154E-02  0.10145511947E-02 -0.23207432418E-01  0.23795410094E-01  0.00000000000E+00 0.  1.
     999901    1    3    3    0    0 -0.19915782389E-01  0.63850876649E-01 -0.90375282191E-01  0.88715346162E+00  0.88000000000E+00 0. -1.
        -11    1    4    4    0    0 -0.40053179627E-02 -0.77485039954E-02  0.18915318214E-01  0.20835841003E-01  0.51100000000E-03 0. -1.
         11    1    4    4    0    0  0.18762873136E-01 -0.57116923848E-01  0.94667396394E-01  0.11214528728E+00  0.51100000000E-03 0.  1.
</event>
<event>
 8    1  0.1131349E+005  0.1043930E+01  0.7957747E-01            NaN
         13   -1    0    0    0    0  0.00000000000E+00  0.00000000000E+00  0.74505805969E-08  0.10566000000E+00  0.10566000000E+00 0. -1.
     999900   -1    0    0    0    0 -0.00000000000E+00 -0.00000000000E+00 -0.74505805969E-08  0.93827000000E+00  0.93827000000E+00 0. -1.
     999902    2    1    2    0    0 -0.77389023700E-02 -0.10055254305E-01 -0.20205714593E-01  0.10200706276E+01  0.10197915550E+01 0.  0.
     999903    2    3    3    0    0 -0.50942684794E-01 -0.11673612138E+00  0.24977178639E-01  0.13142622850E+00  0.20652237581E-01 0.  0.
         14    1    1    2    0    0  0.77389023700E-02  0.10055254305E-01  0.20205714593E-01  0.23859372398E-01  0.00000000000E+00 0. -1.
     999901    1    3    3    0    0  0.43203782424E-01  0.10668086707E+00 -0.45182893232E-01  0.88864439910E+00  0.88000000000E+00 0. -1.
        -11    1    4    4    0    0 -0.26390042175E-01 -0.37217835725E-01  0.55406359285E-02  0.45962608602E-01  0.51100000000E-03 0.  1.
         11    1    4    4    0    0 -0.24552642618E-01 -0.79518285651E-01  0.19436542711E-01  0.85463619897E-01  0.51100000000E-03 0. -1.
</event>
<event>
 8    1  0.1131349E+005  0.1043930E+01  0.7957747E-01            NaN
         13   -1    0    0    0    0  0.00000000000E+00  0.00000000000E+00  0.74505805969E-08  0.10566000000E+00  0.10566000000E+00 0.  1.
     999900   -1    0    0    0    0 -0.00000000000E+00 -0.00000000000E+00 -0.74505805969E-08  0.93827000000E+00  0.93827000000E+00 0. -1.
     999902    2    1    2    0    0  0.16330186075E-01 -0.17035766020E-01 -0.23848773051E-02  0.10202112323E+01  0.10199354777E+01 0.  0.
     999903    2    3    3    0    0 -0.30220950286E-04 -0.12401844925E-01  0.12811537773E+00  0.13042504860E+00  0.21055560319E-01 0.  0.
         14    1    1    2    0    0 -0.16330186075E-01  0.17035766020E-01  0.23848773051E-02  0.23718767694E-01  0.00000000000E+00 0. -1.
     999901    1    3    3    0    0  0.16360407025E-01 -0.46339210953E-02 -0.13050025504E+00  0.88978618370E+00  0.88000000000E+00 0. -1.
        -11    1    4    4    0    0 -0.62097799967E-02  0.36498969369E-02  0.36395503212E-01  0.37104944284E-01  0.51100000000E-03 0.  1.
         11    1    4    4    0    0  0.61795590464E-02 -0.16051741862E-01  0.91719874523E-01  0.93320104320E-01  0.51100000000E-03 0. -1.
</event>
<event>
 8    1  0.1131349E+005  0.1043930E+01  0.7957747E-01            NaN
         13   -1    0    0    0    0  0.00000000000E+00  0.00000000000E+00  0.74505805969E-08  0.10566000000E+00  0.10566000000E+00 0. -1.
     999900   -1    0    0    0    0 -0.00000000000E+00 -0.00000000000E+00 -0.74505805969E-08  0.93827000000E+00  0.93827000000E+00 0.  1.
     999902    2    1    2    0    0 -0.78701011218E-02  0.10845240257E-01 -0.19908345739E-01  0.10199320843E+01  0.10196497225E+01 0.  0.
     999903    2    3    3    0    0 -0.10307426345E+00 -0.16178511016E-01  0.73879418753E-01  0.12943207845E+00  0.20210057179E-01 0.  0.
         14    1    1    2    0    0  0.78701011218E-02 -0.10845240257E-01  0.19908345739E-01  0.23997915700E-01  0.00000000000E+00 0. -1.
     999901    1    3    3    0    0  0.95204162328E-01  0.27023751273E-01 -0.93787764492E-01  0.89050000585E+00  0.88000000000E+00 0.  1.
        -11    1    4    4    0    0 -0.33371267015E-01  0.37762198387E-02  0.26964093756E-01  0.43072320247E-01  0.51100000000E-03 0.  1.
         11    1    4    4    0    0 -0.69702996435E-01 -0.19954730855E-01  0.46915324997E-01  0.86359758199E-01  0.51100000000E-03 0. -1.
</event>
<event>
 8    1  0.1131349E+005  0.1043930E+01  0.7957747E-01            NaN
         13   -1    0    0    0    0  0.00000000000E+00  0.00000000000E+00  0.74505805969E-08  0.10566000000E+00  0.10566000000E+00 0.  1.
     999900   -1    0    0    0    0 -0.00000000000E+00 -0.00000000000E+00 -0.74505805969E-08  0.93827000000E+00  0.93827000000E+00 0.  1.
     999902    2    1    2    0    0  0.40801781598E-02 -0.15580878511E-01  0.17181283890E-01  0.10203798801E+01  0.10201080784E+01 0.  0.
     999903    2    3    3    0    0  0.71216897199E-01 -0.10967941794E+00 -0.10162472767E-01  0.13239927496E+00  0.18024177903E-01 0.  0.
         14    1    1    2    0    0 -0.40801781598E-02  0.15580878511E-01 -0.17181283890E-01  0.23550119853E-01  0.00000000000E+00 0. -1.
     999901    1    3    3    0    0 -0.67136719039E-01  0.94098539433E-01  0.27343756657E-01  0.88798060519E+00  0.88000000000E+00 0. -1.
        -11    1    4    4    0    0  0.26605449807E-01 -0.57440854881E-01 -0.42360544478E-02  0.63446883668E-01  0.51100000000E-03 0.  1.
         11    1    4    4    0    0  0.44611447392E-01 -0.52238563063E-01 -0.59264183194E-02  0.68952391289E-01  0.51100000000E-03 0. -1.
</event>
<event>
 8    1  0.1131349E+005  0.1043930E+01  0.7957747E-01            NaN
         13   -1    0    0    0    0  0.00000000000E+00  0.00000000000E+00  0.74505805969E-08  0.10566000000E+00  0.10566000000E+00 0. -1.
     999900   -1    0    0    0    0 -0.00000000000E+00 -0.00000000000E+00 -0.74505805969E-08  0.93827000000E+00  0.93827000000E+00 0.  1.
     999902    2    1    2    0    0  0.21853998830E-01 -0.43966768657E-02  0.88697306269E-02  0.10199383316E+01  0.10196561185E+01 0.  0.
     999903    2    3    3    0    0  0.82571685226E-01  0.25876943573E-01  0.98267556659E-01  0.13281088818E+00  0.22237803773E-01 0.  0.
         14    1    1    2    0    0 -0.21853998830E-01  0.43966768657E-02 -0.88697306269E-02  0.23991668423E-01  0.00000000000E+00 0.  1.
     999901    1    3    3    0    0 -0.60717686396E-01 -0.30273620438E-01 -0.89397826032E-01  0.88712744340E+00  0.88000000000E+00 0.  1.
        -11    1    4    4    0    0  0.10378495847E-01  0.10854289266E-01  0.11379745298E-01  0.18849098004E-01  0.51100000000E-03 0.  1.
         11    1    4    4    0    0  0.72193189380E-01  0.15022654307E-01  0.86887811361E-01  0.11396179017E+00  0.51100000000E-03 0. -1.
</event>
<event>
 8    1  0.1131349E+005  0.1043930E+01  0.7957747E-01            NaN
         13   -1    0    0    0    0  0.00000000000E+00  0.00000000000E+00  0.74505805969E-08  0.10566000000E+00  0.10566000000E+00 0.  1.
     999900   -1    0    0    0    0 -0.00000000000E+00 -0.00000000000E+00 -0.74505805969E-08  0.93827000000E+00  0.93827000000E+00 0.  1.
     999902    2    1    2    0    0 -0.74627597523E-02  0.20228494131E-02  0.23902945089E-01  0.10188075899E+01  0.10184978006E+01 0.  0.
     999903    2    3    3    0    0 -0.71275886755E-01  0.40601164972E-01  0.10179910528E+00  0.13222526812E+00  0.19792853823E-01 0.  0.
         14    1    1    2    0    0  0.74627597523E-02 -0.20228494131E-02 -0.23902945089E-01  0.25122410052E-01  0.00000000000E+00 0. -1.
     999901    1    3    3    0    0  0.63813127003E-01 -0.38578315559E-01 -0.77896160194E-01  0.88658232183E+00  0.88000000000E+00 0.  1.
        -11    1    4    4    0    0 -0.60789302121E-01  0.37154370224E-01  0.76073717211E-01  0.10422695453E+00  0.51100000000E-03 0. -1.
         11    1    4    4    0    0 -0.10486584634E-01  0.34467947482E-02  0.25725388072E-01  0.27998313588E-01  0.51100000000E-03 0.  1.
</event>
<event>
 8    1  0.1131349E+005  0.1043930E+01  0.7957747E-01            NaN
         13   -1    0    0    0    0  0.00000000000E+00  0.00000000000E+00  0.74505805969E-08  0.10566000000E+00  0.10566000000E+00 0. -1.
     999900   -1    0    0    0    0 -0.00000000000E+00 -0.00000000000E+00 -0.74505805969E-08  0.93827000000E+00  0.93827000000E+00 0. -1.
     999902    2    1    2    0    0 -0.21252279688E-01 -0.27398948268E-02 -0.10214944648E-01  0.10201916026E+01  0.10199153860E+01 0.  0.
     999903    2    3    3    0    0 -0.14800867050E-01  0.22839678985E-01  0.12500648485E+00  0.12947235937E+00  0.19893566418E-01 0.  0.
         14    1    1    2    0    0  0.21252279688E-01  0.27398948268E-02  0.10214944648E-01  0.23738397372E-01  0.00000000000E+00 0. -1.
     999901    1    3    3    0    0 -0.64514126387E-02 -0.25579573812E-01 -0.13522142949E+00  0.89071924326E+00  0.88000000000E+00 0. -1.
        -11    1    4    4    0    0 -0.10468935247E-01  0.23811287976E-02  0.65959410461E-01  0.66829434600E-01  0.51100000000E-03 0.  1.
         11    1    4    4    0    0 -0.43319318025E-02  0.20458550187E-01  0.59047074386E-01  0.62642924767E-01  0.51100000000E-03 0. -1.
</event>
<event>
 8    1  0.1241407E+005  0.1043930E+01  0.7957747E-01            NaN
         13   -1    0    0    0    0  0.00000000000E+00  0.00000000000E+00  0.74505805969E-08  0.10566000000E+00  0.10566000000E+00 0. -1.
     999900   -1    0    0    0    0 -0.00000000000E+00 -0.00000000000E+00 -0.74505805969E-08  0.93827000000E+00  0.93827000000E+00 0.  1.
     999902    2    1    2    0    0  0.12556562133E-01  0.20398713692E-01  0.45009859722E-02  0.10195571945E+01  0.10192658334E+01 0.  0.
     999903    2    3    3    0    0 -0.20826570168E-01  0.12894599402E+00  0.58562434566E-02  0.13225860761E+00  0.19930587075E-01 0.  0.
         14    1    1    2    0    0 -0.12556562133E-01 -0.20398713692E-01 -0.45009859722E-02  0.24372805493E-01  0.00000000000E+00 0. -1.
     999901    1    3    3    0    0  0.33383132301E-01 -0.10854728033E+00 -0.13552574844E-02  0.88729858690E+00  0.88000000000E+00 0. -1.
        -11    1    4    4    0    0 -0.21501459561E-01  0.72325891397E-01  0.50808229594E-02  0.75626868324E-01  0.51100000000E-03 0. -1.
         11    1    4    4    0    0  0.67488939283E-03  0.56620102621E-01  0.77542049724E-03  0.56631739285E-01  0.51100000000E-03 0.  1.
</event>
<event>
 8    1  0.1131349E+005  0.1043930E+01  0.7957747E-01            NaN
         13   -1    0    0    0    0  0.00000000000E+00  0.00000000000E+00  0.74505805969E-08  0.10566000000E+00  0.10566000000E+00 0.  1.
     999900   -1    0    0    0    0 -0.00000000000E+00 -0.00000000000E+00 -0.74505805969E-08  0.93827000000E+00  0.93827000000E+00 0.  1.
     999902    2    1    2    0    0  0.16166143974E-01 -0.16357403411E-01 -0.44473437136E-02  0.10205059157E+01  0.10202370491E+01 0.  0.
     999903    2    3    3    0    0  0.10550379164E+00 -0.77161509720E-01 -0.19032811002E-01  0.13377535323E+00  0.21181326786E-01 0.  0.
         14    1    1    2    0    0 -0.16166143974E-01  0.16357403411E-01  0.44473437136E-02  0.23424084260E-01  0.00000000000E+00 0.  1.
     999901    1    3    3    0    0 -0.89337647665E-01  0.60804106309E-01  0.14585467288E-01  0.88673056251E+00  0.88000000000E+00 0. -1.
        -11    1    4    4    0    0  0.52359708798E-01 -0.47772600791E-01 -0.29074705439E-02  0.70939939369E-01  0.51100000000E-03 0.  1.
         11    1    4    4    0    0  0.53144082841E-01 -0.29388908929E-01 -0.16125340458E-01  0.62835413860E-01  0.51100000000E-03 0. -1.
</event>
<event>
 8    1  0.1131349E+005  0.1043930E+01  0.7957747E-01            NaN
         13   -1    0    0    0    0  0.00000000000E+00  0.00000000000E+00  0.74505805969E-08  0.10566000000E+00  0.10566000000E+00 0.  1.
     999900   -1    0    0    0    0 -0.00000000000E+00 -0.00000000000E+00 -0.74505805969E-08  0.93827000000E+00  0.93827000000E+00 0.  1.
     999902    2    1    2    0    0  0.57386386899E-02 -0.17169991942E-01  0.15347228465E-01  0.10201965211E+01  0.10199204203E+01 0.  0.
     999903    2    3    3    0    0 -0.66269582226E-01  0.17224707754E-01 -0.10656560984E+00  0.12821506427E+00  0.19862664015E-01 0.  0.
         14    1    1    2    0    0 -0.57386386899E-02  0.17169991942E-01 -0.15347228465E-01  0.23733478861E-01  0.00000000000E+00 0. -1.
     999901    1    3    3    0    0  0.72008220916E-01 -0.34394699696E-01  0.12191283830E+00  0.89198145686E+00  0.88000000000E+00 0. -1.
        -11    1    4    4    0    0 -0.61023709541E-01  0.12500817766E-01 -0.10279206700E+00  0.12019415015E+00  0.51100000000E-03 0.  1.
         11    1    4    4    0    0 -0.52458726848E-02  0.47238899885E-02 -0.37735428309E-02  0.80209141216E-02  0.51100000000E-03 0. -1.
</event>
<event>
 8    1  0.1131349E+005  0.1043930E+01  0.7957747E-01            NaN
         13   -1    0    0    0    0  0.00000000000E+00  0.00000000000E+00  0.74505805969E-08  0.10566000000E+00  0.10566000000E+00 0.  1.
     999900   -1    0    0    0    0 -0.00000000000E+00 -0.00000000000E+00 -0.74505805969E-08  0.93827000000E+00  0.93827000000E+00 0. -1.
     999902    2    1    2    0    0  0.31783970353E-02 -0.57609861821E-02 -0.25987159697E-01  0.10171228435E+01  0.10167695192E+01 0.  0.
     999903    2    3    3    0    0  0.25715998366E-01 -0.10507201052E+00  0.63003944405E-01  0.12679142228E+00  0.20127786424E-01 0.  0.
         14    1    1    2    0    0 -0.31783970353E-02  0.57609861821E-02  0.25987159697E-01  0.26807156482E-01  0.00000000000E+00 0.  1.
     999901    1    3    3    0    0 -0.22537601331E-01  0.99311024343E-01 -0.88991104102E-01  0.89033142124E+00  0.88000000000E+00 0. -1.
        -11    1    4    4    0    0  0.28887915511E-01 -0.87268841369E-01  0.53328683859E-01  0.10627592380E+00  0.51100000000E-03 0. -1.
         11    1    4    4    0    0 -0.31719171454E-02 -0.17803169156E-01  0.96752605456E-02  0.20515498482E-01  0.51100000000E-03 0.  1.
</event>
<event>
 8    1  0.1131349E+005  0.1043930E+01  0.7957747E-01            NaN
         13   -1    0    0    0    0  0.00000000000E+00  0.00000000000E+00  0.74505805969E-08  0.10566000000E+00  0.10566000000E+00 0. -1.
     999900   -1    0    0    0    0 -0.00000000000E+00 -0.00000000000E+00 -0.74505805969E-08  0.93827000000E+00  0.93827000000E+00 0.  1.
     999902    2    1    2    0    0  0.28274933621E-02  0.97871770640E-02 -0.21841063106E-01  0.10198298840E+01  0.10195450832E+01 0.  0.
     999903    2    3    3    0    0 -0.11858415585E+00  0.22226153583E-01  0.41466272050E-01  0.12915410944E+00  0.20127800320E-01 0.  0.
         14    1    1    2    0    0 -0.28274933621E-02 -0.97871770640E-02  0.21841063106E-01  0.24100115999E-01  0.00000000000E+00 0. -1.
     999901    1    3    3    0    0  0.12141164921E+00 -0.12438976519E-01 -0.63307335155E-01  0.89067577456E+00  0.88000000000E+00 0.  1.
        -11    1    4    4    0    0 -0.52043025095E-01  0.40454075771E-02  0.26597540679E-01  0.58587815070E-01  0.51100000000E-03 0. -1.
         11    1    4    4    0    0 -0.66541130757E-01  0.18180746006E-01  0.14868731370E-01  0.70566294371E-01  0.51100000000E-03 0.  1.
</event>
<event>
 8    1  0.1131349E+005  0.1043930E+01  0.7957747E-01            NaN
         13   -1    0    0    0    0  0.00000000000E+00  0.00000000000E+00  0.74505805969E-08  0.10566000000E+00  0.10566000000E+00 0. -1.
     999900   -1    0    0    0    0 -0.00000000000E+00 -0.00000000000E+00 -0.74505805969E-08  0.93827000000E+00  0.93827000000E+00 0. -1.
     999902    2    1    2    0    0 -0.15398613131E-01  0.16329854519E-01  0.81979457845E-02  0.10200346500E+01  0.10197547252E+01 0.  0.
     999903    2    3    3    0    0  0.79848472472E-01  0.76196294196E-03  0.10063316164E+00  0.12994553332E+00  0.19556310071E-01 0.  0.
         14    1    1    2    0    0  0.15398613131E-01 -0.16329854519E-01 -0.81979457845E-02  0.23895349967E-01  0.00000000000E+00 0.  1.
     999901    1    3    3    0    0 -0.95247085603E-01  0.15567891577E-01 -0.92435215857E-01  0.89008911672E+00  0.88000000000E+00 0. -1.
        -11    1    4    4    0    0  0.61548821794E-01 -0.68829232904E-02  0.70186903844E-01  0.93606061179E-01  0.51100000000E-03 0.  1.
         11    1    4    4    0    0  0.18299650678E-01  0.76448862323E-02  0.30446257797E-01  0.36339472139E-01  0.51100000000E-03 0. -1.
</event>
<event>
 8    1  0.1131349E+005  0.1043930E+01  0.7957747E-01            NaN
         13   -1    0    0    0    0  0.00000000000E+00  0.00000000000E+00  0.74505805969E-08  0.10566000000E+00  0.10566000000E+00 0. -1.
     999900   -1    0    0    0    0 -0.00000000000E+00 -0.00000000000E+00 -0.74505805969E-08  0.93827000000E+00  0.93827000000E+00 0. -1.
     999902    2    1    2    0    0 -0.21854412987E-01 -0.13764439411E-01 -0.73685057645E-02  0.10170716673E+01  0.10167169746E+01 0.  0.
     999903    2    3    3    0    0  0.11201380823E+00  0.27493409634E-01 -0.44724926980E-01  0.12520933880E+00  0.19341112220E-01 0.  0.
         14    1    1    2    0    0  0.21854412987E-01  0.13764439411E-01  0.73685057645E-02  0.26858332720E-01  0.00000000000E+00 0.  1.
     999901    1    3    3    0    0 -0.13386822121E+00 -0.41257849045E-01  0.37356421215E-01  0.89186232848E+00  0.88000000000E+00 0. -1.
        -11    1    4    4    0    0  0.78026695166E-01  0.10254052572E-01 -0.32955042432E-01  0.85320611199E-01  0.51100000000E-03 0. -1.
         11    1    4    4    0    0  0.33987113062E-01  0.17239357063E-01 -0.11769884548E-01  0.39888727599E-01  0.51100000000E-03 0.  1.
</event>
<event>
 8    1  0.1131349E+005  0.1043930E+01  0.7957747E-01            NaN
         13   -1    0    0    0    0  0.00000000000E+00  0.00000000000E+00  0.74505805969E-08  0.10566000000E+00  0.10566000000E+00 0. -1.
     999900   -1    0    0    0    0 -0.00000000000E+00 -0.00000000000E+00 -0.74505805969E-08  0.93827000000E+00  0.93827000000E+00 0. -1.
     999902    2    1    2    0    0  0.21584475019E-01 -0.66547711134E-02 -0.56306602214E-02  0.10206516866E+01  0.10203861943E+01 0.  0.
     999903    2    3    3    0    0  0.11834904724E+00  0.53285234424E-01 -0.22534907229E-01  0.13315974845E+00  0.19439222597E-01 0.  0.
         14    1    1    2    0    0 -0.21584475019E-01  0.66547711134E-02  0.56306602214E-02  0.23278313404E-01  0.00000000000E+00 0.  1.
     999901    1    3    3    0    0 -0.96764572216E-01 -0.59940005538E-01  0.16904247008E-01  0.88749193814E+00  0.88000000000E+00 0.  1.
        -11    1    4    4    0    0  0.16754838078E-01  0.10413852741E-01 -0.10162981824E-01  0.22197302730E-01  0.51100000000E-03 0. -1.
         11    1    4    4    0    0  0.10159420916E+00  0.42871381683E-01 -0.12371925406E-01  0.11096244572E+00  0.51100000000E-03 0.  1.
</event>
<event>
 8    1  0.1131349E+005  0.1043930E+01  0.7957747E-01            NaN
         13   -1    0    0    0    0  0.00000000000E+00  0.00000000000E+00  0.74505805969E-08  0.10566000000E+00  0.10566000000E+00 0.  1.
     999900   -1    0    0    0    0 -0.00000000000E+00 -0.00000000000E+00 -0.74505805969E-08  0.93827000000E+00  0.93827000000E+00 0.  1.
     999902    2    1    2    0    0 -0.13109325496E-01 -0.69923575603E-02 -0.17949418767E-01  0.10206291607E+01  0.10203631483E+01 0.  0.
     999903    2    3    3    0    0 -0.87075163136E-01 -0.92129255658E-01 -0.35925145371E-01  0.13324966840E+00  0.19873959758E-01 0.  0.
         14    1    1    2    0    0  0.13109325496E-01  0.69923575603E-02  0.17949418767E-01  0.23300839326E-01  0.00000000000E+00 0. -1.
     999901    1    3    3    0    0  0.73965837640E-01  0.85136898098E-01  0.17975726604E-01  0.88737949227E+00  0.88000000000E+00 0. -1.
        -11    1    4    4    0    0 -0.64480467431E-01 -0.75385963958E-01 -0.20970140548E-01  0.10139419193E+00  0.51100000000E-03 0.  1.
         11    1    4    4    0    0 -0.22594695706E-01 -0.16743291700E-01 -0.14955004823E-01  0.31855476472E-01  0.51100000000E-03 0. -1.
</event>
<event>
 8    1  0.1131349E+005  0.1043930E+01  0.7957747E-01            NaN
         13   -1    0    0    0    0  0.00000000000E+00  0.00000000000E+00  0.74505805969E-08  0.10566000000E+00  0.10566000000E+00 0.  1.
     999900   -1    0    0    0    0 -0.00000000000E+00 -0.00000000000E+00 -0.74505805969E-08  0.93827000000E+00  0.93827000000E+00 0. -1.
     999902    2    1    2    0    0 -0.15735496179E-01  0.16955311034E-01  0.60057574308E-02  0.10200310976E+01  0.10197510885E+01 0.  0.
     999903    2    3    3    0    0 -0.39083785174E-02 -0.50667704182E-01  0.11867798585E+00  0.13019527909E+00  0.16847988036E-01 0.  0.
         14    1    1    2    0    0  0.15735496179E-01 -0.16955311034E-01 -0.60057574308E-02  0.23898902372E-01  0.00000000000E+00 0. -1.
     999901    1    3    3    0    0 -0.11827117662E-01  0.67623015216E-01 -0.11267222842E+00  0.88983581854E+00  0.88000000000E+00 0. -1.
        -11    1    4    4    0    0  0.26794976259E-02 -0.30622796926E-01  0.85638507250E-01  0.90989837038E-01  0.51100000000E-03 0. -1.
         11    1    4    4    0    0 -0.65878761433E-02 -0.20044907256E-01  0.33039478603E-01  0.39205442050E-01  0.51100000000E-03 0.  1.
</event>
<event>
 7    1  0.1131349E+005  0.1043930E+01  0.7957747E-01            NaN
         13   -1    0    0    0    0  0.00000000000E+00  0.00000000000E+00  0.74505805969E-08  0.10566000000E+00  0.10566000000E+00 0. -1.
     999900   -1    0    0    0    0 -0.00000000000E+00 -0.00000000000E+00 -0.74505805969E-08  0.93827000000E+00  0.93827000000E+00 0.  1.
     999902    2    1    2    0    0 -0.14725088408E-01  0.15955398137E-02 -0.18848714162E-01  0.10199581832E+01  0.10196764425E+01 0.  0.
         14    1    1    2    0    0  0.14725088408E-01 -0.15955398137E-02  0.18848714162E-01  0.23971816816E-01  0.00000000000E+00 0. -1.
     999901    1    3    3    0    0 -0.89652616270E-02  0.80137887183E-01  0.81399108420E-01  0.88742789664E+00  0.88000000000E+00 0. -1.
        -11    1    3    3    0    0 -0.11192450939E-01 -0.26043483134E-01 -0.14511046016E-01  0.31849105941E-01  0.51100000000E-03 0.  1.
         11    1    3    3    0    0  0.54326241586E-02 -0.52498864236E-01 -0.85736776566E-01  0.10068118061E+00  0.51100000000E-03 0. -1.
</event>
<event>
 8    1  0.1131349E+005  0.1043930E+01  0.7957747E-01            NaN
         13   -1    0    0    0    0  0.00000000000E+00  0.00000000000E+00  0.74505805969E-08  0.10566000000E+00  0.10566000000E+00 0. -1.
     999900   -1    0    0    0    0 -0.00000000000E+00 -0.00000000000E+00 -0.74505805969E-08  0.93827000000E+00  0.93827000000E+00 0. -1.
     999902    2    1    2    0    0  0.16737010137E-01 -0.13847542184E-01 -0.92980523158E-02  0.10203008716E+01  0.10200272216E+01 0.  0.
     999903    2    3    3    0    0  0.99038511966E-01  0.10935215587E-01 -0.85596200540E-01  0.13282741862E+00  0.19702989596E-01 0.  0.
         14    1    1    2    0    0 -0.16737010137E-01  0.13847542184E-01  0.92980523158E-02  0.23629128416E-01  0.00000000000E+00 0. -1.
     999901    1    3    3    0    0 -0.82301501829E-01 -0.24782757770E-01  0.76298148224E-01  0.88747345296E+00  0.88000000000E+00 0.  1.
        -11    1    4    4    0    0  0.30259625832E-01  0.43522400451E-02 -0.38699338446E-01  0.49320248033E-01  0.51100000000E-03 0.  1.
         11    1    4    4    0    0  0.68778886134E-01  0.65829755414E-02 -0.46896862094E-01  0.83507170591E-01  0.51100000000E-03 0. -1.
</event>
<event>
 8    1  0.1131349E+005  0.1043930E+01  0.7957747E-01            NaN
         13   -1    0    0    0    0  0.00000000000E+00  0.00000000000E+00  0.74505805969E-08  0.10566000000E+00  0.10566000000E+00 0. -1.
     999900   -1    0    0    0    0 -0.00000000000E+00 -0.00000000000E+00 -0.74505805969E-08  0.93827000000E+00  0.93827000000E+00 0.  1.
     999902    2    1    2    0    0  0.11227545157E-01  0.16425306413E-01 -0.12495796112E-01  0.10204354606E+01  0.10201649552E+01 0.  0.
     999903    2    3    3    0    0 -0.11276343241E+00  0.31043304279E-01 -0.54813962249E-01  0.13061622302E+00  0.19410018840E-01 0.  0.
         14    1    1    2    0    0 -0.11227545157E-01 -0.16425306413E-01  0.12495796112E-01  0.23494539398E-01  0.00000000000E+00 0. -1.
     999901    1    3    3    0    0  0.12399097756E+00 -0.14617997866E-01  0.42318166136E-01  0.88981923758E+00  0.88000000000E+00 0. -1.
        -11    1    4    4    0    0 -0.75902643339E-01  0.12300344522E-01 -0.40089817944E-01  0.86717728089E-01  0.51100000000E-03 0. -1.
         11    1    4    4    0    0 -0.36860789066E-01  0.18742959758E-01 -0.14724144305E-01  0.43898494935E-01  0.51100000000E-03 0.  1.
</event>
<event>
 8    1  0.1131349E+005  0.1043930E+01  0.7957747E-01            NaN
         13   -1    0    0    0    0  0.00000000000E+00  0.00000000000E+00  0.74505805969E-08  0.10566000000E+00  0.10566000000E+00 0.  1.
     999900   -1    0    0    0    0 -0.00000000000E+00 -0.00000000000E+00 -0.74505805969E-08  0.93827000000E+00  0.93827000000E+00 0. -1.
     999902    2    1    2    0    0  0.12738827269E-01 -0.21252872798E-01  0.82613865499E-02  0.10178107958E+01  0.10174756032E+01 0.  0.
     999903    2    3    3    0    0 -0.68144069294E-01 -0.64356442352E-01 -0.84994355232E-01  0.12814985246E+00  0.20321870275E-01 0.  0.
         14    1    1    2    0    0 -0.12738827269E-01  0.21252872798E-01 -0.82613865499E-02  0.26119204239E-01  0.00000000000E+00 0. -1.
     999901    1    3    3    0    0  0.80882896562E-01  0.43103569553E-01  0.93255741782E-01  0.88966094330E+00  0.88000000000E+00 0.  1.
        -11    1    4    4    0    0 -0.59200941253E-01 -0.63630486687E-01 -0.76540455969E-01  0.11581145367E+00  0.51100000000E-03 0. -1.
         11    1    4    4    0    0 -0.89431280403E-02 -0.72595566498E-03 -0.84538992629E-02  0.12338398783E-01  0.51100000000E-03 0.  1.
</event>
<event>
 8    1  0.1131349E+005  0.1043930E+01  0.7957747E-01            NaN
         13   -1    0    0    0    0  0.00000000000E+00  0.00000000000E+00  0.74505805969E-08  0.10566000000E+00  0.10566000000E+00 0. -1.
     999900   -1    0    0    0    0 -0.00000000000E+00 -0.00000000000E+00 -0.74505805969E-08  0.93827000000E+00  0.93827000000E+00 0. -1.
     999902    2    1    2    0    0  0.11779611670E-01 -0.13343250488E-01 -0.12715338196E-01  0.10220557821E+01  0.10218216773E+01 0.  0.
     999903    2    3    3    0    0  0.31380667794E-01 -0.81613100925E-01  0.97715715605E-01  0.13231425133E+00  0.17699024676E-01 0.  0.
         14    1    1    2    0    0 -0.11779611670E-01  0.13343250488E-01  0.12715338196E-01  0.21874217932E-01  0.00000000000E+00 0. -1.
     999901    1    3    3    0    0 -0.19601056124E-01  0.68269850436E-01 -0.11043105380E+00  0.88974153074E+00  0.88000000000E+00 0. -1.
        -11    1    4    4    0    0  0.11196667438E-01 -0.52006164659E-01  0.62413688036E-01  0.82010585290E-01  0.51100000000E-03 0.  1.
         11    1    4    4    0    0  0.20184000356E-01 -0.29606936265E-01  0.35302027569E-01  0.50303666038E-01  0.51100000000E-03 0. -1.
</event>
<event>
 8    1  0.1131349E+005  0.1043930E+01  0.7957747E-01            NaN
         13   -1    0    0    0    0  0.00000000000E+00  0.00000000000E+00  0.74505805969E-08  0.10566000000E+00  0.10566000000E+00 0. -1.
     999900   -1    0    0    0    0 -0.00000000000E+00 -0.00000000000E+00 -0.74505805969E-08  0.93827000000E+00  0.93827000000E+00 0. -1.
     999902    2    1    2    0    0  0.64319762700E-02  0.72502365205E-02  0.21601887965E-01  0.10202534755E+01  0.10199787137E+01 0.  0.
     999903    2    3    3    0    0  0.12416618610E+00  0.29675324875E-01  0.27572115402E-01  0.13210941491E+00  0.19869808326E-01 0.  0.
         14    1    1    2    0    0 -0.64319762700E-02 -0.72502365205E-02 -0.21601887965E-01  0.23676524491E-01  0.00000000000E+00 0.  1.
     999901    1    3    3    0    0 -0.11773420984E+00 -0.22425088355E-01 -0.59702274372E-02  0.88814406059E+00  0.88000000000E+00 0. -1.
        -11    1    4    4    0    0  0.27072796181E-01  0.37803803435E-02  0.13975977348E-01  0.30705319285E-01  0.51100000000E-03 0.  1.
         11    1    4    4    0    0  0.97093389924E-01  0.25894944532E-01  0.13596138054E-01  0.10140409563E+00  0.51100000000E-03 0. -1.
</event>
<event>
 8    1  0.1131349E+005  0.1043930E+01  0.7957747E-01            NaN
         13   -1    0    0    0    0  0.00000000000E+00  0.00000000000E+00  0.74505805969E-08  0.10566000000E+00  0.10566000000E+00 0.  1.
     999900   -1    0    0    0    0 -0.00000000000E+00 -0.00000000000E+00 -0.74505805969E-08  0.93827000000E+00  0.93827000000E+00 0. -1.
     999902    2    1    2    0    0  0.13523929977E-01 -0.47606103051E-02 -0.20616249848E-01  0.10188184519E+01  0.10185089337E+01 0.  0.
     999903    2    3    3    0    0  0.97755123664E-01  0.70806752982E-01 -0.47188605162E-01  0.13117471113E+00  0.20257835815E-01 0.  0.
         14    1    1    2    0    0 -0.13523929977E-01  0.47606103051E-02  0.20616249848E-01  0.25111548146E-01  0.00000000000E+00 0.  1.
     999901    1    3    3    0    0 -0.84231193687E-01 -0.75567363287E-01  0.26572355313E-01  0.88764374073E+00  0.88000000000E+00 0. -1.
        -11    1    4    4    0    0  0.22290086799E-01  0.15187132769E-01 -0.19940380678E-01  0.33546637296E-01  0.51100000000E-03 0.  1.
         11    1    4    4    0    0  0.75465036864E-01  0.55619620213E-01 -0.27248224484E-01  0.97628073832E-01  0.51100000000E-03 0. -1.
</event>
<event>
 8    1  0.1131349E+005  0.1043930E+01  0.7957747E-01            NaN
         13   -1    0    0    0    0  0.00000000000E+00  0.00000000000E+00  0.74505805969E-08  0.10566000000E+00  0.10566000000E+00 0.  1.
     999900   -1    0    0    0    0 -0.00000000000E+00 -0.00000000000E+00 -0.74505805969E-08  0.93827000000E+00  0.93827000000E+00 0.  1.
     999902    2    1    2    0    0 -0.56734242682E-02  0.16960983081E-01 -0.16611128358E-01  0.10195211435E+01  0.10192289094E+01 0.  0.
     999903    2    3    3    0    0 -0.36826306216E-01  0.38793696832E-01 -0.11975902209E+00  0.13268031369E+00  0.20017855173E-01 0.  0.
         14    1    1    2    0    0  0.56734242682E-02 -0.16960983081E-01  0.16611128358E-01  0.24408856494E-01  0.00000000000E+00 0.  1.
     999901    1    3    3    0    0  0.31152881947E-01 -0.21832713751E-01  0.10314789373E+00  0.88684082981E+00  0.88000000000E+00 0. -1.
        -11    1    4    4    0    0 -0.14825422052E-01  0.36241110826E-02 -0.39121505172E-01  0.41996197543E-01  0.51100000000E-03 0.  1.
         11    1    4    4    0    0 -0.22000884163E-01  0.35169585749E-01 -0.80637516920E-01  0.90684116149E-01  0.51100000000E-03 0. -1.
</event>
<event>
 8    1  0.1131349E+005  0.1043930E+01  0.7957747E-01            NaN
         13   -1    0    0    0    0  0.00000000000E+00  0.00000000000E+00  0.74505805969E-08  0.10566000000E+00  0.10566000000E+00 0.  1.
     999900   -1    0    0    0    0 -0.00000000000E+00 -0.00000000000E+00 -0.74505805969E-08  0.93827000000E+00  0.93827000000E+00 0.  1.
     999902    2    1    2    0    0 -0.11806334174E-01 -0.61972166279E-02 -0.20691936386E-01  0.10193139229E+01  0.10190166447E+01 0.  0.
     999903    2    3    3    0    0  0.74512894597E-01  0.21197317818E-01  0.98260180850E-01  0.12670478337E+00  0.19938436351E-01 0.  0.
         14    1    1    2    0    0  0.11806334174E-01  0.61972166279E-02  0.20691936386E-01  0.24616077103E-01  0.00000000000E+00 0.  1.
     999901    1    3    3    0    0 -0.86319228771E-01 -0.27394534446E-01 -0.11895211724E+00  0.89260913953E+00  0.88000000000E+00 0.  1.
        -11    1    4    4    0    0  0.54185667584E-01  0.86048844572E-02  0.77973032799E-01  0.95342464689E-01  0.51100000000E-03 0.  1.
         11    1    4    4    0    0  0.20327227013E-01  0.12592433361E-01  0.20287148051E-01  0.31362318680E-01  0.51100000000E-03 0. -1.
</event>
<event>
 8    1  0.1131349E+005  0.1043930E+01  0.7957747E-01            NaN
         13   -1    0    0    0    0  0.00000000000E+00  0.00000000000E+00  0.74505805969E-08  0.10566000000E+00  0.10566000000E+00 0.  1.
     999900   -1    0    0    0    0 -0.00000000000E+00 -0.00000000000E+00 -0.74505805969E-08  0.93827000000E+00  0.93827000000E+00 0. -1.
     999902    2    1    2    0    0 -0.16048298468E-01  0.39354931108E-02 -0.18131918535E-01  0.10193983376E+01  0.10191031195E+01 0.  0.
     999903    2    3    3    0    0 -0.53524623806E-01  0.80291519483E-01 -0.88563062511E-01  0.13249627776E+00  0.20005852274E-01 0.  0.
         14    1    1    2    0    0  0.16048298468E-01 -0.39354931108E-02  0.18131918535E-01  0.24531662387E-01  0.00000000000E+00 0.  1.
     999901    1    3    3    0    0  0.37476325339E-01 -0.76356026372E-01  0.70431143976E-01  0.88690205985E+00  0.88000000000E+00 0. -1.
        -11    1    4    4    0    0 -0.41031782148E-01  0.66146365598E-01 -0.60104841728E-01  0.98345319910E-01  0.51100000000E-03 0.  1.
         11    1    4    4    0    0 -0.12492841658E-01  0.14145153885E-01 -0.28458220783E-01  0.34150957852E-01  0.51100000000E-03 0. -1.
</event>
<event>
 8    1  0.1131349E+005  0.1043930E+01  0.7957747E-01            NaN
         13   -1    0    0    0    0  0.00000000000E+00  0.00000000000E+00  0.74505805969E-08  0.10566000000E+00  0.10566000000E+00 0. -1.
     999900   -1    0    0    0    0 -0.00000000000E+00 -0.00000000000E+00 -0.74505805969E-08  0.93827000000E+00  0.93827000000E+00 0.  1.
     999902    2    1    2    0    0 -0.18827804175E-01  0.35808080072E-02  0.13742412039E-01  0.10203469068E+01  0.10200743345E+01 0.  0.
     999903    2    3    3    0    0  0.18360247457E-01  0.43665668941E-01  0.12149540676E+00  0.13208993096E+00  0.21043447111E-01 0.  0.
         14    1    1    2    0    0  0.18827804175E-01 -0.35808080072E-02 -0.13742412039E-01  0.23583093196E-01  0.00000000000E+00 0.  1.
     999901    1    3    3    0    0 -0.37188051631E-01 -0.40084860934E-01 -0.10775299472E+00  0.88825697584E+00  0.88000000000E+00 0.  1.
        -11    1    4    4    0    0  0.46007260562E-02  0.33014701815E-01  0.91830869442E-01  0.97694968753E-01  0.51100000000E-03 0. -1.
         11    1    4    4    0    0  0.13759521400E-01  0.10650967125E-01  0.29664537321E-01  0.34394962209E-01  0.51100000000E-03 0.  1.
</event>
<event>
 8    1  0.1131349E+005  0.1043930E+01  0.7957747E-01            NaN
         13   -1    0    0    0    0  0.00000000000E+00  0.00000000000E+00  0.74505805969E-08  0.10566000000E+00  0.10566000000E+00 0.  1.
     999900   -1    0    0    0    0 -0.00000000000E+00 -0.00000000000E+00 -0.74505805969E-08  0.93827000000E+00  0.93827000000E+00 0.  1.
     999902    2    1    2    0    0  0.23672157789E-02 -0.16777007081E-01 -0.15548077687E-01  0.10209340352E+01  0.10206750168E+01 0.  0.
     999903    2    3    3    0    0  0.66983535189E-01 -0.10291877388E+00  0.45142795116E-01  0.13229515761E+00  0.19623169336E-01 0.  0.
         14    1    1    2    0    0 -0.23672157789E-02  0.16777007081E-01  0.15548077687E-01  0.22995964796E-01  0.00000000000E+00 0.  1.
     999901    1    3    3    0    0 -0.64616319410E-01  0.86141766796E-01 -0.60690872803E-01  0.88863887759E+00  0.88000000000E+00 0. -1.
        -11    1    4    4    0    0  0.22269808094E-01 -0.22961641216E-01  0.54417685481E-02  0.32450813330E-01  0.51100000000E-03 0.  1.
         11    1    4    4    0    0  0.44713727095E-01 -0.79957132662E-01  0.39701026567E-01  0.99844344285E-01  0.51100000000E-03 0. -1.
</event>
<event>
 8    1  0.1131349E+005  0.1043930E+01  0.7957747E-01            NaN
         13   -1    0    0    0    0  0.00000000000E+00  0.00000000000E+00  0.74505805969E-08  0.10566000000E+00  0.10566000000E+00 0. -1.
     999900   -1    0    0    0    0 -0.00000000000E+00 -0.00000000000E+00 -0.74505805969E-08  0.93827000000E+00  0.93827000000E+00 0.  1.
     999902    2    1    2    0    0 -0.22811201963E-02 -0.10457214725E-01  0.20947948797E-01  0.10204061098E+01  0.10201349203E+01 0.  0.
     999903    2    3    3    0    0  0.11599195295E+00  0.66920815187E-02 -0.53063958540E-01  0.12924934439E+00  0.19765935990E-01 0.  0.
         14    1    1    2    0    0  0.22811201963E-02  0.10457214725E-01 -0.20947948797E-01  0.23523890153E-01  0.00000000000E+00 0.  1.
     999901    1    3    3    0    0 -0.11827307314E+00 -0.17149296244E-01  0.74011907336E-01  0.89115676546E+00  0.88000000000E+00 0.  1.
        -11    1    4    4    0    0  0.53405178184E-01 -0.39357638455E-02 -0.16742410392E-01  0.56108579742E-01  0.51100000000E-03 0. -1.
         11    1    4    4    0    0  0.62586774763E-01  0.10627845364E-01 -0.36321548148E-01  0.73140764647E-01  0.51100000000E-03 0.  1.
</event>
<event>
 8    1  0.1131349E+005  0.1043930E+01  0.7957747E-01            NaN
         13   -1    0    0    0    0  0.00000000000E+00  0.00000000000E+00  0.74505805969E-08  0.10566000000E+00  0.10566000000E+00 0. -1.
     999900   -1    0    0    0    0 -0.00000000000E+00 -0.00000000000E+00 -0.74505805969E-08  0.93827000000E+00  0.93827000000E+00 0. -1.
     999902    2    1    2    0    0 -0.83466415853E-02  0.20410166993E-01  0.73849415971E-02  0.10206753509E+01  0.10204104043E+01 0.  0.
     999903    2    3    3    0    0 -0.34844707746E-02 -0.50451369399E-01 -0.11710966414E+00  0.12907908301E+00  0.19729521664E-01 0.  0.
         14    1    1    2    0    0  0.83466415853E-02 -0.20410166993E-01 -0.73849415971E-02  0.23254649102E-01  0.00000000000E+00 0.  1.
     999901    1    3    3    0    0 -0.48621708108E-02  0.70861536392E-01  0.12449460574E+00  0.89159626788E+00  0.88000000000E+00 0.  1.
        -11    1    4    4    0    0 -0.81973953322E-03 -0.27743138906E-01 -0.86659022141E-01  0.90996708559E-01  0.51100000000E-03 0.  1.
         11    1    4    4    0    0 -0.26647312413E-02 -0.22708230493E-01 -0.30450642004E-01  0.38082374456E-01  0.51100000000E-03 0. -1.
</event>
<event>
 8    1  0.1131349E+005  0.1043930E+01  0.7957747E-01            NaN
         13   -1    0    0    0    0  0.00000000000E+00  0.00000000000E+00  0.74505805969E-08  0.10566000000E+00  0.10566000000E+00 0. -1.
     999900   -1    0    0    0    0 -0.00000000000E+00 -0.00000000000E+00 -0.74505805969E-08  0.93827000000E+00  0.93827000000E+00 0.  1.
     999902    2    1    2    0    0 -0.21679980370E-01 -0.49858623052E-02  0.22945671360E-02  0.10215660690E+01  0.10213212462E+01 0.  0.
     999903    2    3    3    0    0 -0.53199665827E-01  0.17736608715E-01  0.11900329148E+00  0.13301065283E+00  0.19628006745E-01 0.  0.
         14    1    1    2    0    0  0.21679980370E-01  0.49858623052E-02 -0.22945671360E-02  0.22363931008E-01  0.00000000000E+00 0. -1.
     999901    1    3    3    0    0  0.31519685457E-01 -0.22722471020E-01 -0.11670872435E+00  0.88855541617E+00  0.88000000000E+00 0.  1.
        -11    1    4    4    0    0 -0.20300734949E-01  0.15883351315E-01  0.42452947306E-01  0.49668043493E-01  0.51100000000E-03 0.  1.
         11    1    4    4    0    0 -0.32898930879E-01  0.18532573993E-02  0.76550344176E-01  0.83342609333E-01  0.51100000000E-03 0. -1.
</event>
<event>
 8    1  0.1131349E+005  0.1043930E+01  0.7957747E-01            NaN
         13   -1    0    0    0    0  0.00000000000E+00  0.00000000000E+00  0.74505805969E-08  0.10566000000E+00  0.10566000000E+00 0. -1.
     999900   -1    0    0    0    0 -0.00000000000E+00 -0.00000000000E+00 -0.74505805969E-08  0.93827000000E+00  0.93827000000E+00 0. -1.
     999902    2    1    2    0    0 -0.84096397894E-02 -0.21590584601E-01  0.35984783258E-02  0.10204816646E+01  0.10202122345E+01 0.  0.
     999903    2    3    3    0    0  0.53619462004E-01  0.26441712840E-01 -0.11305274936E+00  0.12932386717E+00  0.19223100646E-01 0.  0.
         14    1    1    2    0    0  0.84096397894E-02  0.21590584601E-01 -0.35984783258E-02  0.23448335358E-01  0.00000000000E+00 0.  1.
     999901    1    3    3    0    0 -0.62029101794E-01 -0.48032297441E-01  0.11665122769E+00  0.89115779747E+00  0.88000000000E+00 0.  1.
        -11    1    4    4    0    0  0.32688002030E-01  0.54589973044E-02 -0.60957394385E-01  0.69385669842E-01  0.51100000000E-03 0. -1.
         11    1    4    4    0    0  0.20931459974E-01  0.20982715536E-01 -0.52095354980E-01  0.59938197331E-01  0.51100000000E-03 0.  1.
</event>
<event>
 8    1  0.1131349E+005  0.1043930E+01  0.7957747E-01            NaN
         13   -1    0    0    0    0  0.00000000000E+00  0.00000000000E+00  0.74505805969E-08  0.10566000000E+00  0.10566000000E+00 0. -1.
     999900   -1    0    0    0    0 -0.00000000000E+00 -0.00000000000E+00 -0.74505805969E-08  0.93827000000E+00  0.93827000000E+00 0.  1.
     999902    2    1    2    0    0 -0.14439132229E-01  0.45516596945E-02 -0.18449680768E-01  0.10200637714E+01  0.10197845365E+01 0.  0.
     999903    2    3    3    0    0 -0.11257863851E+00 -0.60337736116E-01  0.22430086663E-01  0.13129318699E+00  0.20498778373E-01 0.  0.
         14    1    1    2    0    0  0.14439132229E-01 -0.45516596945E-02  0.18449680768E-01  0.23866228565E-01  0.00000000000E+00 0. -1.
     999901    1    3    3    0    0  0.98139506282E-01  0.64889395811E-01 -0.40879767431E-01  0.88877058444E+00  0.88000000000E+00 0.  1.
        -11    1    4    4    0    0 -0.42691755032E-01 -0.25174052872E-01 -0.11608600613E-02  0.49577490889E-01  0.51100000000E-03 0.  1.
         11    1    4    4    0    0 -0.69886883479E-01 -0.35163683244E-01  0.23590946724E-01  0.81715696105E-01  0.51100000000E-03 0. -1.
</event>
<event>
 8    1  0.1131349E+005  0.1043930E+01  0.7957747E-01            NaN
         13   -1    0    0    0    0  0.00000000000E+00  0.00000000000E+00  0.74505805969E-08  0.10566000000E+00  0.10566000000E+00 0. -1.
     999900   -1    0    0    0    0 -0.00000000000E+00 -0.00000000000E+00 -0.74505805969E-08  0.93827000000E+00  0.93827000000E+00 0. -1.
     999902    2    1    2    0    0  0.76656600044E-03 -0.29916075322E-02 -0.23667063826E-01  0.10200622969E+01  0.10197830271E+01 0.  0.
     999903    2    3    3    0    0 -0.25649588090E-01 -0.11320203825E+00  0.53711456079E-01  0.12942680047E+00  0.19843722757E-01 0.  0.
         14    1    1    2    0    0 -0.76656600044E-03  0.29916075322E-02  0.23667063826E-01  0.23867703057E-01  0.00000000000E+00 0. -1.
     999901    1    3    3    0    0  0.26416154091E-01  0.11021043072E+00 -0.77378519906E-01  0.89063549647E+00  0.88000000000E+00 0. -1.
        -11    1    4    4    0    0 -0.92454689523E-02 -0.76677335890E-01  0.29773297448E-01  0.82774409676E-01  0.51100000000E-03 0. -1.
         11    1    4    4    0    0 -0.16404119138E-01 -0.36524702358E-01  0.23938158632E-01  0.46652390793E-01  0.51100000000E-03 0.  1.
</event>
<event>
 8    1  0.1131349E+005  0.1043930E+01  0.7957747E-01            NaN
         13   -1    0    0    0    0  0.00000000000E+00  0.00000000000E+00  0.74505805969E-08  0.10566000000E+00  0.10566000000E+00 0. -1.
     999900   -1    0    0    0    0 -0.00000000000E+00 -0.00000000000E+00 -0.74505805969E-08  0.93827000000E+00  0.93827000000E+00 0. -1.
     999902    2    1    2    0    0  0.10325406162E-01 -0.22806957577E-01 -0.44701097094E-02  0.10184986570E+01  0.10181811043E+01 0.  0.
     999903    2    3    3    0    0 -0.88913949573E-01 -0.92132570780E-01 -0.14259385625E-01  0.13015732603E+00  0.18533710200E-01 0.  0.
         14    1    1    2    0    0 -0.10325406162E-01  0.22806957577E-01  0.44701097094E-02  0.25431343007E-01  0.00000000000E+00 0. -1.
     999901    1    3    3    0    0  0.99239355735E-01  0.69325613203E-01  0.97892759156E-02  0.88834133096E+00  0.88000000000E+00 0.  1.
        -11    1    4    4    0    0 -0.61377174964E-01 -0.69962208120E-01 -0.32522089090E-02  0.93127365233E-01  0.51100000000E-03 0.  1.
         11    1    4    4    0    0 -0.27536774610E-01 -0.22170362660E-01 -0.11007176716E-01  0.37029960797E-01  0.51100000000E-03 0. -1.
</event>
<event>
 8    1  0.1131349E+005  0.1043930E+01  0.7957747E-01            NaN
         13   -1    0    0    0    0  0.00000000000E+00  0.00000000000E+00  0.74505805969E-08  0.10566000000E+00  0.10566000000E+00 0.  1.
     999900   -1    0    0    0    0 -0.00000000000E+00 -0.00000000000E+00 -0.74505805969E-08  0.93827000000E+00  0.93827000000E+00 0. -1.
     999902    2    1    2    0    0  0.22770694764E-01  0.50772004668E-02  0.54338086464E-02  0.10199756939E+01  0.10196943696E+01 0.  0.
     999903    2    3    3    0    0  0.34374805385E-01 -0.11840512208E-01  0.12527675527E+00  0.13161585901E+00  0.17511252250E-01 0.  0.
         14    1    1    2    0    0 -0.22770694764E-01 -0.50772004668E-02 -0.54338086464E-02  0.23954306106E-01  0.00000000000E+00 0.  1.
     999901    1    3    3    0    0 -0.11604110621E-01  0.16917712675E-01 -0.11984294663E+00  0.88835983489E+00  0.88000000000E+00 0. -1.
        -11    1    4    4    0    0  0.24969363709E-01 -0.22922695955E-02  0.98829519431E-01  0.10196204517E+00  0.51100000000E-03 0.  1.
         11    1    4    4    0    0  0.94054416760E-02 -0.95482426124E-02  0.26447235842E-01  0.29653813832E-01  0.51100000000E-03 0. -1.
</event>
<event>
 8    1  0.1131349E+005  0.1043930E+01  0.7957747E-01            NaN
         13   -1    0    0    0    0  0.00000000000E+00  0.00000000000E+00  0.74505805969E-08  0.10566000000E+00  0.10566000000E+00 0.  1.
     999900   -1    0    0    0    0 -0.00000000000E+00 -0.00000000000E+00 -0.74505805969E-08  0.93827000000E+00  0.93827000000E+00 0.  1.
     999902    2    1    2    0    0 -0.48872455583E-02  0.95585200451E-02  0.20317170211E-01  0.10209509252E+01  0.10206922914E+01 0.  0.
     999903    2    3    3    0    0 -0.85856490101E-01  0.57364528621E-01 -0.77234518025E-01  0.13058147101E+00  0.20599120407E-01 0.  0.
         14    1    1    2    0    0  0.48872455583E-02 -0.95585200451E-02 -0.20317170211E-01  0.22979074828E-01  0.00000000000E+00 0. -1.
     999901    1    3    3    0    0  0.80969244543E-01 -0.47806008576E-01  0.97551688235E-01  0.89036945416E+00  0.88000000000E+00 0. -1.
        -11    1    4    4    0    0 -0.69697283590E-02  0.87439415336E-02 -0.23475977401E-02  0.11437043459E-01  0.51100000000E-03 0. -1.
         11    1    4    4    0    0 -0.78886761742E-01  0.48620587088E-01 -0.74886920284E-01  0.11914442756E+00  0.51100000000E-03 0.  1.
</event>
<event>
 8    1  0.1131349E+005  0.1043930E+01  0.7957747E-01            NaN
         13   -1    0    0    0    0  0.00000000000E+00  0.00000000000E+00  0.74505805969E-08  0.10566000000E+00  0.10566000000E+00 0. -1.
     999900   -1    0    0    0    0 -0.00000000000E+00 -0.00000000000E+00 -0.74505805969E-08  0.93827000000E+00  0.93827000000E+00 0.  1.
     999902    2    1    2    0    0 -0.17647879842E-01 -0.15846426773E-01 -0.17184648289E-02  0.10201495453E+01  0.10198723375E+01 0.  0.
     999903    2    3    3    0    0 -0.66474974315E-01  0.83869412624E-01  0.71251659809E-01  0.13017652724E+00  0.20399231241E-01 0.  0.
         14    1    1    2    0    0  0.17647879842E-01  0.15846426773E-01  0.17184648289E-02  0.23780454700E-01  0.00000000000E+00 0.  1.
     999901    1    3    3    0    0  0.48827094473E-01 -0.99715839396E-01 -0.72970124638E-01  0.88997301806E+00  0.88000000000E+00 0. -1.
        -11    1    4    4    0    0 -0.18312846584E-01  0.38724379850E-01  0.30662919041E-01  0.52682194999E-01  0.51100000000E-03 0.  1.
         11    1    4    4    0    0 -0.48162127730E-01  0.45145032774E-01  0.40588740767E-01  0.77494332243E-01  0.51100000000E-03 0. -1.
</event>
<event>
 8    1  0.1131349E+005  0.1043930E+01  0.7957747E-01            NaN
         13   -1    0    0    0    0  0.00000000000E+00  0.00000000000E+00  0.74505805969E-08  0.10566000000E+00  0.10566000000E+00 0.  1.
     999900   -1    0    0    0    0 -0.00000000000E+00 -0.00000000000E+00 -0.74505805969E-08  0.93827000000E+00  0.93827000000E+00 0. -1.
     999902    2    1    2    0    0 -0.21252304147E-02  0.11787661043E-01  0.19497425867E-01  0.10210473609E+01  0.10207909179E+01 0.  0.
     999903    2    3    3    0    0  0.60471706900E-01  0.58703405629E-01  0.10195598976E+00  0.13373744975E+00  0.19691735541E-01 0.  0.
         14    1    1    2    0    0  0.21252304147E-02 -0.11787661043E-01 -0.19497425867E-01  0.22882639110E-01  0.00000000000E+00 0. -1.
     999901    1    3    3    0    0 -0.62596937314E-01 -0.46915744586E-01 -0.82458563897E-01  0.88730991114E+00  0.88000000000E+00 0. -1.
        -11    1    4    4    0    0  0.26970773512E-01  0.34060279670E-01  0.64480194631E-01  0.77752697032E-01  0.51100000000E-03 0. -1.
         11    1    4    4    0    0  0.33500933388E-01  0.24643125959E-01  0.37475795132E-01  0.55984752716E-01  0.51100000000E-03 0.  1.
</event>
<event>
 8    1  0.1131349E+005  0.1043930E+01  0.7957747E-01            NaN
         13   -1    0    0    0    0  0.00000000000E+00  0.00000000000E+00  0.74505805969E-08  0.10566000000E+00  0.10566000000E+00 0.  1.
     999900   -1    0    0    0    0 -0.00000000000E+00 -0.00000000000E+00 -0.74505805969E-08  0.93827000000E+00  0.93827000000E+00 0. -1.
     999902    2    1    2    0    0 -0.51139599004E-02  0.63208821014E-02 -0.23110358492E-01  0.10194311264E+01  0.10191367066E+01 0.  0.
     999903    2    3    3    0    0  0.10384805936E+00 -0.59410508995E-01 -0.44999171532E-01  0.13000858481E+00  0.23733492636E-01 0.  0.
         14    1    1    2    0    0  0.51139599004E-02 -0.63208821014E-02  0.23110358492E-01  0.24498873567E-01  0.00000000000E+00 0.  1.
     999901    1    3    3    0    0 -0.10896201926E+00  0.65731391097E-01  0.21888813039E-01  0.88942254163E+00  0.88000000000E+00 0.  1.
        -11    1    4    4    0    0  0.60162199301E-01 -0.24497780501E-01 -0.15517046528E-01  0.66788257412E-01  0.51100000000E-03 0. -1.
         11    1    4    4    0    0  0.43685860060E-01 -0.34912728494E-01 -0.29482125003E-01  0.63220327394E-01  0.51100000000E-03 0.  1.
</event>
<event>
 8    1  0.1131349E+005  0.1043930E+01  0.7957747E-01            NaN
         13   -1    0    0    0    0  0.00000000000E+00  0.00000000000E+00  0.74505805969E-08  0.10566000000E+00  0.10566000000E+00 0.  1.
     999900   -1    0    0    0    0 -0.00000000000E+00 -0.00000000000E+00 -0.74505805969E-08  0.93827000000E+00  0.93827000000E+00 0.  1.
     999902    2    1    2    0    0 -0.84128427955E-02 -0.20550310282E-01 -0.82765463109E-02  0.10202320593E+01  0.10199567944E+01 0.  0.
     999903    2    3    3    0    0  0.83293528125E-01  0.87201301295E-01 -0.36886294634E-01  0.12847032765E+00  0.24538695543E-01 0.  0.
         14    1    1    2    0    0  0.84128427955E-02  0.20550310282E-01  0.82765463109E-02  0.23697940742E-01  0.00000000000E+00 0.  1.
     999901    1    3    3    0    0 -0.91706370921E-01 -0.10775161158E+00  0.28609748323E-01  0.89176173161E+00  0.88000000000E+00 0. -1.
        -11    1    4    4    0    0  0.55676248712E-01  0.65260146326E-01 -0.36408867694E-01  0.93191191305E-01  0.51100000000E-03 0.  1.
         11    1    4    4    0    0  0.27617279414E-01  0.21941154969E-01 -0.47742693957E-03  0.35279136343E-01  0.51100000000E-03 0. -1.
</event>
<event>
 8    1  0.1131349E+005  0.1043930E+01  0.7957747E-01            NaN
         13   -1    0    0    0    0  0.00000000000E+00  0.00000000000E+00  0.74505805969E-08  0.10566000000E+00  0.10566000000E+00 0. -1.
     999900   -1    0    0    0    0 -0.00000000000E+00 -0.00000000000E+00 -0.74505805969E-08  0.93827000000E+00  0.93827000000E+00 0.  1.
     999902    2    1    2    0    0  0.18505725028E-02 -0.20960646564E-01  0.11447081083E-01  0.10199756896E+01  0.10196943652E+01 0.  0.
     999903    2    3    3    0    0  0.69998239946E-01 -0.87286784870E-01 -0.65896996958E-01  0.13147956262E+00  0.20633098873E-01 0.  0.
         14    1    1    2    0    0 -0.18505725028E-02  0.20960646564E-01 -0.11447081083E-01  0.23954310432E-01  0.00000000000E+00 0.  1.
     999901    1    3    3    0    0 -0.68147667443E-01  0.66326138307E-01  0.77344078041E-01  0.88849612695E+00  0.88000000000E+00 0. -1.
        -11    1    4    4    0    0  0.52951709302E-01 -0.53359577607E-01 -0.50169460006E-01  0.90379001314E-01  0.51100000000E-03 0.  1.
         11    1    4    4    0    0  0.17046530644E-01 -0.33927207264E-01 -0.15727536953E-01  0.41100561302E-01  0.51100000000E-03 0. -1.
</event>
<event>
 8    1  0.1131349E+005  0.1043930E+01  0.7957747E-01            NaN
         13   -1    0    0    0    0  0.00000000000E+00  0.00000000000E+00  0.74505805969E-08  0.10566000000E+00  0.10566000000E+00 0.  1.
     999900   -1    0    0    0    0 -0.00000000000E+00 -0.00000000000E+00 -0.74505805969E-08  0.93827000000E+00  0.93827000000E+00 0. -1.
     999902    2    1    2    0    0 -0.18107730099E-02  0.17501271027E-01  0.14702665328E-01  0.10210009408E+01  0.10207434445E+01 0.  0.
     999903    2    3    3    0    0 -0.43694780714E-01 -0.11716627685E+00 -0.24145729843E-01  0.12892537433E+00  0.20039101332E-01 0.  0.
         14    1    1    2    0    0  0.18107730099E-02 -0.17501271027E-01 -0.14702665328E-01  0.22929059165E-01  0.00000000000E+00 0. -1.
     999901    1    3    3    0    0  0.41884007704E-01  0.13466754788E+00  0.38848395171E-01  0.89207556651E+00  0.88000000000E+00 0.  1.
        -11    1    4    4    0    0 -0.38381854103E-01 -0.78381081025E-01 -0.13156777585E-01  0.88261670641E-01  0.51100000000E-03 0.  1.
         11    1    4    4    0    0 -0.53129266106E-02 -0.38785195829E-01 -0.10988952257E-01  0.40663703685E-01  0.51100000000E-03 0. -1.
</event>
<event>
 8    1  0.1131349E+005  0.1043930E+01  0.7957747E-01            NaN
         13   -1    0    0    0    0  0.00000000000E+00  0.00000000000E+00  0.74505805969E-08  0.10566000000E+00  0.10566000000E+00 0. -1.
     999900   -1    0    0    0    0 -0.00000000000E+00 -0.00000000000E+00 -0.74505805969E-08  0.93827000000E+00  0.93827000000E+00 0. -1.
     999902    2    1    2    0    0  0.65460065695E-02 -0.20231955622E-01  0.12344341547E-01  0.10193420965E+01  0.10190455067E+01 0.  0.
     999903    2    3    3    0    0  0.48485095365E-01 -0.16461356860E-01  0.11984503861E+00  0.13180082734E+00  0.19668351892E-01 0.  0.
         14    1    1    2    0    0 -0.65460065695E-02  0.20231955622E-01 -0.12344341547E-01  0.24587903500E-01  0.00000000000E+00 0.  1.
     999901    1    3    3    0    0 -0.41939088795E-01 -0.37705987616E-02 -0.10750069707E+00  0.88754126916E+00  0.88000000000E+00 0. -1.
        -11    1    4    4    0    0  0.27824531676E-01 -0.87972787657E-04  0.51352702884E-01  0.58408676724E-01  0.51100000000E-03 0. -1.
         11    1    4    4    0    0  0.20660563689E-01 -0.16373384073E-01  0.68492335730E-01  0.73392150621E-01  0.51100000000E-03 0.  1.
</event>
<event>
 8    1  0.1131349E+005  0.1043930E+01  0.7957747E-01            NaN
         13   -1    0    0    0    0  0.00000000000E+00  0.00000000000E+00  0.74505805969E-08  0.10566000000E+00  0.10566000000E+00 0.  1.
     999900   -1    0    0    0    0 -0.00000000000E+00 -0.00000000000E+00 -0.74505805969E-08  0.93827000000E+00  0.93827000000E+00 0. -1.
     999902    2    1    2    0    0  0.22957294595E-01  0.94756172430E-03  0.86610303995E-02  0.10193749863E+01  0.10190791991E+01 0.  0.
     999903    2    3    3    0    0 -0.22516963966E-01  0.57609092624E-01  0.11288755877E+00  0.13025091935E+00  0.19896729575E-01 0.  0.
         14    1    1    2    0    0 -0.22957294595E-01 -0.94756172430E-03 -0.86610303995E-02  0.24555013661E-01  0.00000000000E+00 0.  1.
     999901    1    3    3    0    0  0.45474258561E-01 -0.56661530900E-01 -0.10422652837E+00  0.88912406699E+00  0.88000000000E+00 0. -1.
        -11    1    4    4    0    0 -0.17958312986E-01  0.29617442741E-01  0.45892338461E-01  0.57498363196E-01  0.51100000000E-03 0. -1.
         11    1    4    4    0    0 -0.45586509797E-02  0.27991649883E-01  0.66995220311E-01  0.72752556158E-01  0.51100000000E-03 0.  1.
</event>
<event>
 8    1  0.1131349E+005  0.1043930E+01  0.7957747E-01            NaN
         13   -1    0    0    0    0  0.00000000000E+00  0.00000000000E+00  0.74505805969E-08  0.10566000000E+00  0.10566000000E+00 0. -1.
     999900   -1    0    0    0    0 -0.00000000000E+00 -0.00000000000E+00 -0.74505805969E-08  0.93827000000E+00  0.93827000000E+00 0.  1.
     999902    2    1    2    0    0  0.44437313867E-02 -0.22382644285E-01  0.49221720489E-02  0.10205856797E+01  0.10203186621E+01 0.  0.
     999903    2    3    3    0    0  0.43225449609E-01  0.10834907984E+00  0.50959589582E-01  0.12889388921E+00  0.20218612960E-01 0.  0.
         14    1    1    2    0    0 -0.44437313867E-02  0.22382644285E-01 -0.49221720489E-02  0.23344320326E-01  0.00000000000E+00 0. -1.
     999901    1    3    3    0    0 -0.38781718222E-01 -0.13073172413E+00 -0.46037417533E-01  0.89169179046E+00  0.88000000000E+00 0. -1.
        -11    1    4    4    0    0  0.61491842332E-02  0.31736838398E-01  0.69271861619E-02  0.33064881784E-01  0.51100000000E-03 0. -1.
         11    1    4    4    0    0  0.37076265376E-01  0.76612241443E-01  0.44032403420E-01  0.95829007430E-01  0.51100000000E-03 0.  1.
</event>
<event>
 8    1  0.1131349E+005  0.1043930E+01  0.7957747E-01            NaN
         13   -1    0    0    0    0  0.00000000000E+00  0.00000000000E+00  0.74505805969E-08  0.10566000000E+00  0.10566000000E+00 0.  1.
     999900   -1    0    0    0    0 -0.00000000000E+00 -0.00000000000E+00 -0.74505805969E-08  0.93827000000E+00  0.93827000000E+00 0.  1.
     999902    2    1    2    0    0 -0.13373252334E-01 -0.14041876000E-01 -0.11727768282E-01  0.10212681663E+01  0.10210167034E+01 0.  0.
     999903    2    3    3    0    0  0.12338513637E+00  0.33235594736E-01 -0.49677179255E-02  0.12942529086E+00  0.19943195783E-01 0.  0.
         14    1    1    2    0    0  0.13373252334E-01  0.14041876000E-01  0.11727768282E-01  0.22661833740E-01  0.00000000000E+00 0. -1.
     999901    1    3    3    0    0 -0.13675838871E+00 -0.47277470736E-01 -0.67600503567E-02  0.89184287540E+00  0.88000000000E+00 0.  1.
        -11    1    4    4    0    0  0.88553041494E-01  0.18307063852E-01  0.38657860324E-02  0.90509641295E-01  0.51100000000E-03 0. -1.
         11    1    4    4    0    0  0.34832094877E-01  0.14928530885E-01 -0.88335039578E-02  0.38915649565E-01  0.51100000000E-03 0.  1.
</event>
<event>
 8    1  0.1131349E+005  0.1043930E+01  0.7957747E-01            NaN
         13   -1    0    0    0    0  0.00000000000E+00  0.00000000000E+00  0.74505805969E-08  0.10566000000E+00  0.10566000000E+00 0.  1.
     999900   -1    0    0    0    0 -0.00000000000E+00 -0.00000000000E+00 -0.74505805969E-08  0.93827000000E+00  0.93827000000E+00 0.  1.
     999902    2    1    2    0    0 -0.43888993192E-02  0.20470343129E-01  0.10894593012E-01  0.10203293741E+01  0.10200563917E+01 0.  0.
     999903    2    3    3    0    0 -0.87311914933E-01  0.44342800739E-01 -0.84946014866E-01  0.13092983349E+00  0.18361410346E-01 0.  0.
         14    1    1    2    0    0  0.43888993192E-02 -0.20470343129E-01 -0.10894593012E-01  0.23600625880E-01  0.00000000000E+00 0.  1.
     999901    1    3    3    0    0  0.82923015614E-01 -0.23872457610E-01  0.95840607878E-01  0.88939954063E+00  0.88000000000E+00 0. -1.
        -11    1    4    4    0    0 -0.58403650404E-01  0.27839259098E-01 -0.66870015857E-01  0.93047680623E-01  0.51100000000E-03 0.  1.
         11    1    4    4    0    0 -0.28908264530E-01  0.16503541640E-01 -0.18075999009E-01  0.37882152868E-01  0.51100000000E-03 0. -1.
</event>
<event>
 8    1  0.1131349E+005  0.1043930E+01  0.7957747E-01            NaN
         13   -1    0    0    0    0  0.00000000000E+00  0.00000000000E+00  0.74505805969E-08  0.10566000000E+00  0.10566000000E+00 0. -1.
     999900   -1    0    0    0    0 -0.00000000000E+00 -0.00000000000E+00 -0.74505805969E-08  0.93827000000E+00  0.93827000000E+00 0. -1.
     999902    2    1    2    0    0  0.17785265262E-01  0.56222134295E-03  0.16172420999E-01  0.10198846480E+01  0.10196011555E+01 0.  0.
     999903    2    3    3    0    0 -0.11117779692E-02  0.10226360343E+00  0.80190603493E-01  0.13151614501E+00  0.20171337916E-01 0.  0.
         14    1    1    2    0    0 -0.17785265262E-01 -0.56222134295E-03 -0.16172420999E-01  0.24045352030E-01  0.00000000000E+00 0.  1.
     999901    1    3    3    0    0  0.18897043231E-01 -0.10170138209E+00 -0.64018182494E-01  0.88836850296E+00  0.88000000000E+00 0.  1.
        -11    1    4    4    0    0 -0.54199141224E-02  0.35344977757E-01  0.38535383300E-01  0.52572614628E-01  0.51100000000E-03 0.  1.
         11    1    4    4    0    0  0.43081361531E-02  0.66918625671E-01  0.41655220193E-01  0.78943530382E-01  0.51100000000E-03 0. -1.
</event>
<event>
 8    1  0.1131349E+005  0.1043930E+01  0.7957747E-01            NaN
         13   -1    0    0    0    0  0.00000000000E+00  0.00000000000E+00  0.74505805969E-08  0.10566000000E+00  0.10566000000E+00 0. -1.
     999900   -1    0    0    0    0 -0.00000000000E+00 -0.00000000000E+00 -0.74505805969E-08  0.93827000000E+00  0.93827000000E+00 0. -1.
     999902    2    1    2    0    0 -0.14565986939E-01 -0.23740264805E-02  0.18319446432E-01  0.10204054151E+01  0.10201342093E+01 0.  0.
     999903    2    3    3    0    0  0.61460149794E-01 -0.10389115085E+00  0.46464481812E-01  0.13086742096E+00  0.19915133958E-01 0.  0.
         14    1    1    2    0    0  0.14565986939E-01  0.23740264805E-02 -0.18319446432E-01  0.23524584902E-01  0.00000000000E+00 0.  1.
     999901    1    3    3    0    0 -0.76026136733E-01  0.10151712437E+00 -0.28145035381E-01  0.88953799414E+00  0.88000000000E+00 0. -1.
        -11    1    4    4    0    0  0.23103465451E-01 -0.45928031553E-01  0.29667334410E-01  0.59359633170E-01  0.51100000000E-03 0. -1.
         11    1    4    4    0    0  0.38356684344E-01 -0.57963119294E-01  0.16797147403E-01  0.71507787785E-01  0.51100000000E-03 0.  1.
</event>
<event>
 8    1  0.1131349E+005  0.1043930E+01  0.7957747E-01            NaN
         13   -1    0    0    0    0  0.00000000000E+00  0.00000000000E+00  0.74505805969E-08  0.10566000000E+00  0.10566000000E+00 0.  1.
     999900   -1    0    0    0    0 -0.00000000000E+00 -0.00000000000E+00 -0.74505805969E-08  0.93827000000E+00  0.93827000000E+00 0. -1.
     999902    2    1    2    0    0 -0.20885201031E-01  0.21915502620E-02  0.11135471852E-01  0.10201604134E+01  0.10198834619E+01 0.  0.
     999903    2    3    3    0    0  0.91156237770E-01  0.85180044983E-02  0.89474451349E-01  0.12958177916E+00  0.20093381001E-01 0.  0.
         14    1    1    2    0    0  0.20885201031E-01 -0.21915502620E-02 -0.11135471852E-01  0.23769586618E-01  0.00000000000E+00 0. -1.
     999901    1    3    3    0    0 -0.11204143880E+00 -0.63264542362E-02 -0.78338979497E-01  0.89057863423E+00  0.88000000000E+00 0. -1.
        -11    1    4    4    0    0  0.80088174382E-01  0.23876911546E-02  0.70243107480E-01  0.10655595720E+00  0.51100000000E-03 0.  1.
         11    1    4    4    0    0  0.11068063388E-01  0.61303133436E-02  0.19231343869E-01  0.23025821958E-01  0.51100000000E-03 0. -1.
</event>
<event>
 8    1  0.1131349E+005  0.1043930E+01  0.7957747E-01            NaN
         13   -1    0    0    0    0  0.00000000000E+00  0.00000000000E+00  0.74505805969E-08  0.10566000000E+00  0.10566000000E+00 0.  1.
     999900   -1    0    0    0    0 -0.00000000000E+00 -0.00000000000E+00 -0.74505805969E-08  0.93827000000E+00  0.93827000000E+00 0. -1.
     999902    2    1    2    0    0  0.17608083307E-01  0.40496544844E-02  0.15298630311E-01  0.10202552795E+01  0.10199805601E+01 0.  0.
     999903    2    3    3    0    0 -0.16579322626E-02 -0.83949618169E-01 -0.95322443243E-01  0.12876659579E+00  0.21075599075E-01 0.  0.
         14    1    1    2    0    0 -0.17608083307E-01 -0.40496544844E-02 -0.15298630311E-01  0.23674720454E-01  0.00000000000E+00 0. -1.
     999901    1    3    3    0    0  0.19266015570E-01  0.87999272654E-01  0.11062107355E+00  0.89148868375E+00  0.88000000000E+00 0.  1.
        -11    1    4    4    0    0  0.49913971586E-02 -0.42302095867E-01 -0.34849249971E-01  0.55037375526E-01  0.51100000000E-03 0.  1.
         11    1    4    4    0    0 -0.66493294212E-02 -0.41647522302E-01 -0.60473193272E-01  0.73729220267E-01  0.51100000000E-03 0. -1.
</event>
<event>
 8    1  0.1131349E+005  0.1043930E+01  0.7957747E-01            NaN
         13   -1    0    0    0    0  0.00000000000E+00  0.00000000000E+00  0.74505805969E-08  0.10566000000E+00  0.10566000000E+00 0.  1.
     999900   -1    0    0    0    0 -0.00000000000E+00 -0.00000000000E+00 -0.74505805969E-08  0.93827000000E+00  0.93827000000E+00 0. -1.
     999902    2    1    2    0    0 -0.39514895954E-02  0.18044878112E-01 -0.13850887354E-01  0.10208414969E+01  0.10205803657E+01 0.  0.
     999903    2    3    3    0    0 -0.78030505568E-01 -0.23097788972E-01 -0.10233757394E+00  0.13235384172E+00  0.20549762114E-01 0.  0.
         14    1    1    2    0    0  0.39514895954E-02 -0.18044878112E-01  0.13850887354E-01  0.23088503126E-01  0.00000000000E+00 0.  1.
     999901    1    3    3    0    0  0.74079015972E-01  0.41142667083E-01  0.88486686587E-01  0.88848765516E+00  0.88000000000E+00 0.  1.
        -11    1    4    4    0    0 -0.25401997149E-01 -0.27242090595E-02 -0.45937768620E-01  0.52566362637E-01  0.51100000000E-03 0.  1.
         11    1    4    4    0    0 -0.52628508419E-01 -0.20373579912E-01 -0.56399805321E-01  0.79787479081E-01  0.51100000000E-03 0. -1.
</event>
<event>
 8    1  0.1131349E+005  0.1043930E+01  0.7957747E-01            NaN
         13   -1    0    0    0    0  0.00000000000E+00  0.00000000000E+00  0.74505805969E-08  0.10566000000E+00  0.10566000000E+00 0.  1.
     999900   -1    0    0    0    0 -0.00000000000E+00 -0.00000000000E+00 -0.74505805969E-08  0.93827000000E+00  0.93827000000E+00 0. -1.
     999902    2    1    2    0    0  0.23879272563E-02 -0.22271424487E-01 -0.30732582412E-02  0.10213210756E+01  0.10210707987E+01 0.  0.
     999903    2    3    3    0    0 -0.38914733154E-01  0.89014820560E-01  0.82863994833E-01  0.12920238982E+00  0.19718548619E-01 0.  0.
         14    1    1    2    0    0 -0.23879272563E-02  0.22271424487E-01  0.30732582412E-02  0.22608924377E-01  0.00000000000E+00 0. -1.
     999901    1    3    3    0    0  0.41302660410E-01 -0.11128624505E+00 -0.85937253074E-01  0.89211868580E+00  0.88000000000E+00 0. -1.
        -11    1    4    4    0    0 -0.13629439115E-01  0.35604763952E-01  0.20510776573E-01  0.43294501998E-01  0.51100000000E-03 0.  1.
         11    1    4    4    0    0 -0.25285294039E-01  0.53410056608E-01  0.62353218260E-01  0.85907887821E-01  0.51100000000E-03 0. -1.
</event>
<event>
 8    1  0.1131349E+005  0.1043930E+01  0.7957747E-01            NaN
         13   -1    0    0    0    0  0.00000000000E+00  0.00000000000E+00  0.74505805969E-08  0.10566000000E+00  0.10566000000E+00 0. -1.
     999900   -1    0    0    0    0 -0.00000000000E+00 -0.00000000000E+00 -0.74505805969E-08  0.93827000000E+00  0.93827000000E+00 0.  1.
     999902    2    1    2    0    0  0.24766110394E-01 -0.28488990971E-02  0.21400548416E-04  0.10190005614E+01  0.10186955714E+01 0.  0.
     999903    2    3    3    0    0 -0.83630920638E-01 -0.72234061548E-01  0.60571937708E-01  0.12758001832E+00  0.19894996912E-01 0.  0.
         14    1    1    2    0    0 -0.24766110394E-01  0.28488990971E-02 -0.21400548416E-04  0.24929438584E-01  0.00000000000E+00 0. -1.
     999901    1    3    3    0    0  0.10839703103E+00  0.69385162451E-01 -0.60550537160E-01  0.89142054310E+00  0.88000000000E+00 0.  1.
        -11    1    4    4    0    0 -0.37781416910E-01 -0.28489731872E-01  0.15430358923E-01  0.49774063360E-01  0.51100000000E-03 0. -1.
         11    1    4    4    0    0 -0.45849503727E-01 -0.43744329677E-01  0.45141578785E-01  0.77805954959E-01  0.51100000000E-03 0.  1.
</event>
<event>
 8    1  0.1131349E+005  0.1043930E+01  0.7957747E-01            NaN
         13   -1    0    0    0    0  0.00000000000E+00  0.00000000000E+00  0.74505805969E-08  0.10566000000E+00  0.10566000000E+00 0. -1.
     999900   -1    0    0    0    0 -0.00000000000E+00 -0.00000000000E+00 -0.74505805969E-08  0.93827000000E+00  0.93827000000E+00 0.  1.
     999902    2    1    2    0    0 -0.40398828838E-02 -0.11791280601E-01 -0.21673224071E-01  0.10189283282E+01  0.10186215462E+01 0.  0.
     999903    2    3    3    0    0  0.11567690371E-01  0.12317780541E-01 -0.12937223092E+00  0.13189737086E+00  0.19344330700E-01 0.  0.
         14    1    1    2    0    0  0.40398828838E-02  0.11791280601E-01  0.21673224071E-01  0.25001671815E-01  0.00000000000E+00 0. -1.
     999901    1    3    3    0    0 -0.15607573255E-01 -0.24109061142E-01  0.10769900685E+00  0.88703095732E+00  0.88000000000E+00 0. -1.
        -11    1    4    4    0    0  0.15840643720E-02  0.13772369486E-01 -0.96959631487E-01  0.97947019762E-01  0.51100000000E-03 0.  1.
         11    1    4    4    0    0  0.99836259987E-02 -0.14545889444E-02 -0.32412599429E-01  0.33950351100E-01  0.51100000000E-03 0. -1.
</event>
<event>
 8    1  0.1131349E+005  0.1043930E+01  0.7957747E-01            NaN
         13   -1    0    0    0    0  0.00000000000E+00  0.00000000000E+00  0.74505805969E-08  0.10566000000E+00  0.10566000000E+00 0.  1.
     999900   -1    0    0    0    0 -0.00000000000E+00 -0.00000000000E+00 -0.74505805969E-08  0.93827000000E+00  0.93827000000E+00 0.  1.
     999902    2    1    2    0    0 -0.18881234385E-02  0.22325701195E-01 -0.85684036570E-02  0.10199420971E+01  0.10196599737E+01 0.  0.
     999903    2    3    3    0    0 -0.10612478662E+00 -0.46496315842E-02 -0.74059918636E-01  0.13096398204E+00  0.19560256543E-01 0.  0.
         14    1    1    2    0    0  0.18881234385E-02 -0.22325701195E-01  0.85684036570E-02  0.23987902893E-01  0.00000000000E+00 0.  1.
     999901    1    3    3    0    0  0.10423666318E+00  0.26975332779E-01  0.65491514979E-01  0.88897811506E+00  0.88000000000E+00 0. -1.
        -11    1    4    4    0    0 -0.10142295347E-01  0.27599318929E-02 -0.13932460823E-01  0.17460182260E-01  0.51100000000E-03 0.  1.
         11    1    4    4    0    0 -0.95982491269E-01 -0.74095634771E-02 -0.60127457813E-01  0.11350379978E+00  0.51100000000E-03 0. -1.
</event>
<event>
 8    1  0.1131349E+005  0.1043930E+01  0.7957747E-01            NaN
         13   -1    0    0    0    0  0.00000000000E+00  0.00000000000E+00  0.74505805969E-08  0.10566000000E+00  0.10566000000E+00 0. -1.
     999900   -1    0    0    0    0 -0.00000000000E+00 -0.00000000000E+00 -0.74505805969E-08  0.93827000000E+00  0.93827000000E+00 0. -1.
     999902    2    1    2    0    0 -0.23174057634E-01  0.31178705178E-02  0.64473440821E-03  0.10205382547E+01  0.10202701386E+01 0.  0.
     999903    2    3    3    0    0 -0.29661108445E-01  0.11017592903E+00 -0.62523580456E-01  0.13177858772E+00  0.20925615324E-01 0.  0.
         14    1    1    2    0    0  0.23174057634E-01 -0.31178705178E-02 -0.64473440821E-03  0.23391745259E-01  0.00000000000E+00 0.  1.
     999901    1    3    3    0    0  0.64870508110E-02 -0.10705805851E+00  0.63168314864E-01  0.88875966702E+00  0.88000000000E+00 0.  1.
        -11    1    4    4    0    0 -0.10960117846E-01  0.16247897199E-01 -0.57012510439E-02  0.20417730801E-01  0.51100000000E-03 0. -1.
         11    1    4    4    0    0 -0.18700990599E-01  0.93928031831E-01 -0.56822329412E-01  0.11136085692E+00  0.51100000000E-03 0.  1.
</event>
<event>
 8    1  0.1131349E+005  0.1043930E+01  0.7957747E-01            NaN
         13   -1    0    0    0    0  0.00000000000E+00  0.00000000000E+00  0.74505805969E-08  0.10566000000E+00  0.10566000000E+00 0. -1.
     999900   -1    0    0    0    0 -0.00000000000E+00 -0.00000000000E+00 -0.74505805969E-08  0.93827000000E+00  0.93827000000E+00 0.  1.
     999902    2    1    2    0    0 -0.33047630094E-02 -0.24832667656E-01 -0.43382338306E-02  0.10185055410E+01  0.10181881624E+01 0.  0.
     999903    2    3    3    0    0  0.78197388540E-01 -0.99529249261E-01  0.28077650311E-01  0.13099612161E+00  0.18727690614E-01 0.  0.
         14    1    1    2    0    0  0.33047630094E-02  0.24832667656E-01  0.43382338306E-02  0.25424458976E-01  0.00000000000E+00 0. -1.
     999901    1    3    3    0    0 -0.81502151550E-01  0.74696581605E-01 -0.32415884142E-01  0.88750941942E+00  0.88000000000E+00 0.  1.
        -11    1    4    4    0    0  0.34558046511E-01 -0.35345494595E-01  0.34005545064E-02  0.49551866350E-01  0.51100000000E-03 0.  1.
         11    1    4    4    0    0  0.43639342029E-01 -0.64183754666E-01  0.24677095805E-01  0.81444255256E-01  0.51100000000E-03 0. -1.
</event>
<event>
 8    1  0.1131349E+005  0.1043930E+01  0.7957747E-01            NaN
         13   -1    0    0    0    0  0.00000000000E+00  0.00000000000E+00  0.74505805969E-08  0.10566000000E+00  0.10566000000E+00 0. -1.
     999900   -1    0    0    0    0 -0.00000000000E+00 -0.00000000000E+00 -0.74505805969E-08  0.93827000000E+00  0.93827000000E+00 0.  1.
     999902    2    1    2    0    0  0.17756998862E-01  0.15952286767E-01 -0.11330518809E-03  0.10200595308E+01  0.10197801955E+01 0.  0.
     999903    2    3    3    0    0  0.81321285734E-01 -0.91166013393E-01  0.40674065324E-01  0.13035263615E+00  0.20323303135E-01 0.  0.
         14    1    1    2    0    0 -0.17756998862E-01 -0.15952286767E-01  0.11330518809E-03  0.23870469198E-01  0.00000000000E+00 0. -1.
     999901    1    3    3    0    0 -0.63564286873E-01  0.10711830016E+00 -0.40787370512E-01  0.88970689465E+00  0.88000000000E+00 0.  1.
        -11    1    4    4    0    0  0.33320034677E-01 -0.51654639942E-01  0.23924069488E-01  0.65962479944E-01  0.51100000000E-03 0. -1.
         11    1    4    4    0    0  0.48001251057E-01 -0.39511373451E-01  0.16749995836E-01  0.64390156208E-01  0.51100000000E-03 0.  1.
</event>
<event>
 8    1  0.1131349E+005  0.1043930E+01  0.7957747E-01            NaN
         13   -1    0    0    0    0  0.00000000000E+00  0.00000000000E+00  0.74505805969E-08  0.10566000000E+00  0.10566000000E+00 0.  1.
     999900   -1    0    0    0    0 -0.00000000000E+00 -0.00000000000E+00 -0.74505805969E-08  0.93827000000E+00  0.93827000000E+00 0.  1.
     999902    2    1    2    0    0 -0.83202451243E-02 -0.12839871244E-01  0.17804414042E-01  0.10204547805E+01  0.10201847250E+01 0.  0.
     999903    2    3    3    0    0  0.11330284863E+00  0.26621530474E-01 -0.50884198002E-01  0.12856493044E+00  0.19836792630E-01 0.  0.
         14    1    1    2    0    0  0.83202451243E-02  0.12839871244E-01 -0.17804414042E-01  0.23475219528E-01  0.00000000000E+00 0. -1.
     999901    1    3    3    0    0 -0.12162309375E+00 -0.39461401718E-01  0.68688612043E-01  0.89188985003E+00  0.88000000000E+00 0. -1.
        -11    1    4    4    0    0  0.73313333388E-01  0.21294175946E-01 -0.23790506853E-01  0.79965843452E-01  0.51100000000E-03 0. -1.
         11    1    4    4    0    0  0.39989515240E-01  0.53273545278E-02 -0.27093691149E-01  0.48599086992E-01  0.51100000000E-03 0.  1.
</event>
<event>
 8    1  0.1131349E+005  0.1043930E+01  0.7957747E-01            NaN
         13   -1    0    0    0    0  0.00000000000E+00  0.00000000000E+00  0.74505805969E-08  0.10566000000E+00  0.10566000000E+00 0. -1.
     999900   -1    0    0    0    0 -0.00000000000E+00 -0.00000000000E+00 -0.74505805969E-08  0.93827000000E+00  0.93827000000E+00 0. -1.
     999902    2    1    2    0    0 -0.36584124230E-02  0.13138517364E-01  0.20107209180E-01  0.10196338176E+01  0.10193443076E+01 0.  0.
     999903    2    3    3    0    0 -0.11589329083E+00 -0.53719023791E-01  0.13344040888E-01  0.12996402534E+00  0.19889597262E-01 0.  0.
         14    1    1    2    0    0  0.36584124230E-02 -0.13138517364E-01 -0.20107209180E-01  0.24296182436E-01  0.00000000000E+00 0.  1.
     999901    1    3    3    0    0  0.11223487841E+00  0.66857541155E-01  0.67631682924E-02  0.88966979222E+00  0.88000000000E+00 0.  1.
        -11    1    4    4    0    0 -0.87144789944E-01 -0.44104172666E-01  0.17923496880E-01  0.99302091228E-01  0.51100000000E-03 0.  1.
         11    1    4    4    0    0 -0.28748500890E-01 -0.96148511250E-02 -0.45794559920E-02  0.30661934117E-01  0.51100000000E-03 0. -1.
</event>
<event>
 8    1  0.1131349E+005  0.1043930E+01  0.7957747E-01            NaN
         13   -1    0    0    0    0  0.00000000000E+00  0.00000000000E+00  0.74505805969E-08  0.10566000000E+00  0.10566000000E+00 0. -1.
     999900   -1    0    0    0    0 -0.00000000000E+00 -0.00000000000E+00 -0.74505805969E-08  0.93827000000E+00  0.93827000000E+00 0. -1.
     999902    2    1    2    0    0  0.89003044167E-02 -0.22805770495E-01 -0.71071569383E-02  0.10184382314E+01  0.10181191487E+01 0.  0.
     999903    2    3    3    0    0  0.54674705050E-02 -0.55172223929E-01  0.11509241416E+00  0.12939823971E+00  0.20585750282E-01 0.  0.
         14    1    1    2    0    0 -0.89003044167E-02  0.22805770495E-01  0.71071569383E-02  0.25491768599E-01  0.00000000000E+00 0.  1.
     999901    1    3    3    0    0  0.34328339117E-02  0.32366453434E-01 -0.12219957110E+00  0.88903999170E+00  0.88000000000E+00 0. -1.
        -11    1    4    4    0    0 -0.41671691730E-02 -0.42124250336E-01  0.90810726557E-01  0.10019314819E+00  0.51100000000E-03 0.  1.
         11    1    4    4    0    0  0.96346396780E-02 -0.13047973593E-01  0.24281687603E-01  0.29205091516E-01  0.51100000000E-03 0. -1.
</event>
<event>
 8    1  0.1131349E+005  0.1043930E+01  0.7957747E-01            NaN
         13   -1    0    0    0    0  0.00000000000E+00  0.00000000000E+00  0.74505805969E-08  0.10566000000E+00  0.10566000000E+00 0. -1.
     999900   -1    0    0    0    0 -0.00000000000E+00 -0.00000000000E+00 -0.74505805969E-08  0.93827000000E+00  0.93827000000E+00 0. -1.
     999902    2    1    2    0    0  0.21779765563E-01 -0.41961460733E-02  0.97328142790E-02  0.10197082432E+01  0.10194205254E+01 0.  0.
     999903    2    3    3    0    0  0.93083132244E-01  0.60966463478E-01  0.69510671189E-01  0.13240686937E+00  0.17845628865E-01 0.  0.
         14    1    1    2    0    0 -0.21779765563E-01  0.41961460733E-02 -0.97328142790E-02  0.24221756824E-01  0.00000000000E+00 0. -1.
     999901    1    3    3    0    0 -0.71303366681E-01 -0.65162609551E-01 -0.59777856910E-01  0.88730137381E+00  0.88000000000E+00 0. -1.
        -11    1    4    4    0    0  0.52968435217E-01  0.24351961251E-01  0.38455131392E-01  0.69840757423E-01  0.51100000000E-03 0.  1.
         11    1    4    4    0    0  0.40114697027E-01  0.36614502227E-01  0.31055539798E-01  0.62566111946E-01  0.51100000000E-03 0. -1.
</event>
<event>
 8    1  0.1131349E+005  0.1043930E+01  0.7957747E-01            NaN
         13   -1    0    0    0    0  0.00000000000E+00  0.00000000000E+00  0.74505805969E-08  0.10566000000E+00  0.10566000000E+00 0.  1.
     999900   -1    0    0    0    0 -0.00000000000E+00 -0.00000000000E+00 -0.74505805969E-08  0.93827000000E+00  0.93827000000E+00 0. -1.
     999902    2    1    2    0    0  0.78026490582E-02  0.11808931371E-01  0.18276217768E-01  0.10208139379E+01  0.10205521757E+01 0.  0.
     999903    2    3    3    0    0  0.11031135336E+00 -0.67668242785E-01 -0.32826817607E-02  0.13104461843E+00  0.20355104011E-01 0.  0.
         14    1    1    2    0    0 -0.78026490582E-02 -0.11808931371E-01 -0.18276217768E-01  0.23116062129E-01  0.00000000000E+00 0. -1.
     999901    1    3    3    0    0 -0.10250870430E+00  0.79477174155E-01  0.21558899529E-01  0.88976931944E+00  0.88000000000E+00 0.  1.
        -11    1    4    4    0    0  0.71853720039E-01 -0.42836951113E-01  0.75645767004E-02  0.83996698779E-01  0.51100000000E-03 0.  1.
         11    1    4    4    0    0  0.38457633317E-01 -0.24831291672E-01 -0.10847258461E-01  0.47047919652E-01  0.51100000000E-03 0. -1.
</event>
<event>
 8    1  0.1131349E+005  0.1043930E+01  0.7957747E-01            NaN
         13   -1    0    0    0    0  0.00000000000E+00  0.00000000000E+00  0.74505805969E-08  0.10566000000E+00  0.10566000000E+00 0.  1.
     999900   -1    0    0    0    0 -0.00000000000E+00 -0.00000000000E+00 -0.74505805969E-08  0.93827000000E+00  0.93827000000E+00 0.  1.
     999902    2    1    2    0    0 -0.76214476230E-03  0.13573826381E-01  0.19304891723E-01  0.10203183827E+01  0.10200451429E+01 0.  0.
     999903    2    3    3    0    0 -0.59116189291E-01  0.11534764349E+00 -0.13786329986E-01  0.13191637160E+00  0.20299347462E-01 0.  0.
         14    1    1    2    0    0  0.76214476230E-03 -0.13573826381E-01 -0.19304891723E-01  0.23611617304E-01  0.00000000000E+00 0. -1.
     999901    1    3    3    0    0  0.58354044528E-01 -0.10177381711E+00  0.33091221709E-01  0.88840201109E+00  0.88000000000E+00 0. -1.
        -11    1    4    4    0    0 -0.97616673506E-02  0.78350989824E-02 -0.42623623219E-02  0.13232829595E-01  0.51100000000E-03 0. -1.
         11    1    4    4    0    0 -0.49354521940E-01  0.10751254451E+00 -0.95239676639E-02  0.11868354201E+00  0.51100000000E-03 0.  1.
</event>
<event>
 8    1  0.1131349E+005  0.1043930E+01  0.7957747E-01            NaN
         13   -1    0    0    0    0  0.00000000000E+00  0.00000000000E+00  0.74505805969E-08  0.10566000000E+00  0.10566000000E+00 0. -1.
     999900   -1    0    0    0    0 -0.00000000000E+00 -0.00000000000E+00 -0.74505805969E-08  0.93827000000E+00  0.93827000000E+00 0.  1.
     999902    2    1    2    0    0 -0.16747095019E-01  0.16147379350E-01  0.62313441253E-02  0.10198461319E+01  0.10195617196E+01 0.  0.
     999903    2    3    3    0    0  0.94985927018E-01 -0.82355876084E-01 -0.30478564260E-02  0.12728058078E+00  0.19652993607E-01 0.  0.
         14    1    1    2    0    0  0.16747095019E-01 -0.16147379350E-01 -0.62313441253E-02  0.24083868067E-01  0.00000000000E+00 0. -1.
     999901    1    3    3    0    0 -0.11173302204E+00  0.98503255434E-01  0.92792005514E-02  0.89256555115E+00  0.88000000000E+00 0. -1.
        -11    1    4    4    0    0  0.57698966191E-01 -0.44614248942E-01  0.70295938629E-02  0.73275358881E-01  0.51100000000E-03 0. -1.
         11    1    4    4    0    0  0.37286960826E-01 -0.37741627142E-01 -0.10077450289E-01  0.54005221899E-01  0.51100000000E-03 0.  1.
</event>
<event>
 8    1  0.1131349E+005  0.1043930E+01  0.7957747E-01            NaN
         13   -1    0    0    0    0  0.00000000000E+00  0.00000000000E+00  0.74505805969E-08  0.10566000000E+00  0.10566000000E+00 0.  1.
     999900   -1    0    0    0    0 -0.00000000000E+00 -0.00000000000E+00 -0.74505805969E-08  0.93827000000E+00  0.93827000000E+00 0.  1.
     999902    2    1    2    0    0 -0.18667870931E-01  0.14074711566E-01 -0.49942531337E-02  0.10200233174E+01  0.10197431238E+01 0.  0.
     999903    2    3    3    0    0  0.29617809055E-01  0.50017700288E-01  0.11439566376E+00  0.12992368384E+00  0.20366904004E-01 0.  0.
         14    1    1    2    0    0  0.18667870931E-01 -0.14074711566E-01  0.49942531337E-02  0.23906682646E-01  0.00000000000E+00 0.  1.
     999901    1    3    3    0    0 -0.48285679986E-01 -0.35942988722E-01 -0.11938991690E+00  0.89009963352E+00  0.88000000000E+00 0.  1.
        -11    1    4    4    0    0  0.15822728870E-01  0.22459316557E-01  0.33331814988E-01  0.43197808514E-01  0.51100000000E-03 0.  1.
         11    1    4    4    0    0  0.13795080185E-01  0.27558383731E-01  0.81063848776E-01  0.86725875323E-01  0.51100000000E-03 0. -1.
</event>
<event>
 8    1  0.1131349E+005  0.1043930E+01  0.7957747E-01            NaN
         13   -1    0    0    0    0  0.00000000000E+00  0.00000000000E+00  0.74505805969E-08  0.10566000000E+00  0.10566000000E+00 0.  1.
     999900   -1    0    0    0    0 -0.00000000000E+00 -0.00000000000E+00 -0.74505805969E-08  0.93827000000E+00  0.93827000000E+00 0.  1.
     999902    2    1    2    0    0 -0.62832270273E-02  0.22105190272E-01 -0.83668906834E-02  0.10194734418E+01  0.10191800505E+01 0.  0.
     999903    2    3    3    0    0 -0.43666615193E-02 -0.10842785246E+00  0.62420331338E-01  0.12703107433E+00  0.21562216016E-01 0.  0.
         14    1    1    2    0    0  0.62832270273E-02 -0.22105190272E-01  0.83668906834E-02  0.24456558191E-01  0.00000000000E+00 0.  1.
     999901    1    3    3    0    0 -0.19165655080E-02  0.13053304273E+00 -0.70787222021E-01  0.89244236748E+00  0.88000000000E+00 0.  1.
        -11    1    4    4    0    0  0.46536339860E-02 -0.88708792572E-01  0.47832724906E-01  0.10089170869E+00  0.51100000000E-03 0. -1.
         11    1    4    4    0    0 -0.90202955053E-02 -0.19719059888E-01  0.14587606431E-01  0.26139365644E-01  0.51100000000E-03 0.  1.
</event>
<event>
 8    1  0.1131349E+005  0.1043930E+01  0.7957747E-01            NaN
         13   -1    0    0    0    0  0.00000000000E+00  0.00000000000E+00  0.74505805969E-08  0.10566000000E+00  0.10566000000E+00 0. -1.
     999900   -1    0    0    0    0 -0.00000000000E+00 -0.00000000000E+00 -0.74505805969E-08  0.93827000000E+00  0.93827000000E+00 0.  1.
     999902    2    1    2    0    0  0.24035687460E-01  0.14086223884E-01  0.20510284994E-02  0.10159953854E+01  0.10156112841E+01 0.  0.
     999903    2    3    3    0    0  0.11950638374E+00  0.20992668491E-01 -0.41146394146E-01  0.12975141778E+00  0.20492359017E-01 0.  0.
         14    1    1    2    0    0 -0.24035687460E-01 -0.14086223884E-01 -0.20510284994E-02  0.27934614600E-01  0.00000000000E+00 0.  1.
     999901    1    3    3    0    0 -0.95470696283E-01 -0.69064446068E-02  0.43197422645E-01  0.88624396762E+00  0.88000000000E+00 0. -1.
        -11    1    4    4    0    0  0.81151808053E-01  0.45837538286E-02 -0.25409922243E-01  0.85161916482E-01  0.51100000000E-03 0. -1.
         11    1    4    4    0    0  0.38354575690E-01  0.16408914662E-01 -0.15736471902E-01  0.44589501294E-01  0.51100000000E-03 0.  1.
</event>
<event>
 8    1  0.1131349E+005  0.1043930E+01  0.7957747E-01            NaN
         13   -1    0    0    0    0  0.00000000000E+00  0.00000000000E+00  0.74505805969E-08  0.10566000000E+00  0.10566000000E+00 0. -1.
     999900   -1    0    0    0    0 -0.00000000000E+00 -0.00000000000E+00 -0.74505805969E-08  0.93827000000E+00  0.93827000000E+00 0. -1.
     999902    2    1    2    0    0  0.21069080592E-01 -0.10415068479E-01  0.46774641296E-02  0.10199663092E+01  0.10196847617E+01 0.  0.
     999903    2    3    3    0    0  0.71070951658E-01 -0.82982512894E-01  0.73192761740E-01  0.13291469447E+00  0.19286213202E-01 0.  0.
         14    1    1    2    0    0 -0.21069080592E-01  0.10415068479E-01 -0.46774641296E-02  0.23963690849E-01  0.00000000000E+00 0. -1.
     999901    1    3    3    0    0 -0.50001871066E-01  0.72567444415E-01 -0.68515297611E-01  0.88705161468E+00  0.88000000000E+00 0. -1.
        -11    1    4    4    0    0  0.30468505978E-01 -0.22330458535E-01  0.28569428959E-01  0.47365099250E-01  0.51100000000E-03 0. -1.
         11    1    4    4    0    0  0.40602445680E-01 -0.60652054359E-01  0.44623332781E-01  0.85549595222E-01  0.51100000000E-03 0.  1.
</event>
<event>
 8    1  0.1131349E+005  0.1043930E+01  0.7957747E-01            NaN
         13   -1    0    0    0    0  0.00000000000E+00  0.00000000000E+00  0.74505805969E-08  0.10566000000E+00  0.10566000000E+00 0. -1.
     999900   -1    0    0    0    0 -0.00000000000E+00 -0.00000000000E+00 -0.74505805969E-08  0.93827000000E+00  0.93827000000E+00 0.  1.
     999902    2    1    2    0    0  0.20346786350E-01  0.49656537373E-02 -0.18794356378E-02  0.10229018829E+01  0.10226857192E+01 0.  0.
     999903    2    3    3    0    0  0.67033429838E-01 -0.10365781596E-01  0.11389110757E+00  0.13396008822E+00  0.19318144594E-01 0.  0.
         14    1    1    2    0    0 -0.20346786350E-01 -0.49656537373E-02  0.18794356378E-02  0.21028117133E-01  0.00000000000E+00 0. -1.
     999901    1    3    3    0    0 -0.46686643487E-01  0.15331435334E-01 -0.11577054320E+00  0.88894179464E+00  0.88000000000E+00 0.  1.
        -11    1    4    4    0    0  0.54620619521E-01 -0.67724500143E-03  0.84677377519E-01  0.10076899385E+00  0.51100000000E-03 0.  1.
         11    1    4    4    0    0  0.12412810317E-01 -0.96885365949E-02  0.29213730046E-01  0.33191094371E-01  0.51100000000E-03 0. -1.
</event>
<event>
 8    1  0.1131349E+005  0.1043930E+01  0.7957747E-01            NaN
         13   -1    0    0    0    0  0.00000000000E+00  0.00000000000E+00  0.74505805969E-08  0.10566000000E+00  0.10566000000E+00 0. -1.
     999900   -1    0    0    0    0 -0.00000000000E+00 -0.00000000000E+00 -0.74505805969E-08  0.93827000000E+00  0.93827000000E+00 0. -1.
     999902    2    1    2    0    0  0.37309884060E-02 -0.19614283096E-01  0.13224578254E-01  0.10199815168E+01  0.10197003309E+01 0.  0.
     999903    2    3    3    0    0  0.12213143467E+00 -0.16311036822E-01 -0.38579763917E-01  0.13053603398E+00  0.19212514806E-01 0.  0.
         14    1    1    2    0    0 -0.37309884060E-02  0.19614283096E-01 -0.13224578254E-01  0.23948483164E-01  0.00000000000E+00 0.  1.
     999901    1    3    3    0    0 -0.11840044627E+00 -0.33032462733E-02  0.51804342171E-01  0.88944548286E+00  0.88000000000E+00 0. -1.
        -11    1    4    4    0    0  0.15292487843E-01 -0.86762125067E-02 -0.57216624172E-02  0.18496902165E-01  0.51100000000E-03 0. -1.
         11    1    4    4    0    0  0.10683894683E+00 -0.76348243157E-02 -0.32858101499E-01  0.11203913181E+00  0.51100000000E-03 0.  1.
</event>
<event>
 8    1  0.1131349E+005  0.1043930E+01  0.7957747E-01            NaN
         13   -1    0    0    0    0  0.00000000000E+00  0.00000000000E+00  0.74505805969E-08  0.10566000000E+00  0.10566000000E+00 0.  1.
     999900   -1    0    0    0    0 -0.00000000000E+00 -0.00000000000E+00 -0.74505805969E-08  0.93827000000E+00  0.93827000000E+00 0. -1.
     999902    2    1    2    0    0 -0.10977910964E-01  0.16701857525E-01 -0.71793735894E-02  0.10226930045E+01  0.10224724795E+01 0.  0.
     999903    2    3    3    0    0  0.80066323956E-01 -0.86863966646E-01  0.50270454973E-01  0.13010384061E+00  0.21069545891E-01 0.  0.
         14    1    1    2    0    0  0.10977910964E-01 -0.16701857525E-01  0.71793735894E-02  0.21236995528E-01  0.00000000000E+00 0.  1.
     999901    1    3    3    0    0 -0.91044234920E-01  0.10356582417E+00 -0.57449828562E-01  0.89258916387E+00  0.88000000000E+00 0. -1.
        -11    1    4    4    0    0  0.27680535290E-01 -0.45305629811E-01  0.20704089490E-01  0.56988881101E-01  0.51100000000E-03 0. -1.
         11    1    4    4    0    0  0.52385788666E-01 -0.41558336835E-01  0.29566365484E-01  0.73114959506E-01  0.51100000000E-03 0.  1.
</event>
<event>
 8    1  0.1131349E+005  0.1043930E+01  0.7957747E-01            NaN
         13   -1    0    0    0    0  0.00000000000E+00  0.00000000000E+00  0.74505805969E-08  0.10566000000E+00  0.10566000000E+00 0.  1.
     999900   -1    0    0    0    0 -0.00000000000E+00 -0.00000000000E+00 -0.74505805969E-08  0.93827000000E+00  0.93827000000E+00 0. -1.
     999902    2    1    2    0    0  0.20637701346E-01 -0.11223236565E-01  0.98207878363E-03  0.10204174452E+01  0.10201465200E+01 0.  0.
     999903    2    3    3    0    0  0.54080603677E-01  0.95485303817E-01  0.68265777463E-01  0.13079267235E+00  0.20108501411E-01 0.  0.
         14    1    1    2    0    0 -0.20637701346E-01  0.11223236565E-01 -0.98207878363E-03  0.23512554829E-01  0.00000000000E+00 0.  1.
     999901    1    3    3    0    0 -0.33442902331E-01 -0.10670854038E+00 -0.67283698679E-01  0.88962477282E+00  0.88000000000E+00 0. -1.
        -11    1    4    4    0    0  0.71492315649E-02  0.27155764063E-01  0.11639607539E-01  0.30402115362E-01  0.51100000000E-03 0. -1.
         11    1    4    4    0    0  0.46931372112E-01  0.68329539754E-01  0.56626169924E-01  0.10039055699E+00  0.51100000000E-03 0.  1.
</event>
<event>
 8    1  0.1131349E+005  0.1043930E+01  0.7957747E-01            NaN
         13   -1    0    0    0    0  0.00000000000E+00  0.00000000000E+00  0.74505805969E-08  0.10566000000E+00  0.10566000000E+00 0. -1.
     999900   -1    0    0    0    0 -0.00000000000E+00 -0.00000000000E+00 -0.74505805969E-08  0.93827000000E+00  0.93827000000E+00 0. -1.
     999902    2    1    2    0    0 -0.97943950311E-02 -0.12297890171E-01 -0.17488736589E-01  0.10204135338E+01  0.10201425174E+01 0.  0.
     999903    2    3    3    0    0 -0.22977876149E-01 -0.10315125435E+00 -0.79100350410E-01  0.13349520105E+00  0.19898221046E-01 0.  0.
         14    1    1    2    0    0  0.97943950311E-02  0.12297890171E-01  0.17488736589E-01  0.23516466235E-01  0.00000000000E+00 0. -1.
     999901    1    3    3    0    0  0.13183481118E-01  0.90853364179E-01  0.61611613821E-01  0.88691833272E+00  0.88000000000E+00 0.  1.
        -11    1    4    4    0    0 -0.16629754546E-01 -0.93370571450E-01 -0.64022811069E-01  0.11442811633E+00  0.51100000000E-03 0.  1.
         11    1    4    4    0    0 -0.63481216030E-02 -0.97806829005E-02 -0.15077539341E-01  0.19067084713E-01  0.51100000000E-03 0. -1.
</event>
<event>
 8    1  0.1131349E+005  0.1043930E+01  0.7957747E-01            NaN
         13   -1    0    0    0    0  0.00000000000E+00  0.00000000000E+00  0.74505805969E-08  0.10566000000E+00  0.10566000000E+00 0.  1.
     999900   -1    0    0    0    0 -0.00000000000E+00 -0.00000000000E+00 -0.74505805969E-08  0.93827000000E+00  0.93827000000E+00 0.  1.
     999902    2    1    2    0    0 -0.20455599372E-01  0.10662693031E-01 -0.56480863595E-02  0.10201807801E+01  0.10199043085E+01 0.  0.
     999903    2    3    3    0    0 -0.53977435941E-01 -0.11634233438E+00  0.10598427162E-01  0.13028306699E+00  0.20303904244E-01 0.  0.
         14    1    1    2    0    0  0.20455599372E-01 -0.10662693031E-01  0.56480863595E-02  0.23749219942E-01  0.00000000000E+00 0.  1.
     999901    1    3    3    0    0  0.33521836569E-01  0.12700502741E+00 -0.16246513522E-01  0.88989771306E+00  0.88000000000E+00 0.  1.
        -11    1    4    4    0    0 -0.42214708191E-01 -0.70961477513E-01  0.18539198669E-02  0.82591228459E-01  0.51100000000E-03 0.  1.
         11    1    4    4    0    0 -0.11762727750E-01 -0.45380856866E-01  0.87445072952E-02  0.47691838535E-01  0.51100000000E-03 0. -1.
</event>
<event>
 8    1  0.1131349E+005  0.1043930E+01  0.7957747E-01            NaN
         13   -1    0    0    0    0  0.00000000000E+00  0.00000000000E+00  0.74505805969E-08  0.10566000000E+00  0.10566000000E+00 0.  1.
     999900   -1    0    0    0    0 -0.00000000000E+00 -0.00000000000E+00 -0.74505805969E-08  0.93827000000E+00  0.93827000000E+00 0.  1.
     999902    2    1    2    0    0 -0.21370193852E-01  0.85615793583E-02 -0.41168208426E-03  0.10209048983E+01  0.10206452156E+01 0.  0.
     999903    2    3    3    0    0 -0.99688519934E-01  0.50638928534E-01 -0.70524234788E-01  0.13365068807E+00  0.19665620757E-01 0.  0.
         14    1    1    2    0    0  0.21370193852E-01 -0.85615793583E-02  0.41168208426E-03  0.23025101705E-01  0.00000000000E+00 0.  1.
     999901    1    3    3    0    0  0.78318326082E-01 -0.42077349176E-01  0.70112552704E-01  0.88725421022E+00  0.88000000000E+00 0. -1.
        -11    1    4    4    0    0 -0.64167893198E-01  0.24102168886E-01 -0.49662913793E-01  0.84646908921E-01  0.51100000000E-03 0.  1.
         11    1    4    4    0    0 -0.35520626736E-01  0.26536759648E-01 -0.20861320996E-01  0.49003779150E-01  0.51100000000E-03 0. -1.
</event>
<event>
 7    1  0.1357463E+005  0.1043930E+01  0.7957747E-01            NaN
         13   -1    0    0    0    0  0.00000000000E+00  0.00000000000E+00  0.74505805969E-08  0.10566000000E+00  0.10566000000E+00 0.  1.
     999900   -1    0    0    0    0 -0.00000000000E+00 -0.00000000000E+00 -0.74505805969E-08  0.93827000000E+00  0.93827000000E+00 0.  1.
     999903    2    1    2    0    0 -0.18031096043E-02  0.10651479199E+00 -0.31939845315E-01  0.11294546128E+00  0.19694450699E-01 0.  0.
         14    1    1    2    0    0  0.38586499243E-01 -0.43783458824E-02  0.21210430622E-01  0.44248957091E-01  0.00000000000E+00 0.  1.
     999901    1    1    2    0    0 -0.36783389639E-01 -0.10213644611E+00  0.10729414692E-01  0.88673558162E+00  0.88000000000E+00 0.  1.
        -11    1    3    3    0    0 -0.10617121260E-01  0.58252473485E-01 -0.15630666555E-01  0.61242573337E-01  0.51100000000E-03 0.  1.
         11    1    3    3    0    0  0.88140116557E-02  0.48262318510E-01 -0.16309178760E-01  0.51702887948E-01  0.51100000000E-03 0. -1.
</event>
<event>
 8    1  0.1131349E+005  0.1043930E+01  0.7957747E-01            NaN
         13   -1    0    0    0    0  0.00000000000E+00  0.00000000000E+00  0.74505805969E-08  0.10566000000E+00  0.10566000000E+00 0. -1.
     999900   -1    0    0    0    0 -0.00000000000E+00 -0.00000000000E+00 -0.74505805969E-08  0.93827000000E+00  0.93827000000E+00 0. -1.
     999902    2    1    2    0    0  0.22232725943E-01  0.71318142867E-02 -0.36639253946E-02  0.10202956769E+01  0.10200219052E+01 0.  0.
     999903    2    3    3    0    0  0.10860354812E+00 -0.11834900914E-01 -0.73254836464E-01  0.13313021879E+00  0.20556958548E-01 0.  0.
         14    1    1    2    0    0 -0.22232725943E-01 -0.71318142867E-02  0.36639253946E-02  0.23634323074E-01  0.00000000000E+00 0. -1.
     999901    1    3    3    0    0 -0.86370822179E-01  0.18966715200E-01  0.69590911069E-01  0.88716545814E+00  0.88000000000E+00 0.  1.
        -11    1    4    4    0    0  0.51309493159E-01 -0.79577351052E-02 -0.22892483956E-01  0.56747833253E-01  0.51100000000E-03 0.  1.
         11    1    4    4    0    0  0.57294054963E-01 -0.38771658086E-02 -0.50362352508E-01  0.76382385535E-01  0.51100000000E-03 0. -1.
</event>
<event>
 8    1  0.1131349E+005  0.1043930E+01  0.7957747E-01            NaN
         13   -1    0    0    0    0  0.00000000000E+00  0.00000000000E+00  0.74505805969E-08  0.10566000000E+00  0.10566000000E+00 0. -1.
     999900   -1    0    0    0    0 -0.00000000000E+00 -0.00000000000E+00 -0.74505805969E-08  0.93827000000E+00  0.93827000000E+00 0. -1.
     999902    2    1    2    0    0 -0.15698286321E-01 -0.91460260107E-02  0.14858465714E-01  0.10204595933E+01  0.10201896498E+01 0.  0.
     999903    2    3    3    0    0  0.15226210060E-01  0.67911786745E-01  0.10981962112E+00  0.13146473846E+00  0.19462271797E-01 0.  0.
         14    1    1    2    0    0  0.15698286321E-01  0.91460260107E-02 -0.14858465714E-01  0.23470406655E-01  0.00000000000E+00 0.  1.
     999901    1    3    3    0    0 -0.30924496381E-01 -0.77057812755E-01 -0.94961155403E-01  0.88899485489E+00  0.88000000000E+00 0. -1.
        -11    1    4    4    0    0  0.33537545441E-02  0.51388787457E-01  0.84784835648E-01  0.99200728943E-01  0.51100000000E-03 0.  1.
         11    1    4    4    0    0  0.11872455516E-01  0.16522999288E-01  0.25034785468E-01  0.32264009513E-01  0.51100000000E-03 0. -1.
</event>
<event>
 8    1  0.1131349E+005  0.1043930E+01  0.7957747E-01            NaN
         13   -1    0    0    0    0  0.00000000000E+00  0.00000000000E+00  0.74505805969E-08  0.10566000000E+00  0.10566000000E+00 0.  1.
     999900   -1    0    0    0    0 -0.00000000000E+00 -0.00000000000E+00 -0.74505805969E-08  0.93827000000E+00  0.93827000000E+00 0. -1.
     999902    2    1    2    0    0 -0.12578765500E-01  0.12761416671E-01 -0.14618280128E-01  0.10208048360E+01  0.10205428653E+01 0.  0.
     999903    2    3    3    0    0  0.42807427379E-01 -0.97615252876E-01  0.68540898592E-01  0.12829932421E+00  0.20041167114E-01 0.  0.
         14    1    1    2    0    0  0.12578765500E-01 -0.12761416671E-01  0.14618280128E-01  0.23125164018E-01  0.00000000000E+00 0. -1.
     999901    1    3    3    0    0 -0.55386192879E-01  0.11037666955E+00 -0.83159178721E-01  0.89250551177E+00  0.88000000000E+00 0. -1.
        -11    1    4    4    0    0  0.18164530239E-01 -0.65080417871E-01  0.44946877439E-01  0.81153520328E-01  0.51100000000E-03 0.  1.
         11    1    4    4    0    0  0.24642897140E-01 -0.32534835005E-01  0.23594021153E-01  0.47145803880E-01  0.51100000000E-03 0. -1.
</event>
<event>
 8    1  0.1131349E+005  0.1043930E+01  0.7957747E-01            NaN
         13   -1    0    0    0    0  0.00000000000E+00  0.00000000000E+00  0.74505805969E-08  0.10566000000E+00  0.10566000000E+00 0.  1.
     999900   -1    0    0    0    0 -0.00000000000E+00 -0.00000000000E+00 -0.74505805969E-08  0.93827000000E+00  0.93827000000E+00 0. -1.
     999902    2    1    2    0    0  0.11756634675E-01 -0.12521306392E-02 -0.20511342818E-01  0.10202550877E+01  0.10199803637E+01 0.  0.
     999903    2    3    3    0    0  0.42480293386E-01  0.10884750672E+00  0.49455187434E-01  0.13010836453E+00  0.28809996710E-01 0.  0.
         14    1    1    2    0    0 -0.11756634675E-01  0.12521306392E-02  0.20511342818E-01  0.23674912338E-01  0.00000000000E+00 0.  1.
     999901    1    3    3    0    0 -0.30723658711E-01 -0.11009963736E+00 -0.69966530252E-01  0.89014672313E+00  0.88000000000E+00 0.  1.
        -11    1    4    4    0    0  0.14527333869E-01  0.13732535884E-01  0.15552028883E-01  0.25332838264E-01  0.51100000000E-03 0. -1.
         11    1    4    4    0    0  0.27952959517E-01  0.95114970836E-01  0.33903158550E-01  0.10477552626E+00  0.51100000000E-03 0.  1.
</event>
<event>
 8    1  0.1131349E+005  0.1043930E+01  0.7957747E-01            NaN
         13   -1    0    0    0    0  0.00000000000E+00  0.00000000000E+00  0.74505805969E-08  0.10566000000E+00  0.10566000000E+00 0. -1.
     999900   -1    0    0    0    0 -0.00000000000E+00 -0.00000000000E+00 -0.74505805969E-08  0.93827000000E+00  0.93827000000E+00 0. -1.
     999902    2    1    2    0    0  0.40016289209E-02  0.14629273840E-01  0.17526027470E-01  0.10207526333E+01  0.10204894650E+01 0.  0.
     999903    2    3    3    0    0  0.10990133900E+00 -0.13699901032E-01  0.69721949800E-01  0.13241615144E+00  0.20171645331E-01 0.  0.
         14    1    1    2    0    0 -0.40016289209E-02 -0.14629273840E-01 -0.17526027470E-01  0.23177366675E-01  0.00000000000E+00 0.  1.
     999901    1    3    3    0    0 -0.10589971008E+00  0.28329174872E-01 -0.52195922330E-01  0.88833648189E+00  0.88000000000E+00 0.  1.
        -11    1    4    4    0    0  0.17885391035E-01  0.42827793478E-02  0.73774063908E-02  0.19822125453E-01  0.51100000000E-03 0. -1.
         11    1    4    4    0    0  0.92015947965E-01 -0.17982680380E-01  0.62344543409E-01  0.11259402599E+00  0.51100000000E-03 0.  1.
</event>
<event>
 8    1  0.1131349E+005  0.1043930E+01  0.7957747E-01            NaN
         13   -1    0    0    0    0  0.00000000000E+00  0.00000000000E+00  0.74505805969E-08  0.10566000000E+00  0.10566000000E+00 0. -1.
     999900   -1    0    0    0    0 -0.00000000000E+00 -0.00000000000E+00 -0.74505805969E-08  0.93827000000E+00  0.93827000000E+00 0. -1.
     999902    2    1    2    0    0 -0.73232053466E-02 -0.20623527511E-01  0.25682141912E-02  0.10218946886E+01  0.10216570852E+01 0.  0.
     999903    2    3    3    0    0 -0.39240165085E-01  0.93815160431E-01  0.78181793749E-01  0.13069756170E+00  0.25067606137E-01 0.  0.
         14    1    1    2    0    0  0.73232053466E-02  0.20623527511E-01 -0.25682141912E-02  0.22035311382E-01  0.00000000000E+00 0.  1.
     999901    1    3    3    0    0  0.31916959738E-01 -0.11443868794E+00 -0.75613579558E-01  0.89119712692E+00  0.88000000000E+00 0. -1.
        -11    1    4    4    0    0 -0.11902111253E-01  0.45403788398E-01  0.22663290132E-01  0.52125330635E-01  0.51100000000E-03 0. -1.
         11    1    4    4    0    0 -0.27338053831E-01  0.48411372033E-01  0.55518503617E-01  0.78572231063E-01  0.51100000000E-03 0.  1.
</event>
<event>
 8    1  0.1131349E+005  0.1043930E+01  0.7957747E-01            NaN
         13   -1    0    0    0    0  0.00000000000E+00  0.00000000000E+00  0.74505805969E-08  0.10566000000E+00  0.10566000000E+00 0.  1.
     999900   -1    0    0    0    0 -0.00000000000E+00 -0.00000000000E+00 -0.74505805969E-08  0.93827000000E+00  0.93827000000E+00 0. -1.
     999902    2    1    2    0    0 -0.91467915221E-02  0.11960324595E-01  0.18283448893E-01  0.10202446108E+01  0.10199696408E+01 0.  0.
     999903    2    3    3    0    0  0.18336902049E-02 -0.11163154177E+00  0.64119119205E-01  0.13035898380E+00  0.20426445451E-01 0.  0.
         14    1    1    2    0    0  0.91467915221E-02 -0.11960324595E-01 -0.18283448893E-01  0.23685389230E-01  0.00000000000E+00 0. -1.
     999901    1    3    3    0    0 -0.10980481727E-01  0.12359186636E+00 -0.45835670313E-01  0.88988562697E+00  0.88000000000E+00 0. -1.
        -11    1    4    4    0    0 -0.68568171957E-02 -0.71371282918E-01  0.47117777723E-01  0.85797564452E-01  0.51100000000E-03 0.  1.
         11    1    4    4    0    0  0.86905074006E-02 -0.40260258847E-01  0.17001341483E-01  0.44561419351E-01  0.51100000000E-03 0. -1.
</event>
<event>
 8    1  0.1131349E+005  0.1043930E+01  0.7957747E-01            NaN
         13   -1    0    0    0    0  0.00000000000E+00  0.00000000000E+00  0.74505805969E-08  0.10566000000E+00  0.10566000000E+00 0.  1.
     999900   -1    0    0    0    0 -0.00000000000E+00 -0.00000000000E+00 -0.74505805969E-08  0.93827000000E+00  0.93827000000E+00 0.  1.
     999902    2    1    2    0    0 -0.12166966539E-01 -0.13184839546E-01 -0.14457572030E-01  0.10208888095E+01  0.10206287596E+01 0.  0.
     999903    2    3    3    0    0  0.56665371605E-01  0.10911325461E+00  0.31417133553E-01  0.12858885817E+00  0.20769966148E-01 0.  0.
         14    1    1    2    0    0  0.12166966539E-01  0.13184839546E-01  0.14457572030E-01  0.23041190455E-01  0.00000000000E+00 0.  1.
     999901    1    3    3    0    0 -0.68832338144E-01 -0.12229809416E+00 -0.45874705582E-01  0.89229995137E+00  0.88000000000E+00 0.  1.
        -11    1    4    4    0    0  0.32087980130E-01  0.82050579721E-01  0.23433102615E-01  0.91166372750E-01  0.51100000000E-03 0.  1.
         11    1    4    4    0    0  0.24577391476E-01  0.27062674892E-01  0.79840309380E-02  0.37422485421E-01  0.51100000000E-03 0. -1.
</event>
<event>
 8    1  0.1131349E+005  0.1043930E+01  0.7957747E-01            NaN
         13   -1    0    0    0    0  0.00000000000E+00  0.00000000000E+00  0.74505805969E-08  0.10566000000E+00  0.10566000000E+00 0. -1.
     999900   -1    0    0    0    0 -0.00000000000E+00 -0.00000000000E+00 -0.74505805969E-08  0.93827000000E+00  0.93827000000E+00 0. -1.
     999902    2    1    2    0    0  0.21077716802E-01  0.62694173072E-02  0.91691139531E-02  0.10201046272E+01  0.10198263588E+01 0.  0.
     999903    2    3    3    0    0 -0.37744392694E-01 -0.15363075235E-01 -0.11950073787E+00  0.12854198998E+00  0.24123713949E-01 0.  0.
         14    1    1    2    0    0 -0.21077716802E-01 -0.62694173072E-02 -0.91691139531E-02  0.23825372812E-01  0.00000000000E+00 0.  1.
     999901    1    3    3    0    0  0.58822109495E-01  0.21632492542E-01  0.12866985183E+00  0.89156263721E+00  0.88000000000E+00 0.  1.
        -11    1    4    4    0    0 -0.96191038416E-02 -0.14701908343E-01 -0.30531874070E-01  0.35229671058E-01  0.51100000000E-03 0.  1.
         11    1    4    4    0    0 -0.28125288852E-01 -0.66116689156E-03 -0.88968863804E-01  0.93312318920E-01  0.51100000000E-03 0. -1.
</event>
<event>
 8    1  0.1131349E+005  0.1043930E+01  0.7957747E-01            NaN
         13   -1    0    0    0    0  0.00000000000E+00  0.00000000000E+00  0.74505805969E-08  0.10566000000E+00  0.10566000000E+00 0. -1.
     999900   -1    0    0    0    0 -0.00000000000E+00 -0.00000000000E+00 -0.74505805969E-08  0.93827000000E+00  0.93827000000E+00 0.  1.
     999902    2    1    2    0    0  0.34809918452E-03  0.18745446097E-01  0.25896430565E-01  0.10119591064E+01  0.10114539510E+01 0.  0.
     999903    2    3    3    0    0 -0.76792436106E-02  0.12184206728E+00  0.21660100958E-01  0.12589404217E+00  0.21810312705E-01 0.  0.
         14    1    1    2    0    0 -0.34809918452E-03 -0.18745446097E-01 -0.25896430565E-01  0.31970893613E-01  0.00000000000E+00 0.  1.
     999901    1    3    3    0    0  0.80273427951E-02 -0.10309662118E+00  0.42363296068E-02  0.88606506421E+00  0.88000000000E+00 0.  1.
        -11    1    4    4    0    0  0.30035293358E-02  0.71153268521E-01  0.20365400156E-01  0.74073068346E-01  0.51100000000E-03 0.  1.
         11    1    4    4    0    0 -0.10682772946E-01  0.50688798757E-01  0.12947008019E-02  0.51820973827E-01  0.51100000000E-03 0. -1.
</event>
<event>
 8    1  0.1131349E+005  0.1043930E+01  0.7957747E-01            NaN
         13   -1    0    0    0    0  0.00000000000E+00  0.00000000000E+00  0.74505805969E-08  0.10566000000E+00  0.10566000000E+00 0. -1.
     999900   -1    0    0    0    0 -0.00000000000E+00 -0.00000000000E+00 -0.74505805969E-08  0.93827000000E+00  0.93827000000E+00 0.  1.
     999902    2    1    2    0    0 -0.26946192259E-01 -0.92950587270E-02 -0.17728216944E-02  0.10153706182E+01  0.10149688931E+01 0.  0.
     999903    2    3    3    0    0  0.28138758622E-01 -0.17186346215E-01  0.11934795666E+00  0.12533305313E+00  0.19423676614E-01 0.  0.
         14    1    1    2    0    0  0.26946192259E-01  0.92950587270E-02  0.17728216944E-02  0.28559381835E-01  0.00000000000E+00 0. -1.
     999901    1    3    3    0    0 -0.55084950881E-01  0.78912874878E-02 -0.12112077836E+00  0.89003756504E+00  0.88000000000E+00 0.  1.
        -11    1    4    4    0    0  0.92119449096E-02  0.34557910353E-03  0.58732129853E-01  0.59453372924E-01  0.51100000000E-03 0. -1.
         11    1    4    4    0    0  0.18926813712E-01 -0.17531925318E-01  0.60615826810E-01  0.65879680202E-01  0.51100000000E-03 0.  1.
</event>
<event>
 8    1  0.1131349E+005  0.1043930E+01  0.7957747E-01            NaN
         13   -1    0    0    0    0  0.00000000000E+00  0.00000000000E+00  0.74505805969E-08  0.10566000000E+00  0.10566000000E+00 0. -1.
     999900   -1    0    0    0    0 -0.00000000000E+00 -0.00000000000E+00 -0.74505805969E-08  0.93827000000E+00  0.93827000000E+00 0. -1.
     999902    2    1    2    0    0  0.18629474491E-01 -0.84983662832E-02 -0.13545345169E-01  0.10193789119E+01  0.10190832204E+01 0.  0.
     999903    2    3    3    0    0 -0.48049324983E-01 -0.10837747542E+00  0.46980059291E-01  0.12916252065E+00  0.20528418343E-01 0.  0.
         14    1    1    2    0    0 -0.18629474491E-01  0.84983662832E-02  0.13545345169E-01  0.24551088062E-01  0.00000000000E+00 0.  1.
     999901    1    3    3    0    0  0.66678799474E-01  0.99879109133E-01 -0.60525404459E-01  0.89021639129E+00  0.88000000000E+00 0. -1.
        -11    1    4    4    0    0  0.31060997151E-04 -0.17449199295E-01  0.67882747068E-02  0.18730117868E-01  0.51100000000E-03 0. -1.
         11    1    4    4    0    0 -0.48080385980E-01 -0.90928276121E-01  0.40191784584E-01  0.11043240278E+00  0.51100000000E-03 0.  1.
</event>
<event>
 8    1  0.1131349E+005  0.1043930E+01  0.7957747E-01            NaN
         13   -1    0    0    0    0  0.00000000000E+00  0.00000000000E+00  0.74505805969E-08  0.10566000000E+00  0.10566000000E+00 0. -1.
     999900   -1    0    0    0    0 -0.00000000000E+00 -0.00000000000E+00 -0.74505805969E-08  0.93827000000E+00  0.93827000000E+00 0. -1.
     999902    2    1    2    0    0 -0.20381522317E-01 -0.12965402797E-03 -0.82464649171E-02  0.10219430164E+01  0.10217064654E+01 0.  0.
     999903    2    3    3    0    0  0.10790996958E+00 -0.69298716521E-01 -0.92539428389E-02  0.12995418181E+00  0.18856836075E-01 0.  0.
         14    1    1    2    0    0  0.20381522317E-01  0.12965402797E-03  0.82464649171E-02  0.21986983553E-01  0.00000000000E+00 0. -1.
     999901    1    3    3    0    0 -0.12829149190E+00  0.69169062493E-01  0.10074779219E-02  0.89198883463E+00  0.88000000000E+00 0.  1.
        -11    1    4    4    0    0  0.23512832641E-01 -0.24805758441E-01 -0.11413163288E-02  0.34201501058E-01  0.51100000000E-03 0. -1.
         11    1    4    4    0    0  0.84397136938E-01 -0.44492958080E-01 -0.81126265101E-02  0.95752680755E-01  0.51100000000E-03 0.  1.
</event>
<event>
 8    1  0.1131349E+005  0.1043930E+01  0.7957747E-01            NaN
         13   -1    0    0    0    0  0.00000000000E+00  0.00000000000E+00  0.74505805969E-08  0.10566000000E+00  0.10566000000E+00 0.  1.
     999900   -1    0    0    0    0 -0.00000000000E+00 -0.00000000000E+00 -0.74505805969E-08  0.93827000000E+00  0.93827000000E+00 0. -1.
     999902    2    1    2    0    0  0.45642853038E-02  0.83086663837E-02 -0.22562989803E-01  0.10194564399E+01  0.10191626355E+01 0.  0.
     999903    2    3    3    0    0 -0.12576830005E+00 -0.19198289946E-01  0.72093442011E-02  0.12893434169E+00  0.19643069695E-01 0.  0.
         14    1    1    2    0    0 -0.45642853038E-02 -0.83086663837E-02  0.22562989803E-01  0.24473560147E-01  0.00000000000E+00 0.  1.
     999901    1    3    3    0    0  0.13033258536E+00  0.27506956330E-01 -0.29772334004E-01  0.89052209817E+00  0.88000000000E+00 0.  1.
        -11    1    4    4    0    0 -0.97884969248E-01 -0.10257031572E-01 -0.13206672582E-02  0.98431088505E-01  0.51100000000E-03 0. -1.
         11    1    4    4    0    0 -0.27883330805E-01 -0.89412583740E-02  0.85300114592E-02  0.30503253181E-01  0.51100000000E-03 0.  1.
</event>
<event>
 8    1  0.1131349E+005  0.1043930E+01  0.7957747E-01            NaN
         13   -1    0    0    0    0  0.00000000000E+00  0.00000000000E+00  0.74505805969E-08  0.10566000000E+00  0.10566000000E+00 0.  1.
     999900   -1    0    0    0    0 -0.00000000000E+00 -0.00000000000E+00 -0.74505805969E-08  0.93827000000E+00  0.93827000000E+00 0.  1.
     999902    2    1    2    0    0  0.12318413071E-02  0.21227706688E-01  0.11086665449E-01  0.10199498600E+01  0.10196679213E+01 0.  0.
     999903    2    3    3    0    0 -0.34503618604E-01  0.11367166923E-01 -0.12257384826E+00  0.12908545602E+00  0.17860417026E-01 0.  0.
         14    1    1    2    0    0 -0.12318413071E-02 -0.21227706688E-01 -0.11086665449E-01  0.23980140013E-01  0.00000000000E+00 0. -1.
     999901    1    3    3    0    0  0.35735459911E-01  0.98605397652E-02  0.13366051371E+00  0.89086440397E+00  0.88000000000E+00 0. -1.
        -11    1    4    4    0    0 -0.23786456655E-01  0.88441323355E-03 -0.56151431976E-01  0.60990344653E-01  0.51100000000E-03 0.  1.
         11    1    4    4    0    0 -0.10717161949E-01  0.10482753690E-01 -0.66422416286E-01  0.68095111362E-01  0.51100000000E-03 0. -1.
</event>
<event>
 8    1  0.1131349E+005  0.1043930E+01  0.7957747E-01            NaN
         13   -1    0    0    0    0  0.00000000000E+00  0.00000000000E+00  0.74505805969E-08  0.10566000000E+00  0.10566000000E+00 0. -1.
     999900   -1    0    0    0    0 -0.00000000000E+00 -0.00000000000E+00 -0.74505805969E-08  0.93827000000E+00  0.93827000000E+00 0.  1.
     999902    2    1    2    0    0 -0.95450926713E-02 -0.22238960951E-01  0.39498527230E-02  0.10194089577E+01  0.10191139983E+01 0.  0.
     999903    2    3    3    0    0  0.22800818034E-01 -0.10342692510E+00 -0.75667324944E-01  0.13150319783E+00  0.18722735815E-01 0.  0.
         14    1    1    2    0    0  0.95450926713E-02  0.22238960951E-01 -0.39498527230E-02  0.24521042287E-01  0.00000000000E+00 0.  1.
     999901    1    3    3    0    0 -0.32345910705E-01  0.81187964144E-01  0.79617177667E-01  0.88790575989E+00  0.88000000000E+00 0. -1.
        -11    1    4    4    0    0  0.15590101806E-01 -0.56173432830E-01 -0.30765622467E-01  0.65918817321E-01  0.51100000000E-03 0. -1.
         11    1    4    4    0    0  0.72107162282E-02 -0.47253492266E-01 -0.44901702478E-01  0.65584380505E-01  0.51100000000E-03 0.  1.
</event>
<event>
 8    1  0.1131349E+005  0.1043930E+01  0.7957747E-01            NaN
         13   -1    0    0    0    0  0.00000000000E+00  0.00000000000E+00  0.74505805969E-08  0.10566000000E+00  0.10566000000E+00 0. -1.
     999900   -1    0    0    0    0 -0.00000000000E+00 -0.00000000000E+00 -0.74505805969E-08  0.93827000000E+00  0.93827000000E+00 0.  1.
     999902    2    1    2    0    0  0.12887886750E-01 -0.31172664318E-01 -0.30564121437E-02  0.10100600387E+01  0.10094920046E+01 0.  0.
     999903    2    3    3    0    0  0.98600151880E-01 -0.58423500507E-02  0.69727148975E-01  0.12254346756E+00  0.19972559501E-01 0.  0.
         14    1    1    2    0    0 -0.12887886750E-01  0.31172664318E-01  0.30564121437E-02  0.33869961334E-01  0.00000000000E+00 0. -1.
     999901    1    3    3    0    0 -0.85712265131E-01 -0.25330314268E-01 -0.72783561119E-01  0.88751657110E+00  0.88000000000E+00 0. -1.
        -11    1    4    4    0    0  0.35895615483E-01  0.35561403925E-02  0.34935476608E-01  0.50218422837E-01  0.51100000000E-03 0.  1.
         11    1    4    4    0    0  0.62704536397E-01 -0.93984904431E-02  0.34791672367E-01  0.72325044725E-01  0.51100000000E-03 0. -1.
</event>
<event>
 8    1  0.1131349E+005  0.1043930E+01  0.7957747E-01            NaN
         13   -1    0    0    0    0  0.00000000000E+00  0.00000000000E+00  0.74505805969E-08  0.10566000000E+00  0.10566000000E+00 0. -1.
     999900   -1    0    0    0    0 -0.00000000000E+00 -0.00000000000E+00 -0.74505805969E-08  0.93827000000E+00  0.93827000000E+00 0.  1.
     999902    2    1    2    0    0 -0.18615834627E-01  0.10021775934E-01 -0.10241323708E-01  0.10204380864E+01  0.10201676422E+01 0.  0.
     999903    2    3    3    0    0  0.39470274936E-01 -0.37352072918E-01 -0.11716839588E+00  0.13080238771E+00  0.20682158577E-01 0.  0.
         14    1    1    2    0    0  0.18615834627E-01 -0.10021775934E-01  0.10241323708E-01  0.23491913567E-01  0.00000000000E+00 0.  1.
     999901    1    3    3    0    0 -0.58086109563E-01  0.47373848853E-01  0.10692707217E+00  0.88963569872E+00  0.88000000000E+00 0. -1.
        -11    1    4    4    0    0  0.32042252237E-01 -0.37807644723E-01 -0.91360738222E-01  0.10393829678E+00  0.51100000000E-03 0.  1.
         11    1    4    4    0    0  0.74280226996E-02  0.45557180468E-03 -0.25807657656E-01  0.26864090932E-01  0.51100000000E-03 0. -1.
</event>
<event>
 8    1  0.1131349E+005  0.1043930E+01  0.7957747E-01            NaN
         13   -1    0    0    0    0  0.00000000000E+00  0.00000000000E+00  0.74505805969E-08  0.10566000000E+00  0.10566000000E+00 0. -1.
     999900   -1    0    0    0    0 -0.00000000000E+00 -0.00000000000E+00 -0.74505805969E-08  0.93827000000E+00  0.93827000000E+00 0.  1.
     999902    2    1    2    0    0 -0.50322674005E-02  0.12736274511E-02  0.23342687148E-01  0.10200170979E+01  0.10197367568E+01 0.  0.
     999903    2    3    3    0    0 -0.45283156794E-01  0.10936480233E+00  0.54471812250E-01  0.13194454537E+00  0.20759586826E-01 0.  0.
         14    1    1    2    0    0  0.50322674005E-02 -0.12736274511E-02 -0.23342687148E-01  0.23912902069E-01  0.00000000000E+00 0.  1.
     999901    1    3    3    0    0  0.40250889393E-01 -0.10809117488E+00 -0.31129125102E-01  0.88807255256E+00  0.88000000000E+00 0.  1.
        -11    1    4    4    0    0 -0.31348696746E-01  0.48630914727E-01  0.26251742344E-01  0.63538348672E-01  0.51100000000E-03 0. -1.
         11    1    4    4    0    0 -0.13934460048E-01  0.60733887603E-01  0.28220069907E-01  0.68406196698E-01  0.51100000000E-03 0.  1.
</event>
<event>
 8    1  0.1131349E+005  0.1043930E+01  0.7957747E-01            NaN
         13   -1    0    0    0    0  0.00000000000E+00  0.00000000000E+00  0.74505805969E-08  0.10566000000E+00  0.10566000000E+00 0.  1.
     999900   -1    0    0    0    0 -0.00000000000E+00 -0.00000000000E+00 -0.74505805969E-08  0.93827000000E+00  0.93827000000E+00 0. -1.
     999902    2    1    2    0    0 -0.14251888426E-01  0.14331609812E-01  0.12315226734E-01  0.10202619588E+01  0.10199873962E+01 0.  0.
     999903    2    3    3    0    0  0.85022123604E-01  0.38976543824E-01 -0.85726307049E-01  0.12892877500E+00  0.22928079575E-01 0.  0.
         14    1    1    2    0    0  0.14251888426E-01 -0.14331609812E-01 -0.12315226734E-01  0.23668041174E-01  0.00000000000E+00 0. -1.
     999901    1    3    3    0    0 -0.99274012030E-01 -0.24644934012E-01  0.98041533783E-01  0.89133318382E+00  0.88000000000E+00 0. -1.
        -11    1    4    4    0    0  0.34434854493E-01  0.24064878916E-01 -0.26737356953E-01  0.49799849187E-01  0.51100000000E-03 0. -1.
         11    1    4    4    0    0  0.50587269110E-01  0.14911664907E-01 -0.58988950096E-01  0.79128925816E-01  0.51100000000E-03 0.  1.
</event>
<event>
 8    1  0.1131349E+005  0.1043930E+01  0.7957747E-01            NaN
         13   -1    0    0    0    0  0.00000000000E+00  0.00000000000E+00  0.74505805969E-08  0.10566000000E+00  0.10566000000E+00 0. -1.
     999900   -1    0    0    0    0 -0.00000000000E+00 -0.00000000000E+00 -0.74505805969E-08  0.93827000000E+00  0.93827000000E+00 0. -1.
     999902    2    1    2    0    0 -0.58085359240E-02 -0.22743853234E-01  0.60874238657E-02  0.10196796664E+01  0.10193912612E+01 0.  0.
     999903    2    3    3    0    0 -0.35688040912E-01 -0.12472353147E+00 -0.18504710864E-01  0.13294553903E+00  0.22416432735E-01 0.  0.
         14    1    1    2    0    0  0.58085359240E-02  0.22743853234E-01 -0.60874238657E-02  0.24250333582E-01  0.00000000000E+00 0. -1.
     999901    1    3    3    0    0  0.29879504988E-01  0.10197967823E+00  0.24592134730E-01  0.88673412739E+00  0.88000000000E+00 0.  1.
        -11    1    4    4    0    0 -0.21779167171E-01 -0.44102177199E-01 -0.13352920348E-01  0.50969557180E-01  0.51100000000E-03 0. -1.
         11    1    4    4    0    0 -0.13908873742E-01 -0.80621354270E-01 -0.51517905164E-02  0.81975981846E-01  0.51100000000E-03 0.  1.
</event>
<event>
 8    1  0.1131349E+005  0.1043930E+01  0.7957747E-01            NaN
         13   -1    0    0    0    0  0.00000000000E+00  0.00000000000E+00  0.74505805969E-08  0.10566000000E+00  0.10566000000E+00 0. -1.
     999900   -1    0    0    0    0 -0.00000000000E+00 -0.00000000000E+00 -0.74505805969E-08  0.93827000000E+00  0.93827000000E+00 0.  1.
     999902    2    1    2    0    0 -0.13632304855E-01 -0.18491283775E-01 -0.42561944983E-02  0.10205658715E+01  0.10202983953E+01 0.  0.
     999903    2    3    3    0    0 -0.60483648811E-02  0.51586137214E-01  0.11671227621E+00  0.12949812319E+00  0.21220184326E-01 0.  0.
         14    1    1    2    0    0  0.13632304855E-01  0.18491283775E-01  0.42561944983E-02  0.23364128550E-01  0.00000000000E+00 0.  1.
     999901    1    3    3    0    0 -0.75839399736E-02 -0.70077420989E-01 -0.12096847071E+00  0.89106774826E+00  0.88000000000E+00 0.  1.
        -11    1    4    4    0    0  0.16714821273E-02  0.42178475683E-02  0.30380648285E-01  0.30721800107E-01  0.51100000000E-03 0.  1.
         11    1    4    4    0    0 -0.77198470084E-02  0.47368289646E-01  0.86331627922E-01  0.98776323086E-01  0.51100000000E-03 0. -1.
</event>
<event>
 8    1  0.1131349E+005  0.1043930E+01  0.7957747E-01            NaN
         13   -1    0    0    0    0  0.00000000000E+00  0.00000000000E+00  0.74505805969E-08  0.10566000000E+00  0.10566000000E+00 0. -1.
     999900   -1    0    0    0    0 -0.00000000000E+00 -0.00000000000E+00 -0.74505805969E-08  0.93827000000E+00  0.93827000000E+00 0. -1.
     999902    2    1    2    0    0 -0.11512678265E-02  0.21690631792E-01 -0.90852471207E-02  0.10203853479E+01  0.10201136739E+01 0.  0.
     999903    2    3    3    0    0  0.94145962022E-01 -0.83452836645E-01  0.16621962082E-01  0.12864683718E+00  0.21115894120E-01 0.  0.
         14    1    1    2    0    0  0.11512678265E-02 -0.21690631792E-01  0.90852471207E-02  0.23544652055E-01  0.00000000000E+00 0. -1.
     999901    1    3    3    0    0 -0.95297229848E-01  0.10514346844E+00 -0.25707209203E-01  0.89173851076E+00  0.88000000000E+00 0. -1.
        -11    1    4    4    0    0  0.10108972010E-01 -0.16099663824E-01 -0.27662370185E-02  0.19217275524E-01  0.51100000000E-03 0. -1.
         11    1    4    4    0    0  0.84036990012E-01 -0.67353172821E-01  0.19388199100E-01  0.10942956166E+00  0.51100000000E-03 0.  1.
</event>
<event>
 8    1  0.1131349E+005  0.1043930E+01  0.7957747E-01            NaN
         13   -1    0    0    0    0  0.00000000000E+00  0.00000000000E+00  0.74505805969E-08  0.10566000000E+00  0.10566000000E+00 0.  1.
     999900   -1    0    0    0    0 -0.00000000000E+00 -0.00000000000E+00 -0.74505805969E-08  0.93827000000E+00  0.93827000000E+00 0.  1.
     999902    2    1    2    0    0 -0.81625527454E-02 -0.17522245589E-01 -0.13707674323E-01  0.10202328125E+01  0.10199575653E+01 0.  0.
     999903    2    3    3    0    0 -0.23839594642E-01  0.11266396650E+00 -0.55779640385E-01  0.12952283181E+00  0.20082331966E-01 0.  0.
         14    1    1    2    0    0  0.81625527454E-02  0.17522245589E-01  0.13707674323E-01  0.23697187452E-01  0.00000000000E+00 0. -1.
     999901    1    3    3    0    0  0.15677041896E-01 -0.13018621209E+00  0.42071966062E-01  0.89070998074E+00  0.88000000000E+00 0.  1.
        -11    1    4    4    0    0 -0.24711663010E-01  0.10824345813E+00 -0.48987966663E-01  0.12135647702E+00  0.51100000000E-03 0. -1.
         11    1    4    4    0    0  0.87206836865E-03  0.44205083712E-02 -0.67916737219E-02  0.81663547831E-02  0.51100000000E-03 0.  1.
</event>
<event>
 8    1  0.1131349E+005  0.1043930E+01  0.7957747E-01            NaN
         13   -1    0    0    0    0  0.00000000000E+00  0.00000000000E+00  0.74505805969E-08  0.10566000000E+00  0.10566000000E+00 0. -1.
     999900   -1    0    0    0    0 -0.00000000000E+00 -0.00000000000E+00 -0.74505805969E-08  0.93827000000E+00  0.93827000000E+00 0.  1.
     999902    2    1    2    0    0  0.21082282997E-02  0.15740650814E-01  0.17158265347E-01  0.10205501201E+01  0.10202822790E+01 0.  0.
     999903    2    3    3    0    0 -0.52624819127E-01  0.10082762483E+00 -0.62115050954E-01  0.13121342440E+00  0.20569435366E-01 0.  0.
         14    1    1    2    0    0 -0.21082282997E-02 -0.15740650814E-01 -0.17158265347E-01  0.23379879904E-01  0.00000000000E+00 0.  1.
     999901    1    3    3    0    0  0.54733047427E-01 -0.85086974017E-01  0.79273316301E-01  0.88933669569E+00  0.88000000000E+00 0. -1.
        -11    1    4    4    0    0 -0.18347128791E-01  0.25234208219E-01 -0.26316626642E-01  0.40819215550E-01  0.51100000000E-03 0.  1.
         11    1    4    4    0    0 -0.34277690336E-01  0.75593416613E-01 -0.35798424312E-01  0.90394208853E-01  0.51100000000E-03 0. -1.
</event>
<event>
 8    1  0.1131349E+005  0.1043930E+01  0.7957747E-01            NaN
         13   -1    0    0    0    0  0.00000000000E+00  0.00000000000E+00  0.74505805969E-08  0.10566000000E+00  0.10566000000E+00 0. -1.
     999900   -1    0    0    0    0 -0.00000000000E+00 -0.00000000000E+00 -0.74505805969E-08  0.93827000000E+00  0.93827000000E+00 0.  1.
     999902    2    1    2    0    0 -0.23650704086E-01  0.11103359996E-01 -0.56832489342E-02  0.10171916432E+01  0.10168401542E+01 0.  0.
     999903    2    3    3    0    0  0.32587766185E-01 -0.24065678988E-01 -0.11910420796E+00  0.12743665399E+00  0.20326559409E-01 0.  0.
         14    1    1    2    0    0  0.23650704086E-01 -0.11103359996E-01  0.56832489342E-02  0.26738356820E-01  0.00000000000E+00 0. -1.
     999901    1    3    3    0    0 -0.56238470271E-01  0.35169038984E-01  0.11342095902E+00  0.88975498919E+00  0.88000000000E+00 0. -1.
        -11    1    4    4    0    0  0.26606506516E-01 -0.89530550764E-02 -0.61978788380E-01  0.68041860014E-01  0.51100000000E-03 0.  1.
         11    1    4    4    0    0  0.59812596690E-02 -0.15112623912E-01 -0.57125419577E-01  0.59394793977E-01  0.51100000000E-03 0. -1.
</event>
<event>
 8    1  0.1131349E+005  0.1043930E+01  0.7957747E-01            NaN
         13   -1    0    0    0    0  0.00000000000E+00  0.00000000000E+00  0.74505805969E-08  0.10566000000E+00  0.10566000000E+00 0. -1.
     999900   -1    0    0    0    0 -0.00000000000E+00 -0.00000000000E+00 -0.74505805969E-08  0.93827000000E+00  0.93827000000E+00 0. -1.
     999902    2    1    2    0    0 -0.30437427261E-02  0.23635137232E-01  0.16717352185E-02  0.10200411160E+01  0.10197613444E+01 0.  0.
     999903    2    3    3    0    0  0.21754125638E-01  0.44666467979E-01 -0.11965080349E+00  0.13112244165E+00  0.20210011974E-01 0.  0.
         14    1    1    2    0    0  0.30437427261E-02 -0.23635137232E-01 -0.16717352185E-02  0.23888884034E-01  0.00000000000E+00 0.  1.
     999901    1    3    3    0    0 -0.24797868365E-01 -0.21031330747E-01  0.12132253871E+00  0.88891867432E+00  0.88000000000E+00 0.  1.
        -11    1    4    4    0    0  0.53419999733E-02  0.16761661157E-01 -0.21589278432E-01  0.27854053793E-01  0.51100000000E-03 0. -1.
         11    1    4    4    0    0  0.16412125665E-01  0.27904806821E-01 -0.98061525059E-01  0.10326838786E+00  0.51100000000E-03 0.  1.
</event>
<event>
 8    1  0.1131349E+005  0.1043930E+01  0.7957747E-01            NaN
         13   -1    0    0    0    0  0.00000000000E+00  0.00000000000E+00  0.74505805969E-08  0.10566000000E+00  0.10566000000E+00 0. -1.
     999900   -1    0    0    0    0 -0.00000000000E+00 -0.00000000000E+00 -0.74505805969E-08  0.93827000000E+00  0.93827000000E+00 0.  1.
     999902    2    1    2    0    0  0.18056969171E-01 -0.89756989303E-02  0.10704827906E-01  0.10210999617E+01  0.10208447096E+01 0.  0.
     999903    2    3    3    0    0  0.11876495806E+00 -0.46086269910E-01 -0.33231355238E-01  0.13349099282E+00  0.22055898443E-01 0.  0.
         14    1    1    2    0    0 -0.18056969171E-01  0.89756989303E-02 -0.10704827906E-01  0.22830038270E-01  0.00000000000E+00 0.  1.
     999901    1    3    3    0    0 -0.10070798889E+00  0.37110570979E-01  0.43936183144E-01  0.88760896891E+00  0.88000000000E+00 0. -1.
        -11    1    4    4    0    0  0.55593895819E-01 -0.12047902308E-01 -0.81138077466E-02  0.57462406837E-01  0.51100000000E-03 0. -1.
         11    1    4    4    0    0  0.63171062237E-01 -0.34038367602E-01 -0.25117547491E-01  0.76028585980E-01  0.51100000000E-03 0.  1.
</event>
<event>
 8    1  0.1131349E+005  0.1043930E+01  0.7957747E-01            NaN
         13   -1    0    0    0    0  0.00000000000E+00  0.00000000000E+00  0.74505805969E-08  0.10566000000E+00  0.10566000000E+00 0.  1.
     999900   -1    0    0    0    0 -0.00000000000E+00 -0.00000000000E+00 -0.74505805969E-08  0.93827000000E+00  0.93827000000E+00 0.  1.
     999902    2    1    2    0    0  0.14709124090E-01  0.85911818520E-02  0.16642318780E-01  0.10201154349E+01  0.10198374218E+01 0.  0.
     999903    2    3    3    0    0  0.12136260093E+00 -0.40453334817E-01 -0.22229396974E-01  0.13146964548E+00  0.20609910014E-01 0.  0.
         14    1    1    2    0    0 -0.14709124090E-01 -0.85911818520E-02 -0.16642318780E-01  0.23814565112E-01  0.00000000000E+00 0. -1.
     999901    1    3    3    0    0 -0.10665347684E+00  0.49044516669E-01  0.38871715754E-01  0.88864578940E+00  0.88000000000E+00 0. -1.
        -11    1    4    4    0    0  0.42302776139E-01 -0.24278057121E-01 -0.10885868855E-01  0.49977116647E-01  0.51100000000E-03 0. -1.
         11    1    4    4    0    0  0.79059824795E-01 -0.16175277696E-01 -0.11343528119E-01  0.81492528838E-01  0.51100000000E-03 0.  1.
</event>
<event>
 8    1  0.1131349E+005  0.1043930E+01  0.7957747E-01            NaN
         13   -1    0    0    0    0  0.00000000000E+00  0.00000000000E+00  0.74505805969E-08  0.10566000000E+00  0.10566000000E+00 0. -1.
     999900   -1    0    0    0    0 -0.00000000000E+00 -0.00000000000E+00 -0.74505805969E-08  0.93827000000E+00  0.93827000000E+00 0. -1.
     999902    2    1    2    0    0 -0.19771793360E-01 -0.81275984936E-02 -0.83757162015E-02  0.10209705947E+01  0.10207124085E+01 0.  0.
     999903    2    3    3    0    0 -0.80000849727E-02  0.45860997146E-01  0.11988673624E+00  0.12995735221E+00  0.18677565407E-01 0.  0.
         14    1    1    2    0    0  0.19771793360E-01  0.81275984936E-02  0.83757162015E-02  0.22959405302E-01  0.00000000000E+00 0. -1.
     999901    1    3    3    0    0 -0.11771708387E-01 -0.53988595639E-01 -0.12826245244E+00  0.89101324248E+00  0.88000000000E+00 0. -1.
        -11    1    4    4    0    0 -0.12793980196E-01  0.21979377469E-01  0.53445611275E-01  0.59190146551E-01  0.51100000000E-03 0.  1.
         11    1    4    4    0    0  0.47938952229E-02  0.23881619677E-01  0.66441124963E-01  0.70767205662E-01  0.51100000000E-03 0. -1.
</event>
<event>
 8    1  0.1131349E+005  0.1043930E+01  0.7957747E-01            NaN
         13   -1    0    0    0    0  0.00000000000E+00  0.00000000000E+00  0.74505805969E-08  0.10566000000E+00  0.10566000000E+00 0. -1.
     999900   -1    0    0    0    0 -0.00000000000E+00 -0.00000000000E+00 -0.74505805969E-08  0.93827000000E+00  0.93827000000E+00 0.  1.
     999902    2    1    2    0    0  0.14210893853E-01  0.57523556547E-02 -0.13416110396E-01  0.10235576875E+01  0.10233549279E+01 0.  0.
     999903    2    3    3    0    0 -0.71440407527E-01 -0.53969628286E-01 -0.96714160852E-01  0.13347823820E+00  0.21127199528E-01 0.  0.
         14    1    1    2    0    0 -0.14210893853E-01 -0.57523556547E-02  0.13416110396E-01  0.20372312530E-01  0.00000000000E+00 0. -1.
     999901    1    3    3    0    0  0.85651301380E-01  0.59721983941E-01  0.83298050456E-01  0.89007944926E+00  0.88000000000E+00 0. -1.
        -11    1    4    4    0    0 -0.61736349640E-01 -0.38122395310E-01 -0.83771790784E-01  0.11082719857E+00  0.51100000000E-03 0. -1.
         11    1    4    4    0    0 -0.97040578876E-02 -0.15847232976E-01 -0.12942370068E-01  0.22651039633E-01  0.51100000000E-03 0.  1.
</event>
<event>
 8    1  0.1131349E+005  0.1043930E+01  0.7957747E-01            NaN
         13   -1    0    0    0    0  0.00000000000E+00  0.00000000000E+00  0.74505805969E-08  0.10566000000E+00  0.10566000000E+00 0.  1.
     999900   -1    0    0    0    0 -0.00000000000E+00 -0.00000000000E+00 -0.74505805969E-08  0.93827000000E+00  0.93827000000E+00 0.  1.
     999902    2    1    2    0    0  0.22518271435E-01  0.18910906984E-02 -0.72812621880E-02  0.10201883583E+01  0.10199120652E+01 0.  0.
     999903    2    3    3    0    0  0.11860350220E+00 -0.36328336868E-01 -0.44732137330E-01  0.13334245043E+00  0.19816815673E-01 0.  0.
         14    1    1    2    0    0 -0.22518271435E-01 -0.18910906984E-02  0.72812621880E-02  0.23741641719E-01  0.00000000000E+00 0. -1.
     999901    1    3    3    0    0 -0.96085230767E-01  0.38219427566E-01  0.37450875143E-01  0.88684590785E+00  0.88000000000E+00 0. -1.
        -11    1    4    4    0    0  0.32054993402E-01 -0.16945094623E-01 -0.68784267910E-02  0.36908436839E-01  0.51100000000E-03 0. -1.
         11    1    4    4    0    0  0.86548508800E-01 -0.19383242245E-01 -0.37853710539E-01  0.96434013595E-01  0.51100000000E-03 0.  1.
</event>
<event>
 8    1  0.1131349E+005  0.1043930E+01  0.7957747E-01            NaN
         13   -1    0    0    0    0  0.00000000000E+00  0.00000000000E+00  0.74505805969E-08  0.10566000000E+00  0.10566000000E+00 0. -1.
     999900   -1    0    0    0    0 -0.00000000000E+00 -0.00000000000E+00 -0.74505805969E-08  0.93827000000E+00  0.93827000000E+00 0. -1.
     999902    2    1    2    0    0 -0.18048206079E-01  0.96626003626E-03  0.15069092071E-01  0.10203981293E+01  0.10201267536E+01 0.  0.
     999903    2    3    3    0    0 -0.45156312537E-01 -0.12130369905E+00  0.13996759750E-01  0.13153034264E+00  0.18725431568E-01 0.  0.
         14    1    1    2    0    0  0.18048206079E-01 -0.96626003626E-03 -0.15069092071E-01  0.23531870664E-01  0.00000000000E+00 0. -1.
     999901    1    3    3    0    0  0.27108106458E-01  0.12226995908E+00  0.10723323214E-02  0.88886778670E+00  0.88000000000E+00 0. -1.
        -11    1    4    4    0    0 -0.39536709535E-02 -0.47784614535E-02  0.42797260895E-02  0.75526408807E-02  0.51100000000E-03 0.  1.
         11    1    4    4    0    0 -0.41202641583E-01 -0.11652523759E+00  0.97170336603E-02  0.12397770176E+00  0.51100000000E-03 0. -1.
</event>
<event>
 8    1  0.1131349E+005  0.1043930E+01  0.7957747E-01            NaN
         13   -1    0    0    0    0  0.00000000000E+00  0.00000000000E+00  0.74505805969E-08  0.10566000000E+00  0.10566000000E+00 0.  1.
     999900   -1    0    0    0    0 -0.00000000000E+00 -0.00000000000E+00 -0.74505805969E-08  0.93827000000E+00  0.93827000000E+00 0.  1.
     999902    2    1    2    0    0 -0.31042152663E-01  0.11169402970E-01 -0.61268003530E-02  0.10103754401E+01  0.10098181131E+01 0.  0.
     999903    2    3    3    0    0  0.35848069968E-01  0.29223212608E-01 -0.11068165682E+00  0.12148176825E+00  0.19191419545E-01 0.  0.
         14    1    1    2    0    0  0.31042152663E-01 -0.11169402970E-01  0.61268003530E-02  0.33554559857E-01  0.00000000000E+00 0.  1.
     999901    1    3    3    0    0 -0.66890222631E-01 -0.18053809639E-01  0.10455485647E+00  0.88889367190E+00  0.88000000000E+00 0. -1.
        -11    1    4    4    0    0  0.22236647187E-01  0.27428072171E-01 -0.89714719806E-01  0.96414520131E-01  0.51100000000E-03 0.  1.
         11    1    4    4    0    0  0.13611422782E-01  0.17951404368E-02 -0.20966937014E-01  0.25067248116E-01  0.51100000000E-03 0. -1.
</event>
<event>
 8    1  0.1131349E+005  0.1043930E+01  0.7957747E-01            NaN
         13   -1    0    0    0    0  0.00000000000E+00  0.00000000000E+00  0.74505805969E-08  0.10566000000E+00  0.10566000000E+00 0.  1.
     999900   -1    0    0    0    0 -0.00000000000E+00 -0.00000000000E+00 -0.74505805969E-08  0.93827000000E+00  0.93827000000E+00 0. -1.
     999902    2    1    2    0    0 -0.53211109406E-04 -0.15164796210E-02  0.23493765532E-01  0.10203872822E+01  0.10201156533E+01 0.  0.
     999903    2    3    3    0    0 -0.19458306359E-01  0.11891348844E+00  0.48941312142E-01  0.13160861879E+00  0.20162665686E-01 0.  0.
         14    1    1    2    0    0  0.53211109406E-04  0.15164796210E-02 -0.23493765532E-01  0.23542717786E-01  0.00000000000E+00 0. -1.
     999901    1    3    3    0    0  0.19405095249E-01 -0.12042996806E+00 -0.25447546610E-01  0.88877866342E+00  0.88000000000E+00 0. -1.
        -11    1    4    4    0    0 -0.14416742702E-01  0.46292553907E-01  0.11890474204E-01  0.49924818630E-01  0.51100000000E-03 0.  1.
         11    1    4    4    0    0 -0.50415636562E-02  0.72620934529E-01  0.37050837937E-01  0.81683800162E-01  0.51100000000E-03 0. -1.
</event>
<event>
 8    1  0.1131349E+005  0.1043930E+01  0.7957747E-01            NaN
         13   -1    0    0    0    0  0.00000000000E+00  0.00000000000E+00  0.74505805969E-08  0.10566000000E+00  0.10566000000E+00 0.  1.
     999900   -1    0    0    0    0 -0.00000000000E+00 -0.00000000000E+00 -0.74505805969E-08  0.93827000000E+00  0.93827000000E+00 0.  1.
     999902    2    1    2    0    0 -0.42080284140E-02  0.15112292739E-01 -0.17772298161E-01  0.10202246530E+01  0.10199492140E+01 0.  0.
     999903    2    3    3    0    0  0.44645701204E-01  0.11686271241E+00 -0.39428482852E-01  0.13275137162E+00  0.20449675298E-01 0.  0.
         14    1    1    2    0    0  0.42080284140E-02 -0.15112292739E-01  0.17772298161E-01  0.23705347011E-01  0.00000000000E+00 0.  1.
     999901    1    3    3    0    0 -0.48853729618E-01 -0.10175041967E+00  0.21656184691E-01  0.88747328136E+00  0.88000000000E+00 0. -1.
        -11    1    4    4    0    0  0.45565272995E-02  0.30247518594E-01 -0.36008000745E-02  0.30804240038E-01  0.51100000000E-03 0. -1.
         11    1    4    4    0    0  0.40089173905E-01  0.86615193818E-01 -0.35827682778E-01  0.10194713159E+00  0.51100000000E-03 0.  1.
</event>
<event>
 8    1  0.1131349E+005  0.1043930E+01  0.7957747E-01            NaN
         13   -1    0    0    0    0  0.00000000000E+00  0.00000000000E+00  0.74505805969E-08  0.10566000000E+00  0.10566000000E+00 0.  1.
     999900   -1    0    0    0    0 -0.00000000000E+00 -0.00000000000E+00 -0.74505805969E-08  0.93827000000E+00  0.93827000000E+00 0.  1.
     999902    2    1    2    0    0  0.16547775609E-01  0.42792339019E-02  0.16142403675E-01  0.10204200464E+01  0.10201491819E+01 0.  0.
     999903    2    3    3    0    0 -0.46485330668E-01  0.10477076603E+00 -0.56881444574E-01  0.12946314347E+00  0.19682667485E-01 0.  0.
         14    1    1    2    0    0 -0.16547775609E-01 -0.42792339019E-02 -0.16142403675E-01  0.23509953569E-01  0.00000000000E+00 0. -1.
     999901    1    3    3    0    0  0.63033106277E-01 -0.10049153213E+00  0.73023848248E-01  0.89095690296E+00  0.88000000000E+00 0.  1.
        -11    1    4    4    0    0 -0.29752293266E-01  0.63234875603E-01 -0.23952415182E-01  0.73877112566E-01  0.51100000000E-03 0. -1.
         11    1    4    4    0    0 -0.16733037401E-01  0.41535890427E-01 -0.32929029392E-01  0.55586030907E-01  0.51100000000E-03 0.  1.
</event>
<event>
 8    1  0.1131349E+005  0.1043930E+01  0.7957747E-01            NaN
         13   -1    0    0    0    0  0.00000000000E+00  0.00000000000E+00  0.74505805969E-08  0.10566000000E+00  0.10566000000E+00 0.  1.
     999900   -1    0    0    0    0 -0.00000000000E+00 -0.00000000000E+00 -0.74505805969E-08  0.93827000000E+00  0.93827000000E+00 0.  1.
     999902    2    1    2    0    0 -0.15142860535E-01 -0.53308609108E-02  0.17912797669E-01  0.10198760477E+01  0.10195923499E+01 0.  0.
     999903    2    3    3    0    0  0.76259038738E-01 -0.10159312815E+00 -0.13291162582E-01  0.12937370716E+00  0.20598456893E-01 0.  0.
         14    1    1    2    0    0  0.15142860535E-01  0.53308609108E-02 -0.17912797669E-01  0.24053952348E-01  0.00000000000E+00 0. -1.
     999901    1    3    3    0    0 -0.91401899273E-01  0.96262267234E-01  0.31203960250E-01  0.89050234049E+00  0.88000000000E+00 0. -1.
        -11    1    4    4    0    0  0.17290916670E-01 -0.35092662631E-01 -0.10231041039E-01  0.40440154445E-01  0.51100000000E-03 0. -1.
         11    1    4    4    0    0  0.58968122069E-01 -0.66500465515E-01 -0.30601215421E-02  0.88933552717E-01  0.51100000000E-03 0.  1.
</event>
<event>
 8    1  0.1131349E+005  0.1043930E+01  0.7957747E-01            NaN
         13   -1    0    0    0    0  0.00000000000E+00  0.00000000000E+00  0.74505805969E-08  0.10566000000E+00  0.10566000000E+00 0.  1.
     999900   -1    0    0    0    0 -0.00000000000E+00 -0.00000000000E+00 -0.74505805969E-08  0.93827000000E+00  0.93827000000E+00 0. -1.
     999902    2    1    2    0    0  0.22446487102E-01  0.83522296851E-02  0.13560095349E-02  0.10199416010E+01  0.10196594658E+01 0.  0.
     999903    2    3    3    0    0 -0.10405936115E+00 -0.46808137395E-01 -0.53298410521E-01  0.12751037041E+00  0.19970518983E-01 0.  0.
         14    1    1    2    0    0 -0.22446487102E-01 -0.83522296851E-02 -0.13560095349E-02  0.23988398983E-01  0.00000000000E+00 0. -1.
     999901    1    3    3    0    0  0.12650584825E+00  0.55160367080E-01  0.54654420055E-01  0.89243123061E+00  0.88000000000E+00 0. -1.
        -11    1    4    4    0    0 -0.48983759708E-01 -0.22098858626E-01 -0.36106457170E-01  0.64743382968E-01  0.51100000000E-03 0. -1.
         11    1    4    4    0    0 -0.55075601439E-01 -0.24709278769E-01 -0.17191953350E-01  0.62766987439E-01  0.51100000000E-03 0.  1.
</event>
<event>
 8    1  0.1131349E+005  0.1043930E+01  0.7957747E-01            NaN
         13   -1    0    0    0    0  0.00000000000E+00  0.00000000000E+00  0.74505805969E-08  0.10566000000E+00  0.10566000000E+00 0.  1.
     999900   -1    0    0    0    0 -0.00000000000E+00 -0.00000000000E+00 -0.74505805969E-08  0.93827000000E+00  0.93827000000E+00 0.  1.
     999902    2    1    2    0    0  0.10068484305E-01  0.17968946726E-01  0.13953958254E-01  0.10190508848E+01  0.10187471401E+01 0.  0.
     999903    2    3    3    0    0 -0.71792782459E-01  0.18342614494E-01  0.10536637537E+00  0.13053659868E+00  0.21144157963E-01 0.  0.
         14    1    1    2    0    0 -0.10068484305E-01 -0.17968946726E-01 -0.13953958254E-01  0.24879115209E-01  0.00000000000E+00 0.  1.
     999901    1    3    3    0    0  0.81861266764E-01 -0.37366776792E-03 -0.91412417117E-01  0.88851428611E+00  0.88000000000E+00 0.  1.
        -11    1    4    4    0    0 -0.48840149459E-01  0.22772470396E-02  0.63147572973E-01  0.79865030812E-01  0.51100000000E-03 0.  1.
         11    1    4    4    0    0 -0.22952633000E-01  0.16065367454E-01  0.42218802398E-01  0.50671567866E-01  0.51100000000E-03 0. -1.
</event>
<event>
 8    1  0.1131349E+005  0.1043930E+01  0.7957747E-01            NaN
         13   -1    0    0    0    0  0.00000000000E+00  0.00000000000E+00  0.74505805969E-08  0.10566000000E+00  0.10566000000E+00 0. -1.
     999900   -1    0    0    0    0 -0.00000000000E+00 -0.00000000000E+00 -0.74505805969E-08  0.93827000000E+00  0.93827000000E+00 0. -1.
     999902    2    1    2    0    0  0.20810231127E-01 -0.13362013494E-01  0.18675670409E-02  0.10191288522E+01  0.10188270317E+01 0.  0.
     999903    2    3    3    0    0  0.68986504059E-01  0.63088888413E-01  0.86717868443E-01  0.13044146775E+00  0.27488947214E-01 0.  0.
         14    1    1    2    0    0 -0.20810231127E-01  0.13362013494E-01 -0.18675670409E-02  0.24801147772E-01  0.00000000000E+00 0.  1.
     999901    1    3    3    0    0 -0.48176272932E-01 -0.76450901907E-01 -0.84850301402E-01  0.88868738447E+00  0.88000000000E+00 0. -1.
        -11    1    4    4    0    0  0.24540827373E-01  0.28900875072E-01  0.18669119216E-01  0.42264759805E-01  0.51100000000E-03 0.  1.
         11    1    4    4    0    0  0.44445676686E-01  0.34188013341E-01  0.68048749226E-01  0.88176707948E-01  0.51100000000E-03 0. -1.
</event>
<event>
 8    1  0.1131349E+005  0.1043930E+01  0.7957747E-01            NaN
         13   -1    0    0    0    0  0.00000000000E+00  0.00000000000E+00  0.74505805969E-08  0.10566000000E+00  0.10566000000E+00 0. -1.
     999900   -1    0    0    0    0 -0.00000000000E+00 -0.00000000000E+00 -0.74505805969E-08  0.93827000000E+00  0.93827000000E+00 0.  1.
     999902    2    1    2    0    0  0.20000334500E-01  0.11695368064E-01 -0.55215263320E-02  0.10201123119E+01  0.10198342251E+01 0.  0.
     999903    2    3    3    0    0 -0.88795616924E-01 -0.74142005824E-01 -0.51045598777E-01  0.12810499410E+00  0.20580032716E-01 0.  0.
         14    1    1    2    0    0 -0.20000334500E-01 -0.11695368064E-01  0.55215263320E-02  0.23817688118E-01  0.00000000000E+00 0. -1.
     999901    1    3    3    0    0  0.10879595142E+00  0.85837373887E-01  0.45524072445E-01  0.89200731778E+00  0.88000000000E+00 0.  1.
        -11    1    4    4    0    0 -0.67732171516E-01 -0.60115857356E-01 -0.48317747056E-01  0.10264710987E+00  0.51100000000E-03 0. -1.
         11    1    4    4    0    0 -0.21063445409E-01 -0.14026148468E-01 -0.27278517213E-02  0.25457884228E-01  0.51100000000E-03 0.  1.
</event>
<event>
 8    1  0.1156362E+005  0.1043930E+01  0.7957747E-01            NaN
         13   -1    0    0    0    0  0.00000000000E+00  0.00000000000E+00  0.74505805969E-08  0.10566000000E+00  0.10566000000E+00 0.  1.
     999900   -1    0    0    0    0 -0.00000000000E+00 -0.00000000000E+00 -0.74505805969E-08  0.93827000000E+00  0.93827000000E+00 0.  1.
     999902    2    1    2    0    0 -0.22926214875E-02  0.19658203017E-01  0.14209324793E-01  0.10195659697E+01  0.10192748210E+01 0.  0.
     999903    2    3    3    0    0 -0.72669197603E-01 -0.55288728105E-01 -0.87083854381E-01  0.12780915699E+00  0.20345200435E-01 0.  0.
         14    1    1    2    0    0  0.22926214875E-02 -0.19658203017E-01 -0.14209324793E-01  0.24364030254E-01  0.00000000000E+00 0. -1.
     999901    1    3    3    0    0  0.70376576116E-01  0.74946931122E-01  0.10129317917E+00  0.89175681276E+00  0.88000000000E+00 0. -1.
        -11    1    4    4    0    0 -0.39732506789E-01 -0.23960486614E-01 -0.31881638669E-01  0.56298108492E-01  0.51100000000E-03 0. -1.
         11    1    4    4    0    0 -0.32936690814E-01 -0.31328241491E-01 -0.55202215712E-01  0.71511048497E-01  0.51100000000E-03 0.  1.
</event>
<event>
 8    1  0.1131349E+005  0.1043930E+01  0.7957747E-01            NaN
         13   -1    0    0    0    0  0.00000000000E+00  0.00000000000E+00  0.74505805969E-08  0.10566000000E+00  0.10566000000E+00 0.  1.
     999900   -1    0    0    0    0 -0.00000000000E+00 -0.00000000000E+00 -0.74505805969E-08  0.93827000000E+00  0.93827000000E+00 0.  1.
     999902    2    1    2    0    0 -0.94514153561E-02 -0.86703546150E-02  0.20520152957E-01  0.10197312195E+01  0.10194440539E+01 0.  0.
     999903    2    3    3    0    0  0.21142367134E-01 -0.63544429174E-01 -0.10755349133E+00  0.12824369744E+00  0.19844351032E-01 0.  0.
         14    1    1    2    0    0  0.94514153561E-02  0.86703546150E-02 -0.20520152957E-01  0.24198780522E-01  0.00000000000E+00 0. -1.
     999901    1    3    3    0    0 -0.30593782490E-01  0.54874074559E-01  0.12807364429E+00  0.89148752204E+00  0.88000000000E+00 0. -1.
        -11    1    4    4    0    0  0.18626573096E-02 -0.15468294825E-01 -0.12457733521E-01  0.19954795978E-01  0.51100000000E-03 0.  1.
         11    1    4    4    0    0  0.19279709825E-01 -0.48076134350E-01 -0.95095757814E-01  0.10828890146E+00  0.51100000000E-03 0. -1.
</event>
<event>
 8    1  0.1131349E+005  0.1043930E+01  0.7957747E-01            NaN
         13   -1    0    0    0    0  0.00000000000E+00  0.00000000000E+00  0.74505805969E-08  0.10566000000E+00  0.10566000000E+00 0.  1.
     999900   -1    0    0    0    0 -0.00000000000E+00 -0.00000000000E+00 -0.74505805969E-08  0.93827000000E+00  0.93827000000E+00 0.  1.
     999902    2    1    2    0    0 -0.17111123705E-01  0.96287531767E-03 -0.12878094528E-01  0.10224925794E+01  0.10222678279E+01 0.  0.
     999903    2    3    3    0    0  0.60953375883E-01  0.31551289633E-01 -0.11222795357E+00  0.13294206837E+00  0.19175037671E-01 0.  0.
         14    1    1    2    0    0  0.17111123705E-01 -0.96287531767E-03  0.12878094528E-01  0.21437420600E-01  0.00000000000E+00 0. -1.
     999901    1    3    3    0    0 -0.78064499589E-01 -0.30588414316E-01  0.99349859044E-01  0.88955051103E+00  0.88000000000E+00 0.  1.
        -11    1    4    4    0    0  0.52993106676E-01  0.33889766553E-01 -0.97538097993E-01  0.11606346244E+00  0.51100000000E-03 0. -1.
         11    1    4    4    0    0  0.79602692074E-02 -0.23384769194E-02 -0.14689855579E-01  0.16878605928E-01  0.51100000000E-03 0.  1.
</event>
<event>
 8    1  0.1131349E+005  0.1043930E+01  0.7957747E-01            NaN
         13   -1    0    0    0    0  0.00000000000E+00  0.00000000000E+00  0.74505805969E-08  0.10566000000E+00  0.10566000000E+00 0.  1.
     999900   -1    0    0    0    0 -0.00000000000E+00 -0.00000000000E+00 -0.74505805969E-08  0.93827000000E+00  0.93827000000E+00 0.  1.
     999902    2    1    2    0    0 -0.92885215946E-02 -0.41221494810E-02 -0.22080345662E-01  0.10196234080E+01  0.10193336469E+01 0.  0.
     999903    2    3    3    0    0 -0.90557204554E-01  0.90423210968E-01 -0.18281630126E-01  0.13082767543E+00  0.20117114085E-01 0.  0.
         14    1    1    2    0    0  0.92885215946E-02  0.41221494810E-02  0.22080345662E-01  0.24306591993E-01  0.00000000000E+00 0.  1.
     999901    1    3    3    0    0  0.81268682960E-01 -0.94545360449E-01 -0.37987155363E-02  0.88879573258E+00  0.88000000000E+00 0.  1.
        -11    1    4    4    0    0 -0.13691078889E-01  0.25149387944E-01 -0.57262506769E-02  0.29205965536E-01  0.51100000000E-03 0.  1.
         11    1    4    4    0    0 -0.76866125665E-01  0.65273823024E-01 -0.12555379449E-01  0.10162170989E+00  0.51100000000E-03 0. -1.
</event>
<event>
 8    1  0.1184263E+005  0.1043930E+01  0.7957747E-01            NaN
         13   -1    0    0    0    0  0.00000000000E+00  0.00000000000E+00  0.74505805969E-08  0.10566000000E+00  0.10566000000E+00 0. -1.
     999900   -1    0    0    0    0 -0.00000000000E+00 -0.00000000000E+00 -0.74505805969E-08  0.93827000000E+00  0.93827000000E+00 0.  1.
     999902    2    1    2    0    0  0.24278368195E-02  0.21323585085E-01 -0.10184622526E-01  0.10201746594E+01  0.10198980436E+01 0.  0.
     999903    2    3    3    0    0 -0.56601296961E-01  0.18352994863E-01  0.11326194996E+00  0.12959489354E+00  0.20640442926E-01 0.  0.
         14    1    1    2    0    0 -0.24278368195E-02 -0.21323585085E-01  0.10184622526E-01  0.23755340631E-01  0.00000000000E+00 0. -1.
     999901    1    3    3    0    0  0.59029133781E-01  0.29705902219E-02 -0.12344657249E+00  0.89057976583E+00  0.88000000000E+00 0.  1.
        -11    1    4    4    0    0 -0.25251302898E-01  0.18739474444E-01  0.61539391111E-01  0.69109724206E-01  0.51100000000E-03 0. -1.
         11    1    4    4    0    0 -0.31349994063E-01 -0.38647958108E-03  0.51722558853E-01  0.60485169336E-01  0.51100000000E-03 0.  1.
</event>
<event>
 8    1  0.1131349E+005  0.1043930E+01  0.7957747E-01            NaN
         13   -1    0    0    0    0  0.00000000000E+00  0.00000000000E+00  0.74505805969E-08  0.10566000000E+00  0.10566000000E+00 0. -1.
     999900   -1    0    0    0    0 -0.00000000000E+00 -0.00000000000E+00 -0.74505805969E-08  0.93827000000E+00  0.93827000000E+00 0. -1.
     999902    2    1    2    0    0  0.46324985001E-03  0.10092992506E-01  0.21679491114E-01  0.10200117343E+01  0.10197312659E+01 0.  0.
     999903    2    3    3    0    0 -0.25077334684E-02  0.85579672810E-01 -0.94995785861E-01  0.12910198249E+00  0.17690489725E-01 0.  0.
         14    1    1    2    0    0 -0.46324985001E-03 -0.10092992506E-01 -0.21679491114E-01  0.23918265680E-01  0.00000000000E+00 0.  1.
     999901    1    3    3    0    0  0.29709833184E-02 -0.75486680304E-01  0.11667527698E+00  0.89090975183E+00  0.88000000000E+00 0.  1.
        -11    1    4    4    0    0 -0.24856695802E-02  0.52502200187E-01 -0.70500718098E-01  0.87939024051E-01  0.51100000000E-03 0. -1.
         11    1    4    4    0    0 -0.22063888238E-04  0.33077472622E-01 -0.24495067763E-01  0.41162958441E-01  0.51100000000E-03 0.  1.
</event>
<event>
 8    1  0.1131349E+005  0.1043930E+01  0.7957747E-01            NaN
         13   -1    0    0    0    0  0.00000000000E+00  0.00000000000E+00  0.74505805969E-08  0.10566000000E+00  0.10566000000E+00 0.  1.
     999900   -1    0    0    0    0 -0.00000000000E+00 -0.00000000000E+00 -0.74505805969E-08  0.93827000000E+00  0.93827000000E+00 0. -1.
     999902    2    1    2    0    0 -0.11326306373E-01  0.13704888577E-01 -0.65126931758E-02  0.10249952605E+01  0.10248203549E+01 0.  0.
     999903    2    3    3    0    0 -0.38084127792E-01  0.99647556935E-01 -0.83540029441E-01  0.13705644856E+00  0.20627582960E-01 0.  0.
         14    1    1    2    0    0  0.11326306373E-01 -0.13704888577E-01  0.65126931758E-02  0.18934739485E-01  0.00000000000E+00 0.  1.
     999901    1    3    3    0    0  0.26757821419E-01 -0.85942668358E-01  0.77027336265E-01  0.88793881196E+00  0.88000000000E+00 0.  1.
        -11    1    4    4    0    0 -0.38070149527E-01  0.80520475013E-01 -0.73317934251E-01  0.11536318210E+00  0.51100000000E-03 0. -1.
         11    1    4    4    0    0 -0.13978264624E-04  0.19127081923E-01 -0.10222095191E-01  0.21693266452E-01  0.51100000000E-03 0.  1.
</event>
<event>
 8    1  0.1131349E+005  0.1043930E+01  0.7957747E-01            NaN
         13   -1    0    0    0    0  0.00000000000E+00  0.00000000000E+00  0.74505805969E-08  0.10566000000E+00  0.10566000000E+00 0. -1.
     999900   -1    0    0    0    0 -0.00000000000E+00 -0.00000000000E+00 -0.74505805969E-08  0.93827000000E+00  0.93827000000E+00 0.  1.
     999902    2    1    2    0    0 -0.20512358120E-01 -0.10662650634E-01  0.50291691173E-02  0.10202711434E+01  0.10199967963E+01 0.  0.
     999903    2    3    3    0    0  0.21104980904E-01 -0.47918591249E-01 -0.11722854461E+00  0.13006501187E+00  0.20802981447E-01 0.  0.
         14    1    1    2    0    0  0.20512358120E-01  0.10662650634E-01 -0.50291691173E-02  0.23658856612E-01  0.00000000000E+00 0. -1.
     999901    1    3    3    0    0 -0.41617339024E-01  0.37255940615E-01  0.12225771372E+00  0.89020613151E+00  0.88000000000E+00 0. -1.
        -11    1    4    4    0    0 -0.20541535219E-02 -0.10590804370E-01 -0.37615851296E-01  0.39135636875E-01  0.51100000000E-03 0. -1.
         11    1    4    4    0    0  0.23159134426E-01 -0.37327786879E-01 -0.79612693311E-01  0.90929375000E-01  0.51100000000E-03 0.  1.
</event>
<event>
 8    1  0.1238700E+005  0.1043930E+01  0.7957747E-01            NaN
         13   -1    0    0    0    0  0.00000000000E+00  0.00000000000E+00  0.74505805969E-08  0.10566000000E+00  0.10566000000E+00 0.  1.
     999900   -1    0    0    0    0 -0.00000000000E+00 -0.00000000000E+00 -0.74505805969E-08  0.93827000000E+00  0.93827000000E+00 0. -1.
     999902    2    1    2    0    0  0.10990247238E-01 -0.74019417240E-02  0.19271890479E-01  0.10205423956E+01  0.10202743755E+01 0.  0.
     999903    2    3    3    0    0 -0.67767356243E-02  0.96186869208E-02  0.13103698194E+00  0.13313222939E+00  0.20372937479E-01 0.  0.
         14    1    1    2    0    0 -0.10990247238E-01  0.74019417240E-02 -0.19271890479E-01  0.23387604372E-01  0.00000000000E+00 0. -1.
     999901    1    3    3    0    0  0.17766982862E-01 -0.17020628645E-01 -0.11176509146E+00  0.88741016624E+00  0.88000000000E+00 0. -1.
        -11    1    4    4    0    0 -0.10306232175E-01 -0.21431218718E-02  0.76822346569E-01  0.77541894782E-01  0.51100000000E-03 0. -1.
         11    1    4    4    0    0  0.35294965511E-02  0.11761808793E-01  0.54214635372E-01  0.55590334605E-01  0.51100000000E-03 0.  1.
</event>
<event>
 8    1  0.1131349E+005  0.1043930E+01  0.7957747E-01            NaN
         13   -1    0    0    0    0  0.00000000000E+00  0.00000000000E+00  0.74505805969E-08  0.10566000000E+00  0.10566000000E+00 0.  1.
     999900   -1    0    0    0    0 -0.00000000000E+00 -0.00000000000E+00 -0.74505805969E-08  0.93827000000E+00  0.93827000000E+00 0. -1.
     999902    2    1    2    0    0 -0.16134144239E-01  0.16212747947E-01 -0.60079700462E-02  0.10202813317E+01  0.10200072237E+01 0.  0.
     999903    2    3    3    0    0 -0.38766752768E-01 -0.10203416326E+00  0.66845065781E-01  0.12910114132E+00  0.16882247427E-01 0.  0.
         14    1    1    2    0    0  0.16134144239E-01 -0.16212747947E-01  0.60079700462E-02  0.23648668259E-01  0.00000000000E+00 0. -1.
     999901    1    3    3    0    0  0.22632608528E-01  0.11824691120E+00 -0.72853035827E-01  0.89118019043E+00  0.88000000000E+00 0. -1.
        -11    1    4    4    0    0 -0.23041931304E-01 -0.57969493902E-01  0.28400884830E-01  0.68543885225E-01  0.51100000000E-03 0.  1.
         11    1    4    4    0    0 -0.15724821463E-01 -0.44064669354E-01  0.38444180950E-01  0.60557256091E-01  0.51100000000E-03 0. -1.
</event>
<event>
 8    1  0.1131349E+005  0.1043930E+01  0.7957747E-01            NaN
         13   -1    0    0    0    0  0.00000000000E+00  0.00000000000E+00  0.74505805969E-08  0.10566000000E+00  0.10566000000E+00 0. -1.
     999900   -1    0    0    0    0 -0.00000000000E+00 -0.00000000000E+00 -0.74505805969E-08  0.93827000000E+00  0.93827000000E+00 0. -1.
     999902    2    1    2    0    0 -0.11697656523E-01  0.20980829527E-01 -0.60111056220E-03  0.10199010235E+01  0.10196179216E+01 0.  0.
     999903    2    3    3    0    0  0.41322291257E-01 -0.11861396735E+00  0.11999971077E-02  0.12731989772E+00  0.20787288380E-01 0.  0.
         14    1    1    2    0    0  0.11697656523E-01 -0.20980829527E-01  0.60111056220E-03  0.24028976459E-01  0.00000000000E+00 0.  1.
     999901    1    3    3    0    0 -0.53019947780E-01  0.13959479688E+00 -0.18011076699E-02  0.89258112582E+00  0.88000000000E+00 0.  1.
        -11    1    4    4    0    0 -0.13932436979E-02 -0.15961757114E-01  0.18069957890E-02  0.16132116195E-01  0.51100000000E-03 0.  1.
         11    1    4    4    0    0  0.42715534955E-01 -0.10265221024E+00 -0.60699868123E-03  0.11118778153E+00  0.51100000000E-03 0. -1.
</event>
<event>
 8    1  0.1131349E+005  0.1043930E+01  0.7957747E-01            NaN
         13   -1    0    0    0    0  0.00000000000E+00  0.00000000000E+00  0.74505805969E-08  0.10566000000E+00  0.10566000000E+00 0.  1.
     999900   -1    0    0    0    0 -0.00000000000E+00 -0.00000000000E+00 -0.74505805969E-08  0.93827000000E+00  0.93827000000E+00 0. -1.
     999902    2    1    2    0    0 -0.93803225417E-02 -0.16217062760E-01  0.12409725785E-01  0.10214581316E+01  0.10212109134E+01 0.  0.
     999903    2    3    3    0    0  0.26983883990E-01 -0.90860074097E-01 -0.87908571183E-01  0.13187525442E+00  0.26066890502E-01 0.  0.
         14    1    1    2    0    0  0.93803225417E-02  0.16217062760E-01 -0.12409725785E-01  0.22471868405E-01  0.00000000000E+00 0. -1.
     999901    1    3    3    0    0 -0.36364206532E-01  0.74643011337E-01  0.10031829697E+00  0.88958287718E+00  0.88000000000E+00 0.  1.
        -11    1    4    4    0    0  0.96936251923E-02 -0.72135692062E-01 -0.66373833529E-01  0.98505184315E-01  0.51100000000E-03 0.  1.
         11    1    4    4    0    0  0.17290258798E-01 -0.18724382035E-01 -0.21534737655E-01  0.33370070104E-01  0.51100000000E-03 0. -1.
</event>
<event>
 8    1  0.1131349E+005  0.1043930E+01  0.7957747E-01            NaN
         13   -1    0    0    0    0  0.00000000000E+00  0.00000000000E+00  0.74505805969E-08  0.10566000000E+00  0.10566000000E+00 0. -1.
     999900   -1    0    0    0    0 -0.00000000000E+00 -0.00000000000E+00 -0.74505805969E-08  0.93827000000E+00  0.93827000000E+00 0.  1.
     999902    2    1    2    0    0  0.23164576417E-01  0.19973717139E-02  0.13863339751E-02  0.10206381771E+01  0.10203723729E+01 0.  0.
     999903    2    3    3    0    0 -0.19536836361E-01 -0.33435684505E-01  0.12149875788E+00  0.13074722502E+00  0.28866168975E-01 0.  0.
         14    1    1    2    0    0 -0.23164576417E-01 -0.19973717139E-02 -0.13863339751E-02  0.23291822948E-01  0.00000000000E+00 0.  1.
     999901    1    3    3    0    0  0.42701412778E-01  0.35433056219E-01 -0.12011242391E+00  0.88989095203E+00  0.88000000000E+00 0.  1.
        -11    1    4    4    0    0 -0.16435478378E-01 -0.10905378037E-01  0.26360256306E-01  0.32926834849E-01  0.51100000000E-03 0. -1.
         11    1    4    4    0    0 -0.31013579825E-02 -0.22530306469E-01  0.95138501575E-01  0.97820390175E-01  0.51100000000E-03 0.  1.
</event>
<event>
 8    1  0.1131349E+005  0.1043930E+01  0.7957747E-01            NaN
         13   -1    0    0    0    0  0.00000000000E+00  0.00000000000E+00  0.74505805969E-08  0.10566000000E+00  0.10566000000E+00 0. -1.
     999900   -1    0    0    0    0 -0.00000000000E+00 -0.00000000000E+00 -0.74505805969E-08  0.93827000000E+00  0.93827000000E+00 0. -1.
     999902    2    1    2    0    0 -0.11427216732E-01 -0.18582118698E-01 -0.87288464097E-02  0.10204338476E+01  0.10201633047E+01 0.  0.
     999903    2    3    3    0    0  0.11419365960E+00  0.49110806922E-01  0.23473147022E-01  0.12835767086E+00  0.21740280297E-01 0.  0.
         14    1    1    2    0    0  0.11427216732E-01  0.18582118698E-01  0.87288464097E-02  0.23496152391E-01  0.00000000000E+00 0. -1.
     999901    1    3    3    0    0 -0.12562087633E+00 -0.67692925620E-01 -0.32201993432E-01  0.89207617675E+00  0.88000000000E+00 0.  1.
        -11    1    4    4    0    0  0.41154389382E-01  0.74177715030E-02  0.38626452661E-02  0.41998669609E-01  0.51100000000E-03 0.  1.
         11    1    4    4    0    0  0.73039270216E-01  0.41693035419E-01  0.19610501756E-01  0.86359001247E-01  0.51100000000E-03 0. -1.
</event>
<event>
 8    1  0.1131349E+005  0.1043930E+01  0.7957747E-01            NaN
         13   -1    0    0    0    0  0.00000000000E+00  0.00000000000E+00  0.74505805969E-08  0.10566000000E+00  0.10566000000E+00 0.  1.
     999900   -1    0    0    0    0 -0.00000000000E+00 -0.00000000000E+00 -0.74505805969E-08  0.93827000000E+00  0.93827000000E+00 0.  1.
     999902    2    1    2    0    0  0.11806913923E-01  0.62338806639E-02 -0.18877250728E-01  0.10208082553E+01  0.10205463630E+01 0.  0.
     999903    2    3    3    0    0  0.11801098227E+00  0.29168606993E-02  0.54156451367E-01  0.13141282668E+00  0.20032717668E-01 0.  0.
         14    1    1    2    0    0 -0.11806913923E-01 -0.62338806639E-02  0.18877250728E-01  0.23121744735E-01  0.00000000000E+00 0.  1.
     999901    1    3    3    0    0 -0.10620406835E+00  0.33170199647E-02 -0.73033702096E-01  0.88939542859E+00  0.88000000000E+00 0.  1.
        -11    1    4    4    0    0  0.84223274340E-01  0.67156947808E-02  0.29831959678E-01  0.89603947660E-01  0.51100000000E-03 0. -1.
         11    1    4    4    0    0  0.33787707931E-01 -0.37988340815E-02  0.24324491689E-01  0.41808879016E-01  0.51100000000E-03 0.  1.
</event>
<event>
 8    1  0.1131349E+005  0.1043930E+01  0.7957747E-01            NaN
         13   -1    0    0    0    0  0.00000000000E+00  0.00000000000E+00  0.74505805969E-08  0.10566000000E+00  0.10566000000E+00 0.  1.
     999900   -1    0    0    0    0 -0.00000000000E+00 -0.00000000000E+00 -0.74505805969E-08  0.93827000000E+00  0.93827000000E+00 0. -1.
     999902    2    1    2    0    0 -0.90538354233E-02  0.17953493018E-01 -0.11195288083E-01  0.10209162145E+01  0.10206567899E+01 0.  0.
     999903    2    3    3    0    0 -0.51243573894E-01 -0.66654666803E-01 -0.99129027003E-01  0.13149457255E+00  0.19887436829E-01 0.  0.
         14    1    1    2    0    0  0.90538354233E-02 -0.17953493018E-01  0.11195288083E-01  0.23013785492E-01  0.00000000000E+00 0.  1.
     999901    1    3    3    0    0  0.42189738471E-01  0.84608159821E-01  0.87933738921E-01  0.88942164196E+00  0.88000000000E+00 0.  1.
        -11    1    4    4    0    0 -0.39506873010E-01 -0.37142349530E-01 -0.56258617570E-01  0.78138596836E-01  0.51100000000E-03 0.  1.
         11    1    4    4    0    0 -0.11736700884E-01 -0.29512317273E-01 -0.42870409433E-01  0.53355975714E-01  0.51100000000E-03 0. -1.
</event>
<event>
 8    1  0.1131349E+005  0.1043930E+01  0.7957747E-01            NaN
         13   -1    0    0    0    0  0.00000000000E+00  0.00000000000E+00  0.74505805969E-08  0.10566000000E+00  0.10566000000E+00 0.  1.
     999900   -1    0    0    0    0 -0.00000000000E+00 -0.00000000000E+00 -0.74505805969E-08  0.93827000000E+00  0.93827000000E+00 0.  1.
     999902    2    1    2    0    0 -0.98248742493E-02 -0.13015733710E-02 -0.21080570104E-01  0.10206359518E+01  0.10203700963E+01 0.  0.
     999903    2    3    3    0    0 -0.11892735961E+00 -0.29674090450E-01  0.42185946570E-01  0.13119174094E+00  0.20182920900E-01 0.  0.
         14    1    1    2    0    0  0.98248742493E-02  0.13015733710E-02  0.21080570104E-01  0.23294048234E-01  0.00000000000E+00 0.  1.
     999901    1    3    3    0    0  0.10910248536E+00  0.28372517079E-01 -0.63266516674E-01  0.88944421082E+00  0.88000000000E+00 0.  1.
        -11    1    4    4    0    0 -0.72571049239E-01 -0.27019497960E-01  0.21580981562E-01  0.80390362258E-01  0.51100000000E-03 0.  1.
         11    1    4    4    0    0 -0.46356310368E-01 -0.26545924901E-02  0.20604965008E-01  0.50801378684E-01  0.51100000000E-03 0. -1.
</event>
<event>
 8    1  0.1131349E+005  0.1043930E+01  0.7957747E-01            NaN
         13   -1    0    0    0    0  0.00000000000E+00  0.00000000000E+00  0.74505805969E-08  0.10566000000E+00  0.10566000000E+00 0.  1.
     999900   -1    0    0    0    0 -0.00000000000E+00 -0.00000000000E+00 -0.74505805969E-08  0.93827000000E+00  0.93827000000E+00 0. -1.
     999902    2    1    2    0    0 -0.12325667813E-02 -0.23739345764E-01  0.37874123160E-02  0.10198588503E+01  0.10195747418E+01 0.  0.
     999903    2    3    3    0    0  0.99354971730E-01  0.13154667389E-01 -0.79635681117E-01  0.12944409654E+00  0.19221777760E-01 0.  0.
         14    1    1    2    0    0  0.12325667813E-02  0.23739345764E-01 -0.37874123160E-02  0.24071149749E-01  0.00000000000E+00 0. -1.
     999901    1    3    3    0    0 -0.10058753851E+00 -0.36894013154E-01  0.83423093433E-01  0.89041475371E+00  0.88000000000E+00 0.  1.
        -11    1    4    4    0    0  0.21525716891E-01  0.94046586093E-02 -0.12632527867E-01  0.26676693434E-01  0.51100000000E-03 0.  1.
         11    1    4    4    0    0  0.77829254838E-01  0.37500087798E-02 -0.67003153250E-01  0.10276740311E+00  0.51100000000E-03 0. -1.
</event>
<event>
 8    1  0.1131349E+005  0.1043930E+01  0.7957747E-01            NaN
         13   -1    0    0    0    0  0.00000000000E+00  0.00000000000E+00  0.74505805969E-08  0.10566000000E+00  0.10566000000E+00 0.  1.
     999900   -1    0    0    0    0 -0.00000000000E+00 -0.00000000000E+00 -0.74505805969E-08  0.93827000000E+00  0.93827000000E+00 0.  1.
     999902    2    1    2    0    0  0.24024921754E-01  0.73688532634E-02  0.26755559192E-02  0.10186583664E+01  0.10183448395E+01 0.  0.
     999903    2    3    3    0    0  0.93490650670E-02 -0.32303246541E-02 -0.12687399328E+00  0.12898943417E+00  0.21057633776E-01 0.  0.
         14    1    1    2    0    0 -0.24024921754E-01 -0.73688532634E-02 -0.26755559192E-02  0.25271633568E-01  0.00000000000E+00 0. -1.
     999901    1    3    3    0    0  0.14675856687E-01  0.10599177917E-01  0.12954954920E+00  0.88966893227E+00  0.88000000000E+00 0. -1.
        -11    1    4    4    0    0  0.13164982051E-01 -0.32417870924E-02 -0.12212278495E+00  0.12287417003E+00  0.51100000000E-03 0. -1.
         11    1    4    4    0    0 -0.38159169844E-02  0.11462438348E-04 -0.47512083295E-02  0.61152641324E-02  0.51100000000E-03 0.  1.
</event>
<event>
 8    1  0.1131349E+005  0.1043930E+01  0.7957747E-01            NaN
         13   -1    0    0    0    0  0.00000000000E+00  0.00000000000E+00  0.74505805969E-08  0.10566000000E+00  0.10566000000E+00 0.  1.
     999900   -1    0    0    0    0 -0.00000000000E+00 -0.00000000000E+00 -0.74505805969E-08  0.93827000000E+00  0.93827000000E+00 0. -1.
     999902    2    1    2    0    0  0.14312427973E-01 -0.66905515099E-02  0.16161748271E-01  0.10213288677E+01  0.10210787652E+01 0.  0.
     999903    2    3    3    0    0  0.52545055187E-01 -0.11786319199E+00 -0.24418608566E-01  0.13258376637E+00  0.18151358362E-01 0.  0.
         14    1    1    2    0    0 -0.14312427973E-01  0.66905515099E-02 -0.16161748271E-01  0.22601132298E-01  0.00000000000E+00 0. -1.
     999901    1    3    3    0    0 -0.38232627214E-01  0.11117264048E+00  0.40580356837E-01  0.88874510133E+00  0.88000000000E+00 0.  1.
        -11    1    4    4    0    0  0.46596130770E-01 -0.89058543456E-01 -0.23121523173E-01  0.10313820592E+00  0.51100000000E-03 0.  1.
         11    1    4    4    0    0  0.59489244162E-02 -0.28804648535E-01 -0.12970853929E-02  0.29445560454E-01  0.51100000000E-03 0. -1.
</event>
<event>
 8    1  0.1131349E+005  0.1043930E+01  0.7957747E-01            NaN
         13   -1    0    0    0    0  0.00000000000E+00  0.00000000000E+00  0.74505805969E-08  0.10566000000E+00  0.10566000000E+00 0. -1.
     999900   -1    0    0    0    0 -0.00000000000E+00 -0.00000000000E+00 -0.74505805969E-08  0.93827000000E+00  0.93827000000E+00 0.  1.
     999902    2    1    2    0    0 -0.21179075063E-01  0.82750006452E-02  0.60095662575E-02  0.10204109919E+01  0.10201399162E+01 0.  0.
     999903    2    3    3    0    0 -0.13291304568E-01 -0.92431002685E-01 -0.87593105872E-01  0.12970039003E+00  0.20724139121E-01 0.  0.
         14    1    1    2    0    0  0.21179075063E-01 -0.82750006452E-02 -0.60095662575E-02  0.23519008117E-01  0.00000000000E+00 0.  1.
     999901    1    3    3    0    0 -0.78877704955E-02  0.10070600333E+00  0.93602672129E-01  0.89071060186E+00  0.88000000000E+00 0. -1.
        -11    1    4    4    0    0 -0.94263934341E-02 -0.17713688378E-01 -0.12228138646E-01  0.23503619825E-01  0.51100000000E-03 0. -1.
         11    1    4    4    0    0 -0.38649111336E-02 -0.74717314306E-01 -0.75364967226E-01  0.10619677020E+00  0.51100000000E-03 0.  1.
</event>
<event>
 8    1  0.1131349E+005  0.1043930E+01  0.7957747E-01            NaN
         13   -1    0    0    0    0  0.00000000000E+00  0.00000000000E+00  0.74505805969E-08  0.10566000000E+00  0.10566000000E+00 0.  1.
     999900   -1    0    0    0    0 -0.00000000000E+00 -0.00000000000E+00 -0.74505805969E-08  0.93827000000E+00  0.93827000000E+00 0. -1.
     999902    2    1    2    0    0 -0.22355327934E-01  0.52462521559E-02  0.33489151879E-02  0.10207244170E+01  0.10204606001E+01 0.  0.
     999903    2    3    3    0    0 -0.15140407058E-01 -0.10447443182E+00 -0.73997944755E-01  0.13051476737E+00  0.20353619953E-01 0.  0.
         14    1    1    2    0    0  0.22355327934E-01 -0.52462521559E-02 -0.33489151879E-02  0.23205582985E-01  0.00000000000E+00 0.  1.
     999901    1    3    3    0    0 -0.72149208759E-02  0.10972068397E+00  0.77346859943E-01  0.89020964964E+00  0.88000000000E+00 0.  1.
        -11    1    4    4    0    0 -0.13747508372E-01 -0.81438499234E-01 -0.47133016186E-01  0.95094718464E-01  0.51100000000E-03 0.  1.
         11    1    4    4    0    0 -0.13928986863E-02 -0.23035932582E-01 -0.26864928570E-01  0.35420048909E-01  0.51100000000E-03 0. -1.
</event>
<event>
 8    1  0.1131349E+005  0.1043930E+01  0.7957747E-01            NaN
         13   -1    0    0    0    0  0.00000000000E+00  0.00000000000E+00  0.74505805969E-08  0.10566000000E+00  0.10566000000E+00 0. -1.
     999900   -1    0    0    0    0 -0.00000000000E+00 -0.00000000000E+00 -0.74505805969E-08  0.93827000000E+00  0.93827000000E+00 0.  1.
     999902    2    1    2    0    0  0.24132222839E-01  0.41861774743E-02 -0.27854602669E-02  0.10192795020E+01  0.10189813817E+01 0.  0.
     999903    2    3    3    0    0 -0.51539531590E-01  0.84668136544E-01  0.77728516197E-01  0.12872570773E+00  0.26524873928E-01 0.  0.
         14    1    1    2    0    0 -0.24132222839E-01 -0.41861774743E-02  0.27854602669E-02  0.24650497964E-01  0.00000000000E+00 0.  1.
     999901    1    3    3    0    0  0.75671754429E-01 -0.80481959070E-01 -0.80513976464E-01  0.89055379431E+00  0.88000000000E+00 0. -1.
        -11    1    4    4    0    0 -0.33896253502E-01  0.69365090250E-01  0.69729447737E-01  0.10403330596E+00  0.51100000000E-03 0.  1.
         11    1    4    4    0    0 -0.17643278088E-01  0.15303046294E-01  0.79990684599E-02  0.24692401763E-01  0.51100000000E-03 0. -1.
</event>
<event>
 8    1  0.1131349E+005  0.1043930E+01  0.7957747E-01            NaN
         13   -1    0    0    0    0  0.00000000000E+00  0.00000000000E+00  0.74505805969E-08  0.10566000000E+00  0.10566000000E+00 0. -1.
     999900   -1    0    0    0    0 -0.00000000000E+00 -0.00000000000E+00 -0.74505805969E-08  0.93827000000E+00  0.93827000000E+00 0. -1.
     999902    2    1    2    0    0  0.32497111992E-02  0.20840116218E-01 -0.45667610905E-02  0.10223493055E+01  0.10221215075E+01 0.  0.
     999903    2    3    3    0    0  0.84450628452E-01  0.81894498440E-01  0.61082180919E-01  0.13407513044E+00  0.20161603497E-01 0.  0.
         14    1    1    2    0    0 -0.32497111992E-02 -0.20840116218E-01  0.45667610905E-02  0.21580694467E-01  0.00000000000E+00 0. -1.
     999901    1    3    3    0    0 -0.81200917253E-01 -0.61054382223E-01 -0.65648942009E-01  0.88827417509E+00  0.88000000000E+00 0. -1.
        -11    1    4    4    0    0  0.74605408973E-01  0.63175649096E-01  0.54456036057E-01  0.11190554352E+00  0.51100000000E-03 0. -1.
         11    1    4    4    0    0  0.98452194798E-02  0.18718849344E-01  0.66261448619E-02  0.22169586918E-01  0.51100000000E-03 0.  1.
</event>
<event>
 8    1  0.1131349E+005  0.1043930E+01  0.7957747E-01            NaN
         13   -1    0    0    0    0  0.00000000000E+00  0.00000000000E+00  0.74505805969E-08  0.10566000000E+00  0.10566000000E+00 0.  1.
     999900   -1    0    0    0    0 -0.00000000000E+00 -0.00000000000E+00 -0.74505805969E-08  0.93827000000E+00  0.93827000000E+00 0.  1.
     999902    2    1    2    0    0 -0.94374215849E-02 -0.20627272969E-01  0.54230949399E-02  0.10206070655E+01  0.10203405426E+01 0.  0.
     999903    2    3    3    0    0  0.90582228285E-01 -0.38922593564E-01 -0.81876453992E-01  0.13046108848E+00  0.24417893382E-01 0.  0.
         14    1    1    2    0    0  0.94374215849E-02  0.20627272969E-01 -0.54230949399E-02  0.23322934529E-01  0.00000000000E+00 0. -1.
     999901    1    3    3    0    0 -0.10001964987E+00  0.18295320595E-01  0.87299548932E-01  0.89014597699E+00  0.88000000000E+00 0. -1.
        -11    1    4    4    0    0  0.48293769497E-01 -0.10015613952E-01 -0.30966006891E-01  0.58238779166E-01  0.51100000000E-03 0. -1.
         11    1    4    4    0    0  0.42288458789E-01 -0.28906979612E-01 -0.50910447102E-01  0.72222309310E-01  0.51100000000E-03 0.  1.
</event>
<event>
 8    1  0.1131349E+005  0.1043930E+01  0.7957747E-01            NaN
         13   -1    0    0    0    0  0.00000000000E+00  0.00000000000E+00  0.74505805969E-08  0.10566000000E+00  0.10566000000E+00 0.  1.
     999900   -1    0    0    0    0 -0.00000000000E+00 -0.00000000000E+00 -0.74505805969E-08  0.93827000000E+00  0.93827000000E+00 0. -1.
     999902    2    1    2    0    0 -0.83515146064E-02 -0.21761204593E-01 -0.28306823177E-02  0.10204499961E+01  0.10201798292E+01 0.  0.
     999903    2    3    3    0    0  0.58712004711E-01  0.20427715041E-03 -0.11514600441E+00  0.13050913873E+00  0.18080147534E-01 0.  0.
         14    1    1    2    0    0  0.83515146064E-02  0.21761204593E-01  0.28306823177E-02  0.23480003917E-01  0.00000000000E+00 0. -1.
     999901    1    3    3    0    0 -0.67063519317E-01 -0.21965481744E-01  0.11231532209E+00  0.88994085735E+00  0.88000000000E+00 0.  1.
        -11    1    4    4    0    0  0.17768105360E-01 -0.23186348564E-02 -0.53815312609E-01  0.56722399701E-01  0.51100000000E-03 0. -1.
         11    1    4    4    0    0  0.40943899351E-01  0.25229120068E-02 -0.61330691797E-01  0.73786739028E-01  0.51100000000E-03 0.  1.
</event>
<event>
 8    1  0.1131349E+005  0.1043930E+01  0.7957747E-01            NaN
         13   -1    0    0    0    0  0.00000000000E+00  0.00000000000E+00  0.74505805969E-08  0.10566000000E+00  0.10566000000E+00 0.  1.
     999900   -1    0    0    0    0 -0.00000000000E+00 -0.00000000000E+00 -0.74505805969E-08  0.93827000000E+00  0.93827000000E+00 0. -1.
     999902    2    1    2    0    0  0.15945761105E-01 -0.10037497659E-01  0.14672254782E-01  0.10200491768E+01  0.10197695962E+01 0.  0.
     999903    2    3    3    0    0  0.11736180105E+00 -0.60551446611E-01 -0.87828087030E-03  0.13264921547E+00  0.12440777983E-01 0.  0.
         14    1    1    2    0    0 -0.15945761105E-01  0.10037497659E-01 -0.14672254782E-01  0.23880823203E-01  0.00000000000E+00 0. -1.
     999901    1    3    3    0    0 -0.10141603994E+00  0.50513948952E-01  0.15550535653E-01  0.88739996132E+00  0.88000000000E+00 0.  1.
        -11    1    4    4    0    0  0.67277977094E-01 -0.31118254392E-01 -0.57523569730E-02  0.74350673770E-01  0.51100000000E-03 0.  1.
         11    1    4    4    0    0  0.50083823953E-01 -0.29433192219E-01  0.48740761027E-02  0.58298541704E-01  0.51100000000E-03 0. -1.
</event>
<event>
 8    1  0.1131349E+005  0.1043930E+01  0.7957747E-01            NaN
         13   -1    0    0    0    0  0.00000000000E+00  0.00000000000E+00  0.74505805969E-08  0.10566000000E+00  0.10566000000E+00 0. -1.
     999900   -1    0    0    0    0 -0.00000000000E+00 -0.00000000000E+00 -0.74505805969E-08  0.93827000000E+00  0.93827000000E+00 0.  1.
     999902    2    1    2    0    0 -0.21787881282E-01 -0.12284896331E-01 -0.22612447257E-01  0.10102112631E+01  0.10096483758E+01 0.  0.
     999903    2    3    3    0    0  0.44371841512E-01 -0.11000272122E+00 -0.22569871546E-01  0.12233408462E+00  0.19666473076E-01 0.  0.
         14    1    1    2    0    0  0.21787881282E-01  0.12284896331E-01  0.22612447257E-01  0.33718736921E-01  0.00000000000E+00 0.  1.
     999901    1    3    3    0    0 -0.66159722794E-01  0.97717824885E-01 -0.42575710843E-04  0.88787717846E+00  0.88000000000E+00 0.  1.
        -11    1    4    4    0    0  0.25296177312E-01 -0.47077073744E-01 -0.18099116577E-01  0.56426825188E-01  0.51100000000E-03 0. -1.
         11    1    4    4    0    0  0.19075664201E-01 -0.62925647472E-01 -0.44707549693E-02  0.65907259429E-01  0.51100000000E-03 0.  1.
</event>
<event>
 8    1  0.1131349E+005  0.1043930E+01  0.7957747E-01            NaN
         13   -1    0    0    0    0  0.00000000000E+00  0.00000000000E+00  0.74505805969E-08  0.10566000000E+00  0.10566000000E+00 0. -1.
     999900   -1    0    0    0    0 -0.00000000000E+00 -0.00000000000E+00 -0.74505805969E-08  0.93827000000E+00  0.93827000000E+00 0.  1.
     999902    2    1    2    0    0  0.23323016785E-01  0.28815485828E-02 -0.24176647990E-02  0.10203056156E+01  0.10200320768E+01 0.  0.
     999903    2    3    3    0    0  0.98603694644E-01 -0.24859526248E-01  0.82626148203E-01  0.13257299945E+00  0.20194929376E-01 0.  0.
         14    1    1    2    0    0 -0.23323016785E-01 -0.28815485828E-02  0.24176647990E-02  0.23624384379E-01  0.00000000000E+00 0.  1.
     999901    1    3    3    0    0 -0.75280677859E-01  0.27741074831E-01 -0.85043813002E-01  0.88773261618E+00  0.88000000000E+00 0.  1.
        -11    1    4    4    0    0  0.18693656798E-01 -0.58546889978E-02  0.66797121304E-02  0.20702895037E-01  0.51100000000E-03 0. -1.
         11    1    4    4    0    0  0.79910037846E-01 -0.19004837250E-01  0.75946436072E-01  0.11187010441E+00  0.51100000000E-03 0.  1.
</event>
<event>
 8    1  0.1131349E+005  0.1043930E+01  0.7957747E-01            NaN
         13   -1    0    0    0    0  0.00000000000E+00  0.00000000000E+00  0.74505805969E-08  0.10566000000E+00  0.10566000000E+00 0. -1.
     999900   -1    0    0    0    0 -0.00000000000E+00 -0.00000000000E+00 -0.74505805969E-08  0.93827000000E+00  0.93827000000E+00 0. -1.
     999902    2    1    2    0    0  0.55974316761E-02 -0.39038535334E-02 -0.23951374647E-01  0.10190253888E+01  0.10187210135E+01 0.  0.
     999903    2    3    3    0    0  0.10233252860E+00 -0.40763274506E-01  0.63084064499E-01  0.12869316786E+00  0.21183514901E-01 0.  0.
         14    1    1    2    0    0 -0.55974316761E-02  0.39038535334E-02  0.23951374647E-01  0.24904611245E-01  0.00000000000E+00 0. -1.
     999901    1    3    3    0    0 -0.96735096921E-01  0.36859420973E-01 -0.87035439145E-01  0.89033222089E+00  0.88000000000E+00 0. -1.
        -11    1    4    4    0    0  0.32609299045E-01 -0.14113390737E-01  0.32050663019E-01  0.47854574528E-01  0.51100000000E-03 0.  1.
         11    1    4    4    0    0  0.69723229553E-01 -0.26649883769E-01  0.31033401480E-01  0.80838593336E-01  0.51100000000E-03 0. -1.
</event>
<event>
 8    1  0.1131349E+005  0.1043930E+01  0.7957747E-01            NaN
         13   -1    0    0    0    0  0.00000000000E+00  0.00000000000E+00  0.74505805969E-08  0.10566000000E+00  0.10566000000E+00 0. -1.
     999900   -1    0    0    0    0 -0.00000000000E+00 -0.00000000000E+00 -0.74505805969E-08  0.93827000000E+00  0.93827000000E+00 0.  1.
     999902    2    1    2    0    0 -0.23326315322E-01 -0.73553827267E-02 -0.81607954177E-02  0.10181459502E+01  0.10178194136E+01 0.  0.
     999903    2    3    3    0    0  0.37615472192E-01  0.41987884877E-01 -0.11401303929E+00  0.12834071475E+00  0.17159828366E-01 0.  0.
         14    1    1    2    0    0  0.23326315322E-01  0.73553827267E-02  0.81607954177E-02  0.25784049786E-01  0.00000000000E+00 0. -1.
     999901    1    3    3    0    0 -0.60941787514E-01 -0.49343267604E-01  0.10585224387E+00  0.88980523546E+00  0.88000000000E+00 0. -1.
        -11    1    4    4    0    0  0.24600259229E-01  0.37371392424E-01 -0.80683246729E-01  0.92259639873E-01  0.51100000000E-03 0.  1.
         11    1    4    4    0    0  0.13015212963E-01  0.46164924536E-02 -0.33329792563E-01  0.36081074878E-01  0.51100000000E-03 0. -1.
</event>
<event>
 8    1  0.1131349E+005  0.1043930E+01  0.7957747E-01            NaN
         13   -1    0    0    0    0  0.00000000000E+00  0.00000000000E+00  0.74505805969E-08  0.10566000000E+00  0.10566000000E+00 0.  1.
     999900   -1    0    0    0    0 -0.00000000000E+00 -0.00000000000E+00 -0.74505805969E-08  0.93827000000E+00  0.93827000000E+00 0. -1.
     999902    2    1    2    0    0  0.20374107570E-01  0.27875081533E-02 -0.11704974201E-01  0.10202681978E+01  0.10199937817E+01 0.  0.
     999903    2    3    3    0    0 -0.33482071034E-01  0.11648095362E+00  0.41806474794E-01  0.12971210039E+00  0.19712585220E-01 0.  0.
         14    1    1    2    0    0 -0.20374107570E-01 -0.27875081533E-02  0.11704974201E-01  0.23661802172E-01  0.00000000000E+00 0.  1.
     999901    1    3    3    0    0  0.53856178605E-01 -0.11369344546E+00 -0.53511448994E-01  0.89055609744E+00  0.88000000000E+00 0.  1.
        -11    1    4    4    0    0 -0.21832690601E-01  0.48846301191E-01  0.24964787614E-01  0.59043452309E-01  0.51100000000E-03 0.  1.
         11    1    4    4    0    0 -0.11649380434E-01  0.67634652426E-01  0.16841687179E-01  0.70668648079E-01  0.51100000000E-03 0. -1.
</event>
<event>
 8    1  0.1131349E+005  0.1043930E+01  0.7957747E-01            NaN
         13   -1    0    0    0    0  0.00000000000E+00  0.00000000000E+00  0.74505805969E-08  0.10566000000E+00  0.10566000000E+00 0. -1.
     999900   -1    0    0    0    0 -0.00000000000E+00 -0.00000000000E+00 -0.74505805969E-08  0.93827000000E+00  0.93827000000E+00 0.  1.
     999902    2    1    2    0    0 -0.12837706703E-01 -0.17875398208E-01 -0.13143977549E-01  0.10182960241E+01  0.10179733258E+01 0.  0.
     999903    2    3    3    0    0 -0.57000149086E-01 -0.67406135148E-01  0.92548937464E-01  0.12949086688E+00  0.20247832693E-01 0.  0.
         14    1    1    2    0    0  0.12837706703E-01  0.17875398208E-01  0.13143977549E-01  0.25633975897E-01  0.00000000000E+00 0.  1.
     999901    1    3    3    0    0  0.44162442382E-01  0.49530736940E-01 -0.10569291501E+00  0.88880515722E+00  0.88000000000E+00 0.  1.
        -11    1    4    4    0    0 -0.28519913970E-01 -0.36408554217E-01  0.62572064435E-01  0.77810620623E-01  0.51100000000E-03 0.  1.
         11    1    4    4    0    0 -0.28480235116E-01 -0.30997580931E-01  0.29976873028E-01  0.51680246259E-01  0.51100000000E-03 0. -1.
</event>
<event>
 8    1  0.1131349E+005  0.1043930E+01  0.7957747E-01            NaN
         13   -1    0    0    0    0  0.00000000000E+00  0.00000000000E+00  0.74505805969E-08  0.10566000000E+00  0.10566000000E+00 0. -1.
     999900   -1    0    0    0    0 -0.00000000000E+00 -0.00000000000E+00 -0.74505805969E-08  0.93827000000E+00  0.93827000000E+00 0.  1.
     999902    2    1    2    0    0  0.96680902240E-02 -0.90653111209E-02  0.19405976529E-01  0.10204301328E+01  0.10201595033E+01 0.  0.
     999903    2    3    3    0    0  0.99895307805E-01  0.12508983673E-01  0.84760899812E-01  0.13314344462E+00  0.20179680733E-01 0.  0.
         14    1    1    2    0    0 -0.96680902240E-02  0.90653111209E-02 -0.19405976529E-01  0.23499867220E-01  0.00000000000E+00 0.  1.
     999901    1    3    3    0    0 -0.90227217581E-01 -0.21574294794E-01 -0.65354923282E-01  0.88728668816E+00  0.88000000000E+00 0.  1.
        -11    1    4    4    0    0  0.52078548859E-01  0.90930813523E-02  0.31752076288E-01  0.61671021148E-01  0.51100000000E-03 0. -1.
         11    1    4    4    0    0  0.47816758946E-01  0.34159023211E-02  0.53008823523E-01  0.71472423473E-01  0.51100000000E-03 0.  1.
</event>
<event>
 8    1  0.1131349E+005  0.1043930E+01  0.7957747E-01            NaN
         13   -1    0    0    0    0  0.00000000000E+00  0.00000000000E+00  0.74505805969E-08  0.10566000000E+00  0.10566000000E+00 0.  1.
     999900   -1    0    0    0    0 -0.00000000000E+00 -0.00000000000E+00 -0.74505805969E-08  0.93827000000E+00  0.93827000000E+00 0.  1.
     999902    2    1    2    0    0  0.16803905849E-01 -0.10616217432E-01  0.12472498408E-01  0.10204643114E+01  0.10201944777E+01 0.  0.
     999903    2    3    3    0    0 -0.12047073168E+00 -0.25683208653E-01  0.31090286035E-01  0.12949968678E+00  0.25114509588E-01 0.  0.
         14    1    1    2    0    0 -0.16803905849E-01  0.10616217432E-01 -0.12472498408E-01  0.23465688588E-01  0.00000000000E+00 0. -1.
     999901    1    3    3    0    0  0.13727463753E+00  0.15066991220E-01 -0.18617787627E-01  0.89096462463E+00  0.88000000000E+00 0.  1.
        -11    1    4    4    0    0 -0.79987819034E-01 -0.27750041538E-01  0.26420010621E-01  0.88692694634E-01  0.51100000000E-03 0. -1.
         11    1    4    4    0    0 -0.40482912645E-01  0.20668328853E-02  0.46702754140E-02  0.40806992144E-01  0.51100000000E-03 0.  1.
</event>
<event>
 8    1  0.1131349E+005  0.1043930E+01  0.7957747E-01            NaN
         13   -1    0    0    0    0  0.00000000000E+00  0.00000000000E+00  0.74505805969E-08  0.10566000000E+00  0.10566000000E+00 0. -1.
     999900   -1    0    0    0    0 -0.00000000000E+00 -0.00000000000E+00 -0.74505805969E-08  0.93827000000E+00  0.93827000000E+00 0. -1.
     999902    2    1    2    0    0 -0.53438165166E-02  0.15927120796E-01 -0.52380528189E-02  0.10263326494E+01  0.10261817775E+01 0.  0.
     999903    2    3    3    0    0  0.11880263606E+00 -0.61778269330E-02 -0.61870320166E-01  0.13554188600E+00  0.19784702780E-01 0.  0.
         14    1    1    2    0    0  0.53438165166E-02 -0.15927120796E-01  0.52380528189E-02  0.17597350629E-01  0.00000000000E+00 0.  1.
     999901    1    3    3    0    0 -0.12414645257E+00  0.22104947729E-01  0.56632267347E-01  0.89079076337E+00  0.88000000000E+00 0.  1.
        -11    1    4    4    0    0  0.69722920081E-01  0.39254276587E-02 -0.29032502561E-01  0.75629636340E-01  0.51100000000E-03 0. -1.
         11    1    4    4    0    0  0.49079715974E-01 -0.10103254592E-01 -0.32837817605E-01  0.59912249661E-01  0.51100000000E-03 0.  1.
</event>
<event>
 8    1  0.1131349E+005  0.1043930E+01  0.7957747E-01            NaN
         13   -1    0    0    0    0  0.00000000000E+00  0.00000000000E+00  0.74505805969E-08  0.10566000000E+00  0.10566000000E+00 0. -1.
     999900   -1    0    0    0    0 -0.00000000000E+00 -0.00000000000E+00 -0.74505805969E-08  0.93827000000E+00  0.93827000000E+00 0. -1.
     999902    2    1    2    0    0  0.71816669932E-02 -0.22449070746E-01 -0.28916781668E-02  0.10201834440E+01  0.10199070352E+01 0.  0.
     999903    2    3    3    0    0  0.98544329844E-01  0.45937292068E-01  0.68387215664E-01  0.12995621938E+00  0.19763297891E-01 0.  0.
         14    1    1    2    0    0 -0.71816669932E-02  0.22449070746E-01  0.28916781668E-02  0.23746555977E-01  0.00000000000E+00 0.  1.
     999901    1    3    3    0    0 -0.91362662851E-01 -0.68386362814E-01 -0.71278893830E-01  0.89022722464E+00  0.88000000000E+00 0. -1.
        -11    1    4    4    0    0  0.48854567348E-01  0.15686645374E-01  0.40869793640E-01  0.65600615447E-01  0.51100000000E-03 0. -1.
         11    1    4    4    0    0  0.49689762495E-01  0.30250646695E-01  0.27517422024E-01  0.64355603937E-01  0.51100000000E-03 0.  1.
</event>
<event>
 8    1  0.1131349E+005  0.1043930E+01  0.7957747E-01            NaN
         13   -1    0    0    0    0  0.00000000000E+00  0.00000000000E+00  0.74505805969E-08  0.10566000000E+00  0.10566000000E+00 0.  1.
     999900   -1    0    0    0    0 -0.00000000000E+00 -0.00000000000E+00 -0.74505805969E-08  0.93827000000E+00  0.93827000000E+00 0. -1.
     999902    2    1    2    0    0 -0.59998989158E-02  0.30497832774E-03  0.22762751046E-01  0.10203878116E+01  0.10201161951E+01 0.  0.
     999903    2    3    3    0    0  0.21512677964E-01 -0.12597022881E+00 -0.13812726090E-01  0.13019674485E+00  0.20714900617E-01 0.  0.
         14    1    1    2    0    0  0.59998989158E-02 -0.30497832774E-03 -0.22762751046E-01  0.23542188385E-01  0.00000000000E+00 0.  1.
     999901    1    3    3    0    0 -0.27512576880E-01  0.12627520714E+00  0.36575477136E-01  0.89019106677E+00  0.88000000000E+00 0.  1.
        -11    1    4    4    0    0  0.42644457183E-02 -0.83275697171E-01 -0.10141385263E-01  0.84000809833E-01  0.51100000000E-03 0.  1.
         11    1    4    4    0    0  0.17248232246E-01 -0.42694531638E-01 -0.36713408276E-02  0.46195935014E-01  0.51100000000E-03 0. -1.
</event>
<event>
 8    1  0.1131349E+005  0.1043930E+01  0.7957747E-01            NaN
         13   -1    0    0    0    0  0.00000000000E+00  0.00000000000E+00  0.74505805969E-08  0.10566000000E+00  0.10566000000E+00 0. -1.
     999900   -1    0    0    0    0 -0.00000000000E+00 -0.00000000000E+00 -0.74505805969E-08  0.93827000000E+00  0.93827000000E+00 0. -1.
     999902    2    1    2    0    0 -0.11436710361E-01  0.18144612682E-02  0.20231331639E-01  0.10206191143E+01  0.10203528699E+01 0.  0.
     999903    2    3    3    0    0 -0.35066606095E-01 -0.61248065133E-01  0.11236783298E+00  0.13324974975E+00  0.12164438910E-01 0.  0.
         14    1    1    2    0    0  0.11436710361E-01 -0.18144612682E-02 -0.20231331639E-01  0.23310885729E-01  0.00000000000E+00 0.  1.
     999901    1    3    3    0    0  0.23629895735E-01  0.63062526401E-01 -0.92136501343E-01  0.88736936452E+00  0.88000000000E+00 0. -1.
        -11    1    4    4    0    0  0.61401923909E-04 -0.46785840407E-02  0.46895955509E-02  0.66442716872E-02  0.51100000000E-03 0. -1.
         11    1    4    4    0    0 -0.35128008019E-01 -0.56569481092E-01  0.10767823743E+00  0.12660547806E+00  0.51100000000E-03 0.  1.
</event>
<event>
 8    1  0.1131349E+005  0.1043930E+01  0.7957747E-01            NaN
         13   -1    0    0    0    0  0.00000000000E+00  0.00000000000E+00  0.74505805969E-08  0.10566000000E+00  0.10566000000E+00 0. -1.
     999900   -1    0    0    0    0 -0.00000000000E+00 -0.00000000000E+00 -0.74505805969E-08  0.93827000000E+00  0.93827000000E+00 0.  1.
     999902    2    1    2    0    0 -0.10269674898E-01  0.21611055109E-01 -0.69593018228E-02  0.10190114164E+01  0.10187066953E+01 0.  0.
     999903    2    3    3    0    0 -0.47132386920E-01  0.19214159896E-01 -0.11895737040E+00  0.13114421239E+00  0.21384635426E-01 0.  0.
         14    1    1    2    0    0  0.10269674898E-01 -0.21611055109E-01  0.69593018228E-02  0.24918583573E-01  0.00000000000E+00 0. -1.
     999901    1    3    3    0    0  0.36862712022E-01  0.23968952127E-02  0.11199806858E+00  0.88786720404E+00  0.88000000000E+00 0. -1.
        -11    1    4    4    0    0 -0.30778190825E-01  0.18526038274E-01 -0.99061156429E-01  0.10537497311E+00  0.51100000000E-03 0. -1.
         11    1    4    4    0    0 -0.16354196095E-01  0.68812162224E-03 -0.19896213973E-01  0.25769239274E-01  0.51100000000E-03 0.  1.
</event>
<event>
 8    1  0.1131349E+005  0.1043930E+01  0.7957747E-01            NaN
         13   -1    0    0    0    0  0.00000000000E+00  0.00000000000E+00  0.74505805969E-08  0.10566000000E+00  0.10566000000E+00 0.  1.
     999900   -1    0    0    0    0 -0.00000000000E+00 -0.00000000000E+00 -0.74505805969E-08  0.93827000000E+00  0.93827000000E+00 0. -1.
     999902    2    1    2    0    0  0.65711852430E-02  0.16056280150E-01 -0.16046930696E-01  0.10202976368E+01  0.10200239110E+01 0.  0.
     999903    2    3    3    0    0  0.42594079988E-01  0.12022623871E+00 -0.33506125472E-01  0.13324980676E+00  0.19085241222E-01 0.  0.
         14    1    1    2    0    0 -0.65711852430E-02 -0.16056280150E-01  0.16046930696E-01  0.23632363244E-01  0.00000000000E+00 0.  1.
     999901    1    3    3    0    0 -0.36022894745E-01 -0.10416995857E+00  0.17459194776E-01  0.88704782999E+00  0.88000000000E+00 0.  1.
        -11    1    4    4    0    0  0.74219862634E-02  0.18710047913E-01  0.16601021507E-02  0.20203188687E-01  0.51100000000E-03 0. -1.
         11    1    4    4    0    0  0.35172093725E-01  0.10151619080E+00 -0.35166227623E-01  0.11304661808E+00  0.51100000000E-03 0.  1.
</event>
<event>
 8    1  0.1131349E+005  0.1043930E+01  0.7957747E-01            NaN
         13   -1    0    0    0    0  0.00000000000E+00  0.00000000000E+00  0.74505805969E-08  0.10566000000E+00  0.10566000000E+00 0.  1.
     999900   -1    0    0    0    0 -0.00000000000E+00 -0.00000000000E+00 -0.74505805969E-08  0.93827000000E+00  0.93827000000E+00 0.  1.
     999902    2    1    2    0    0 -0.79795828174E-02 -0.17114505329E-01  0.14468946140E-01  0.10201407075E+01  0.10198632912E+01 0.  0.
     999903    2    3    3    0    0  0.56203432159E-02 -0.90671068912E-01 -0.91776310693E-01  0.13059948833E+00  0.19506515610E-01 0.  0.
         14    1    1    2    0    0  0.79795828174E-02  0.17114505329E-01 -0.14468946140E-01  0.23789292486E-01  0.00000000000E+00 0. -1.
     999901    1    3    3    0    0 -0.13599926033E-01  0.73556563583E-01  0.10624525683E+00  0.88954121919E+00  0.88000000000E+00 0. -1.
        -11    1    4    4    0    0  0.60026473384E-02 -0.37054333772E-01 -0.50535607339E-01  0.62953666744E-01  0.51100000000E-03 0.  1.
         11    1    4    4    0    0 -0.38230412246E-03 -0.53616735139E-01 -0.41240703354E-01  0.67645821583E-01  0.51100000000E-03 0. -1.
</event>
<event>
 8    1  0.1131349E+005  0.1043930E+01  0.7957747E-01            NaN
         13   -1    0    0    0    0  0.00000000000E+00  0.00000000000E+00  0.74505805969E-08  0.10566000000E+00  0.10566000000E+00 0. -1.
     999900   -1    0    0    0    0 -0.00000000000E+00 -0.00000000000E+00 -0.74505805969E-08  0.93827000000E+00  0.93827000000E+00 0.  1.
     999902    2    1    2    0    0  0.16447583406E-01  0.13705619775E-01  0.10479873794E-01  0.10200931636E+01  0.10198146242E+01 0.  0.
     999903    2    3    3    0    0  0.73923734168E-01 -0.17265826467E-01  0.10688059371E+00  0.13242439816E+00  0.18706487622E-01 0.  0.
         14    1    1    2    0    0 -0.16447583406E-01 -0.13705619775E-01 -0.10479873794E-01  0.23836836369E-01  0.00000000000E+00 0. -1.
     999901    1    3    3    0    0 -0.57476150762E-01  0.30971446242E-01 -0.96400719919E-01  0.88766876547E+00  0.88000000000E+00 0.  1.
        -11    1    4    4    0    0  0.32238742960E-01 -0.16928714373E-01  0.52788379780E-01  0.64131053935E-01  0.51100000000E-03 0. -1.
         11    1    4    4    0    0  0.41684991208E-01 -0.33711209409E-03  0.54092213933E-01  0.68293344227E-01  0.51100000000E-03 0.  1.
</event>
<event>
 8    1  0.1131349E+005  0.1043930E+01  0.7957747E-01            NaN
         13   -1    0    0    0    0  0.00000000000E+00  0.00000000000E+00  0.74505805969E-08  0.10566000000E+00  0.10566000000E+00 0.  1.
     999900   -1    0    0    0    0 -0.00000000000E+00 -0.00000000000E+00 -0.74505805969E-08  0.93827000000E+00  0.93827000000E+00 0. -1.
     999902    2    1    2    0    0  0.36191564320E-02  0.26463782178E-02  0.24007906491E-01  0.10195070357E+01  0.10192144596E+01 0.  0.
     999903    2    3    3    0    0 -0.24121212436E-01  0.60419943956E-01 -0.10776967146E+00  0.12739009101E+00  0.19532810401E-01 0.  0.
         14    1    1    2    0    0 -0.36191564320E-02 -0.26463782178E-02 -0.24007906491E-01  0.24422964297E-01  0.00000000000E+00 0. -1.
     999901    1    3    3    0    0  0.27740368868E-01 -0.57773565739E-01  0.13177757796E+00  0.89211694470E+00  0.88000000000E+00 0.  1.
        -11    1    4    4    0    0 -0.59625902293E-02  0.39621246472E-01 -0.58467613300E-01  0.70881017066E-01  0.51100000000E-03 0. -1.
         11    1    4    4    0    0 -0.18158622206E-01  0.20798697484E-01 -0.49302058164E-01  0.56509073941E-01  0.51100000000E-03 0.  1.
</event>
<event>
 8    1  0.1131349E+005  0.1043930E+01  0.7957747E-01            NaN
         13   -1    0    0    0    0  0.00000000000E+00  0.00000000000E+00  0.74505805969E-08  0.10566000000E+00  0.10566000000E+00 0.  1.
     999900   -1    0    0    0    0 -0.00000000000E+00 -0.00000000000E+00 -0.74505805969E-08  0.93827000000E+00  0.93827000000E+00 0.  1.
     999902    2    1    2    0    0 -0.18445915099E-01 -0.55869873984E-02  0.13328079715E-01  0.10204970335E+01  0.10202279605E+01 0.  0.
     999903    2    3    3    0    0 -0.13815875005E-01 -0.23055577928E-01 -0.12509900598E+00  0.12949274223E+00  0.19904042764E-01 0.  0.
         14    1    1    2    0    0  0.18445915099E-01  0.55869873984E-02 -0.13328079715E-01  0.23432966541E-01  0.00000000000E+00 0. -1.
     999901    1    3    3    0    0 -0.46300400938E-02  0.17468590530E-01  0.13842708570E+00  0.89100429122E+00  0.88000000000E+00 0. -1.
        -11    1    4    4    0    0 -0.18901993947E-01 -0.19390793477E-01 -0.10467631767E+00  0.10812345189E+00  0.51100000000E-03 0.  1.
         11    1    4    4    0    0  0.50861189419E-02 -0.36647844508E-02 -0.20422688308E-01  0.21369290341E-01  0.51100000000E-03 0. -1.
</event>
<event>
 8    1  0.1131349E+005  0.1043930E+01  0.7957747E-01            NaN
         13   -1    0    0    0    0  0.00000000000E+00  0.00000000000E+00  0.74505805969E-08  0.10566000000E+00  0.10566000000E+00 0.  1.
     999900   -1    0    0    0    0 -0.00000000000E+00 -0.00000000000E+00 -0.74505805969E-08  0.93827000000E+00  0.93827000000E+00 0.  1.
     999902    2    1    2    0    0 -0.32547239518E-02  0.97546177323E-02  0.20946821104E-01  0.10205951525E+01  0.10203283541E+01 0.  0.
     999903    2    3    3    0    0  0.23766627368E-01 -0.21099863233E-02 -0.12519297961E+00  0.12805508972E+00  0.12470735315E-01 0.  0.
         14    1    1    2    0    0  0.32547239518E-02 -0.97546177323E-02 -0.20946821104E-01  0.23334847535E-01  0.00000000000E+00 0. -1.
     999901    1    3    3    0    0 -0.27021351320E-01  0.11864604056E-01  0.14613980072E+00  0.89254006275E+00  0.88000000000E+00 0. -1.
        -11    1    4    4    0    0  0.13327242743E-01  0.44073072622E-02 -0.53582296020E-01  0.55392809319E-01  0.51100000000E-03 0. -1.
         11    1    4    4    0    0  0.10439384626E-01 -0.65172935855E-02 -0.71610683593E-01  0.72662280398E-01  0.51100000000E-03 0.  1.
</event>
<event>
 8    1  0.1131349E+005  0.1043930E+01  0.7957747E-01            NaN
         13   -1    0    0    0    0  0.00000000000E+00  0.00000000000E+00  0.74505805969E-08  0.10566000000E+00  0.10566000000E+00 0.  1.
     999900   -1    0    0    0    0 -0.00000000000E+00 -0.00000000000E+00 -0.74505805969E-08  0.93827000000E+00  0.93827000000E+00 0. -1.
     999902    2    1    2    0    0 -0.91992798496E-02 -0.12515151316E-02  0.21913913497E-01  0.10201305747E+01  0.10198529192E+01 0.  0.
     999903    2    3    3    0    0  0.83263031423E-01  0.97094439780E-01 -0.27737452486E-02  0.12949558417E+00  0.20033722069E-01 0.  0.
         14    1    1    2    0    0  0.91992798496E-02  0.12515151316E-02 -0.21913913497E-01  0.23799425300E-01  0.00000000000E+00 0. -1.
     999901    1    3    3    0    0 -0.92462311273E-01 -0.98345954912E-01  0.24687658745E-01  0.89063499053E+00  0.88000000000E+00 0.  1.
        -11    1    4    4    0    0  0.10847680871E-01  0.23988655935E-01 -0.36935948802E-02  0.26590065024E-01  0.51100000000E-03 0.  1.
         11    1    4    4    0    0  0.72415350553E-01  0.73105783845E-01  0.91984963153E-03  0.10290551915E+00  0.51100000000E-03 0. -1.
</event>
<event>
 8    1  0.1131349E+005  0.1043930E+01  0.7957747E-01            NaN
         13   -1    0    0    0    0  0.00000000000E+00  0.00000000000E+00  0.74505805969E-08  0.10566000000E+00  0.10566000000E+00 0.  1.
     999900   -1    0    0    0    0 -0.00000000000E+00 -0.00000000000E+00 -0.74505805969E-08  0.93827000000E+00  0.93827000000E+00 0. -1.
     999902    2    1    2    0    0 -0.17697700119E-01  0.17826778442E-01 -0.12064255214E-03  0.10188099448E+01  0.10185002143E+01 0.  0.
     999903    2    3    3    0    0  0.50891148306E-01 -0.54927839777E-01  0.99585423573E-01  0.12755298733E+00  0.27304421439E-01 0.  0.
         14    1    1    2    0    0  0.17697700119E-01 -0.17826778442E-01  0.12064255214E-03  0.25120055210E-01  0.00000000000E+00 0.  1.
     999901    1    3    3    0    0 -0.68588848425E-01  0.72754618218E-01 -0.99706066125E-01  0.89125695746E+00  0.88000000000E+00 0. -1.
        -11    1    4    4    0    0  0.16800087622E-01 -0.28883235117E-02  0.27213450529E-01  0.32115702818E-01  0.51100000000E-03 0.  1.
         11    1    4    4    0    0  0.34091060684E-01 -0.52039516265E-01  0.72371973043E-01  0.95437284511E-01  0.51100000000E-03 0. -1.
</event>
<event>
 8    1  0.1131349E+005  0.1043930E+01  0.7957747E-01            NaN
         13   -1    0    0    0    0  0.00000000000E+00  0.00000000000E+00  0.74505805969E-08  0.10566000000E+00  0.10566000000E+00 0. -1.
     999900   -1    0    0    0    0 -0.00000000000E+00 -0.00000000000E+00 -0.74505805969E-08  0.93827000000E+00  0.93827000000E+00 0.  1.
     999902    2    1    2    0    0  0.99666557727E-02 -0.11387248096E-01 -0.27257694988E-01  0.10127533167E+01  0.10122733301E+01 0.  0.
     999903    2    3    3    0    0 -0.86352811253E-02 -0.32723790342E-01  0.11434289574E+00  0.12098428415E+00  0.20432441644E-01 0.  0.
         14    1    1    2    0    0 -0.99666557727E-02  0.11387248096E-01  0.27257694988E-01  0.31176683316E-01  0.00000000000E+00 0. -1.
     999901    1    3    3    0    0  0.18601936898E-01  0.21336542246E-01 -0.14160059073E+00  0.89176903253E+00  0.88000000000E+00 0.  1.
        -11    1    4    4    0    0 -0.13239091876E-01 -0.32263325315E-01  0.10061931243E+00  0.10649273623E+00  0.51100000000E-03 0. -1.
         11    1    4    4    0    0  0.46038107508E-02 -0.46046502718E-03  0.13723583303E-01  0.14491547921E-01  0.51100000000E-03 0.  1.
</event>
<event>
 8    1  0.1131349E+005  0.1043930E+01  0.7957747E-01            NaN
         13   -1    0    0    0    0  0.00000000000E+00  0.00000000000E+00  0.74505805969E-08  0.10566000000E+00  0.10566000000E+00 0.  1.
     999900   -1    0    0    0    0 -0.00000000000E+00 -0.00000000000E+00 -0.74505805969E-08  0.93827000000E+00  0.93827000000E+00 0.  1.
     999902    2    1    2    0    0  0.73991156908E-02 -0.15559054992E-01 -0.16202075218E-01  0.10202796650E+01  0.10200055178E+01 0.  0.
     999903    2    3    3    0    0  0.36532145295E-01 -0.75646661011E-01 -0.10192108726E+00  0.13359651817E+00  0.20077516695E-01 0.  0.
         14    1    1    2    0    0 -0.73991156908E-02  0.15559054992E-01  0.16202075218E-01  0.23650335021E-01  0.00000000000E+00 0.  1.
     999901    1    3    3    0    0 -0.29133029604E-01  0.60087606018E-01  0.85719012042E-01  0.88668314681E+00  0.88000000000E+00 0. -1.
        -11    1    4    4    0    0  0.51867413956E-02 -0.28653591950E-01 -0.26580105320E-01  0.39429604839E-01  0.51100000000E-03 0.  1.
         11    1    4    4    0    0  0.31345403899E-01 -0.46993069061E-01 -0.75340981940E-01  0.94166913330E-01  0.51100000000E-03 0. -1.
</event>
<event>
 8    1  0.1131349E+005  0.1043930E+01  0.7957747E-01            NaN
         13   -1    0    0    0    0  0.00000000000E+00  0.00000000000E+00  0.74505805969E-08  0.10566000000E+00  0.10566000000E+00 0. -1.
     999900   -1    0    0    0    0 -0.00000000000E+00 -0.00000000000E+00 -0.74505805969E-08  0.93827000000E+00  0.93827000000E+00 0. -1.
     999902    2    1    2    0    0  0.21860622999E-01  0.47995455936E-02  0.78406191979E-02  0.10202150725E+01  0.10199394082E+01 0.  0.
     999903    2    3    3    0    0 -0.33212662448E-01 -0.88173497479E-01  0.87519828362E-01  0.13003204085E+00  0.19260443563E-01 0.  0.
         14    1    1    2    0    0 -0.21860622999E-01 -0.47995455936E-02 -0.78406191979E-02  0.23714927477E-01  0.00000000000E+00 0. -1.
     999901    1    3    3    0    0  0.55073285448E-01  0.92973043072E-01 -0.79679209164E-01  0.89018303167E+00  0.88000000000E+00 0. -1.
        -11    1    4    4    0    0 -0.16593650558E-01 -0.56449494196E-01  0.42919715777E-01  0.72830335419E-01  0.51100000000E-03 0.  1.
         11    1    4    4    0    0 -0.16619011891E-01 -0.31724003282E-01  0.44600112585E-01  0.57201705430E-01  0.51100000000E-03 0. -1.
</event>
<event>
 8    1  0.1131349E+005  0.1043930E+01  0.7957747E-01            NaN
         13   -1    0    0    0    0  0.00000000000E+00  0.00000000000E+00  0.74505805969E-08  0.10566000000E+00  0.10566000000E+00 0.  1.
     999900   -1    0    0    0    0 -0.00000000000E+00 -0.00000000000E+00 -0.74505805969E-08  0.93827000000E+00  0.93827000000E+00 0.  1.
     999902    2    1    2    0    0 -0.16834586441E-01 -0.14282105021E-01  0.71548813429E-02  0.10207227996E+01  0.10204589455E+01 0.  0.
     999903    2    3    3    0    0  0.11155653529E+00 -0.29034454809E-01 -0.54689335829E-01  0.12913622545E+00  0.19934420919E-01 0.  0.
         14    1    1    2    0    0  0.16834586441E-01  0.14282105021E-01 -0.71548813429E-02  0.23207200423E-01  0.00000000000E+00 0. -1.
     999901    1    3    3    0    0 -0.12839112173E+00  0.14752349788E-01  0.61844217172E-01  0.89158657413E+00  0.88000000000E+00 0. -1.
        -11    1    4    4    0    0  0.34979638052E-01 -0.39473024324E-02 -0.25332172168E-01  0.43372068691E-01  0.51100000000E-03 0. -1.
         11    1    4    4    0    0  0.76576897241E-01 -0.25087152377E-01 -0.29357163661E-01  0.85764156760E-01  0.51100000000E-03 0.  1.
</event>
<event>
 7    1  0.1131349E+005  0.1043930E+01  0.7957747E-01            NaN
         13   -1    0    0    0    0  0.00000000000E+00  0.00000000000E+00  0.74505805969E-08  0.10566000000E+00  0.10566000000E+00 0.  1.
     999900   -1    0    0    0    0 -0.00000000000E+00 -0.00000000000E+00 -0.74505805969E-08  0.93827000000E+00  0.93827000000E+00 0.  1.
     999903    2    1    2    0    0  0.94698668359E-01 -0.18552368525E-01  0.10616286278E+00  0.14483138509E+00  0.19838057022E-01 0.  0.
         14    1    1    2    0    0 -0.17039851904E-02 -0.73341685607E-02 -0.10086776223E-02  0.75967772477E-02  0.00000000000E+00 0.  1.
     999901    1    1    2    0    0 -0.92994683168E-01  0.25886537086E-01 -0.10515418516E+00  0.89150183766E+00  0.88000000000E+00 0. -1.
        -11    1    3    3    0    0  0.67837472068E-01 -0.22141791398E-01  0.74838330899E-01  0.10340801920E+00  0.51100000000E-03 0.  1.
         11    1    3    3    0    0  0.26861196290E-01  0.35894228724E-02  0.31324531882E-01  0.41423365886E-01  0.51100000000E-03 0. -1.
</event>
<event>
 8    1  0.1131349E+005  0.1043930E+01  0.7957747E-01            NaN
         13   -1    0    0    0    0  0.00000000000E+00  0.00000000000E+00  0.74505805969E-08  0.10566000000E+00  0.10566000000E+00 0. -1.
     999900   -1    0    0    0    0 -0.00000000000E+00 -0.00000000000E+00 -0.74505805969E-08  0.93827000000E+00  0.93827000000E+00 0. -1.
     999902    2    1    2    0    0  0.61107970292E-02  0.91200278654E-03 -0.23498446084E-01  0.10196328694E+01  0.10193433365E+01 0.  0.
     999903    2    3    3    0    0  0.77796303555E-01  0.90169416299E-01  0.46618815795E-01  0.12945191689E+00  0.20042363073E-01 0.  0.
         14    1    1    2    0    0 -0.61107970292E-02 -0.91200278654E-03  0.23498446084E-01  0.24297130649E-01  0.00000000000E+00 0. -1.
     999901    1    3    3    0    0 -0.71685506526E-01 -0.89257413513E-01 -0.70117261879E-01  0.89018095246E+00  0.88000000000E+00 0. -1.
        -11    1    4    4    0    0  0.32280434079E-01  0.36122298843E-01  0.85751235543E-02  0.49200007754E-01  0.51100000000E-03 0.  1.
         11    1    4    4    0    0  0.45515869476E-01  0.54047117456E-01  0.38043692241E-01  0.80251909135E-01  0.51100000000E-03 0. -1.
</event>
<event>
 8    1  0.1131349E+005  0.1043930E+01  0.7957747E-01            NaN
         13   -1    0    0    0    0  0.00000000000E+00  0.00000000000E+00  0.74505805969E-08  0.10566000000E+00  0.10566000000E+00 0. -1.
     999900   -1    0    0    0    0 -0.00000000000E+00 -0.00000000000E+00 -0.74505805969E-08  0.93827000000E+00  0.93827000000E+00 0. -1.
     999902    2    1    2    0    0 -0.20032843828E-01 -0.12284600206E-01 -0.35432225218E-02  0.10201648857E+01  0.10198880396E+01 0.  0.
     999903    2    3    3    0    0  0.23085948207E-01  0.27633195369E-01  0.12282201345E+00  0.12919864976E+00  0.17620715687E-01 0.  0.
         14    1    1    2    0    0  0.20032843828E-01  0.12284600206E-01  0.35432225218E-02  0.23765114347E-01  0.00000000000E+00 0.  1.
     999901    1    3    3    0    0 -0.43118792035E-01 -0.39917795576E-01 -0.12636523598E+00  0.89096623589E+00  0.88000000000E+00 0. -1.
        -11    1    4    4    0    0  0.45004624139E-02  0.85406039650E-02  0.13065817179E-01  0.16253392802E-01  0.51100000000E-03 0. -1.
         11    1    4    4    0    0  0.18585485793E-01  0.19092591404E-01  0.10975619627E+00  0.11294525696E+00  0.51100000000E-03 0.  1.
</event>
<event>
 8    1  0.1131349E+005  0.1043930E+01  0.7957747E-01            NaN
         13   -1    0    0    0    0  0.00000000000E+00  0.00000000000E+00  0.74505805969E-08  0.10566000000E+00  0.10566000000E+00 0. -1.
     999900   -1    0    0    0    0 -0.00000000000E+00 -0.00000000000E+00 -0.74505805969E-08  0.93827000000E+00  0.93827000000E+00 0. -1.
     999902    2    1    2    0    0 -0.64392946315E-02  0.13478375860E-01 -0.18752351021E-01  0.10199553926E+01  0.10196735856E+01 0.  0.
     999903    2    3    3    0    0  0.61463052953E-01  0.24292793419E-01  0.10794010827E+00  0.12822748585E+00  0.20576065287E-01 0.  0.
         14    1    1    2    0    0  0.64392946315E-02 -0.13478375860E-01  0.18752351021E-01  0.23974607400E-01  0.00000000000E+00 0. -1.
     999901    1    3    3    0    0 -0.67902347584E-01 -0.10814417559E-01 -0.12669245930E+00  0.89172790675E+00  0.88000000000E+00 0. -1.
        -11    1    4    4    0    0  0.37233249702E-01  0.37076214170E-02  0.58441152996E-01  0.69395178683E-01  0.51100000000E-03 0.  1.
         11    1    4    4    0    0  0.24229803251E-01  0.20585172002E-01  0.49498955279E-01  0.58832307168E-01  0.51100000000E-03 0. -1.
</event>
<event>
 8    1  0.1131349E+005  0.1043930E+01  0.7957747E-01            NaN
         13   -1    0    0    0    0  0.00000000000E+00  0.00000000000E+00  0.74505805969E-08  0.10566000000E+00  0.10566000000E+00 0.  1.
     999900   -1    0    0    0    0 -0.00000000000E+00 -0.00000000000E+00 -0.74505805969E-08  0.93827000000E+00  0.93827000000E+00 0.  1.
     999902    2    1    2    0    0  0.21457671641E-01  0.11028954286E-01  0.30700396598E-02  0.10196093370E+01  0.10193192363E+01 0.  0.
     999903    2    3    3    0    0  0.71464685228E-01  0.92890826795E-01 -0.58048195750E-01  0.13228892911E+00  0.19871104570E-01 0.  0.
         14    1    1    2    0    0 -0.21457671641E-01 -0.11028954286E-01 -0.30700396598E-02  0.24320662992E-01  0.00000000000E+00 0.  1.
     999901    1    3    3    0    0 -0.50007013588E-01 -0.81861872509E-01  0.61118235410E-01  0.88732040790E+00  0.88000000000E+00 0. -1.
        -11    1    4    4    0    0  0.57248189093E-01  0.66965970019E-01 -0.51327005649E-01  0.10196332147E+00  0.51100000000E-03 0. -1.
         11    1    4    4    0    0  0.14216496135E-01  0.25924856776E-01 -0.67211901012E-02  0.30325607638E-01  0.51100000000E-03 0.  1.
</event>
<event>
 8    1  0.1131349E+005  0.1043930E+01  0.7957747E-01            NaN
         13   -1    0    0    0    0  0.00000000000E+00  0.00000000000E+00  0.74505805969E-08  0.10566000000E+00  0.10566000000E+00 0.  1.
     999900   -1    0    0    0    0 -0.00000000000E+00 -0.00000000000E+00 -0.74505805969E-08  0.93827000000E+00  0.93827000000E+00 0. -1.
     999902    2    1    2    0    0 -0.14262471270E-01 -0.15956164262E-01  0.48355834076E-02  0.10219891675E+01  0.10217536192E+01 0.  0.
     999903    2    3    3    0    0 -0.98370795901E-01 -0.84553293152E-01  0.31133535271E-01  0.13493147001E+00  0.20276383126E-01 0.  0.
         14    1    1    2    0    0  0.14262471270E-01  0.15956164262E-01 -0.48355834076E-02  0.21940832518E-01  0.00000000000E+00 0.  1.
     999901    1    3    3    0    0  0.84108324631E-01  0.68597128890E-01 -0.26297951863E-01  0.88705769747E+00  0.88000000000E+00 0.  1.
        -11    1    4    4    0    0 -0.48698617756E-01 -0.35705252451E-01  0.23682354964E-01  0.64865518433E-01  0.51100000000E-03 0.  1.
         11    1    4    4    0    0 -0.49672178146E-01 -0.48848040701E-01  0.74511803063E-02  0.70065951582E-01  0.51100000000E-03 0. -1.
</event>
<event>
 8    1  0.1131349E+005  0.1043930E+01  0.7957747E-01            NaN
         13   -1    0    0    0    0  0.00000000000E+00  0.00000000000E+00  0.74505805969E-08  0.10566000000E+00  0.10566000000E+00 0. -1.
     999900   -1    0    0    0    0 -0.00000000000E+00 -0.00000000000E+00 -0.74505805969E-08  0.93827000000E+00  0.93827000000E+00 0. -1.
     999902    2    1    2    0    0 -0.54347998105E-02  0.18227298761E-01  0.13179467926E-01  0.10207897787E+01  0.10205274628E+01 0.  0.
     999903    2    3    3    0    0 -0.11654041816E-01 -0.68322526956E-01 -0.10637802550E+00  0.12847618718E+00  0.19648460029E-01 0.  0.
         14    1    1    2    0    0  0.54347998105E-02 -0.18227298761E-01 -0.13179467926E-01  0.23140221345E-01  0.00000000000E+00 0. -1.
     999901    1    3    3    0    0  0.62192420052E-02  0.86549825717E-01  0.11955749343E+00  0.89231359148E+00  0.88000000000E+00 0.  1.
        -11    1    4    4    0    0 -0.89036510121E-02 -0.58495332808E-01 -0.75333292374E-01  0.95793241007E-01  0.51100000000E-03 0. -1.
         11    1    4    4    0    0 -0.27503908036E-02 -0.98271941485E-02 -0.31044733127E-01  0.32682946169E-01  0.51100000000E-03 0.  1.
</event>
<event>
 8    1  0.1131349E+005  0.1043930E+01  0.7957747E-01            NaN
         13   -1    0    0    0    0  0.00000000000E+00  0.00000000000E+00  0.74505805969E-08  0.10566000000E+00  0.10566000000E+00 0. -1.
     999900   -1    0    0    0    0 -0.00000000000E+00 -0.00000000000E+00 -0.74505805969E-08  0.93827000000E+00  0.93827000000E+00 0.  1.
     999902    2    1    2    0    0 -0.25173383409E-01 -0.34932606819E-02  0.15406709095E-02  0.10184687398E+01  0.10181504301E+01 0.  0.
     999903    2    3    3    0    0  0.98681906491E-01  0.74701200427E-01 -0.14148618468E-01  0.12622400861E+00  0.20345243482E-01 0.  0.
         14    1    1    2    0    0  0.25173383409E-01  0.34932606819E-02 -0.15406709095E-02  0.25461260168E-01  0.00000000000E+00 0.  1.
     999901    1    3    3    0    0 -0.12385528990E+00 -0.78194461109E-01  0.15689289377E-01  0.89224473122E+00  0.88000000000E+00 0. -1.
        -11    1    4    4    0    0  0.83245186681E-01  0.70631378677E-01 -0.15153887050E-01  0.11022002619E+00  0.51100000000E-03 0. -1.
         11    1    4    4    0    0  0.15436719810E-01  0.40698217503E-02  0.10052685824E-02  0.16003982426E-01  0.51100000000E-03 0.  1.
</event>
<event>
 8    1  0.1131349E+005  0.1043930E+01  0.7957747E-01            NaN
         13   -1    0    0    0    0  0.00000000000E+00  0.00000000000E+00  0.74505805969E-08  0.10566000000E+00  0.10566000000E+00 0. -1.
     999900   -1    0    0    0    0 -0.00000000000E+00 -0.00000000000E+00 -0.74505805969E-08  0.93827000000E+00  0.93827000000E+00 0.  1.
     999902    2    1    2    0    0 -0.92109377016E-02  0.18785924775E-01  0.10683616682E-01  0.10204376181E+01  0.10201671630E+01 0.  0.
     999903    2    3    3    0    0  0.19836138015E-01 -0.10696534049E+00 -0.64242729028E-01  0.12787329513E+00  0.19733092412E-01 0.  0.
         14    1    1    2    0    0  0.92109377016E-02 -0.18785924775E-01 -0.10683616682E-01  0.23492381923E-01  0.00000000000E+00 0.  1.
     999901    1    3    3    0    0 -0.29047075717E-01  0.12575126526E+00  0.74926345710E-01  0.89256432295E+00  0.88000000000E+00 0. -1.
        -11    1    4    4    0    0  0.57437425872E-02 -0.28071416112E-01 -0.73395813169E-02  0.29582521129E-01  0.51100000000E-03 0.  1.
         11    1    4    4    0    0  0.14092395428E-01 -0.78893924378E-01 -0.56903147711E-01  0.98290773998E-01  0.51100000000E-03 0. -1.
</event>
<event>
 8    1  0.1131349E+005  0.1043930E+01  0.7957747E-01            NaN
         13   -1    0    0    0    0  0.00000000000E+00  0.00000000000E+00  0.74505805969E-08  0.10566000000E+00  0.10566000000E+00 0.  1.
     999900   -1    0    0    0    0 -0.00000000000E+00 -0.00000000000E+00 -0.74505805969E-08  0.93827000000E+00  0.93827000000E+00 0. -1.
     999902    2    1    2    0    0  0.13610329085E-02  0.23667430542E-01  0.34590264283E-02  0.10199724429E+01  0.10196910413E+01 0.  0.
     999903    2    3    3    0    0 -0.54539015544E-01  0.78737262899E-01 -0.88321794951E-01  0.13172629399E+00  0.19416907065E-01 0.  0.
         14    1    1    2    0    0 -0.13610329085E-02 -0.23667430542E-01 -0.34590264283E-02  0.23957557114E-01  0.00000000000E+00 0. -1.
     999901    1    3    3    0    0  0.55900048452E-01 -0.55069832357E-01  0.91780821380E-01  0.88824614889E+00  0.88000000000E+00 0.  1.
        -11    1    4    4    0    0 -0.40940578111E-01  0.46281583071E-01 -0.48286146753E-01  0.78421482751E-01  0.51100000000E-03 0.  1.
         11    1    4    4    0    0 -0.13598437433E-01  0.32455679828E-01 -0.40035648199E-01  0.53304811241E-01  0.51100000000E-03 0. -1.
</event>
<event>
 8    1  0.1131349E+005  0.1043930E+01  0.7957747E-01            NaN
         13   -1    0    0    0    0  0.00000000000E+00  0.00000000000E+00  0.74505805969E-08  0.10566000000E+00  0.10566000000E+00 0.  1.
     999900   -1    0    0    0    0 -0.00000000000E+00 -0.00000000000E+00 -0.74505805969E-08  0.93827000000E+00  0.93827000000E+00 0.  1.
     999902    2    1    2    0    0  0.76072473258E-03  0.21805547652E-01 -0.98281475349E-02  0.10199998288E+01  0.10197190778E+01 0.  0.
     999903    2    3    3    0    0 -0.70043776981E-01  0.10899755230E+00 -0.23519655042E-01  0.13275511591E+00  0.16856735380E-01 0.  0.
         14    1    1    2    0    0 -0.76072473258E-03 -0.21805547652E-01  0.98281475349E-02  0.23930171218E-01  0.00000000000E+00 0.  1.
     999901    1    3    3    0    0  0.70804501713E-01 -0.87192004643E-01  0.13691507507E-01  0.88724471287E+00  0.88000000000E+00 0. -1.
        -11    1    4    4    0    0 -0.22296301925E-01  0.42131547306E-01 -0.15153090364E-02  0.47694335517E-01  0.51100000000E-03 0. -1.
         11    1    4    4    0    0 -0.47747475056E-01  0.66866004990E-01 -0.22004346006E-01  0.85060780396E-01  0.51100000000E-03 0.  1.
</event>
<event>
 8    1  0.1131349E+005  0.1043930E+01  0.7957747E-01            NaN
         13   -1    0    0    0    0  0.00000000000E+00  0.00000000000E+00  0.74505805969E-08  0.10566000000E+00  0.10566000000E+00 0.  1.
     999900   -1    0    0    0    0 -0.00000000000E+00 -0.00000000000E+00 -0.74505805969E-08  0.93827000000E+00  0.93827000000E+00 0.  1.
     999902    2    1    2    0    0 -0.57214407973E-02 -0.23061763230E-01 -0.62486313401E-02  0.10193612149E+01  0.10190650918E+01 0.  0.
     999903    2    3    3    0    0 -0.11281104548E+00  0.13216303853E-02  0.61378045187E-01  0.12995911196E+00  0.19850130053E-01 0.  0.
         14    1    1    2    0    0  0.57214407973E-02  0.23061763230E-01  0.62486313401E-02  0.24568785108E-01  0.00000000000E+00 0.  1.
     999901    1    3    3    0    0  0.10708960468E+00 -0.24383393615E-01 -0.67626676527E-01  0.88940210293E+00  0.88000000000E+00 0. -1.
        -11    1    4    4    0    0 -0.69248631922E-01 -0.34740046196E-02  0.47263448278E-01  0.83913862950E-01  0.51100000000E-03 0.  1.
         11    1    4    4    0    0 -0.43562413555E-01  0.47956350049E-02  0.14114596909E-01  0.46045249014E-01  0.51100000000E-03 0. -1.
</event>
<event>
 8    1  0.1131349E+005  0.1043930E+01  0.7957747E-01            NaN
         13   -1    0    0    0    0  0.00000000000E+00  0.00000000000E+00  0.74505805969E-08  0.10566000000E+00  0.10566000000E+00 0.  1.
     999900   -1    0    0    0    0 -0.00000000000E+00 -0.00000000000E+00 -0.74505805969E-08  0.93827000000E+00  0.93827000000E+00 0. -1.
     999902    2    1    2    0    0 -0.13510916000E-01 -0.13740785777E-01 -0.30047372416E-02  0.10244266031E+01  0.10242409300E+01 0.  0.
     999903    2    3    3    0    0  0.11872922354E+00  0.53630737620E-01  0.92450256668E-02  0.13191529596E+00  0.18528094035E-01 0.  0.
         14    1    1    2    0    0  0.13510916000E-01  0.13740785777E-01  0.30047372416E-02  0.19503396905E-01  0.00000000000E+00 0.  1.
     999901    1    3    3    0    0 -0.13224013954E+00 -0.67371523397E-01 -0.12249762908E-01  0.89251130713E+00  0.88000000000E+00 0. -1.
        -11    1    4    4    0    0  0.27134039062E-01  0.21035804849E-01  0.11614742822E-02  0.34356532202E-01  0.51100000000E-03 0.  1.
         11    1    4    4    0    0  0.91595184480E-01  0.32594932771E-01  0.80835513846E-02  0.97558763759E-01  0.51100000000E-03 0. -1.
</event>
<event>
 8    1  0.1131349E+005  0.1043930E+01  0.7957747E-01            NaN
         13   -1    0    0    0    0  0.00000000000E+00  0.00000000000E+00  0.74505805969E-08  0.10566000000E+00  0.10566000000E+00 0. -1.
     999900   -1    0    0    0    0 -0.00000000000E+00 -0.00000000000E+00 -0.74505805969E-08  0.93827000000E+00  0.93827000000E+00 0. -1.
     999902    2    1    2    0    0  0.20472425024E-01 -0.81027938194E-02 -0.95076857785E-02  0.10199472657E+01  0.10196652653E+01 0.  0.
     999903    2    3    3    0    0  0.10851854003E+00 -0.11743179644E-01 -0.73984538909E-01  0.13319891622E+00  0.18816574739E-01 0.  0.
         14    1    1    2    0    0 -0.20472425024E-01  0.81027938194E-02  0.95076857785E-02  0.23982734266E-01  0.00000000000E+00 0. -1.
     999901    1    3    3    0    0 -0.88046115011E-01  0.36403858251E-02  0.64476853131E-01  0.88674834951E+00  0.88000000000E+00 0.  1.
        -11    1    4    4    0    0  0.42753722705E-01  0.44920561446E-02 -0.30211506004E-01  0.52545747588E-01  0.51100000000E-03 0.  1.
         11    1    4    4    0    0  0.65764817330E-01 -0.16235235789E-01 -0.43773032905E-01  0.80653168631E-01  0.51100000000E-03 0. -1.
</event>
<event>
 8    1  0.1131349E+005  0.1043930E+01  0.7957747E-01            NaN
         13   -1    0    0    0    0  0.00000000000E+00  0.00000000000E+00  0.74505805969E-08  0.10566000000E+00  0.10566000000E+00 0. -1.
     999900   -1    0    0    0    0 -0.00000000000E+00 -0.00000000000E+00 -0.74505805969E-08  0.93827000000E+00  0.93827000000E+00 0. -1.
     999902    2    1    2    0    0  0.55811572146E-02 -0.16864799001E-01 -0.10982874125E-01  0.10230447352E+01  0.10228315286E+01 0.  0.
     999903    2    3    3    0    0  0.35162217199E-01  0.20648398134E-01  0.12373002477E+00  0.13151243395E+00  0.17990647258E-01 0.  0.
         14    1    1    2    0    0 -0.55811572146E-02  0.16864799001E-01  0.10982874125E-01  0.20885264788E-01  0.00000000000E+00 0. -1.
     999901    1    3    3    0    0 -0.29581059984E-01 -0.37513197136E-01 -0.13471289890E+00  0.89153230126E+00  0.88000000000E+00 0. -1.
        -11    1    4    4    0    0  0.55290720679E-02 -0.33017803669E-02  0.17334400206E-01  0.18499052490E-01  0.51100000000E-03 0. -1.
         11    1    4    4    0    0  0.29633145131E-01  0.23950178501E-01  0.10639562457E+00  0.11301338146E+00  0.51100000000E-03 0.  1.
</event>
<event>
 8    1  0.1131349E+005  0.1043930E+01  0.7957747E-01            NaN
         13   -1    0    0    0    0  0.00000000000E+00  0.00000000000E+00  0.74505805969E-08  0.10566000000E+00  0.10566000000E+00 0.  1.
     999900   -1    0    0    0    0 -0.00000000000E+00 -0.00000000000E+00 -0.74505805969E-08  0.93827000000E+00  0.93827000000E+00 0.  1.
     999902    2    1    2    0    0  0.11288213290E-01 -0.14281716326E-01 -0.14424214297E-01  0.10207039556E+01  0.10204396679E+01 0.  0.
     999903    2    3    3    0    0 -0.60022276621E-02 -0.10903552374E+00  0.70057679720E-01  0.13142647709E+00  0.20977802995E-01 0.  0.
         14    1    1    2    0    0 -0.11288213290E-01  0.14281716326E-01  0.14424214297E-01  0.23226044402E-01  0.00000000000E+00 0.  1.
     999901    1    3    3    0    0  0.17290440952E-01  0.94753807411E-01 -0.84481894017E-01  0.88927747851E+00  0.88000000000E+00 0. -1.
        -11    1    4    4    0    0 -0.35764073853E-02 -0.29741559628E-01  0.88915167695E-02  0.31251739957E-01  0.51100000000E-03 0. -1.
         11    1    4    4    0    0 -0.24258202767E-02 -0.79293964109E-01  0.61166162950E-01  0.10017473713E+00  0.51100000000E-03 0.  1.
</event>
<event>
 8    1  0.1131349E+005  0.1043930E+01  0.7957747E-01            NaN
         13   -1    0    0    0    0  0.00000000000E+00  0.00000000000E+00  0.74505805969E-08  0.10566000000E+00  0.10566000000E+00 0.  1.
     999900   -1    0    0    0    0 -0.00000000000E+00 -0.00000000000E+00 -0.74505805969E-08  0.93827000000E+00  0.93827000000E+00 0.  1.
     999902    2    1    2    0    0  0.21836991745E-02  0.14076338972E-01  0.19475033762E-01  0.10198014111E+01  0.10195159289E+01 0.  0.
     999903    2    3    3    0    0 -0.10057791340E+00  0.81317032853E-01  0.92778665281E-02  0.13121531955E+00  0.20074978990E-01 0.  0.
         14    1    1    2    0    0 -0.21836991745E-02 -0.14076338972E-01 -0.19475033762E-01  0.24128588872E-01  0.00000000000E+00 0.  1.
     999901    1    3    3    0    0  0.10276161257E+00 -0.67240693881E-01  0.10197167234E-01  0.88858609158E+00  0.88000000000E+00 0.  1.
        -11    1    4    4    0    0 -0.50830341406E-01  0.50977029260E-01  0.11489265521E-01  0.72901614954E-01  0.51100000000E-03 0.  1.
         11    1    4    4    0    0 -0.49747571989E-01  0.30340003593E-01 -0.22113989928E-02  0.58313704593E-01  0.51100000000E-03 0. -1.
</event>
<event>
 8    1  0.1131349E+005  0.1043930E+01  0.7957747E-01            NaN
         13   -1    0    0    0    0  0.00000000000E+00  0.00000000000E+00  0.74505805969E-08  0.10566000000E+00  0.10566000000E+00 0.  1.
     999900   -1    0    0    0    0 -0.00000000000E+00 -0.00000000000E+00 -0.74505805969E-08  0.93827000000E+00  0.93827000000E+00 0.  1.
     999902    2    1    2    0    0 -0.45740996498E-02 -0.21701309777E-01 -0.83763795585E-02  0.10202227655E+01  0.10199472821E+01 0.  0.
     999903    2    3    3    0    0  0.74157754111E-01  0.24428462363E-01  0.10080844100E+00  0.12879246215E+00  0.18139301549E-01 0.  0.
         14    1    1    2    0    0  0.45740996498E-02  0.21701309777E-01  0.83763795585E-02  0.23707234511E-01  0.00000000000E+00 0.  1.
     999901    1    3    3    0    0 -0.78731853761E-01 -0.46129772140E-01 -0.10918482056E+00  0.89143030334E+00  0.88000000000E+00 0.  1.
        -11    1    4    4    0    0  0.35954814281E-01  0.17562429920E-01  0.39506526312E-01  0.56233569662E-01  0.51100000000E-03 0.  1.
         11    1    4    4    0    0  0.38202939830E-01  0.68660324426E-02  0.61301914689E-01  0.72558892486E-01  0.51100000000E-03 0. -1.
</event>
<event>
 8    1  0.1131349E+005  0.1043930E+01  0.7957747E-01            NaN
         13   -1    0    0    0    0  0.00000000000E+00  0.00000000000E+00  0.74505805969E-08  0.10566000000E+00  0.10566000000E+00 0.  1.
     999900   -1    0    0    0    0 -0.00000000000E+00 -0.00000000000E+00 -0.74505805969E-08  0.93827000000E+00  0.93827000000E+00 0.  1.
     999902    2    1    2    0    0  0.14301890960E-01  0.84539286459E-02  0.18090977100E-01  0.10193679063E+01  0.10190719464E+01 0.  0.
     999903    2    3    3    0    0 -0.11863931715E+00 -0.31235956972E-01  0.29539918334E-01  0.12842473747E+00  0.23860717401E-01 0.  0.
         14    1    1    2    0    0 -0.14301890960E-01 -0.84539286459E-02 -0.18090977100E-01  0.24562093702E-01  0.00000000000E+00 0.  1.
     999901    1    3    3    0    0  0.13294120811E+00  0.39689885618E-01 -0.11448941233E-01  0.89094316883E+00  0.88000000000E+00 0. -1.
        -11    1    4    4    0    0 -0.54713297891E-01 -0.24643894372E-01  0.74638964963E-02  0.60471789851E-01  0.51100000000E-03 0.  1.
         11    1    4    4    0    0 -0.63926019264E-01 -0.65920626003E-02  0.22076021837E-01  0.67952947614E-01  0.51100000000E-03 0. -1.
</event>
<event>
 8    1  0.1131349E+005  0.1043930E+01  0.7957747E-01            NaN
         13   -1    0    0    0    0  0.00000000000E+00  0.00000000000E+00  0.74505805969E-08  0.10566000000E+00  0.10566000000E+00 0.  1.
     999900   -1    0    0    0    0 -0.00000000000E+00 -0.00000000000E+00 -0.74505805969E-08  0.93827000000E+00  0.93827000000E+00 0.  1.
     999902    2    1    2    0    0 -0.18778005629E-01  0.12501355255E-01  0.52004309412E-02  0.10207795818E+01  0.10205170321E+01 0.  0.
     999903    2    3    3    0    0 -0.77621212458E-02  0.54083753757E-01  0.11899936337E+00  0.13240992760E+00  0.19652925883E-01 0.  0.
         14    1    1    2    0    0  0.18778005629E-01 -0.12501355255E-01 -0.52004309412E-02  0.23150418151E-01  0.00000000000E+00 0.  1.
     999901    1    3    3    0    0 -0.11015884383E-01 -0.41582398502E-01 -0.11379893243E+00  0.88836965425E+00  0.88000000000E+00 0.  1.
        -11    1    4    4    0    0 -0.12294879627E-01  0.33266344649E-01  0.60257175664E-01  0.69921399381E-01  0.51100000000E-03 0. -1.
         11    1    4    4    0    0  0.45327583813E-02  0.20817409108E-01  0.58742187710E-01  0.62488528215E-01  0.51100000000E-03 0.  1.
</event>
<event>
 8    1  0.1131349E+005  0.1043930E+01  0.7957747E-01            NaN
         13   -1    0    0    0    0  0.00000000000E+00  0.00000000000E+00  0.74505805969E-08  0.10566000000E+00  0.10566000000E+00 0. -1.
     999900   -1    0    0    0    0 -0.00000000000E+00 -0.00000000000E+00 -0.74505805969E-08  0.93827000000E+00  0.93827000000E+00 0.  1.
     999902    2    1    2    0    0 -0.10958082795E-01  0.63594553509E-02 -0.19292176501E-01  0.10208494817E+01  0.10205885331E+01 0.  0.
     999903    2    3    3    0    0  0.38827054140E-02  0.71812375298E-01 -0.11069811725E+00  0.13357309876E+00  0.20386439152E-01 0.  0.
         14    1    1    2    0    0  0.10958082795E-01 -0.63594553509E-02  0.19292176501E-01  0.23080518301E-01  0.00000000000E+00 0. -1.
     999901    1    3    3    0    0 -0.14840788209E-01 -0.65452919947E-01  0.91405940749E-01  0.88727638294E+00  0.88000000000E+00 0.  1.
        -11    1    4    4    0    0 -0.16079900627E-02  0.25398546852E-02 -0.22042553752E-03  0.30571559138E-02  0.51100000000E-03 0. -1.
         11    1    4    4    0    0  0.54906954767E-02  0.69272520613E-01 -0.11047769171E+00  0.13051594284E+00  0.51100000000E-03 0.  1.
</event>
<event>
 8    1  0.1131349E+005  0.1043930E+01  0.7957747E-01            NaN
         13   -1    0    0    0    0  0.00000000000E+00  0.00000000000E+00  0.74505805969E-08  0.10566000000E+00  0.10566000000E+00 0.  1.
     999900   -1    0    0    0    0 -0.00000000000E+00 -0.00000000000E+00 -0.74505805969E-08  0.93827000000E+00  0.93827000000E+00 0. -1.
     999902    2    1    2    0    0  0.14720384874E-01 -0.11375653404E-01 -0.14196312654E-01  0.10205284933E+01  0.10202601507E+01 0.  0.
     999903    2    3    3    0    0  0.50476093554E-01  0.98061834721E-01  0.64993513316E-01  0.12950320579E+00  0.19569468239E-01 0.  0.
         14    1    1    2    0    0 -0.14720384874E-01  0.11375653404E-01  0.14196312654E-01  0.23401506665E-01  0.00000000000E+00 0.  1.
     999901    1    3    3    0    0 -0.35755708680E-01 -0.10943748812E+00 -0.79189825970E-01  0.89102528755E+00  0.88000000000E+00 0. -1.
        -11    1    4    4    0    0  0.38281557052E-01  0.53398741528E-01  0.38847263848E-01  0.76330034958E-01  0.51100000000E-03 0.  1.
         11    1    4    4    0    0  0.12194536502E-01  0.44663093192E-01  0.26146249467E-01  0.53173170831E-01  0.51100000000E-03 0. -1.
</event>
<event>
 8    1  0.1131349E+005  0.1043930E+01  0.7957747E-01            NaN
         13   -1    0    0    0    0  0.00000000000E+00  0.00000000000E+00  0.74505805969E-08  0.10566000000E+00  0.10566000000E+00 0.  1.
     999900   -1    0    0    0    0 -0.00000000000E+00 -0.00000000000E+00 -0.74505805969E-08  0.93827000000E+00  0.93827000000E+00 0.  1.
     999902    2    1    2    0    0 -0.22053694600E-01 -0.78430619665E-02  0.26111577385E-02  0.10203779892E+01  0.10201061433E+01 0.  0.
     999903    2    3    3    0    0  0.53400489292E-01  0.11467324686E+00  0.13035746955E-01  0.12863124724E+00  0.19352035202E-01 0.  0.
         14    1    1    2    0    0  0.22053694600E-01  0.78430619665E-02 -0.26111577385E-02  0.23552010769E-01  0.00000000000E+00 0.  1.
     999901    1    3    3    0    0 -0.75454183892E-01 -0.12251630882E+00 -0.10424589217E-01  0.89174674199E+00  0.88000000000E+00 0. -1.
        -11    1    4    4    0    0  0.34075696554E-01  0.57175189763E-01  0.13747528658E-01  0.67966249604E-01  0.51100000000E-03 0.  1.
         11    1    4    4    0    0  0.19324792738E-01  0.57498057092E-01 -0.71178170253E-03  0.60664997634E-01  0.51100000000E-03 0. -1.
</event>
<event>
 8    1  0.1131349E+005  0.1043930E+01  0.7957747E-01            NaN
         13   -1    0    0    0    0  0.00000000000E+00  0.00000000000E+00  0.74505805969E-08  0.10566000000E+00  0.10566000000E+00 0.  1.
     999900   -1    0    0    0    0 -0.00000000000E+00 -0.00000000000E+00 -0.74505805969E-08  0.93827000000E+00  0.93827000000E+00 0. -1.
     999902    2    1    2    0    0 -0.50429918421E-02 -0.21118905257E-01  0.97277592613E-02  0.10201377906E+01  0.10198603055E+01 0.  0.
     999903    2    3    3    0    0 -0.97974800288E-01 -0.54324679729E-01  0.68209116279E-01  0.13269257340E+00  0.20114750148E-01 0.  0.
         14    1    1    2    0    0  0.50429918421E-02  0.21118905257E-01 -0.97277592613E-02  0.23792209360E-01  0.00000000000E+00 0.  1.
     999901    1    3    3    0    0  0.92931808446E-01  0.33205774471E-01 -0.58481357018E-01  0.88744521724E+00  0.88000000000E+00 0. -1.
        -11    1    4    4    0    0 -0.56551260996E-01 -0.31946947724E-01  0.27826295136E-01  0.70662694621E-01  0.51100000000E-03 0.  1.
         11    1    4    4    0    0 -0.41423539292E-01 -0.22377732004E-01  0.40382821143E-01  0.62029878781E-01  0.51100000000E-03 0. -1.
</event>
<event>
 8    1  0.1131349E+005  0.1043930E+01  0.7957747E-01            NaN
         13   -1    0    0    0    0  0.00000000000E+00  0.00000000000E+00  0.74505805969E-08  0.10566000000E+00  0.10566000000E+00 0.  1.
     999900   -1    0    0    0    0 -0.00000000000E+00 -0.00000000000E+00 -0.74505805969E-08  0.93827000000E+00  0.93827000000E+00 0.  1.
     999902    2    1    2    0    0 -0.19591638045E-01 -0.57367510106E-02 -0.11474353696E-01  0.10205119859E+01  0.10202432602E+01 0.  0.
     999903    2    3    3    0    0 -0.14589746737E-02  0.12139653946E+00 -0.43779974313E-01  0.13060450744E+00  0.20040030271E-01 0.  0.
         14    1    1    2    0    0  0.19591638045E-01  0.57367510106E-02  0.11474353696E-01  0.23418014139E-01  0.00000000000E+00 0.  1.
     999901    1    3    3    0    0 -0.18132663371E-01 -0.12713329047E+00  0.32305620617E-01  0.88990747842E+00  0.88000000000E+00 0. -1.
        -11    1    4    4    0    0 -0.82060761548E-02  0.58815492405E-01 -0.28287152183E-01  0.65780133265E-01  0.51100000000E-03 0.  1.
         11    1    4    4    0    0  0.67471014811E-02  0.62581047053E-01 -0.15492822130E-01  0.64824374176E-01  0.51100000000E-03 0. -1.
</event>
<event>
 8    1  0.1131349E+005  0.1043930E+01  0.7957747E-01            NaN
         13   -1    0    0    0    0  0.00000000000E+00  0.00000000000E+00  0.74505805969E-08  0.10566000000E+00  0.10566000000E+00 0. -1.
     999900   -1    0    0    0    0 -0.00000000000E+00 -0.00000000000E+00 -0.74505805969E-08  0.93827000000E+00  0.93827000000E+00 0.  1.
     999902    2    1    2    0    0  0.39941195261E-02 -0.23981892446E-01  0.60751605326E-02  0.10188702368E+01  0.10185620098E+01 0.  0.
     999903    2    3    3    0    0 -0.10456563091E+00 -0.34215781076E-01  0.66610506107E-01  0.13007640246E+00  0.19447881919E-01 0.  0.
         14    1    1    2    0    0 -0.39941195261E-02  0.23981892446E-01 -0.60751605326E-02  0.25059763199E-01  0.00000000000E+00 0. -1.
     999901    1    3    3    0    0  0.10855975044E+00  0.10233888630E-01 -0.60535345575E-01  0.88879383434E+00  0.88000000000E+00 0.  1.
        -11    1    4    4    0    0 -0.50455167284E-01 -0.98247363665E-02  0.39466592618E-01  0.64808351347E-01  0.51100000000E-03 0.  1.
         11    1    4    4    0    0 -0.54110463629E-01 -0.24391044709E-01  0.27143913489E-01  0.65268051117E-01  0.51100000000E-03 0. -1.
</event>
<event>
 8    1  0.1131349E+005  0.1043930E+01  0.7957747E-01            NaN
         13   -1    0    0    0    0  0.00000000000E+00  0.00000000000E+00  0.74505805969E-08  0.10566000000E+00  0.10566000000E+00 0. -1.
     999900   -1    0    0    0    0 -0.00000000000E+00 -0.00000000000E+00 -0.74505805969E-08  0.93827000000E+00  0.93827000000E+00 0. -1.
     999902    2    1    2    0    0 -0.81426219362E-02 -0.27614000580E-02  0.23047618533E-01  0.10193308061E+01  0.10190339405E+01 0.  0.
     999903    2    3    3    0    0 -0.50769081171E-01 -0.11830588758E+00 -0.35191258327E-02  0.13035761438E+00  0.20172772304E-01 0.  0.
         14    1    1    2    0    0  0.81426219362E-02  0.27614000580E-02 -0.23047618533E-01  0.24599193936E-01  0.00000000000E+00 0. -1.
     999901    1    3    3    0    0  0.42626459235E-01  0.11554448752E+00  0.26566744365E-01  0.88897319168E+00  0.88000000000E+00 0.  1.
        -11    1    4    4    0    0 -0.15136409972E-01 -0.27006780172E-01  0.71282742345E-02  0.31773424378E-01  0.51100000000E-03 0. -1.
         11    1    4    4    0    0 -0.35632671199E-01 -0.91299107404E-01 -0.10647400067E-01  0.98584190004E-01  0.51100000000E-03 0.  1.
</event>
<event>
 8    1  0.1131349E+005  0.1043930E+01  0.7957747E-01            NaN
         13   -1    0    0    0    0  0.00000000000E+00  0.00000000000E+00  0.74505805969E-08  0.10566000000E+00  0.10566000000E+00 0.  1.
     999900   -1    0    0    0    0 -0.00000000000E+00 -0.00000000000E+00 -0.74505805969E-08  0.93827000000E+00  0.93827000000E+00 0. -1.
     999902    2    1    2    0    0  0.21787082809E-01  0.56473567640E-02  0.81665567400E-02  0.10199871041E+01  0.10197060509E+01 0.  0.
     999903    2    3    3    0    0  0.11222939918E+00 -0.65612146627E-01 -0.99349909705E-02  0.13230168940E+00  0.22464219278E-01 0.  0.
         14    1    1    2    0    0 -0.21787082809E-01 -0.56473567640E-02 -0.81665567400E-02  0.23942895913E-01  0.00000000000E+00 0. -1.
     999901    1    3    3    0    0 -0.90442316372E-01  0.71259503391E-01  0.18101547711E-01  0.88768541468E+00  0.88000000000E+00 0. -1.
        -11    1    4    4    0    0  0.85555367006E-01 -0.58628006560E-01 -0.13106877271E-01  0.10454193096E+00  0.51100000000E-03 0. -1.
         11    1    4    4    0    0  0.26674032174E-01 -0.69841400672E-02  0.31718863000E-02  0.27759758439E-01  0.51100000000E-03 0.  1.
</event>
<event>
 8    1  0.1131349E+005  0.1043930E+01  0.7957747E-01            NaN
         13   -1    0    0    0    0  0.00000000000E+00  0.00000000000E+00  0.74505805969E-08  0.10566000000E+00  0.10566000000E+00 0. -1.
     999900   -1    0    0    0    0 -0.00000000000E+00 -0.00000000000E+00 -0.74505805969E-08  0.93827000000E+00  0.93827000000E+00 0.  1.
     999902    2    1    2    0    0  0.12934536714E-01 -0.19552872407E-01 -0.78001859351E-02  0.10192225121E+01  0.10189229947E+01 0.  0.
     999903    2    3    3    0    0 -0.62015825123E-01  0.10598142091E+00  0.23309858810E-01  0.12661719592E+00  0.20261802500E-01 0.  0.
         14    1    1    2    0    0 -0.12934536714E-01  0.19552872407E-01  0.78001859351E-02  0.24707487933E-01  0.00000000000E+00 0. -1.
     999901    1    3    3    0    0  0.74950361837E-01 -0.12553429331E+00 -0.31110044745E-01  0.89260531615E+00  0.88000000000E+00 0.  1.
        -11    1    4    4    0    0 -0.43452288061E-01  0.57508028223E-01  0.18926850691E-01  0.74523563025E-01  0.51100000000E-03 0. -1.
         11    1    4    4    0    0 -0.18563537062E-01  0.48473392684E-01  0.43830081186E-02  0.52093632890E-01  0.51100000000E-03 0.  1.
</event>
<event>
 8    1  0.1131349E+005  0.1043930E+01  0.7957747E-01            NaN
         13   -1    0    0    0    0  0.00000000000E+00  0.00000000000E+00  0.74505805969E-08  0.10566000000E+00  0.10566000000E+00 0.  1.
     999900   -1    0    0    0    0 -0.00000000000E+00 -0.00000000000E+00 -0.74505805969E-08  0.93827000000E+00  0.93827000000E+00 0.  1.
     999902    2    1    2    0    0 -0.18834797807E-01 -0.11807501554E-01 -0.79242925247E-02  0.10203299764E+01  0.10200570080E+01 0.  0.
     999903    2    3    3    0    0 -0.61425924529E-01  0.41410125703E-01 -0.10760678687E+00  0.13208298396E+00  0.19461535307E-01 0.  0.
         14    1    1    2    0    0  0.18834797807E-01  0.11807501554E-01  0.79242925247E-02  0.23600023589E-01  0.00000000000E+00 0.  1.
     999901    1    3    3    0    0  0.42591126722E-01 -0.53217627257E-01  0.99682494340E-01  0.88824699245E+00  0.88000000000E+00 0. -1.
        -11    1    4    4    0    0 -0.55988872813E-01  0.31625236200E-01 -0.82598514845E-01  0.10467896264E+00  0.51100000000E-03 0.  1.
         11    1    4    4    0    0 -0.54370517157E-02  0.97848895027E-02 -0.25008272020E-01  0.27404021317E-01  0.51100000000E-03 0. -1.
</event>
<event>
 8    1  0.1131349E+005  0.1043930E+01  0.7957747E-01            NaN
         13   -1    0    0    0    0  0.00000000000E+00  0.00000000000E+00  0.74505805969E-08  0.10566000000E+00  0.10566000000E+00 0. -1.
     999900   -1    0    0    0    0 -0.00000000000E+00 -0.00000000000E+00 -0.74505805969E-08  0.93827000000E+00  0.93827000000E+00 0. -1.
     999902    2    1    2    0    0 -0.18986418784E-01  0.13373265794E-02  0.15084264204E-01  0.10196440459E+01  0.10193547826E+01 0.  0.
     999903    2    3    3    0    0  0.10457851731E+00  0.23944657193E-01  0.67901469627E-01  0.12915595387E+00  0.23677794494E-01 0.  0.
         14    1    1    2    0    0  0.18986418784E-01 -0.13373265794E-02 -0.15084264204E-01  0.24285954113E-01  0.00000000000E+00 0.  1.
     999901    1    3    3    0    0 -0.12356493610E+00 -0.22607330614E-01 -0.52817205423E-01  0.89048809201E+00  0.88000000000E+00 0. -1.
        -11    1    4    4    0    0  0.62165050418E-01  0.25441793985E-02  0.35284989699E-01  0.71528022210E-01  0.51100000000E-03 0. -1.
         11    1    4    4    0    0  0.42413466894E-01  0.21400477795E-01  0.32616479928E-01  0.57627931662E-01  0.51100000000E-03 0.  1.
</event>
<event>
 8    1  0.1131349E+005  0.1043930E+01  0.7957747E-01            NaN
         13   -1    0    0    0    0  0.00000000000E+00  0.00000000000E+00  0.74505805969E-08  0.10566000000E+00  0.10566000000E+00 0. -1.
     999900   -1    0    0    0    0 -0.00000000000E+00 -0.00000000000E+00 -0.74505805969E-08  0.93827000000E+00  0.93827000000E+00 0.  1.
     999902    2    1    2    0    0  0.20298751087E-01 -0.69215225060E-02 -0.12136899363E-01  0.10192875347E+01  0.10189896110E+01 0.  0.
     999903    2    3    3    0    0 -0.96115437608E-01  0.38141834020E-01 -0.73353738715E-01  0.12837201074E+00  0.20140141718E-01 0.  0.
         14    1    1    2    0    0 -0.20298751087E-01  0.69215225060E-02  0.12136899363E-01  0.24642465292E-01  0.00000000000E+00 0.  1.
     999901    1    3    3    0    0  0.11641418870E+00 -0.45063356526E-01  0.61216839352E-01  0.89091552397E+00  0.88000000000E+00 0. -1.
        -11    1    4    4    0    0 -0.33082417815E-01  0.31250831399E-02 -0.23881912728E-01  0.40924557294E-01  0.51100000000E-03 0. -1.
         11    1    4    4    0    0 -0.63033019793E-01  0.35016750880E-01 -0.49471825987E-01  0.87447453444E-01  0.51100000000E-03 0.  1.
</event>
<event>
 8    1  0.1131349E+005  0.1043930E+01  0.7957747E-01            NaN
         13   -1    0    0    0    0  0.00000000000E+00  0.00000000000E+00  0.74505805969E-08  0.10566000000E+00  0.10566000000E+00 0. -1.
     999900   -1    0    0    0    0 -0.00000000000E+00 -0.00000000000E+00 -0.74505805969E-08  0.93827000000E+00  0.93827000000E+00 0. -1.
     999902    2    1    2    0    0 -0.13103664421E-01  0.39692167543E-03  0.20205184634E-01  0.10198444638E+01  0.10195600116E+01 0.  0.
     999903    2    3    3    0    0  0.84037725684E-01 -0.94405185386E-01  0.23629046439E-01  0.12943129453E+00  0.14813838204E-01 0.  0.
         14    1    1    2    0    0  0.13103664421E-01 -0.39692167543E-03 -0.20205184634E-01  0.24085536203E-01  0.00000000000E+00 0.  1.
     999901    1    3    3    0    0 -0.97141390105E-01  0.94802107061E-01 -0.34238618049E-02  0.89041316927E+00  0.88000000000E+00 0.  1.
        -11    1    4    4    0    0  0.25237251911E-01 -0.18921618731E-01  0.47592525756E-02  0.31903889191E-01  0.51100000000E-03 0.  1.
         11    1    4    4    0    0  0.58800473773E-01 -0.75483566654E-01  0.18869793863E-01  0.97527405340E-01  0.51100000000E-03 0. -1.
</event>
<event>
 8    1  0.1131349E+005  0.1043930E+01  0.7957747E-01            NaN
         13   -1    0    0    0    0  0.00000000000E+00  0.00000000000E+00  0.74505805969E-08  0.10566000000E+00  0.10566000000E+00 0. -1.
     999900   -1    0    0    0    0 -0.00000000000E+00 -0.00000000000E+00 -0.74505805969E-08  0.93827000000E+00  0.93827000000E+00 0. -1.
     999902    2    1    2    0    0  0.28897928902E-01  0.10247638499E-02 -0.19531196543E-01  0.10090357587E+01  0.10084322259E+01 0.  0.
     999903    2    3    3    0    0 -0.92973833742E-02  0.11022648227E-01 -0.12000659982E+00  0.12243881183E+00  0.19538130178E-01 0.  0.
         14    1    1    2    0    0 -0.28897928902E-01 -0.10247638499E-02  0.19531196543E-01  0.34894241275E-01  0.00000000000E+00 0. -1.
     999901    1    3    3    0    0  0.38195312276E-01 -0.99978843772E-02  0.10047540328E+00  0.88659694689E+00  0.88000000000E+00 0.  1.
        -11    1    4    4    0    0 -0.13973161563E-01  0.63717788376E-02 -0.55304165662E-01  0.57399134751E-01  0.51100000000E-03 0.  1.
         11    1    4    4    0    0  0.46757781890E-02  0.46508693895E-02 -0.64702434160E-01  0.65039677083E-01  0.51100000000E-03 0. -1.
</event>
<event>
 8    1  0.1131349E+005  0.1043930E+01  0.7957747E-01            NaN
         13   -1    0    0    0    0  0.00000000000E+00  0.00000000000E+00  0.74505805969E-08  0.10566000000E+00  0.10566000000E+00 0. -1.
     999900   -1    0    0    0    0 -0.00000000000E+00 -0.00000000000E+00 -0.74505805969E-08  0.93827000000E+00  0.93827000000E+00 0. -1.
     999902    2    1    2    0    0 -0.19098439864E-01  0.11478026284E-01 -0.77429994742E-02  0.10203408174E+01  0.10200681027E+01 0.  0.
     999903    2    3    3    0    0  0.10180463465E+00 -0.46049072487E-01 -0.60072286434E-01  0.12867648891E+00  0.21546658351E-01 0.  0.
         14    1    1    2    0    0  0.19098439864E-01 -0.11478026284E-01  0.77429994742E-02  0.23589182552E-01  0.00000000000E+00 0.  1.
     999901    1    3    3    0    0 -0.12090307452E+00  0.57527098771E-01  0.52329286960E-01  0.89166432854E+00  0.88000000000E+00 0.  1.
        -11    1    4    4    0    0  0.60745404372E-01 -0.37890062160E-01 -0.42606803908E-01  0.83314235416E-01  0.51100000000E-03 0.  1.
         11    1    4    4    0    0  0.41059230281E-01 -0.81590103267E-02 -0.17465482526E-01  0.45362253489E-01  0.51100000000E-03 0. -1.
</event>
<event>
 8    1  0.1131349E+005  0.1043930E+01  0.7957747E-01            NaN
         13   -1    0    0    0    0  0.00000000000E+00  0.00000000000E+00  0.74505805969E-08  0.10566000000E+00  0.10566000000E+00 0.  1.
     999900   -1    0    0    0    0 -0.00000000000E+00 -0.00000000000E+00 -0.74505805969E-08  0.93827000000E+00  0.93827000000E+00 0. -1.
     999902    2    1    2    0    0  0.20938700572E-01 -0.97127390214E-02 -0.87853095140E-02  0.10192328717E+01  0.10189336086E+01 0.  0.
     999903    2    3    3    0    0 -0.95457852415E-01  0.19918090291E-01 -0.80663296456E-01  0.12817025408E+00  0.20300609016E-01 0.  0.
         14    1    1    2    0    0 -0.20938700572E-01  0.97127390214E-02  0.87853095140E-02  0.24697128258E-01  0.00000000000E+00 0. -1.
     999901    1    3    3    0    0  0.11639655299E+00 -0.29630829313E-01  0.71877986942E-01  0.89106261766E+00  0.88000000000E+00 0.  1.
        -11    1    4    4    0    0 -0.81192702847E-01  0.24042420815E-01 -0.66906526325E-01  0.10792144078E+00  0.51100000000E-03 0.  1.
         11    1    4    4    0    0 -0.14265149568E-01 -0.41243305241E-02 -0.13756770131E-01  0.20248813296E-01  0.51100000000E-03 0. -1.
</event>
<event>
 8    1  0.1131349E+005  0.1043930E+01  0.7957747E-01            NaN
         13   -1    0    0    0    0  0.00000000000E+00  0.00000000000E+00  0.74505805969E-08  0.10566000000E+00  0.10566000000E+00 0. -1.
     999900   -1    0    0    0    0 -0.00000000000E+00 -0.00000000000E+00 -0.74505805969E-08  0.93827000000E+00  0.93827000000E+00 0. -1.
     999902    2    1    2    0    0  0.22086242034E-01  0.30495151993E-02  0.84154247874E-02  0.10200989068E+01  0.10198205031E+01 0.  0.
     999903    2    3    3    0    0  0.15058565586E-01 -0.86054210830E-01 -0.93577602447E-01  0.12971054216E+00  0.20879881917E-01 0.  0.
         14    1    1    2    0    0 -0.22086242034E-01 -0.30495151993E-02 -0.84154247874E-02  0.23831093229E-01  0.00000000000E+00 0.  1.
     999901    1    3    3    0    0  0.70276764482E-02  0.89103726029E-01  0.10199302723E+00  0.89038836461E+00  0.88000000000E+00 0.  1.
        -11    1    4    4    0    0  0.42979984202E-02 -0.68399916998E-01 -0.77903901165E-01  0.10376078437E+00  0.51100000000E-03 0.  1.
         11    1    4    4    0    0  0.10760567165E-01 -0.17654293831E-01 -0.15673701282E-01  0.25949757789E-01  0.51100000000E-03 0. -1.
</event>
<event>
 8    1  0.1131349E+005  0.1043930E+01  0.7957747E-01            NaN
         13   -1    0    0    0    0  0.00000000000E+00  0.00000000000E+00  0.74505805969E-08  0.10566000000E+00  0.10566000000E+00 0.  1.
     999900   -1    0    0    0    0 -0.00000000000E+00 -0.00000000000E+00 -0.74505805969E-08  0.93827000000E+00  0.93827000000E+00 0.  1.
     999902    2    1    2    0    0  0.20928978053E-01  0.14773509165E-01  0.34011977059E-02  0.10180872671E+01  0.10177592233E+01 0.  0.
     999903    2    3    3    0    0  0.12875721481E+00 -0.45156929446E-03  0.15449124162E-01  0.13129310603E+00  0.20508046589E-01 0.  0.
         14    1    1    2    0    0 -0.20928978053E-01 -0.14773509165E-01 -0.34011977059E-02  0.25842732852E-01  0.00000000000E+00 0.  1.
     999901    1    3    3    0    0 -0.10782823675E+00  0.15225078459E-01 -0.12047926456E-01  0.88679416111E+00  0.88000000000E+00 0. -1.
        -11    1    4    4    0    0  0.79654344698E-01 -0.70717950513E-02  0.16842869657E-01  0.81723731521E-01  0.51100000000E-03 0.  1.
         11    1    4    4    0    0  0.49102870109E-01  0.66202257569E-02 -0.13937454951E-02  0.49569374512E-01  0.51100000000E-03 0. -1.
</event>
<event>
 8    1  0.1131349E+005  0.1043930E+01  0.7957747E-01            NaN
         13   -1    0    0    0    0  0.00000000000E+00  0.00000000000E+00  0.74505805969E-08  0.10566000000E+00  0.10566000000E+00 0.  1.
     999900   -1    0    0    0    0 -0.00000000000E+00 -0.00000000000E+00 -0.74505805969E-08  0.93827000000E+00  0.93827000000E+00 0. -1.
     999902    2    1    2    0    0 -0.12968154120E-02  0.20591950933E-01  0.12547883803E-01  0.10197813031E+01  0.10194953392E+01 0.  0.
     999903    2    3    3    0    0  0.80004379102E-01  0.69914489303E-01  0.76382188934E-01  0.13235952316E+00  0.19901459620E-01 0.  0.
         14    1    1    2    0    0  0.12968154120E-02 -0.20591950933E-01 -0.12547883803E-01  0.24148696888E-01  0.00000000000E+00 0. -1.
     999901    1    3    3    0    0 -0.81301194514E-01 -0.49322538370E-01 -0.63834305131E-01  0.88742177995E+00  0.88000000000E+00 0. -1.
        -11    1    4    4    0    0  0.57226685477E-01  0.47792733425E-01  0.64046106892E-01  0.98291422962E-01  0.51100000000E-03 0. -1.
         11    1    4    4    0    0  0.22777693625E-01  0.22121755878E-01  0.12336082043E-01  0.34068100199E-01  0.51100000000E-03 0.  1.
</event>
<event>
 8    1  0.1131349E+005  0.1043930E+01  0.7957747E-01            NaN
         13   -1    0    0    0    0  0.00000000000E+00  0.00000000000E+00  0.74505805969E-08  0.10566000000E+00  0.10566000000E+00 0. -1.
     999900   -1    0    0    0    0 -0.00000000000E+00 -0.00000000000E+00 -0.74505805969E-08  0.93827000000E+00  0.93827000000E+00 0. -1.
     999902    2    1    2    0    0 -0.67892269085E-03  0.18631573538E-01 -0.14661372563E-01  0.10202118147E+01  0.10199360738E+01 0.  0.
     999903    2    3    3    0    0 -0.92449099431E-01  0.91497103210E-01 -0.15272776107E-01  0.13244409476E+00  0.19738912466E-01 0.  0.
         14    1    1    2    0    0  0.67892269085E-03 -0.18631573538E-01  0.14661372563E-01  0.23718185301E-01  0.00000000000E+00 0. -1.
     999901    1    3    3    0    0  0.91770176740E-01 -0.72865529672E-01  0.61140354394E-03  0.88776771994E+00  0.88000000000E+00 0. -1.
        -11    1    4    4    0    0 -0.53351872694E-01  0.64435287872E-01 -0.50783532777E-02  0.83811571016E-01  0.51100000000E-03 0.  1.
         11    1    4    4    0    0 -0.39097226737E-01  0.27061815338E-01 -0.10194422830E-01  0.48632523744E-01  0.51100000000E-03 0. -1.
</event>
<event>
 7    1  0.1131349E+005  0.1043930E+01  0.7957747E-01            NaN
         13   -1    0    0    0    0  0.00000000000E+00  0.00000000000E+00  0.74505805969E-08  0.10566000000E+00  0.10566000000E+00 0. -1.
     999900   -1    0    0    0    0 -0.00000000000E+00 -0.00000000000E+00 -0.74505805969E-08  0.93827000000E+00  0.93827000000E+00 0.  1.
     999903    2    1    2    0    0 -0.27597612405E-01  0.98538769517E-02  0.37876754959E-01  0.51930619703E-01  0.20085158578E-01 0.  0.
         14    1    1    2    0    0 -0.54773719331E-01  0.61128655618E-01 -0.65296110477E-01  0.10488305349E+00  0.00000000000E+00 0.  1.
     999901    1    1    2    0    0  0.82371331736E-01 -0.70982532569E-01  0.27419355518E-01  0.88711632680E+00  0.88000000000E+00 0.  1.
        -11    1    3    3    0    0 -0.10746648433E-01  0.96898636371E-02  0.30022006462E-01  0.33331155138E-01  0.51100000000E-03 0.  1.
         11    1    3    3    0    0 -0.16850963972E-01  0.16401331458E-03  0.78547484969E-02  0.18599464565E-01  0.51100000000E-03 0. -1.
</event>
<event>
 8    1  0.1131349E+005  0.1043930E+01  0.7957747E-01            NaN
         13   -1    0    0    0    0  0.00000000000E+00  0.00000000000E+00  0.74505805969E-08  0.10566000000E+00  0.10566000000E+00 0.  1.
     999900   -1    0    0    0    0 -0.00000000000E+00 -0.00000000000E+00 -0.74505805969E-08  0.93827000000E+00  0.93827000000E+00 0. -1.
     999902    2    1    2    0    0 -0.17434193252E-01  0.96054554065E-02 -0.12803045693E-01  0.10202628530E+01  0.10199883114E+01 0.  0.
     999903    2    3    3    0    0  0.67141941326E-02  0.69148055008E-01  0.10786728584E+00  0.12970696217E+00  0.19026580553E-01 0.  0.
         14    1    1    2    0    0  0.17434193252E-01 -0.96054554065E-02  0.12803045693E-01  0.23667146996E-01  0.00000000000E+00 0.  1.
     999901    1    3    3    0    0 -0.24148387385E-01 -0.59542599602E-01 -0.12067033153E+00  0.89055589083E+00  0.88000000000E+00 0. -1.
        -11    1    4    4    0    0 -0.41423088246E-02  0.38191436545E-01  0.48455858135E-01  0.61838304120E-01  0.51100000000E-03 0.  1.
         11    1    4    4    0    0  0.10856502957E-01  0.30956618463E-01  0.59411427704E-01  0.67868658054E-01  0.51100000000E-03 0. -1.
</event>
<event>
 8    1  0.1131349E+005  0.1043930E+01  0.7957747E-01            NaN
         13   -1    0    0    0    0  0.00000000000E+00  0.00000000000E+00  0.74505805969E-08  0.10566000000E+00  0.10566000000E+00 0.  1.
     999900   -1    0    0    0    0 -0.00000000000E+00 -0.00000000000E+00 -0.74505805969E-08  0.93827000000E+00  0.93827000000E+00 0. -1.
     999902    2    1    2    0    0  0.34790808214E-02 -0.19999344305E-01 -0.39620981467E-02  0.10232472536E+01  0.10230382036E+01 0.  0.
     999903    2    3    3    0    0  0.88946015782E-01  0.67629525055E-01  0.67243933244E-01  0.13192592289E+00  0.19938811121E-01 0.  0.
         14    1    1    2    0    0 -0.34790808214E-02  0.19999344305E-01  0.39620981467E-02  0.20682746377E-01  0.00000000000E+00 0.  1.
     999901    1    3    3    0    0 -0.85466934961E-01 -0.87628869360E-01 -0.71206031391E-01  0.89132133074E+00  0.88000000000E+00 0.  1.
        -11    1    4    4    0    0  0.63987586694E-01  0.36759975339E-01  0.44306082371E-01  0.86075531331E-01  0.51100000000E-03 0.  1.
         11    1    4    4    0    0  0.24958429088E-01  0.30869549716E-01  0.22937850874E-01  0.45850391557E-01  0.51100000000E-03 0. -1.
</event>
<event>
 8    1  0.1131349E+005  0.1043930E+01  0.7957747E-01            NaN
         13   -1    0    0    0    0  0.00000000000E+00  0.00000000000E+00  0.74505805969E-08  0.10566000000E+00  0.10566000000E+00 0.  1.
     999900   -1    0    0    0    0 -0.00000000000E+00 -0.00000000000E+00 -0.74505805969E-08  0.93827000000E+00  0.93827000000E+00 0. -1.
     999902    2    1    2    0    0  0.11599656788E-01  0.19381758338E-01 -0.55755699556E-02  0.10206643263E+01  0.10203991255E+01 0.  0.
     999903    2    3    3    0    0  0.11821307750E+00  0.32439060330E-02  0.55178046201E-01  0.13200361844E+00  0.19886776522E-01 0.  0.
         14    1    1    2    0    0 -0.11599656788E-01 -0.19381758338E-01  0.55755699556E-02  0.23265673732E-01  0.00000000000E+00 0. -1.
     999901    1    3    3    0    0 -0.10661342072E+00  0.16137852305E-01 -0.60753616157E-01  0.88866070782E+00  0.88000000000E+00 0. -1.
        -11    1    4    4    0    0  0.29636090569E-01 -0.58052165004E-02  0.80358964618E-02  0.31254362188E-01  0.51100000000E-03 0. -1.
         11    1    4    4    0    0  0.88576986935E-01  0.90491225333E-02  0.47142149739E-01  0.10074925626E+00  0.51100000000E-03 0.  1.
</event>
<event>
 8    1  0.1131349E+005  0.1043930E+01  0.7957747E-01            NaN
         13   -1    0    0    0    0  0.00000000000E+00  0.00000000000E+00  0.74505805969E-08  0.10566000000E+00  0.10566000000E+00 0.  1.
     999900   -1    0    0    0    0 -0.00000000000E+00 -0.00000000000E+00 -0.74505805969E-08  0.93827000000E+00  0.93827000000E+00 0.  1.
     999902    2    1    2    0    0  0.21777200920E-01 -0.58208125480E-02  0.82069224897E-02  0.10199407959E+01  0.10196586415E+01 0.  0.
     999903    2    3    3    0    0 -0.98109964320E-01  0.25852679818E-02  0.80655010016E-01  0.12882221791E+00  0.21393561578E-01 0.  0.
         14    1    1    2    0    0 -0.21777200920E-01  0.58208125480E-02 -0.82069224897E-02  0.23989204142E-01  0.00000000000E+00 0.  1.
     999901    1    3    3    0    0  0.11988716524E+00 -0.84060805298E-02 -0.72448087526E-01  0.89111857795E+00  0.88000000000E+00 0.  1.
        -11    1    4    4    0    0 -0.16598098063E-01  0.16092741139E-02  0.45352554694E-02  0.17289195634E-01  0.51100000000E-03 0. -1.
         11    1    4    4    0    0 -0.81511866257E-01  0.97599386793E-03  0.76119754546E-01  0.11153302228E+00  0.51100000000E-03 0.  1.
</event>
<event>
 8    1  0.1131349E+005  0.1043930E+01  0.7957747E-01            NaN
         13   -1    0    0    0    0  0.00000000000E+00  0.00000000000E+00  0.74505805969E-08  0.10566000000E+00  0.10566000000E+00 0.  1.
     999900   -1    0    0    0    0 -0.00000000000E+00 -0.00000000000E+00 -0.74505805969E-08  0.93827000000E+00  0.93827000000E+00 0. -1.
     999902    2    1    2    0    0  0.13936114417E-01  0.18118216845E-01  0.61347265566E-03  0.10210638369E+01  0.10208077672E+01 0.  0.
     999903    2    3    3    0    0 -0.15978331163E-01 -0.77652841804E-01 -0.10060202586E+00  0.12959788304E+00  0.19737597981E-01 0.  0.
         14    1    1    2    0    0 -0.13936114417E-01 -0.18118216845E-01 -0.61347265566E-03  0.22866163110E-01  0.00000000000E+00 0.  1.
     999901    1    3    3    0    0  0.29914445580E-01  0.95771058649E-01  0.10121549852E+00  0.89146595385E+00  0.88000000000E+00 0.  1.
        -11    1    4    4    0    0 -0.17548051727E-01 -0.55883722011E-01 -0.62315315198E-01  0.85524172808E-01  0.51100000000E-03 0.  1.
         11    1    4    4    0    0  0.15697205635E-02 -0.21769119793E-01 -0.38286710666E-01  0.44073710234E-01  0.51100000000E-03 0. -1.
</event>
<event>
 8    1  0.1131349E+005  0.1043930E+01  0.7957747E-01            NaN
         13   -1    0    0    0    0  0.00000000000E+00  0.00000000000E+00  0.74505805969E-08  0.10566000000E+00  0.10566000000E+00 0.  1.
     999900   -1    0    0    0    0 -0.00000000000E+00 -0.00000000000E+00 -0.74505805969E-08  0.93827000000E+00  0.93827000000E+00 0. -1.
     999902    2    1    2    0    0  0.14819644073E-01 -0.14783164345E-01 -0.65958545227E-02  0.10219830390E+01  0.10217473577E+01 0.  0.
     999903    2    3    3    0    0 -0.11255867024E+00 -0.17483306973E-01 -0.61637714903E-01  0.13110586899E+00  0.20357325810E-01 0.  0.
         14    1    1    2    0    0 -0.14819644073E-01  0.14783164345E-01  0.65958545227E-02  0.21946960960E-01  0.00000000000E+00 0.  1.
     999901    1    3    3    0    0  0.12737831432E+00  0.27001426275E-02  0.55041860380E-01  0.89087717005E+00  0.88000000000E+00 0.  1.
        -11    1    4    4    0    0 -0.42675587220E-01 -0.10444053929E-01 -0.34276018276E-01  0.55726031232E-01  0.51100000000E-03 0. -1.
         11    1    4    4    0    0 -0.69883083025E-01 -0.70392530443E-02 -0.27361696627E-01  0.75379837754E-01  0.51100000000E-03 0.  1.
</event>
<event>
 8    1  0.1131349E+005  0.1043930E+01  0.7957747E-01            NaN
         13   -1    0    0    0    0  0.00000000000E+00  0.00000000000E+00  0.74505805969E-08  0.10566000000E+00  0.10566000000E+00 0. -1.
     999900   -1    0    0    0    0 -0.00000000000E+00 -0.00000000000E+00 -0.74505805969E-08  0.93827000000E+00  0.93827000000E+00 0.  1.
     999902    2    1    2    0    0  0.14941727149E-01 -0.19412301421E-02  0.18708374306E-01  0.10199086167E+01  0.10196256959E+01 0.  0.
     999903    2    3    3    0    0 -0.48236250665E-01 -0.44249749489E-01 -0.10776833672E+00  0.12762064410E+00  0.19703760863E-01 0.  0.
         14    1    1    2    0    0 -0.14941727149E-01  0.19412301421E-02 -0.18708374306E-01  0.24021383263E-01  0.00000000000E+00 0.  1.
     999901    1    3    3    0    0  0.63177977814E-01  0.42308519346E-01  0.12647671103E+00  0.89228797264E+00  0.88000000000E+00 0.  1.
        -11    1    4    4    0    0 -0.32301802648E-01 -0.40784446125E-01 -0.83182046582E-01  0.98113666197E-01  0.51100000000E-03 0.  1.
         11    1    4    4    0    0 -0.15934448017E-01 -0.34653033638E-02 -0.24586290137E-01  0.29506977899E-01  0.51100000000E-03 0. -1.
</event>
<event>
 8    1  0.1131349E+005  0.1043930E+01  0.7957747E-01            NaN
         13   -1    0    0    0    0  0.00000000000E+00  0.00000000000E+00  0.74505805969E-08  0.10566000000E+00  0.10566000000E+00 0.  1.
     999900   -1    0    0    0    0 -0.00000000000E+00 -0.00000000000E+00 -0.74505805969E-08  0.93827000000E+00  0.93827000000E+00 0.  1.
     999902    2    1    2    0    0 -0.24321019499E-01 -0.35923851034E-02  0.13305724802E-02  0.10193091218E+01  0.10190117262E+01 0.  0.
     999903    2    3    3    0    0 -0.85084596770E-01 -0.91836836908E-01  0.37171577963E-01  0.13208656050E+00  0.19792423727E-01 0.  0.
         14    1    1    2    0    0  0.24321019499E-01  0.35923851034E-02 -0.13305724802E-02  0.24620878200E-01  0.00000000000E+00 0.  1.
     999901    1    3    3    0    0  0.60763577270E-01  0.88244451805E-01 -0.35841005483E-01  0.88722256130E+00  0.88000000000E+00 0.  1.
        -11    1    4    4    0    0 -0.27607223249E-01 -0.18514566320E-01  0.55829638591E-02  0.33710214298E-01  0.51100000000E-03 0.  1.
         11    1    4    4    0    0 -0.57477373520E-01 -0.73322270589E-01  0.31588614104E-01  0.98376346207E-01  0.51100000000E-03 0. -1.
</event>
<event>
 8    1  0.1131349E+005  0.1043930E+01  0.7957747E-01            NaN
         13   -1    0    0    0    0  0.00000000000E+00  0.00000000000E+00  0.74505805969E-08  0.10566000000E+00  0.10566000000E+00 0.  1.
     999900   -1    0    0    0    0 -0.00000000000E+00 -0.00000000000E+00 -0.74505805969E-08  0.93827000000E+00  0.93827000000E+00 0. -1.
     999902    2    1    2    0    0  0.16328814642E-01 -0.28400340468E-01  0.17761293240E-02  0.10111220107E+01  0.10105896083E+01 0.  0.
     999903    2    3    3    0    0 -0.10589776744E+00 -0.47669433689E-01  0.32515696725E-01  0.12193386620E+00  0.17996809037E-01 0.  0.
         14    1    1    2    0    0 -0.16328814642E-01  0.28400340468E-01 -0.17761293240E-02  0.32807989296E-01  0.00000000000E+00 0. -1.
     999901    1    3    3    0    0  0.12222658208E+00  0.19269093221E-01 -0.30739567401E-01  0.88918814450E+00  0.88000000000E+00 0. -1.
        -11    1    4    4    0    0 -0.85687040071E-01 -0.39846665476E-01  0.33423993523E-01  0.10023696948E+00  0.51100000000E-03 0.  1.
         11    1    4    4    0    0 -0.20210727371E-01 -0.78227682131E-02 -0.90829679783E-03  0.21696896724E-01  0.51100000000E-03 0. -1.
</event>
<event>
 8    1  0.1131349E+005  0.1043930E+01  0.7957747E-01            NaN
         13   -1    0    0    0    0  0.00000000000E+00  0.00000000000E+00  0.74505805969E-08  0.10566000000E+00  0.10566000000E+00 0.  1.
     999900   -1    0    0    0    0 -0.00000000000E+00 -0.00000000000E+00 -0.74505805969E-08  0.93827000000E+00  0.93827000000E+00 0.  1.
     999902    2    1    2    0    0 -0.78853546399E-02  0.12437246887E-01 -0.18340476534E-01  0.10204090092E+01  0.10201378873E+01 0.  0.
     999903    2    3    3    0    0 -0.26434108084E-01 -0.70800216704E-01  0.10151660338E+00  0.12819925182E+00  0.20444917451E-01 0.  0.
         14    1    1    2    0    0  0.78853546399E-02 -0.12437246887E-01  0.18340476534E-01  0.23520990783E-01  0.00000000000E+00 0.  1.
     999901    1    3    3    0    0  0.18548753444E-01  0.83237463591E-01 -0.11985707991E+00  0.89220975740E+00  0.88000000000E+00 0.  1.
        -11    1    4    4    0    0 -0.10630449616E-01 -0.41245536864E-01  0.41575507800E-01  0.59522976573E-01  0.51100000000E-03 0.  1.
         11    1    4    4    0    0 -0.15803658468E-01 -0.29554679839E-01  0.59941095575E-01  0.68676275242E-01  0.51100000000E-03 0. -1.
</event>
<event>
 8    1  0.1131349E+005  0.1043930E+01  0.7957747E-01            NaN
         13   -1    0    0    0    0  0.00000000000E+00  0.00000000000E+00  0.74505805969E-08  0.10566000000E+00  0.10566000000E+00 0. -1.
     999900   -1    0    0    0    0 -0.00000000000E+00 -0.00000000000E+00 -0.74505805969E-08  0.93827000000E+00  0.93827000000E+00 0.  1.
     999902    2    1    2    0    0 -0.52944827400E-02 -0.20383087059E-01  0.86837396429E-02  0.10211504232E+01  0.10208963109E+01 0.  0.
     999903    2    3    3    0    0  0.21190916313E-01 -0.73697273014E-01  0.10802834581E+00  0.13356198840E+00  0.16980526042E-01 0.  0.
         14    1    1    2    0    0  0.52944827400E-02  0.20383087059E-01 -0.86837396429E-02  0.22779576812E-01  0.00000000000E+00 0.  1.
     999901    1    3    3    0    0 -0.26485399053E-01  0.53314185955E-01 -0.99344606166E-01  0.88758843478E+00  0.88000000000E+00 0.  1.
        -11    1    4    4    0    0  0.17598312556E-01 -0.59071429023E-01  0.73745798674E-01  0.96113673713E-01  0.51100000000E-03 0. -1.
         11    1    4    4    0    0  0.35926037577E-02 -0.14625843991E-01  0.34282547134E-01  0.37448314691E-01  0.51100000000E-03 0.  1.
</event>
<event>
 8    1  0.1131349E+005  0.1043930E+01  0.7957747E-01            NaN
         13   -1    0    0    0    0  0.00000000000E+00  0.00000000000E+00  0.74505805969E-08  0.10566000000E+00  0.10566000000E+00 0. -1.
     999900   -1    0    0    0    0 -0.00000000000E+00 -0.00000000000E+00 -0.74505805969E-08  0.93827000000E+00  0.93827000000E+00 0. -1.
     999902    2    1    2    0    0  0.21108110211E-01 -0.87308873205E-02  0.44393275280E-03  0.10210831668E+01  0.10208275348E+01 0.  0.
     999903    2    3    3    0    0 -0.22556686036E-01 -0.10702090940E+00  0.70566059987E-01  0.13176620668E+00  0.20505737389E-01 0.  0.
         14    1    1    2    0    0 -0.21108110211E-01  0.87308873205E-02 -0.44393275280E-03  0.22846833181E-01  0.00000000000E+00 0. -1.
     999901    1    3    3    0    0  0.43664796248E-01  0.98290022079E-01 -0.70122127234E-01  0.88931696014E+00  0.88000000000E+00 0. -1.
        -11    1    4    4    0    0 -0.16754568173E-02 -0.90047167748E-02  0.13852545769E-01  0.16614638878E-01  0.51100000000E-03 0.  1.
         11    1    4    4    0    0 -0.20881229219E-01 -0.98016192625E-01  0.56713514217E-01  0.11515156780E+00  0.51100000000E-03 0. -1.
</event>
<event>
 8    1  0.1131349E+005  0.1043930E+01  0.7957747E-01            NaN
         13   -1    0    0    0    0  0.00000000000E+00  0.00000000000E+00  0.74505805969E-08  0.10566000000E+00  0.10566000000E+00 0. -1.
     999900   -1    0    0    0    0 -0.00000000000E+00 -0.00000000000E+00 -0.74505805969E-08  0.93827000000E+00  0.93827000000E+00 0.  1.
     999902    2    1    2    0    0  0.22899612000E-01 -0.21454187747E-02 -0.85718510027E-02  0.10193847014E+01  0.10190891511E+01 0.  0.
     999903    2    3    3    0    0  0.11173959153E+00 -0.30632259837E-01  0.59387890240E-01  0.13184733969E+00  0.20802110933E-01 0.  0.
         14    1    1    2    0    0 -0.22899612000E-01  0.21454187747E-02  0.85718510027E-02  0.24545298554E-01  0.00000000000E+00 0. -1.
     999901    1    3    3    0    0 -0.88839979529E-01  0.28486841062E-01 -0.67959741243E-01  0.88753736175E+00  0.88000000000E+00 0.  1.
        -11    1    4    4    0    0  0.66395739502E-01 -0.28649177779E-01  0.35647361315E-01  0.80623601390E-01  0.51100000000E-03 0. -1.
         11    1    4    4    0    0  0.45343852027E-01 -0.19830820583E-02  0.23740528925E-01  0.51223738303E-01  0.51100000000E-03 0.  1.
</event>
<event>
 8    1  0.1131349E+005  0.1043930E+01  0.7957747E-01            NaN
         13   -1    0    0    0    0  0.00000000000E+00  0.00000000000E+00  0.74505805969E-08  0.10566000000E+00  0.10566000000E+00 0.  1.
     999900   -1    0    0    0    0 -0.00000000000E+00 -0.00000000000E+00 -0.74505805969E-08  0.93827000000E+00  0.93827000000E+00 0.  1.
     999902    2    1    2    0    0  0.13272851794E-01  0.85196214427E-02 -0.17816683252E-01  0.10201353210E+01  0.10198577776E+01 0.  0.
     999903    2    3    3    0    0 -0.41493251026E-01 -0.37425121662E-01  0.11315067797E+00  0.12757568991E+00  0.18712325296E-01 0.  0.
         14    1    1    2    0    0 -0.13272851794E-01 -0.85196214427E-02  0.17816683252E-01  0.23794678951E-01  0.00000000000E+00 0.  1.
     999901    1    3    3    0    0  0.54766102819E-01  0.45944743105E-01 -0.13096736122E+00  0.89255963114E+00  0.88000000000E+00 0.  1.
        -11    1    4    4    0    0 -0.13264459220E-01 -0.16901333117E-02  0.26310482152E-01  0.29517876297E-01  0.51100000000E-03 0.  1.
         11    1    4    4    0    0 -0.28228791805E-01 -0.35734988350E-01  0.86840195820E-01  0.98057813611E-01  0.51100000000E-03 0. -1.
</event>
<event>
 8    1  0.1131349E+005  0.1043930E+01  0.7957747E-01            NaN
         13   -1    0    0    0    0  0.00000000000E+00  0.00000000000E+00  0.74505805969E-08  0.10566000000E+00  0.10566000000E+00 0. -1.
     999900   -1    0    0    0    0 -0.00000000000E+00 -0.00000000000E+00 -0.74505805969E-08  0.93827000000E+00  0.93827000000E+00 0.  1.
     999902    2    1    2    0    0 -0.68022971896E-02 -0.80902583356E-02  0.10141902300E-01  0.10292813922E+01  0.10291771484E+01 0.  0.
     999903    2    3    3    0    0  0.65488325043E-01 -0.11160057956E+00 -0.44050695948E-01  0.13862031284E+00  0.23058994833E-01 0.  0.
         14    1    1    2    0    0  0.68022971896E-02  0.80902583356E-02 -0.10141902300E-01  0.14648607758E-01  0.00000000000E+00 0.  1.
     999901    1    3    3    0    0 -0.72290622233E-01  0.10351032122E+00  0.54192598247E-01  0.89066107941E+00  0.88000000000E+00 0.  1.
        -11    1    4    4    0    0  0.51887975551E-01 -0.79566669195E-01 -0.22289081664E-01  0.97571928012E-01  0.51100000000E-03 0. -1.
         11    1    4    4    0    0  0.13600349492E-01 -0.32033910364E-01 -0.21761614283E-01  0.41048384825E-01  0.51100000000E-03 0.  1.
</event>
<event>
 8    1  0.1131349E+005  0.1043930E+01  0.7957747E-01            NaN
         13   -1    0    0    0    0  0.00000000000E+00  0.00000000000E+00  0.74505805969E-08  0.10566000000E+00  0.10566000000E+00 0. -1.
     999900   -1    0    0    0    0 -0.00000000000E+00 -0.00000000000E+00 -0.74505805969E-08  0.93827000000E+00  0.93827000000E+00 0. -1.
     999902    2    1    2    0    0  0.74234482330E-02  0.57554693782E-02  0.20969861990E-01  0.10209524431E+01  0.10206938438E+01 0.  0.
     999903    2    3    3    0    0  0.73220389122E-01 -0.10597073152E+00  0.16331612392E-01  0.13143937695E+00  0.20458908287E-01 0.  0.
         14    1    1    2    0    0 -0.74234482330E-02 -0.57554693782E-02 -0.20969861990E-01  0.22977556948E-01  0.00000000000E+00 0.  1.
     999901    1    3    3    0    0 -0.65796940889E-01  0.11172620090E+00  0.46382495981E-02  0.88951306610E+00  0.88000000000E+00 0.  1.
        -11    1    4    4    0    0  0.30206507494E-01 -0.47167072778E-01 -0.28932016284E-02  0.56087410228E-01  0.51100000000E-03 0.  1.
         11    1    4    4    0    0  0.43013881627E-01 -0.58803658745E-01  0.19224814020E-01  0.75351966727E-01  0.51100000000E-03 0. -1.
</event>
<event>
 8    1  0.1131349E+005  0.1043930E+01  0.7957747E-01            NaN
         13   -1    0    0    0    0  0.00000000000E+00  0.00000000000E+00  0.74505805969E-08  0.10566000000E+00  0.10566000000E+00 0. -1.
     999900   -1    0    0    0    0 -0.00000000000E+00 -0.00000000000E+00 -0.74505805969E-08  0.93827000000E+00  0.93827000000E+00 0. -1.
     999902    2    1    2    0    0  0.20908466178E-01 -0.60536443470E-02  0.76546122679E-02  0.10208561261E+01  0.10205953295E+01 0.  0.
     999903    2    3    3    0    0  0.11181105772E+00  0.59703887920E-01 -0.34044977680E-01  0.13275354756E+00  0.19954373585E-01 0.  0.
         14    1    1    2    0    0 -0.20908466178E-01  0.60536443470E-02 -0.76546122679E-02  0.23073873900E-01  0.00000000000E+00 0. -1.
     999901    1    3    3    0    0 -0.90902591540E-01 -0.65757532267E-01  0.41699589948E-01  0.88810257853E+00  0.88000000000E+00 0.  1.
        -11    1    4    4    0    0  0.23418117242E-01  0.12007564966E-01 -0.15705234640E-01  0.30651351482E-01  0.51100000000E-03 0.  1.
         11    1    4    4    0    0  0.88392940476E-01  0.47696322954E-01 -0.18339743040E-01  0.10210219608E+00  0.51100000000E-03 0. -1.
</event>
<event>
 8    1  0.1131349E+005  0.1043930E+01  0.7957747E-01            NaN
         13   -1    0    0    0    0  0.00000000000E+00  0.00000000000E+00  0.74505805969E-08  0.10566000000E+00  0.10566000000E+00 0.  1.
     999900   -1    0    0    0    0 -0.00000000000E+00 -0.00000000000E+00 -0.74505805969E-08  0.93827000000E+00  0.93827000000E+00 0. -1.
     999902    2    1    2    0    0  0.11164412939E-01  0.19413727342E-01  0.64093863913E-02  0.10206358557E+01  0.10203699980E+01 0.  0.
     999903    2    3    3    0    0  0.53195238920E-01  0.11874465534E+00 -0.16515119083E-01  0.13375437739E+00  0.26219414505E-01 0.  0.
         14    1    1    2    0    0 -0.11164412939E-01 -0.19413727342E-01 -0.64093863913E-02  0.23294144318E-01  0.00000000000E+00 0.  1.
     999901    1    3    3    0    0 -0.42030825981E-01 -0.99330927997E-01  0.22924505475E-01  0.88688147829E+00  0.88000000000E+00 0.  1.
        -11    1    4    4    0    0 -0.27328500339E-02  0.92808634384E-02  0.24942710092E-03  0.96915545888E-02  0.51100000000E-03 0. -1.
         11    1    4    4    0    0  0.55928088954E-01  0.10946379190E+00 -0.16764546184E-01  0.12406282280E+00  0.51100000000E-03 0.  1.
</event>
<event>
 8    1  0.1131349E+005  0.1043930E+01  0.7957747E-01            NaN
         13   -1    0    0    0    0  0.00000000000E+00  0.00000000000E+00  0.74505805969E-08  0.10566000000E+00  0.10566000000E+00 0. -1.
     999900   -1    0    0    0    0 -0.00000000000E+00 -0.00000000000E+00 -0.74505805969E-08  0.93827000000E+00  0.93827000000E+00 0. -1.
     999902    2    1    2    0    0  0.56053743357E-02 -0.85181710779E-03  0.24242304146E-01  0.10190335118E+01  0.10187293375E+01 0.  0.
     999903    2    3    3    0    0  0.33664836378E-01  0.75301403305E-01 -0.96433447514E-01  0.12709781714E+00  0.71290093546E-02 0.  0.
         14    1    1    2    0    0 -0.56053743357E-02  0.85181710779E-03 -0.24242304146E-01  0.24896488189E-01  0.00000000000E+00 0.  1.
     999901    1    3    3    0    0 -0.28059462042E-01 -0.76153220413E-01  0.12067575166E+00  0.89193569467E+00  0.88000000000E+00 0.  1.
        -11    1    4    4    0    0  0.17811901800E-01  0.36777658754E-01 -0.52819323863E-01  0.66783247327E-01  0.51100000000E-03 0. -1.
         11    1    4    4    0    0  0.15852934577E-01  0.38523744551E-01 -0.43614123651E-01  0.60314569813E-01  0.51100000000E-03 0.  1.
</event>
<event>
 8    1  0.1131349E+005  0.1043930E+01  0.7957747E-01            NaN
         13   -1    0    0    0    0  0.00000000000E+00  0.00000000000E+00  0.74505805969E-08  0.10566000000E+00  0.10566000000E+00 0. -1.
     999900   -1    0    0    0    0 -0.00000000000E+00 -0.00000000000E+00 -0.74505805969E-08  0.93827000000E+00  0.93827000000E+00 0.  1.
     999902    2    1    2    0    0 -0.40755319373E-02  0.11318370448E-01 -0.20227988066E-01  0.10203951966E+01  0.10201237524E+01 0.  0.
     999903    2    3    3    0    0 -0.11112713865E+00 -0.58531638476E-01 -0.30988111190E-01  0.13109499391E+00  0.21223589367E-01 0.  0.
         14    1    1    2    0    0  0.40755319373E-02 -0.11318370448E-01  0.20227988066E-01  0.23534803406E-01  0.00000000000E+00 0. -1.
     999901    1    3    3    0    0  0.10705160671E+00  0.69850008924E-01  0.10760123124E-01  0.88930020269E+00  0.88000000000E+00 0.  1.
        -11    1    4    4    0    0 -0.41625630763E-01 -0.33589456069E-01 -0.11274081189E-01  0.54665443592E-01  0.51100000000E-03 0. -1.
         11    1    4    4    0    0 -0.69501507887E-01 -0.24942182407E-01 -0.19714030001E-01  0.76429550317E-01  0.51100000000E-03 0.  1.
</event>
<event>
 8    1  0.1131349E+005  0.1043930E+01  0.7957747E-01            NaN
         13   -1    0    0    0    0  0.00000000000E+00  0.00000000000E+00  0.74505805969E-08  0.10566000000E+00  0.10566000000E+00 0. -1.
     999900   -1    0    0    0    0 -0.00000000000E+00 -0.00000000000E+00 -0.74505805969E-08  0.93827000000E+00  0.93827000000E+00 0.  1.
     999902    2    1    2    0    0  0.17728878617E-01 -0.65607102314E-02 -0.15413433147E-01  0.10195388135E+01  0.10192470075E+01 0.  0.
     999903    2    3    3    0    0 -0.11736276099E+00 -0.44697869708E-01 -0.17361192421E-01  0.12841144453E+00  0.20400266193E-01 0.  0.
         14    1    1    2    0    0 -0.17728878617E-01  0.65607102314E-02  0.15413433147E-01  0.24391186464E-01  0.00000000000E+00 0. -1.
     999901    1    3    3    0    0  0.13509163961E+00  0.38137159476E-01  0.19477592737E-02  0.89112736901E+00  0.88000000000E+00 0. -1.
        -11    1    4    4    0    0 -0.79502171293E-01 -0.19912442911E-01 -0.10149253702E-01  0.82585525939E-01  0.51100000000E-03 0.  1.
         11    1    4    4    0    0 -0.37860589696E-01 -0.24785426797E-01 -0.72119387190E-02  0.45825918591E-01  0.51100000000E-03 0. -1.
</event>
<event>
 8    1  0.1131349E+005  0.1043930E+01  0.7957747E-01            NaN
         13   -1    0    0    0    0  0.00000000000E+00  0.00000000000E+00  0.74505805969E-08  0.10566000000E+00  0.10566000000E+00 0.  1.
     999900   -1    0    0    0    0 -0.00000000000E+00 -0.00000000000E+00 -0.74505805969E-08  0.93827000000E+00  0.93827000000E+00 0.  1.
     999902    2    1    2    0    0 -0.30959238541E-02  0.86672586263E-02  0.21571090451E-01  0.10204775362E+01  0.10202080100E+01 0.  0.
     999903    2    3    3    0    0 -0.38710977452E-01  0.81933662525E-01 -0.90971230678E-01  0.12957789422E+00  0.17406924719E-01 0.  0.
         14    1    1    2    0    0  0.30959238541E-02 -0.86672586263E-02 -0.21571090451E-01  0.23452463833E-01  0.00000000000E+00 0. -1.
     999901    1    3    3    0    0  0.35615053598E-01 -0.73266403898E-01  0.11254232113E+00  0.89089964195E+00  0.88000000000E+00 0. -1.
        -11    1    4    4    0    0 -0.31580374210E-01  0.61946711392E-01 -0.58948695086E-01  0.91158789268E-01  0.51100000000E-03 0.  1.
         11    1    4    4    0    0 -0.71306032425E-02  0.19986951132E-01 -0.32022535593E-01  0.38419104947E-01  0.51100000000E-03 0. -1.
</event>
<event>
 8    1  0.1131349E+005  0.1043930E+01  0.7957747E-01            NaN
         13   -1    0    0    0    0  0.00000000000E+00  0.00000000000E+00  0.74505805969E-08  0.10566000000E+00  0.10566000000E+00 0. -1.
     999900   -1    0    0    0    0 -0.00000000000E+00 -0.00000000000E+00 -0.74505805969E-08  0.93827000000E+00  0.93827000000E+00 0. -1.
     999902    2    1    2    0    0 -0.14424156141E-01 -0.17854749371E-01  0.50468028417E-02  0.10204285410E+01  0.10201578744E+01 0.  0.
     999903    2    3    3    0    0 -0.70019904575E-01  0.10315439955E-01 -0.10836075347E+00  0.13096481458E+00  0.20013356268E-01 0.  0.
         14    1    1    2    0    0  0.14424156141E-01  0.17854749371E-01 -0.50468028417E-02  0.23501458985E-01  0.00000000000E+00 0. -1.
     999901    1    3    3    0    0  0.55595748434E-01 -0.28170189327E-01  0.11340755631E+00  0.88946372643E+00  0.88000000000E+00 0.  1.
        -11    1    4    4    0    0 -0.16266458318E-01  0.55979808488E-04 -0.12266010546E-01  0.20379326183E-01  0.51100000000E-03 0. -1.
         11    1    4    4    0    0 -0.53753446257E-01  0.10259460147E-01 -0.96094742919E-01  0.11058548840E+00  0.51100000000E-03 0.  1.
</event>
<event>
 8    1  0.1131349E+005  0.1043930E+01  0.7957747E-01            NaN
         13   -1    0    0    0    0  0.00000000000E+00  0.00000000000E+00  0.74505805969E-08  0.10566000000E+00  0.10566000000E+00 0.  1.
     999900   -1    0    0    0    0 -0.00000000000E+00 -0.00000000000E+00 -0.74505805969E-08  0.93827000000E+00  0.93827000000E+00 0. -1.
     999902    2    1    2    0    0  0.72711932502E-04  0.18950168775E-02  0.23753458315E-01  0.10201009598E+01  0.10198226047E+01 0.  0.
     999903    2    3    3    0    0  0.21207757397E-01 -0.11535024268E+00  0.55762467597E-01  0.13149659466E+00  0.20650766426E-01 0.  0.
         14    1    1    2    0    0 -0.72711932502E-04 -0.18950168775E-02 -0.23753458315E-01  0.23829040222E-01  0.00000000000E+00 0. -1.
     999901    1    3    3    0    0 -0.21135045464E-01  0.11724525956E+00 -0.32009009282E-01  0.88860436512E+00  0.88000000000E+00 0. -1.
        -11    1    4    4    0    0  0.24060745939E-01 -0.93513463967E-01  0.40568912074E-01  0.10473674229E+00  0.51100000000E-03 0.  1.
         11    1    4    4    0    0 -0.28529885421E-02 -0.21836778713E-01  0.15193555522E-01  0.26759852365E-01  0.51100000000E-03 0. -1.
</event>
<event>
 8    1  0.1131349E+005  0.1043930E+01  0.7957747E-01            NaN
         13   -1    0    0    0    0  0.00000000000E+00  0.00000000000E+00  0.74505805969E-08  0.10566000000E+00  0.10566000000E+00 0. -1.
     999900   -1    0    0    0    0 -0.00000000000E+00 -0.00000000000E+00 -0.74505805969E-08  0.93827000000E+00  0.93827000000E+00 0.  1.
     999902    2    1    2    0    0  0.11179547164E-01 -0.10061035541E-02 -0.22277743339E-01  0.10189842114E+01  0.10186788163E+01 0.  0.
     999903    2    3    3    0    0 -0.10657939345E+00 -0.63690100436E-01  0.22003531318E-01  0.12782918404E+00  0.20989256740E-01 0.  0.
         14    1    1    2    0    0 -0.11179547164E-01  0.10061035541E-02  0.22277743339E-01  0.24945788571E-01  0.00000000000E+00 0. -1.
     999901    1    3    3    0    0  0.11775894062E+00  0.62683996882E-01 -0.44281274657E-01  0.89115502739E+00  0.88000000000E+00 0. -1.
        -11    1    4    4    0    0 -0.17395931630E-01 -0.25088946121E-02  0.69579986326E-03  0.17597109078E-01  0.51100000000E-03 0. -1.
         11    1    4    4    0    0 -0.89183461824E-01 -0.61181205824E-01  0.21307731455E-01  0.11023207496E+00  0.51100000000E-03 0.  1.
</event>
<event>
 8    1  0.1131349E+005  0.1043930E+01  0.7957747E-01            NaN
         13   -1    0    0    0    0  0.00000000000E+00  0.00000000000E+00  0.74505805969E-08  0.10566000000E+00  0.10566000000E+00 0.  1.
     999900   -1    0    0    0    0 -0.00000000000E+00 -0.00000000000E+00 -0.74505805969E-08  0.93827000000E+00  0.93827000000E+00 0.  1.
     999902    2    1    2    0    0 -0.63254257823E-02 -0.35608058345E-01 -0.91909475744E-02  0.10066148778E+01  0.10059230059E+01 0.  0.
     999903    2    3    3    0    0 -0.43153830547E-01 -0.70562130391E-01  0.85486403239E-01  0.12008122397E+00  0.16441042383E-01 0.  0.
         14    1    1    2    0    0  0.63254257823E-02  0.35608058345E-01  0.91909475744E-02  0.37315122240E-01  0.00000000000E+00 0. -1.
     999901    1    3    3    0    0  0.36828404765E-01  0.34954072046E-01 -0.94677350813E-01  0.88653365379E+00  0.88000000000E+00 0.  1.
        -11    1    4    4    0    0 -0.19074695084E-01 -0.31551533901E-01  0.26668583482E-01  0.45506238583E-01  0.51100000000E-03 0. -1.
         11    1    4    4    0    0 -0.24079135463E-01 -0.39010596491E-01  0.58817819757E-01  0.74574985385E-01  0.51100000000E-03 0.  1.
</event>
<event>
 8    1  0.1131349E+005  0.1043930E+01  0.7957747E-01            NaN
         13   -1    0    0    0    0  0.00000000000E+00  0.00000000000E+00  0.74505805969E-08  0.10566000000E+00  0.10566000000E+00 0. -1.
     999900   -1    0    0    0    0 -0.00000000000E+00 -0.00000000000E+00 -0.74505805969E-08  0.93827000000E+00  0.93827000000E+00 0.  1.
     999902    2    1    2    0    0 -0.13192169624E-01  0.59523384735E-02 -0.19002412389E-01  0.10200436995E+01  0.10197639892E+01 0.  0.
     999903    2    3    3    0    0  0.37144925716E-03 -0.73853004131E-01 -0.10732004717E+00  0.13192610087E+00  0.20796619239E-01 0.  0.
         14    1    1    2    0    0  0.13192169624E-01 -0.59523384735E-02  0.19002412389E-01  0.23886300452E-01  0.00000000000E+00 0. -1.
     999901    1    3    3    0    0 -0.13563618881E-01  0.79805342605E-01  0.88317634785E-01  0.88811759868E+00  0.88000000000E+00 0. -1.
        -11    1    4    4    0    0  0.10279047922E-01 -0.45410921341E-01 -0.67256470006E-01  0.81801616622E-01  0.51100000000E-03 0.  1.
         11    1    4    4    0    0 -0.99075986651E-02 -0.28442082790E-01 -0.40063577168E-01  0.50124484249E-01  0.51100000000E-03 0. -1.
</event>
<event>
 8    1  0.1131349E+005  0.1043930E+01  0.7957747E-01            NaN
         13   -1    0    0    0    0  0.00000000000E+00  0.00000000000E+00  0.74505805969E-08  0.10566000000E+00  0.10566000000E+00 0. -1.
     999900   -1    0    0    0    0 -0.00000000000E+00 -0.00000000000E+00 -0.74505805969E-08  0.93827000000E+00  0.93827000000E+00 0.  1.
     999902    2    1    2    0    0  0.22620312022E-01  0.24029624468E-02 -0.32804823944E-02  0.10209470866E+01  0.10206883654E+01 0.  0.
     999903    2    3    3    0    0  0.10473882917E+00  0.58373173884E-01  0.55245773527E-01  0.13342162888E+00  0.19276560804E-01 0.  0.
         14    1    1    2    0    0 -0.22620312022E-01 -0.24029624468E-02  0.32804823944E-02  0.22982913419E-01  0.00000000000E+00 0. -1.
     999901    1    3    3    0    0 -0.82118517148E-01 -0.55970211437E-01 -0.58526255922E-01  0.88752545770E+00  0.88000000000E+00 0. -1.
        -11    1    4    4    0    0  0.21012235307E-01  0.15398080203E-01  0.20301026845E-01  0.33030405969E-01  0.51100000000E-03 0. -1.
         11    1    4    4    0    0  0.83726593863E-01  0.42975093681E-01  0.34944746683E-01  0.10039122292E+00  0.51100000000E-03 0.  1.
</event>
<event>
 8    1  0.1131349E+005  0.1043930E+01  0.7957747E-01            NaN
         13   -1    0    0    0    0  0.00000000000E+00  0.00000000000E+00  0.74505805969E-08  0.10566000000E+00  0.10566000000E+00 0. -1.
     999900   -1    0    0    0    0 -0.00000000000E+00 -0.00000000000E+00 -0.74505805969E-08  0.93827000000E+00  0.93827000000E+00 0. -1.
     999902    2    1    2    0    0  0.48236730799E-02 -0.20625460534E-01 -0.14377210844E-01  0.10183295774E+01  0.10180077341E+01 0.  0.
     999903    2    3    3    0    0  0.10733475027E+00  0.55306888518E-01  0.36466933103E-01  0.12767848438E+00  0.19808019318E-01 0.  0.
         14    1    1    2    0    0 -0.48236730799E-02  0.20625460534E-01  0.14377210844E-01  0.25600422573E-01  0.00000000000E+00 0.  1.
     999901    1    3    3    0    0 -0.10251107719E+00 -0.75932349053E-01 -0.50844143947E-01  0.89065109305E+00  0.88000000000E+00 0.  1.
        -11    1    4    4    0    0  0.92431834436E-01  0.41273345441E-01  0.35153909420E-01  0.10715965439E+00  0.51100000000E-03 0. -1.
         11    1    4    4    0    0  0.14902915835E-01  0.14033543077E-01  0.13130236829E-02  0.20518829983E-01  0.51100000000E-03 0.  1.
</event>
<event>
 8    1  0.1131349E+005  0.1043930E+01  0.7957747E-01            NaN
         13   -1    0    0    0    0  0.00000000000E+00  0.00000000000E+00  0.74505805969E-08  0.10566000000E+00  0.10566000000E+00 0. -1.
     999900   -1    0    0    0    0 -0.00000000000E+00 -0.00000000000E+00 -0.74505805969E-08  0.93827000000E+00  0.93827000000E+00 0. -1.
     999902    2    1    2    0    0  0.63665927945E-02 -0.18557691826E-01  0.12673463533E-01  0.10205732428E+01  0.10203059373E+01 0.  0.
     999903    2    3    3    0    0 -0.11536212093E+00 -0.47450940734E-01 -0.33020436155E-01  0.13055041608E+00  0.19825519262E-01 0.  0.
         14    1    1    2    0    0 -0.63665927945E-02  0.18557691826E-01 -0.12673463533E-01  0.23356757216E-01  0.00000000000E+00 0.  1.
     999901    1    3    3    0    0  0.12172871372E+00  0.28893248908E-01  0.45693899688E-01  0.89002282670E+00  0.88000000000E+00 0. -1.
        -11    1    4    4    0    0 -0.61052179157E-01 -0.27017702461E-01 -0.75946797066E-02  0.67195722386E-01  0.51100000000E-03 0. -1.
         11    1    4    4    0    0 -0.54309941773E-01 -0.20433238273E-01 -0.25425756449E-01  0.63354693699E-01  0.51100000000E-03 0.  1.
</event>
<event>
 8    1  0.1131349E+005  0.1043930E+01  0.7957747E-01            NaN
         13   -1    0    0    0    0  0.00000000000E+00  0.00000000000E+00  0.74505805969E-08  0.10566000000E+00  0.10566000000E+00 0.  1.
     999900   -1    0    0    0    0 -0.00000000000E+00 -0.00000000000E+00 -0.74505805969E-08  0.93827000000E+00  0.93827000000E+00 0.  1.
     999902    2    1    2    0    0  0.50639150748E-02  0.10894693894E-01 -0.21327658493E-01  0.10194513030E+01  0.10191573738E+01 0.  0.
     999903    2    3    3    0    0  0.60331420747E-01  0.20226823843E-01 -0.11448067828E+00  0.13276135101E+00  0.21696679226E-01 0.  0.
         14    1    1    2    0    0 -0.50639150748E-02 -0.10894693894E-01  0.21327658493E-01  0.24478697019E-01  0.00000000000E+00 0. -1.
     999901    1    3    3    0    0 -0.55267505673E-01 -0.93321299482E-02  0.93153019790E-01  0.88668995197E+00  0.88000000000E+00 0. -1.
        -11    1    4    4    0    0  0.40525470561E-01  0.16112261914E-01 -0.56659390806E-01  0.71501513520E-01  0.51100000000E-03 0.  1.
         11    1    4    4    0    0  0.19805950186E-01  0.41145619289E-02 -0.57821287477E-01  0.61259837489E-01  0.51100000000E-03 0. -1.
</event>
<event>
 8    1  0.1131349E+005  0.1043930E+01  0.7957747E-01            NaN
         13   -1    0    0    0    0  0.00000000000E+00  0.00000000000E+00  0.74505805969E-08  0.10566000000E+00  0.10566000000E+00 0.  1.
     999900   -1    0    0    0    0 -0.00000000000E+00 -0.00000000000E+00 -0.74505805969E-08  0.93827000000E+00  0.93827000000E+00 0.  1.
     999902    2    1    2    0    0 -0.10531373543E-01 -0.14804989346E-01  0.89929013292E-02  0.10236576096E+01  0.10234568539E+01 0.  0.
     999903    2    3    3    0    0 -0.61820650054E-01  0.93315382673E-01  0.68895386272E-01  0.13354025080E+00  0.23598112595E-01 0.  0.
         14    1    1    2    0    0  0.10531373543E-01  0.14804989346E-01 -0.89929013292E-02  0.20272390401E-01  0.00000000000E+00 0.  1.
     999901    1    3    3    0    0  0.51289276512E-01 -0.10812037202E+00 -0.59902484943E-01  0.89011735880E+00  0.88000000000E+00 0.  1.
        -11    1    4    4    0    0 -0.12326016521E-01  0.28740446074E-01  0.30077206475E-01  0.43391743387E-01  0.51100000000E-03 0. -1.
         11    1    4    4    0    0 -0.49494633533E-01  0.64574936599E-01  0.38818179797E-01  0.90148507415E-01  0.51100000000E-03 0.  1.
</event>
<event>
 8    1  0.1131349E+005  0.1043930E+01  0.7957747E-01            NaN
         13   -1    0    0    0    0  0.00000000000E+00  0.00000000000E+00  0.74505805969E-08  0.10566000000E+00  0.10566000000E+00 0. -1.
     999900   -1    0    0    0    0 -0.00000000000E+00 -0.00000000000E+00 -0.74505805969E-08  0.93827000000E+00  0.93827000000E+00 0.  1.
     999902    2    1    2    0    0  0.21403851952E-02 -0.12593083555E-01  0.19536682113E-01  0.10205880003E+01  0.10203210364E+01 0.  0.
     999903    2    3    3    0    0 -0.63964763203E-02  0.86994545933E-01  0.96694651530E-01  0.13157510602E+00  0.18793268932E-01 0.  0.
         14    1    1    2    0    0 -0.21403851952E-02  0.12593083555E-01 -0.19536682113E-01  0.23341999704E-01  0.00000000000E+00 0.  1.
     999901    1    3    3    0    0  0.85368615155E-02 -0.99587629488E-01 -0.77157969418E-01  0.88901289428E+00  0.88000000000E+00 0.  1.
        -11    1    4    4    0    0 -0.68547037657E-02  0.32262316426E-01  0.25081656828E-01  0.41439047469E-01  0.51100000000E-03 0. -1.
         11    1    4    4    0    0  0.45822744546E-03  0.54732229507E-01  0.71612994702E-01  0.90136058547E-01  0.51100000000E-03 0.  1.
</event>
<event>
 8    1  0.1131349E+005  0.1043930E+01  0.7957747E-01            NaN
         13   -1    0    0    0    0  0.00000000000E+00  0.00000000000E+00  0.74505805969E-08  0.10566000000E+00  0.10566000000E+00 0.  1.
     999900   -1    0    0    0    0 -0.00000000000E+00 -0.00000000000E+00 -0.74505805969E-08  0.93827000000E+00  0.93827000000E+00 0. -1.
     999902    2    1    2    0    0  0.14552142807E-02 -0.19983546980E-01 -0.12777090770E-01  0.10201662914E+01  0.10198894784E+01 0.  0.
     999903    2    3    3    0    0  0.89648538011E-01 -0.78022426947E-01  0.52714708647E-01  0.13143925245E+00  0.19315203957E-01 0.  0.
         14    1    1    2    0    0 -0.14552142807E-02  0.19983546980E-01  0.12777090770E-01  0.23763708613E-01  0.00000000000E+00 0. -1.
     999901    1    3    3    0    0 -0.88193323730E-01  0.58038879967E-01 -0.65491799416E-01  0.88872703893E+00  0.88000000000E+00 0. -1.
        -11    1    4    4    0    0  0.60904733068E-01 -0.50743011035E-01  0.25165261145E-01  0.83173259937E-01  0.51100000000E-03 0. -1.
         11    1    4    4    0    0  0.28743804943E-01 -0.27279415912E-01  0.27549447501E-01  0.48265992518E-01  0.51100000000E-03 0.  1.
</event>
<event>
 8    1  0.1131349E+005  0.1043930E+01  0.7957747E-01            NaN
         13   -1    0    0    0    0  0.00000000000E+00  0.00000000000E+00  0.74505805969E-08  0.10566000000E+00  0.10566000000E+00 0.  1.
     999900   -1    0    0    0    0 -0.00000000000E+00 -0.00000000000E+00 -0.74505805969E-08  0.93827000000E+00  0.93827000000E+00 0.  1.
     999902    2    1    2    0    0  0.18351265944E-01 -0.11977012742E-01 -0.76910270064E-02  0.10207056659E+01  0.10204414176E+01 0.  0.
     999903    2    3    3    0    0 -0.93982484991E-01  0.71112056612E-01  0.45966609943E-01  0.12806810957E+00  0.19971964811E-01 0.  0.
         14    1    1    2    0    0 -0.18351265944E-01  0.11977012742E-01  0.76910270064E-02  0.23224334057E-01  0.00000000000E+00 0. -1.
     999901    1    3    3    0    0  0.11233375094E+00 -0.83089069354E-01 -0.53657636949E-01  0.89263755637E+00  0.88000000000E+00 0.  1.
        -11    1    4    4    0    0 -0.69984473654E-01  0.50588811513E-01  0.42648619189E-01  0.96313136397E-01  0.51100000000E-03 0. -1.
         11    1    4    4    0    0 -0.23998011338E-01  0.20523245100E-01  0.33179907535E-02  0.31754973173E-01  0.51100000000E-03 0.  1.
</event>
<event>
 7    1  0.1131349E+005  0.1043930E+01  0.7957747E-01            NaN
         13   -1    0    0    0    0  0.00000000000E+00  0.00000000000E+00  0.74505805969E-08  0.10566000000E+00  0.10566000000E+00 0.  1.
     999900   -1    0    0    0    0 -0.00000000000E+00 -0.00000000000E+00 -0.74505805969E-08  0.93827000000E+00  0.93827000000E+00 0. -1.
     999903    2    1    2    0    0 -0.82728563888E-01 -0.22753388689E-02  0.48230341275E-01  0.96303239537E-01  0.99476467485E-02 0.  0.
         14    1    1    2    0    0 -0.40346214348E-01 -0.30010581986E-01  0.23664079344E-01  0.55573741052E-01  0.00000000000E+00 0. -1.
     999901    1    1    2    0    0  0.12307477824E+00  0.32285920855E-01 -0.71894420619E-01  0.89205301941E+00  0.88000000000E+00 0. -1.
        -11    1    3    3    0    0 -0.62754875686E-01 -0.21923490910E-02  0.31550625311E-01  0.70275770330E-01  0.51100000000E-03 0.  1.
         11    1    3    3    0    0 -0.19973688202E-01 -0.82989777924E-04  0.16679715964E-01  0.26027469207E-01  0.51100000000E-03 0. -1.
</event>
<event>
 8    1  0.1131349E+005  0.1043930E+01  0.7957747E-01            NaN
         13   -1    0    0    0    0  0.00000000000E+00  0.00000000000E+00  0.74505805969E-08  0.10566000000E+00  0.10566000000E+00 0.  1.
     999900   -1    0    0    0    0 -0.00000000000E+00 -0.00000000000E+00 -0.74505805969E-08  0.93827000000E+00  0.93827000000E+00 0. -1.
     999902    2    1    2    0    0  0.21764245069E-01  0.61853394824E-02  0.42603949018E-04  0.10213038513E+01  0.10210531887E+01 0.  0.
     999903    2    3    3    0    0  0.12636422298E+00  0.15370872926E-01  0.36906970363E-01  0.13429510792E+00  0.21653428469E-01 0.  0.
         14    1    1    2    0    0 -0.21764245069E-01 -0.61853394824E-02 -0.42603949018E-04  0.22626148656E-01  0.00000000000E+00 0. -1.
     999901    1    3    3    0    0 -0.10459997791E+00 -0.91855334439E-02 -0.36864366414E-01  0.88700874343E+00  0.88000000000E+00 0.  1.
        -11    1    4    4    0    0  0.97028135419E-01  0.19733732480E-01  0.23631473207E-01  0.10179679223E+00  0.51100000000E-03 0.  1.
         11    1    4    4    0    0  0.29336087564E-01 -0.43628595536E-02  0.13275497156E-01  0.32498315691E-01  0.51100000000E-03 0. -1.
</event>
<event>
 8    1  0.1131349E+005  0.1043930E+01  0.7957747E-01            NaN
         13   -1    0    0    0    0  0.00000000000E+00  0.00000000000E+00  0.74505805969E-08  0.10566000000E+00  0.10566000000E+00 0. -1.
     999900   -1    0    0    0    0 -0.00000000000E+00 -0.00000000000E+00 -0.74505805969E-08  0.93827000000E+00  0.93827000000E+00 0. -1.
     999902    2    1    2    0    0 -0.41269284956E-02 -0.21941834600E-01 -0.12321091248E-02  0.10215694603E+01  0.10213247125E+01 0.  0.
     999903    2    3    3    0    0 -0.84936251492E-01  0.62630321556E-01 -0.74680003752E-01  0.13079609430E+00  0.19844176189E-01 0.  0.
         14    1    1    2    0    0  0.41269284956E-02  0.21941834600E-01  0.12321091248E-02  0.22360539737E-01  0.00000000000E+00 0.  1.
     999901    1    3    3    0    0  0.80809322996E-01 -0.84572156156E-01  0.73447894627E-01  0.89077336596E+00  0.88000000000E+00 0.  1.
        -11    1    4    4    0    0 -0.59920700767E-01  0.38826451670E-01 -0.39950915868E-01  0.81818827475E-01  0.51100000000E-03 0.  1.
         11    1    4    4    0    0 -0.25015550725E-01  0.23803869887E-01 -0.34729087884E-01  0.48977266828E-01  0.51100000000E-03 0. -1.
</event>
<event>
 8    1  0.1131349E+005  0.1043930E+01  0.7957747E-01            NaN
         13   -1    0    0    0    0  0.00000000000E+00  0.00000000000E+00  0.74505805969E-08  0.10566000000E+00  0.10566000000E+00 0. -1.
     999900   -1    0    0    0    0 -0.00000000000E+00 -0.00000000000E+00 -0.74505805969E-08  0.93827000000E+00  0.93827000000E+00 0. -1.
     999902    2    1    2    0    0  0.23220962302E-01 -0.73941862549E-02 -0.91796652033E-03  0.10195429185E+01  0.10192512119E+01 0.  0.
     999903    2    3    3    0    0 -0.41375063647E-01  0.83823322577E-01  0.85679922891E-01  0.12825594176E+00  0.19242975634E-01 0.  0.
         14    1    1    2    0    0 -0.23220962302E-01  0.73941862549E-02  0.91796652033E-03  0.24387081480E-01  0.00000000000E+00 0.  1.
     999901    1    3    3    0    0  0.64596025949E-01 -0.91217508831E-01 -0.86597889412E-01  0.89128697676E+00  0.88000000000E+00 0. -1.
        -11    1    4    4    0    0 -0.32466396645E-01  0.46135649426E-01  0.45825211270E-01  0.72682708866E-01  0.51100000000E-03 0.  1.
         11    1    4    4    0    0 -0.89086670020E-02  0.37687673150E-01  0.39854711621E-01  0.55573232897E-01  0.51100000000E-03 0. -1.
</event>
<event>
 8    1  0.1131349E+005  0.1043930E+01  0.7957747E-01            NaN
         13   -1    0    0    0    0  0.00000000000E+00  0.00000000000E+00  0.74505805969E-08  0.10566000000E+00  0.10566000000E+00 0.  1.
     999900   -1    0    0    0    0 -0.00000000000E+00 -0.00000000000E+00 -0.74505805969E-08  0.93827000000E+00  0.93827000000E+00 0. -1.
     999902    2    1    2    0    0  0.77353434473E-02 -0.56356925896E-02  0.21405879838E-01  0.10204820094E+01  0.10202125873E+01 0.  0.
     999903    2    3    3    0    0 -0.38738183252E-01 -0.77493294564E-01 -0.93397004401E-01  0.12890867771E+00  0.19712666311E-01 0.  0.
         14    1    1    2    0    0 -0.77353434473E-02  0.56356925896E-02 -0.21405879838E-01  0.23447990550E-01  0.00000000000E+00 0. -1.
     999901    1    3    3    0    0  0.46473526699E-01  0.71857601974E-01  0.11480288424E+00  0.89157333174E+00  0.88000000000E+00 0.  1.
        -11    1    4    4    0    0 -0.19079009403E-01 -0.58343596052E-01 -0.65645717542E-01  0.89875498067E-01  0.51100000000E-03 0. -1.
         11    1    4    4    0    0 -0.19659173849E-01 -0.19149698512E-01 -0.27751286859E-01  0.39033179640E-01  0.51100000000E-03 0.  1.
</event>
<event>
 8    1  0.1131349E+005  0.1043930E+01  0.7957747E-01            NaN
         13   -1    0    0    0    0  0.00000000000E+00  0.00000000000E+00  0.74505805969E-08  0.10566000000E+00  0.10566000000E+00 0. -1.
     999900   -1    0    0    0    0 -0.00000000000E+00 -0.00000000000E+00 -0.74505805969E-08  0.93827000000E+00  0.93827000000E+00 0.  1.
     999902    2    1    2    0    0 -0.55009981823E-02  0.12467147052E-01 -0.19604054586E-01  0.10200551242E+01  0.10197756845E+01 0.  0.
     999903    2    3    3    0    0 -0.12216118140E+00 -0.39396393182E-01  0.11068401721E-01  0.13031346244E+00  0.19587213696E-01 0.  0.
         14    1    1    2    0    0  0.55009981823E-02 -0.12467147052E-01  0.19604054586E-01  0.23874875765E-01  0.00000000000E+00 0. -1.
     999901    1    3    3    0    0  0.11666018322E+00  0.51863540234E-01 -0.30672456306E-01  0.88974166179E+00  0.88000000000E+00 0. -1.
        -11    1    4    4    0    0 -0.58488659720E-01 -0.28755301941E-01  0.82159540041E-02  0.65692874246E-01  0.51100000000E-03 0.  1.
         11    1    4    4    0    0 -0.63672521679E-01 -0.10641091241E-01  0.28524477167E-02  0.64620588196E-01  0.51100000000E-03 0. -1.
</event>
<event>
 8    1  0.1585110E+005  0.1043930E+01  0.7957747E-01            NaN
         13   -1    0    0    0    0  0.00000000000E+00  0.00000000000E+00  0.74505805969E-08  0.10566000000E+00  0.10566000000E+00 0.  1.
     999900   -1    0    0    0    0 -0.00000000000E+00 -0.00000000000E+00 -0.74505805969E-08  0.93827000000E+00  0.93827000000E+00 0.  1.
     999902    2    1    2    0    0 -0.22961038555E-02 -0.21331031779E-01 -0.10830313733E-01  0.10198970912E+01  0.10196138955E+01 0.  0.
     999903    2    3    3    0    0 -0.40033144102E-01  0.76345868868E-01  0.91871679672E-01  0.12775777441E+00  0.21220251544E-01 0.  0.
         14    1    1    2    0    0  0.22961038555E-02  0.21331031779E-01  0.10830313733E-01  0.24032908796E-01  0.00000000000E+00 0.  1.
     999901    1    3    3    0    0  0.37737040246E-01 -0.97676900647E-01 -0.10270199340E+00  0.89213931680E+00  0.88000000000E+00 0.  1.
        -11    1    4    4    0    0 -0.32899721740E-01  0.42737609804E-01  0.49531009427E-01  0.73228935526E-01  0.51100000000E-03 0. -1.
         11    1    4    4    0    0 -0.71334223620E-02  0.33608259064E-01  0.42340670245E-01  0.54528838881E-01  0.51100000000E-03 0.  1.
</event>
<event>
 8    1  0.1131349E+005  0.1043930E+01  0.7957747E-01            NaN
         13   -1    0    0    0    0  0.00000000000E+00  0.00000000000E+00  0.74505805969E-08  0.10566000000E+00  0.10566000000E+00 0. -1.
     999900   -1    0    0    0    0 -0.00000000000E+00 -0.00000000000E+00 -0.74505805969E-08  0.93827000000E+00  0.93827000000E+00 0.  1.
     999902    2    1    2    0    0 -0.23363133154E-01 -0.64665720267E-02  0.26032628249E-01  0.10083582376E+01  0.10077306114E+01 0.  0.
     999903    2    3    3    0    0  0.47208982806E-01  0.61474504298E-01  0.90177333711E-01  0.12060210183E+00  0.20127412042E-01 0.  0.
         14    1    1    2    0    0  0.23363133154E-01  0.64665720267E-02 -0.26032628249E-01  0.35571762370E-01  0.00000000000E+00 0.  1.
     999901    1    3    3    0    0 -0.70572115960E-01 -0.67941076325E-01 -0.64144705462E-01  0.88775613580E+00  0.88000000000E+00 0.  1.
        -11    1    4    4    0    0  0.68492613238E-02  0.22932142837E-01  0.22180987043E-01  0.32635147663E-01  0.51100000000E-03 0. -1.
         11    1    4    4    0    0  0.40359721482E-01  0.38542361461E-01  0.67996346668E-01  0.87966954172E-01  0.51100000000E-03 0.  1.
</event>
<event>
 8    1  0.1131349E+005  0.1043930E+01  0.7957747E-01            NaN
         13   -1    0    0    0    0  0.00000000000E+00  0.00000000000E+00  0.74505805969E-08  0.10566000000E+00  0.10566000000E+00 0.  1.
     999900   -1    0    0    0    0 -0.00000000000E+00 -0.00000000000E+00 -0.74505805969E-08  0.93827000000E+00  0.93827000000E+00 0.  1.
     999902    2    1    2    0    0 -0.16474899964E-01  0.15437912213E-01  0.10557582376E-01  0.10190058349E+01  0.10187009755E+01 0.  0.
     999903    2    3    3    0    0  0.11921000380E+00 -0.27433214785E-01 -0.28054506946E-01  0.12673949565E+00  0.17670260822E-01 0.  0.
         14    1    1    2    0    0  0.16474899964E-01 -0.15437912213E-01 -0.10557582376E-01  0.24924165141E-01  0.00000000000E+00 0. -1.
     999901    1    3    3    0    0 -0.13568490377E+00  0.42871126998E-01  0.38612089322E-01  0.89226633921E+00  0.88000000000E+00 0. -1.
        -11    1    4    4    0    0  0.10649433307E+00 -0.29926724610E-01 -0.25522491478E-01  0.11352669517E+00  0.51100000000E-03 0.  1.
         11    1    4    4    0    0  0.12715670730E-01  0.24935098252E-02 -0.25320154684E-02  0.13212800486E-01  0.51100000000E-03 0. -1.
</event>
<event>
 8    1  0.1131349E+005  0.1043930E+01  0.7957747E-01            NaN
         13   -1    0    0    0    0  0.00000000000E+00  0.00000000000E+00  0.74505805969E-08  0.10566000000E+00  0.10566000000E+00 0. -1.
     999900   -1    0    0    0    0 -0.00000000000E+00 -0.00000000000E+00 -0.74505805969E-08  0.93827000000E+00  0.93827000000E+00 0.  1.
     999902    2    1    2    0    0 -0.12359187207E-01 -0.17850769943E-01  0.83430940641E-02  0.10206704490E+01  0.10204053894E+01 0.  0.
     999903    2    3    3    0    0  0.17691166812E-01 -0.63626916530E-01 -0.11213838724E+00  0.13077479962E+00  0.12871225018E-01 0.  0.
         14    1    1    2    0    0  0.12359187207E-01  0.17850769943E-01 -0.83430940641E-02  0.23259551039E-01  0.00000000000E+00 0.  1.
     999901    1    3    3    0    0 -0.30050354019E-01  0.45776146586E-01  0.12048148130E+00  0.88989564934E+00  0.88000000000E+00 0. -1.
        -11    1    4    4    0    0  0.13299685541E-01 -0.33988740071E-01 -0.71550238495E-01  0.80323183681E-01  0.51100000000E-03 0.  1.
         11    1    4    4    0    0  0.43914812708E-02 -0.29638176459E-01 -0.40588148745E-01  0.50451615942E-01  0.51100000000E-03 0. -1.
</event>
<event>
 8    1  0.1131349E+005  0.1043930E+01  0.7957747E-01            NaN
         13   -1    0    0    0    0  0.00000000000E+00  0.00000000000E+00  0.74505805969E-08  0.10566000000E+00  0.10566000000E+00 0. -1.
     999900   -1    0    0    0    0 -0.00000000000E+00 -0.00000000000E+00 -0.74505805969E-08  0.93827000000E+00  0.93827000000E+00 0. -1.
     999902    2    1    2    0    0  0.91152946753E-02  0.20597457622E-01 -0.61304280010E-02  0.10205863498E+01  0.10203193477E+01 0.  0.
     999903    2    3    3    0    0 -0.12099625795E-01  0.85329153141E-01  0.97798068280E-01  0.13185613336E+00  0.19852265017E-01 0.  0.
         14    1    1    2    0    0 -0.91152946753E-02 -0.20597457622E-01  0.61304280010E-02  0.23343650207E-01  0.00000000000E+00 0. -1.
     999901    1    3    3    0    0  0.21214920470E-01 -0.64731695519E-01 -0.10392849628E+00  0.88873021643E+00  0.88000000000E+00 0. -1.
        -11    1    4    4    0    0 -0.11272684176E-01  0.59423821609E-01  0.54641313268E-01  0.81511951393E-01  0.51100000000E-03 0. -1.
         11    1    4    4    0    0 -0.82694161871E-03  0.25905331531E-01  0.43156755012E-01  0.50344181971E-01  0.51100000000E-03 0.  1.
</event>
<event>
 8    1  0.1131349E+005  0.1043930E+01  0.7957747E-01            NaN
         13   -1    0    0    0    0  0.00000000000E+00  0.00000000000E+00  0.74505805969E-08  0.10566000000E+00  0.10566000000E+00 0.  1.
     999900   -1    0    0    0    0 -0.00000000000E+00 -0.00000000000E+00 -0.74505805969E-08  0.93827000000E+00  0.93827000000E+00 0. -1.
     999902    2    1    2    0    0 -0.17978823484E-01  0.10786425268E-01 -0.11545022622E-01  0.10199952426E+01  0.10197143827E+01 0.  0.
     999903    2    3    3    0    0  0.14266719058E-01 -0.91170289403E-01 -0.89526562333E-01  0.13009858164E+00  0.19876484547E-01 0.  0.
         14    1    1    2    0    0  0.17978823484E-01 -0.10786425268E-01  0.11545022622E-01  0.23934757389E-01  0.00000000000E+00 0. -1.
     999901    1    3    3    0    0 -0.32245542542E-01  0.10195671467E+00  0.77981539712E-01  0.88989666098E+00  0.88000000000E+00 0. -1.
        -11    1    4    4    0    0  0.35637997373E-02 -0.73488374920E-01 -0.72790400641E-01  0.10349852880E+00  0.51100000000E-03 0.  1.
         11    1    4    4    0    0  0.10702919320E-01 -0.17681914482E-01 -0.16736161692E-01  0.26600052837E-01  0.51100000000E-03 0. -1.
</event>
<event>
 8    1  0.1131349E+005  0.1043930E+01  0.7957747E-01            NaN
         13   -1    0    0    0    0  0.00000000000E+00  0.00000000000E+00  0.74505805969E-08  0.10566000000E+00  0.10566000000E+00 0.  1.
     999900   -1    0    0    0    0 -0.00000000000E+00 -0.00000000000E+00 -0.74505805969E-08  0.93827000000E+00  0.93827000000E+00 0.  1.
     999902    2    1    2    0    0 -0.19729598497E-01  0.82325969775E-02  0.84158549773E-02  0.10209548107E+01  0.10206962654E+01 0.  0.
     999903    2    3    3    0    0  0.10363348076E+00  0.43991351470E-01 -0.59934973357E-01  0.12900807819E+00  0.19384165422E-01 0.  0.
         14    1    1    2    0    0  0.19729598497E-01 -0.82325969775E-02 -0.84158549773E-02  0.22975189332E-01  0.00000000000E+00 0. -1.
     999901    1    3    3    0    0 -0.12336307925E+00 -0.35758754493E-01  0.68350828334E-01  0.89194673248E+00  0.88000000000E+00 0. -1.
        -11    1    4    4    0    0  0.30536912633E-01  0.39994938952E-02 -0.18779768891E-01  0.36075474012E-01  0.51100000000E-03 0.  1.
         11    1    4    4    0    0  0.73096568122E-01  0.39991857575E-01 -0.41155204466E-01  0.92932604178E-01  0.51100000000E-03 0. -1.
</event>
<event>
 8    1  0.1131349E+005  0.1043930E+01  0.7957747E-01            NaN
         13   -1    0    0    0    0  0.00000000000E+00  0.00000000000E+00  0.74505805969E-08  0.10566000000E+00  0.10566000000E+00 0. -1.
     999900   -1    0    0    0    0 -0.00000000000E+00 -0.00000000000E+00 -0.74505805969E-08  0.93827000000E+00  0.93827000000E+00 0.  1.
     999902    2    1    2    0    0 -0.10279182064E-01 -0.92352101207E-02  0.19261299120E-01  0.10202245505E+01  0.10199491091E+01 0.  0.
     999903    2    3    3    0    0  0.10585187458E+00  0.78867685627E-02 -0.68873482941E-01  0.12806575063E+00  0.19760044524E-01 0.  0.
         14    1    1    2    0    0  0.10279182064E-01  0.92352101207E-02 -0.19261299120E-01  0.23705449451E-01  0.00000000000E+00 0.  1.
     999901    1    3    3    0    0 -0.11613105665E+00 -0.17121978683E-01  0.88134782061E-01  0.89215879992E+00  0.88000000000E+00 0. -1.
        -11    1    4    4    0    0  0.10952928032E-01  0.25120953167E-02 -0.10520624116E-02  0.11298018042E-01  0.51100000000E-03 0. -1.
         11    1    4    4    0    0  0.94898946552E-01  0.53746732459E-02 -0.67821420529E-01  0.11676773258E+00  0.51100000000E-03 0.  1.
</event>
<event>
 8    1  0.1131349E+005  0.1043930E+01  0.7957747E-01            NaN
         13   -1    0    0    0    0  0.00000000000E+00  0.00000000000E+00  0.74505805969E-08  0.10566000000E+00  0.10566000000E+00 0.  1.
     999900   -1    0    0    0    0 -0.00000000000E+00 -0.00000000000E+00 -0.74505805969E-08  0.93827000000E+00  0.93827000000E+00 0.  1.
     999902    2    1    2    0    0  0.11275730696E-01 -0.10956961377E-02  0.21905202031E-01  0.10192686836E+01  0.10189702983E+01 0.  0.
     999903    2    3    3    0    0 -0.11215844462E+00  0.48917431461E-01 -0.30837458678E-01  0.12768632795E+00  0.19504299191E-01 0.  0.
         14    1    1    2    0    0 -0.11275730696E-01  0.10956961377E-02 -0.21905202031E-01  0.24661316445E-01  0.00000000000E+00 0. -1.
     999901    1    3    3    0    0  0.12343417532E+00 -0.50013127599E-01  0.52742660709E-01  0.89158235561E+00  0.88000000000E+00 0.  1.
        -11    1    4    4    0    0 -0.66220942839E-01  0.28782191079E-01 -0.82534906285E-02  0.72677431314E-01  0.51100000000E-03 0. -1.
         11    1    4    4    0    0 -0.45937501782E-01  0.20135240382E-01 -0.22583968050E-01  0.55008896636E-01  0.51100000000E-03 0.  1.
</event>
<event>
 8    1  0.1131349E+005  0.1043930E+01  0.7957747E-01            NaN
         13   -1    0    0    0    0  0.00000000000E+00  0.00000000000E+00  0.74505805969E-08  0.10566000000E+00  0.10566000000E+00 0.  1.
     999900   -1    0    0    0    0 -0.00000000000E+00 -0.00000000000E+00 -0.74505805969E-08  0.93827000000E+00  0.93827000000E+00 0.  1.
     999902    2    1    2    0    0  0.20329540541E-01 -0.15352152837E-02  0.11693562066E-01  0.10204270960E+01  0.10201563957E+01 0.  0.
     999903    2    3    3    0    0  0.10752909408E+00  0.62684413504E-01  0.43082301801E-01  0.13323310599E+00  0.20078197971E-01 0.  0.
         14    1    1    2    0    0 -0.20329540541E-01  0.15352152837E-02 -0.11693562066E-01  0.23502904041E-01  0.00000000000E+00 0. -1.
     999901    1    3    3    0    0 -0.87199553535E-01 -0.64219628788E-01 -0.31388739734E-01  0.88719398997E+00  0.88000000000E+00 0.  1.
        -11    1    4    4    0    0  0.58126682022E-01  0.32371698266E-01  0.33467433333E-01  0.74477971417E-01  0.51100000000E-03 0.  1.
         11    1    4    4    0    0  0.49402412054E-01  0.30312715238E-01  0.96148684679E-02  0.58755134571E-01  0.51100000000E-03 0. -1.
</event>
<event>
 8    1  0.1370688E+005  0.1043930E+01  0.7957747E-01            NaN
         13   -1    0    0    0    0  0.00000000000E+00  0.00000000000E+00  0.74505805969E-08  0.10566000000E+00  0.10566000000E+00 0. -1.
     999900   -1    0    0    0    0 -0.00000000000E+00 -0.00000000000E+00 -0.74505805969E-08  0.93827000000E+00  0.93827000000E+00 0. -1.
     999902    2    1    2    0    0  0.18382971586E-02 -0.23062338997E-01 -0.46168254734E-03  0.10207899056E+01  0.10205275927E+01 0.  0.
     999903    2    3    3    0    0  0.11566705833E+00 -0.27829514810E-02 -0.58684318389E-01  0.13131921148E+00  0.20353694458E-01 0.  0.
         14    1    1    2    0    0 -0.18382971586E-02  0.23062338997E-01  0.46168254734E-03  0.23140094366E-01  0.00000000000E+00 0. -1.
     999901    1    3    3    0    0 -0.11382876117E+00 -0.20279387516E-01  0.58222635842E-01  0.88947069415E+00  0.88000000000E+00 0. -1.
        -11    1    4    4    0    0  0.54940119807E-01 -0.13735896943E-02 -0.16571211228E-01  0.57403568492E-01  0.51100000000E-03 0. -1.
         11    1    4    4    0    0  0.60726938524E-01 -0.14093617867E-02 -0.42113107162E-01  0.73915642992E-01  0.51100000000E-03 0.  1.
</event>
<event>
 8    1  0.1131349E+005  0.1043930E+01  0.7957747E-01            NaN
         13   -1    0    0    0    0  0.00000000000E+00  0.00000000000E+00  0.74505805969E-08  0.10566000000E+00  0.10566000000E+00 0. -1.
     999900   -1    0    0    0    0 -0.00000000000E+00 -0.00000000000E+00 -0.74505805969E-08  0.93827000000E+00  0.93827000000E+00 0.  1.
     999902    2    1    2    0    0  0.88112576381E-02 -0.11914343623E-01 -0.18896485295E-01  0.10199161082E+01  0.10196333658E+01 0.  0.
     999903    2    3    3    0    0  0.33569427301E-01  0.10335942397E+00 -0.70102340828E-01  0.13057756288E+00  0.18057817339E-01 0.  0.
         14    1    1    2    0    0 -0.88112576381E-02  0.11914343623E-01  0.18896485295E-01  0.24013891847E-01  0.00000000000E+00 0. -1.
     999901    1    3    3    0    0 -0.24758169663E-01 -0.11527376759E+00  0.51205855533E-01  0.88933854527E+00  0.88000000000E+00 0.  1.
        -11    1    4    4    0    0  0.12531117212E-02  0.17583893417E-01 -0.56333849345E-02  0.18513771726E-01  0.51100000000E-03 0.  1.
         11    1    4    4    0    0  0.32316315580E-01  0.85775530550E-01 -0.64468955894E-01  0.11206379116E+00  0.51100000000E-03 0. -1.
</event>
<event>
 8    1  0.1131349E+005  0.1043930E+01  0.7957747E-01            NaN
         13   -1    0    0    0    0  0.00000000000E+00  0.00000000000E+00  0.74505805969E-08  0.10566000000E+00  0.10566000000E+00 0.  1.
     999900   -1    0    0    0    0 -0.00000000000E+00 -0.00000000000E+00 -0.74505805969E-08  0.93827000000E+00  0.93827000000E+00 0.  1.
     999902    2    1    2    0    0  0.21394197663E-02  0.13303181696E-01  0.19030080729E-01  0.10206127160E+01  0.10203463237E+01 0.  0.
     999903    2    3    3    0    0  0.41120763001E-01  0.61073775790E-01  0.10991754851E+00  0.13378572805E+00  0.19895484867E-01 0.  0.
         14    1    1    2    0    0 -0.21394197663E-02 -0.13303181696E-01 -0.19030080729E-01  0.23317283991E-01  0.00000000000E+00 0. -1.
     999901    1    3    3    0    0 -0.38981343235E-01 -0.47770594094E-01 -0.90887467786E-01  0.88682698796E+00  0.88000000000E+00 0.  1.
        -11    1    4    4    0    0  0.20210928275E-01  0.25126400232E-01  0.65060466201E-01  0.72615032835E-01  0.51100000000E-03 0. -1.
         11    1    4    4    0    0  0.20909834726E-01  0.35947375558E-01  0.44857082313E-01  0.61170695210E-01  0.51100000000E-03 0.  1.
</event>
<event>
 8    1  0.1131349E+005  0.1043930E+01  0.7957747E-01            NaN
         13   -1    0    0    0    0  0.00000000000E+00  0.00000000000E+00  0.74505805969E-08  0.10566000000E+00  0.10566000000E+00 0. -1.
     999900   -1    0    0    0    0 -0.00000000000E+00 -0.00000000000E+00 -0.74505805969E-08  0.93827000000E+00  0.93827000000E+00 0. -1.
     999902    2    1    2    0    0 -0.19290589592E-01 -0.12657307428E-01 -0.62401829282E-02  0.10200286578E+01  0.10197485908E+01 0.  0.
     999903    2    3    3    0    0  0.80998850626E-01  0.93285325692E-01  0.24220370900E-01  0.12749873743E+00  0.20157774881E-01 0.  0.
         14    1    1    2    0    0  0.19290589592E-01  0.12657307428E-01  0.62401829282E-02  0.23901342245E-01  0.00000000000E+00 0.  1.
     999901    1    3    3    0    0 -0.10028944022E+00 -0.10594263312E+00 -0.30460553829E-01  0.89252992032E+00  0.88000000000E+00 0. -1.
        -11    1    4    4    0    0  0.11994030484E-01  0.95760755465E-02  0.94008952058E-02  0.18005442005E-01  0.51100000000E-03 0.  1.
         11    1    4    4    0    0  0.69004820142E-01  0.83709250145E-01  0.14819475695E-01  0.10949329543E+00  0.51100000000E-03 0. -1.
</event>
<event>
 8    1  0.1131349E+005  0.1043930E+01  0.7957747E-01            NaN
         13   -1    0    0    0    0  0.00000000000E+00  0.00000000000E+00  0.74505805969E-08  0.10566000000E+00  0.10566000000E+00 0.  1.
     999900   -1    0    0    0    0 -0.00000000000E+00 -0.00000000000E+00 -0.74505805969E-08  0.93827000000E+00  0.93827000000E+00 0. -1.
     999902    2    1    2    0    0 -0.17007067215E-01  0.13068161784E-01 -0.99086246395E-02  0.10203037851E+01  0.10200302034E+01 0.  0.
     999903    2    3    3    0    0 -0.68095852722E-01  0.63063717361E-01  0.91324275186E-01  0.13162064721E+00  0.19230026751E-01 0.  0.
         14    1    1    2    0    0  0.17007067215E-01 -0.13068161784E-01  0.99086246395E-02  0.23626214888E-01  0.00000000000E+00 0. -1.
     999901    1    3    3    0    0  0.51088785507E-01 -0.49995555577E-01 -0.10123289983E+00  0.88868313790E+00  0.88000000000E+00 0. -1.
        -11    1    4    4    0    0 -0.18213358860E-01  0.10416569631E-01  0.30168137339E-01  0.36750632584E-01  0.51100000000E-03 0.  1.
         11    1    4    4    0    0 -0.49882493862E-01  0.52647147730E-01  0.61156137846E-01  0.94870014627E-01  0.51100000000E-03 0. -1.
</event>
<event>
 8    1  0.1131349E+005  0.1043930E+01  0.7957747E-01            NaN
         13   -1    0    0    0    0  0.00000000000E+00  0.00000000000E+00  0.74505805969E-08  0.10566000000E+00  0.10566000000E+00 0. -1.
     999900   -1    0    0    0    0 -0.00000000000E+00 -0.00000000000E+00 -0.74505805969E-08  0.93827000000E+00  0.93827000000E+00 0. -1.
     999902    2    1    2    0    0  0.17374858966E-01 -0.15415137972E-01 -0.34121831661E-02  0.10204533052E+01  0.10201832154E+01 0.  0.
     999903    2    3    3    0    0  0.80536209628E-01 -0.46056094638E-01  0.92290344768E-01  0.13248528876E+00  0.20678469132E-01 0.  0.
         14    1    1    2    0    0 -0.17374858966E-01  0.15415137972E-01  0.34121831661E-02  0.23476694758E-01  0.00000000000E+00 0. -1.
     999901    1    3    3    0    0 -0.63161350662E-01  0.30640956666E-01 -0.95702527935E-01  0.88796801648E+00  0.88000000000E+00 0. -1.
        -11    1    4    4    0    0  0.35798358753E-01 -0.23044364875E-01  0.28471962260E-01  0.51219908218E-01  0.51100000000E-03 0.  1.
         11    1    4    4    0    0  0.44737850875E-01 -0.23011729763E-01  0.63818382508E-01  0.81265380542E-01  0.51100000000E-03 0. -1.
</event>
<event>
 7    1  0.1131349E+005  0.1043930E+01  0.7957747E-01            NaN
         13   -1    0    0    0    0  0.00000000000E+00  0.00000000000E+00  0.74505805969E-08  0.10566000000E+00  0.10566000000E+00 0. -1.
     999900   -1    0    0    0    0 -0.00000000000E+00 -0.00000000000E+00 -0.74505805969E-08  0.93827000000E+00  0.93827000000E+00 0.  1.
     999903    2    1    2    0    0 -0.33305219824E-01 -0.89689671085E-01  0.33733339910E-01  0.10361520670E+00  0.21087865479E-01 0.  0.
         14    1    1    2    0    0  0.19668382257E-01 -0.24019831959E-01  0.39081596606E-01  0.49911609683E-01  0.00000000000E+00 0. -1.
     999901    1    1    2    0    0  0.13636837567E-01  0.11370950304E+00 -0.72814936515E-01  0.89040318362E+00  0.88000000000E+00 0.  1.
        -11    1    3    3    0    0 -0.28557022627E-01 -0.67558967037E-01  0.16549076047E-01  0.75192091389E-01  0.51100000000E-03 0. -1.
         11    1    3    3    0    0 -0.47481971964E-02 -0.22130704047E-01  0.17184263863E-01  0.28423115307E-01  0.51100000000E-03 0.  1.
</event>
<event>
 8    1  0.1131349E+005  0.1043930E+01  0.7957747E-01            NaN
         13   -1    0    0    0    0  0.00000000000E+00  0.00000000000E+00  0.74505805969E-08  0.10566000000E+00  0.10566000000E+00 0.  1.
     999900   -1    0    0    0    0 -0.00000000000E+00 -0.00000000000E+00 -0.74505805969E-08  0.93827000000E+00  0.93827000000E+00 0.  1.
     999902    2    1    2    0    0  0.89593984954E-03  0.10043948830E-01  0.22902511376E-01  0.10189058388E+01  0.10185984978E+01 0.  0.
     999903    2    3    3    0    0 -0.64077698570E-01  0.97529036859E-01 -0.51210177033E-01  0.12909242864E+00  0.20603602024E-01 0.  0.
         14    1    1    2    0    0 -0.89593984954E-03 -0.10043948830E-01 -0.22902511376E-01  0.25024161198E-01  0.00000000000E+00 0. -1.
     999901    1    3    3    0    0  0.64973638420E-01 -0.87485088029E-01  0.74112688409E-01  0.88981341016E+00  0.88000000000E+00 0.  1.
        -11    1    4    4    0    0 -0.34732765012E-01  0.34522154343E-01 -0.22330562520E-01  0.53824336961E-01  0.51100000000E-03 0.  1.
         11    1    4    4    0    0 -0.29344933559E-01  0.63006882516E-01 -0.28879614513E-01  0.75268091682E-01  0.51100000000E-03 0. -1.
</event>
<event>
 8    1  0.1131349E+005  0.1043930E+01  0.7957747E-01            NaN
         13   -1    0    0    0    0  0.00000000000E+00  0.00000000000E+00  0.74505805969E-08  0.10566000000E+00  0.10566000000E+00 0.  1.
     999900   -1    0    0    0    0 -0.00000000000E+00 -0.00000000000E+00 -0.74505805969E-08  0.93827000000E+00  0.93827000000E+00 0.  1.
     999902    2    1    2    0    0  0.15160968052E-01 -0.73743177692E-02 -0.16657448390E-01  0.10202296603E+01  0.10199543390E+01 0.  0.
     999903    2    3    3    0    0  0.70939986558E-01 -0.62711156162E-01  0.87789450663E-01  0.13057657100E+00  0.19444342272E-01 0.  0.
         14    1    1    2    0    0 -0.15160968052E-01  0.73743177692E-02  0.16657448390E-01  0.23700339695E-01  0.00000000000E+00 0.  1.
     999901    1    3    3    0    0 -0.55779018506E-01  0.55336838392E-01 -0.10444689905E+00  0.88965308931E+00  0.88000000000E+00 0.  1.
        -11    1    4    4    0    0  0.39139263170E-01 -0.47053691637E-01  0.56186851035E-01  0.83085228341E-01  0.51100000000E-03 0. -1.
         11    1    4    4    0    0  0.31800723387E-01 -0.15657464525E-01  0.31602599627E-01  0.47491342659E-01  0.51100000000E-03 0.  1.
</event>
<event>
 8    1  0.1131349E+005  0.1043930E+01  0.7957747E-01            NaN
         13   -1    0    0    0    0  0.00000000000E+00  0.00000000000E+00  0.74505805969E-08  0.10566000000E+00  0.10566000000E+00 0.  1.
     999900   -1    0    0    0    0 -0.00000000000E+00 -0.00000000000E+00 -0.74505805969E-08  0.93827000000E+00  0.93827000000E+00 0.  1.
     999902    2    1    2    0    0 -0.34251393266E-02  0.10836981685E-01 -0.19729807576E-01  0.10211607870E+01  0.10209069086E+01 0.  0.
     999903    2    3    3    0    0  0.46980973806E-01 -0.28710092221E-01 -0.11955373299E+00  0.13320270055E+00  0.20454414319E-01 0.  0.
         14    1    1    2    0    0  0.34251393266E-02 -0.10836981685E-01  0.19729807576E-01  0.22769212952E-01  0.00000000000E+00 0.  1.
     999901    1    3    3    0    0 -0.50406113133E-01  0.39547073906E-01  0.99823925418E-01  0.88795808650E+00  0.88000000000E+00 0. -1.
        -11    1    4    4    0    0  0.25585451151E-01 -0.23384051811E-01 -0.55275967813E-01  0.65246631548E-01  0.51100000000E-03 0.  1.
         11    1    4    4    0    0  0.21395522655E-01 -0.53260404097E-02 -0.64277765181E-01  0.67956068999E-01  0.51100000000E-03 0. -1.
</event>
<event>
 8    1  0.1131349E+005  0.1043930E+01  0.7957747E-01            NaN
         13   -1    0    0    0    0  0.00000000000E+00  0.00000000000E+00  0.74505805969E-08  0.10566000000E+00  0.10566000000E+00 0.  1.
     999900   -1    0    0    0    0 -0.00000000000E+00 -0.00000000000E+00 -0.74505805969E-08  0.93827000000E+00  0.93827000000E+00 0. -1.
     999902    2    1    2    0    0  0.84745590087E-02  0.12820063339E-01  0.17966555674E-01  0.10202874685E+01  0.10200135043E+01 0.  0.
     999903    2    3    3    0    0  0.80362159914E-01 -0.56535976416E-01  0.85668677143E-01  0.13205232806E+00  0.21078465932E-01 0.  0.
         14    1    1    2    0    0 -0.84745590087E-02 -0.12820063339E-01 -0.17966555674E-01  0.23642531531E-01  0.00000000000E+00 0. -1.
     999901    1    3    3    0    0 -0.71887600906E-01  0.69356039755E-01 -0.67702121470E-01  0.88823514041E+00  0.88000000000E+00 0.  1.
        -11    1    4    4    0    0  0.56054888889E-01 -0.35622543095E-01  0.44852628483E-01  0.80144466732E-01  0.51100000000E-03 0.  1.
         11    1    4    4    0    0  0.24307271026E-01 -0.20913433321E-01  0.40816048660E-01  0.51907861324E-01  0.51100000000E-03 0. -1.
</event>
<event>
 8    1  0.1131349E+005  0.1043930E+01  0.7957747E-01            NaN
         13   -1    0    0    0    0  0.00000000000E+00  0.00000000000E+00  0.74505805969E-08  0.10566000000E+00  0.10566000000E+00 0. -1.
     999900   -1    0    0    0    0 -0.00000000000E+00 -0.00000000000E+00 -0.74505805969E-08  0.93827000000E+00  0.93827000000E+00 0. -1.
     999902    2    1    2    0    0 -0.13710636490E-01 -0.18400590450E-01 -0.64637189992E-02  0.10200900557E+01  0.10198114427E+01 0.  0.
     999903    2    3    3    0    0 -0.63410281204E-01  0.88514941791E-01  0.66717549886E-01  0.12921605570E+00  0.19743325609E-01 0.  0.
         14    1    1    2    0    0  0.13710636490E-01  0.18400590450E-01  0.64637189992E-02  0.23839944319E-01  0.00000000000E+00 0.  1.
     999901    1    3    3    0    0  0.49699644714E-01 -0.10691553224E+00 -0.73181268886E-01  0.89087399998E+00  0.88000000000E+00 0. -1.
        -11    1    4    4    0    0 -0.47830536608E-01  0.67139529821E-01  0.59886634146E-01  0.10189282000E+00  0.51100000000E-03 0. -1.
         11    1    4    4    0    0 -0.15579744596E-01  0.21375411970E-01  0.68309157400E-02  0.27323235705E-01  0.51100000000E-03 0.  1.
</event>
<event>
 8    1  0.1131349E+005  0.1043930E+01  0.7957747E-01            NaN
         13   -1    0    0    0    0  0.00000000000E+00  0.00000000000E+00  0.74505805969E-08  0.10566000000E+00  0.10566000000E+00 0. -1.
     999900   -1    0    0    0    0 -0.00000000000E+00 -0.00000000000E+00 -0.74505805969E-08  0.93827000000E+00  0.93827000000E+00 0.  1.
     999902    2    1    2    0    0 -0.11752125647E-01 -0.70477886266E-02  0.19303834417E-01  0.10202567703E+01  0.10199820859E+01 0.  0.
     999903    2    3    3    0    0 -0.60269168696E-01  0.49036305829E-01 -0.10105740403E+00  0.12897333791E+00  0.19610991760E-01 0.  0.
         14    1    1    2    0    0  0.11752125647E-01  0.70477886266E-02 -0.19303834417E-01  0.23673229711E-01  0.00000000000E+00 0. -1.
     999901    1    3    3    0    0  0.48517043050E-01 -0.56084094456E-01  0.12036123844E+00  0.89128343238E+00  0.88000000000E+00 0. -1.
        -11    1    4    4    0    0 -0.15860019168E-01  0.25049696314E-01 -0.36640639902E-01  0.47136239846E-01  0.51100000000E-03 0.  1.
         11    1    4    4    0    0 -0.44409149528E-01  0.23986609515E-01 -0.64416764125E-01  0.81837098062E-01  0.51100000000E-03 0. -1.
</event>
<event>
 8    1  0.1131349E+005  0.1043930E+01  0.7957747E-01            NaN
         13   -1    0    0    0    0  0.00000000000E+00  0.00000000000E+00  0.74505805969E-08  0.10566000000E+00  0.10566000000E+00 0. -1.
     999900   -1    0    0    0    0 -0.00000000000E+00 -0.00000000000E+00 -0.74505805969E-08  0.93827000000E+00  0.93827000000E+00 0.  1.
     999902    2    1    2    0    0  0.22495276580E-01  0.52986903373E-02  0.54705021364E-02  0.10201804741E+01  0.10199039953E+01 0.  0.
     999903    2    3    3    0    0  0.30761897493E-01  0.89631155753E-01 -0.88344849805E-01  0.13114637912E+00  0.20359809683E-01 0.  0.
         14    1    1    2    0    0 -0.22495276580E-01 -0.52986903373E-02 -0.54705021364E-02  0.23749525918E-01  0.00000000000E+00 0.  1.
     999901    1    3    3    0    0 -0.82666209130E-02 -0.84332465416E-01  0.93815351941E-01  0.88903409496E+00  0.88000000000E+00 0. -1.
        -11    1    4    4    0    0  0.32253191117E-01  0.70384250230E-01 -0.73890634546E-01  0.10702475420E+00  0.51100000000E-03 0. -1.
         11    1    4    4    0    0 -0.14912936239E-02  0.19246905523E-01 -0.14454215259E-01  0.24121624917E-01  0.51100000000E-03 0.  1.
</event>
<event>
 8    1  0.1131349E+005  0.1043930E+01  0.7957747E-01            NaN
         13   -1    0    0    0    0  0.00000000000E+00  0.00000000000E+00  0.74505805969E-08  0.10566000000E+00  0.10566000000E+00 0.  1.
     999900   -1    0    0    0    0 -0.00000000000E+00 -0.00000000000E+00 -0.74505805969E-08  0.93827000000E+00  0.93827000000E+00 0.  1.
     999902    2    1    2    0    0 -0.22017891580E-01 -0.24539780898E-03 -0.88777366566E-02  0.10201884335E+01  0.10199121423E+01 0.  0.
     999903    2    3    3    0    0 -0.38253614271E-01  0.40914366132E-01  0.11592199230E+00  0.13028242884E+00  0.19956918687E-01 0.  0.
         14    1    1    2    0    0  0.22017891580E-01  0.24539780898E-03  0.88777366566E-02  0.23741566457E-01  0.00000000000E+00 0.  1.
     999901    1    3    3    0    0  0.16235722691E-01 -0.41159763941E-01 -0.12479972896E+00  0.88990600470E+00  0.88000000000E+00 0.  1.
        -11    1    4    4    0    0 -0.82782336081E-02  0.47320961331E-02  0.75875405502E-02  0.12196465803E-01  0.51100000000E-03 0. -1.
         11    1    4    4    0    0 -0.29975380663E-01  0.36182269999E-01  0.10833445175E+00  0.11808596304E+00  0.51100000000E-03 0.  1.
</event>
<event>
 8    1  0.1131349E+005  0.1043930E+01  0.7957747E-01            NaN
         13   -1    0    0    0    0  0.00000000000E+00  0.00000000000E+00  0.74505805969E-08  0.10566000000E+00  0.10566000000E+00 0. -1.
     999900   -1    0    0    0    0 -0.00000000000E+00 -0.00000000000E+00 -0.74505805969E-08  0.93827000000E+00  0.93827000000E+00 0.  1.
     999902    2    1    2    0    0 -0.99004468349E-02  0.13150602002E-01  0.12995614006E-01  0.10229575618E+01  0.10227425532E+01 0.  0.
     999903    2    3    3    0    0 -0.33553661737E-01  0.12401178614E+00 -0.34827944940E-01  0.13439874579E+00  0.18581329438E-01 0.  0.
         14    1    1    2    0    0  0.99004468349E-02 -0.13150602002E-01 -0.12995614006E-01  0.20972438197E-01  0.00000000000E+00 0.  1.
     999901    1    3    3    0    0  0.23653214902E-01 -0.11086118414E+00  0.47823558947E-01  0.88855881601E+00  0.88000000000E+00 0. -1.
        -11    1    4    4    0    0 -0.29024946664E-01  0.75036737461E-01 -0.24888186701E-01  0.84217827423E-01  0.51100000000E-03 0. -1.
         11    1    4    4    0    0 -0.45287150732E-02  0.48975048678E-01 -0.99397582395E-02  0.50180918367E-01  0.51100000000E-03 0.  1.
</event>
<event>
 8    1  0.1131349E+005  0.1043930E+01  0.7957747E-01            NaN
         13   -1    0    0    0    0  0.00000000000E+00  0.00000000000E+00  0.74505805969E-08  0.10566000000E+00  0.10566000000E+00 0.  1.
     999900   -1    0    0    0    0 -0.00000000000E+00 -0.00000000000E+00 -0.74505805969E-08  0.93827000000E+00  0.93827000000E+00 0. -1.
     999902    2    1    2    0    0 -0.26667533393E-01 -0.48128526529E-02 -0.37908398382E-02  0.10165677750E+01  0.10161994636E+01 0.  0.
     999903    2    3    3    0    0  0.90989053955E-01  0.60417302867E-01  0.56097017296E-01  0.12433204321E+00  0.19553086526E-01 0.  0.
         14    1    1    2    0    0  0.26667533393E-01  0.48128526529E-02  0.37908398382E-02  0.27362224957E-01  0.00000000000E+00 0.  1.
     999901    1    3    3    0    0 -0.11765658735E+00 -0.65230155519E-01 -0.59887857134E-01  0.89223573184E+00  0.88000000000E+00 0.  1.
        -11    1    4    4    0    0  0.30558445302E-01  0.10127240823E-01  0.13492636414E-01  0.34909768609E-01  0.51100000000E-03 0. -1.
         11    1    4    4    0    0  0.60430608654E-01  0.50290062043E-01  0.42604380882E-01  0.89422274596E-01  0.51100000000E-03 0.  1.
</event>
<event>
 8    1  0.1131349E+005  0.1043930E+01  0.7957747E-01            NaN
         13   -1    0    0    0    0  0.00000000000E+00  0.00000000000E+00  0.74505805969E-08  0.10566000000E+00  0.10566000000E+00 0.  1.
     999900   -1    0    0    0    0 -0.00000000000E+00 -0.00000000000E+00 -0.74505805969E-08  0.93827000000E+00  0.93827000000E+00 0. -1.
     999902    2    1    2    0    0  0.16893083440E-01  0.10349848475E-02 -0.16893762728E-01  0.10200166840E+01  0.10197363331E+01 0.  0.
     999903    2    3    3    0    0  0.48911085779E-01 -0.77706341062E-01 -0.93850912419E-01  0.13257781190E+00  0.18393278439E-01 0.  0.
         14    1    1    2    0    0 -0.16893083440E-01 -0.10349848475E-02  0.16893762728E-01  0.23913315974E-01  0.00000000000E+00 0.  1.
     999901    1    3    3    0    0 -0.32018002339E-01  0.78741325909E-01  0.76957149691E-01  0.88743887213E+00  0.88000000000E+00 0.  1.
        -11    1    4    4    0    0  0.18462119169E-01 -0.42388605654E-01 -0.38241219099E-01  0.60002464055E-01  0.51100000000E-03 0. -1.
         11    1    4    4    0    0  0.30448966611E-01 -0.35317735408E-01 -0.55609693321E-01  0.72575347841E-01  0.51100000000E-03 0.  1.
</event>
<event>
 8    1  0.1131349E+005  0.1043930E+01  0.7957747E-01            NaN
         13   -1    0    0    0    0  0.00000000000E+00  0.00000000000E+00  0.74505805969E-08  0.10566000000E+00  0.10566000000E+00 0.  1.
     999900   -1    0    0    0    0 -0.00000000000E+00 -0.00000000000E+00 -0.74505805969E-08  0.93827000000E+00  0.93827000000E+00 0. -1.
     999902    2    1    2    0    0 -0.26034974955E-01  0.20280359229E-02  0.63650076258E-03  0.10178084001E+01  0.10174731452E+01 0.  0.
     999903    2    3    3    0    0  0.11698201980E+00  0.38239362331E-01  0.15225357270E-01  0.12540829041E+00  0.18665101448E-01 0.  0.
         14    1    1    2    0    0  0.26034974955E-01 -0.20280359229E-02 -0.63650076258E-03  0.26121599948E-01  0.00000000000E+00 0.  1.
     999901    1    3    3    0    0 -0.14301699476E+00 -0.36211326408E-01 -0.14588856507E-01  0.89240010964E+00  0.88000000000E+00 0. -1.
        -11    1    4    4    0    0  0.44462684991E-01  0.57788567568E-02  0.87963618072E-02  0.45694229877E-01  0.51100000000E-03 0.  1.
         11    1    4    4    0    0  0.72519334811E-01  0.32460505574E-01  0.64289954624E-02  0.79714060537E-01  0.51100000000E-03 0. -1.
</event>
<event>
 8    1  0.1131349E+005  0.1043930E+01  0.7957747E-01            NaN
         13   -1    0    0    0    0  0.00000000000E+00  0.00000000000E+00  0.74505805969E-08  0.10566000000E+00  0.10566000000E+00 0.  1.
     999900   -1    0    0    0    0 -0.00000000000E+00 -0.00000000000E+00 -0.74505805969E-08  0.93827000000E+00  0.93827000000E+00 0. -1.
     999902    2    1    2    0    0  0.12912660224E-01 -0.14415355644E-01 -0.12769854877E-01  0.10207436146E+01  0.10204802391E+01 0.  0.
     999903    2    3    3    0    0 -0.17673542719E-01 -0.10786588796E+00  0.70020756534E-01  0.13140520709E+00  0.20421023680E-01 0.  0.
         14    1    1    2    0    0 -0.12912660224E-01  0.14415355644E-01  0.12769854877E-01  0.23186385358E-01  0.00000000000E+00 0.  1.
     999901    1    3    3    0    0  0.30586202943E-01  0.93450532317E-01 -0.82790611411E-01  0.88933840755E+00  0.88000000000E+00 0. -1.
        -11    1    4    4    0    0 -0.54421196239E-03 -0.44616093659E-01  0.37306323498E-01  0.58162830691E-01  0.51100000000E-03 0. -1.
         11    1    4    4    0    0 -0.17129330756E-01 -0.63249794302E-01  0.32714433037E-01  0.73242376404E-01  0.51100000000E-03 0.  1.
</event>
<event>
 8    1  0.1131349E+005  0.1043930E+01  0.7957747E-01            NaN
         13   -1    0    0    0    0  0.00000000000E+00  0.00000000000E+00  0.74505805969E-08  0.10566000000E+00  0.10566000000E+00 0. -1.
     999900   -1    0    0    0    0 -0.00000000000E+00 -0.00000000000E+00 -0.74505805969E-08  0.93827000000E+00  0.93827000000E+00 0. -1.
     999902    2    1    2    0    0  0.22724213668E-01 -0.44926779943E-02  0.10318796412E-03  0.10207657023E+01  0.10205028340E+01 0.  0.
     999903    2    3    3    0    0  0.13174760491E+00 -0.54625794767E-02  0.31930669492E-02  0.13403203993E+00  0.23814299814E-01 0.  0.
         14    1    1    2    0    0 -0.22724213668E-01  0.44926779943E-02 -0.10318796412E-03  0.23164297747E-01  0.00000000000E+00 0. -1.
     999901    1    3    3    0    0 -0.10902339125E+00  0.96990148235E-03 -0.30898789851E-02  0.88673366232E+00  0.88000000000E+00 0. -1.
        -11    1    4    4    0    0  0.85471151636E-01  0.69487078902E-02 -0.24265527901E-02  0.85788994532E-01  0.51100000000E-03 0. -1.
         11    1    4    4    0    0  0.46276453278E-01 -0.12411287367E-01  0.56196197393E-02  0.48243045396E-01  0.51100000000E-03 0.  1.
</event>
<event>
 8    1  0.1131349E+005  0.1043930E+01  0.7957747E-01            NaN
         13   -1    0    0    0    0  0.00000000000E+00  0.00000000000E+00  0.74505805969E-08  0.10566000000E+00  0.10566000000E+00 0. -1.
     999900   -1    0    0    0    0 -0.00000000000E+00 -0.00000000000E+00 -0.74505805969E-08  0.93827000000E+00  0.93827000000E+00 0. -1.
     999902    2    1    2    0    0 -0.18361497473E-01  0.13046580227E-01 -0.65695489755E-02  0.10204669052E+01  0.10201971318E+01 0.  0.
     999903    2    3    3    0    0 -0.87191668225E-01  0.98972060218E-01  0.64565086501E-02  0.13351117984E+00  0.19639066369E-01 0.  0.
         14    1    1    2    0    0  0.18361497473E-01 -0.13046580227E-01  0.65695489755E-02  0.23463094826E-01  0.00000000000E+00 0. -1.
     999901    1    3    3    0    0  0.68830170752E-01 -0.85925479990E-01 -0.13026057626E-01  0.88695572533E+00  0.88000000000E+00 0. -1.
        -11    1    4    4    0    0 -0.32907827396E-01  0.46412624933E-01  0.10430409287E-01  0.57845582511E-01  0.51100000000E-03 0. -1.
         11    1    4    4    0    0 -0.54283840829E-01  0.52559435285E-01 -0.39739006370E-02  0.75665597334E-01  0.51100000000E-03 0.  1.
</event>
<event>
 8    1  0.1131349E+005  0.1043930E+01  0.7957747E-01            NaN
         13   -1    0    0    0    0  0.00000000000E+00  0.00000000000E+00  0.74505805969E-08  0.10566000000E+00  0.10566000000E+00 0.  1.
     999900   -1    0    0    0    0 -0.00000000000E+00 -0.00000000000E+00 -0.74505805969E-08  0.93827000000E+00  0.93827000000E+00 0. -1.
     999902    2    1    2    0    0  0.17854511183E-01  0.78661628512E-02 -0.13975754248E-01  0.10199303793E+01  0.10196479769E+01 0.  0.
     999903    2    3    3    0    0  0.45649504909E-01  0.61400607742E-01  0.10444850247E+00  0.12995127670E+00  0.11132507283E-01 0.  0.
         14    1    1    2    0    0 -0.17854511183E-01 -0.78661628512E-02  0.13975754248E-01  0.23999620713E-01  0.00000000000E+00 0.  1.
     999901    1    3    3    0    0 -0.27794993726E-01 -0.53534444891E-01 -0.11842425671E+00  0.88997910259E+00  0.88000000000E+00 0. -1.
        -11    1    4    4    0    0  0.15304811838E-01  0.16476925136E-01  0.23550510610E-01  0.32567069231E-01  0.51100000000E-03 0. -1.
         11    1    4    4    0    0  0.30344693071E-01  0.44923682606E-01  0.80897991857E-01  0.97384207467E-01  0.51100000000E-03 0.  1.
</event>
<event>
 8    1  0.1131349E+005  0.1043930E+01  0.7957747E-01            NaN
         13   -1    0    0    0    0  0.00000000000E+00  0.00000000000E+00  0.74505805969E-08  0.10566000000E+00  0.10566000000E+00 0.  1.
     999900   -1    0    0    0    0 -0.00000000000E+00 -0.00000000000E+00 -0.74505805969E-08  0.93827000000E+00  0.93827000000E+00 0.  1.
     999902    2    1    2    0    0  0.74482605033E-02 -0.22556693242E-01  0.37816025754E-02  0.10198762786E+01  0.10195925864E+01 0.  0.
     999903    2    3    3    0    0 -0.60704440097E-01  0.15345460819E-01  0.11185808787E+00  0.12984150932E+00  0.20641548025E-01 0.  0.
         14    1    1    2    0    0 -0.74482605033E-02  0.22556693242E-01 -0.37816025754E-02  0.24053721387E-01  0.00000000000E+00 0. -1.
     999901    1    3    3    0    0  0.68152700601E-01 -0.37902154060E-01 -0.10807648529E+00  0.89003476930E+00  0.88000000000E+00 0. -1.
        -11    1    4    4    0    0 -0.29274948145E-01  0.25873676634E-02  0.70284592873E-01  0.76183345796E-01  0.51100000000E-03 0. -1.
         11    1    4    4    0    0 -0.31429491952E-01  0.12758093155E-01  0.41573494996E-01  0.53658163521E-01  0.51100000000E-03 0.  1.
</event>
<event>
 8    1  0.1131349E+005  0.1043930E+01  0.7957747E-01            NaN
         13   -1    0    0    0    0  0.00000000000E+00  0.00000000000E+00  0.74505805969E-08  0.10566000000E+00  0.10566000000E+00 0.  1.
     999900   -1    0    0    0    0 -0.00000000000E+00 -0.00000000000E+00 -0.74505805969E-08  0.93827000000E+00  0.93827000000E+00 0.  1.
     999902    2    1    2    0    0 -0.23535833423E-01  0.90024188225E-03  0.28384806463E-02  0.10202065335E+01  0.10199306683E+01 0.  0.
     999903    2    3    3    0    0  0.76014438682E-02  0.11656784814E+00  0.54742798727E-01  0.13057594533E+00  0.20185596772E-01 0.  0.
         14    1    1    2    0    0  0.23535833423E-01 -0.90024188225E-03 -0.28384806463E-02  0.23723466499E-01  0.00000000000E+00 0.  1.
     999901    1    3    3    0    0 -0.31137277291E-01 -0.11566760626E+00 -0.51904318080E-01  0.88963058817E+00  0.88000000000E+00 0. -1.
        -11    1    4    4    0    0 -0.20669104144E-02  0.21445147770E-01  0.27090677154E-02  0.21720189926E-01  0.51100000000E-03 0. -1.
         11    1    4    4    0    0  0.96683542827E-02  0.95122700371E-01  0.52033731011E-01  0.10885575540E+00  0.51100000000E-03 0.  1.
</event>
<event>
 8    1  0.1131349E+005  0.1043930E+01  0.7957747E-01            NaN
         13   -1    0    0    0    0  0.00000000000E+00  0.00000000000E+00  0.74505805969E-08  0.10566000000E+00  0.10566000000E+00 0. -1.
     999900   -1    0    0    0    0 -0.00000000000E+00 -0.00000000000E+00 -0.74505805969E-08  0.93827000000E+00  0.93827000000E+00 0. -1.
     999902    2    1    2    0    0  0.16786687758E-01  0.27562837340E-02  0.15167833439E-01  0.10211384850E+01  0.10208841033E+01 0.  0.
     999903    2    3    3    0    0  0.11648962073E+00 -0.60838649641E-01 -0.54821359991E-02  0.13298792813E+00  0.19610257130E-01 0.  0.
         14    1    1    2    0    0 -0.16786687758E-01 -0.27562837340E-02 -0.15167833439E-01  0.22791515025E-01  0.00000000000E+00 0.  1.
     999901    1    3    3    0    0 -0.99702932969E-01  0.63594933375E-01  0.20649969438E-01  0.88815055685E+00  0.88000000000E+00 0. -1.
        -11    1    4    4    0    0  0.68128212720E-01 -0.27078795611E-01 -0.92009513496E-02  0.73889330535E-01  0.51100000000E-03 0. -1.
         11    1    4    4    0    0  0.48361408008E-01 -0.33759854030E-01  0.37188153505E-02  0.59098597591E-01  0.51100000000E-03 0.  1.
</event>
<event>
 8    1  0.1131349E+005  0.1043930E+01  0.7957747E-01            NaN
         13   -1    0    0    0    0  0.00000000000E+00  0.00000000000E+00  0.74505805969E-08  0.10566000000E+00  0.10566000000E+00 0.  1.
     999900   -1    0    0    0    0 -0.00000000000E+00 -0.00000000000E+00 -0.74505805969E-08  0.93827000000E+00  0.93827000000E+00 0.  1.
     999902    2    1    2    0    0 -0.65601639460E-02  0.41744550359E-02  0.21308060471E-01  0.10212475119E+01  0.10209955853E+01 0.  0.
     999903    2    3    3    0    0 -0.29321810347E-01 -0.27696554432E-01  0.12695360164E+00  0.13406385888E+00  0.15133856070E-01 0.  0.
         14    1    1    2    0    0  0.65601639460E-02 -0.41744550359E-02 -0.21308060471E-01  0.22682488111E-01  0.00000000000E+00 0. -1.
     999901    1    3    3    0    0  0.22761646401E-01  0.31871009468E-01 -0.10564554117E+00  0.88718365301E+00  0.88000000000E+00 0.  1.
        -11    1    4    4    0    0 -0.16456653728E-01 -0.23427115259E-01  0.72589270328E-01  0.78032778171E-01  0.51100000000E-03 0. -1.
         11    1    4    4    0    0 -0.12865156619E-01 -0.42694391732E-02  0.54364331313E-01  0.56031080713E-01  0.51100000000E-03 0.  1.
</event>
<event>
 8    1  0.1131349E+005  0.1043930E+01  0.7957747E-01            NaN
         13   -1    0    0    0    0  0.00000000000E+00  0.00000000000E+00  0.74505805969E-08  0.10566000000E+00  0.10566000000E+00 0. -1.
     999900   -1    0    0    0    0 -0.00000000000E+00 -0.00000000000E+00 -0.74505805969E-08  0.93827000000E+00  0.93827000000E+00 0. -1.
     999902    2    1    2    0    0 -0.84201509795E-02 -0.90809498357E-03 -0.28948526862E-01  0.10137680905E+01  0.10133192984E+01 0.  0.
     999903    2    3    3    0    0  0.14413856330E-01 -0.75115007530E-01 -0.10040387455E+00  0.12746457334E+00  0.17783582918E-01 0.  0.
         14    1    1    2    0    0  0.84201509795E-02  0.90809498357E-03  0.28948526862E-01  0.30161909530E-01  0.00000000000E+00 0. -1.
     999901    1    3    3    0    0 -0.22834007309E-01  0.74206912546E-01  0.71455347692E-01  0.88630351713E+00  0.88000000000E+00 0.  1.
        -11    1    4    4    0    0  0.50103473864E-02 -0.45045221166E-01 -0.71789610157E-01  0.84901029312E-01  0.51100000000E-03 0. -1.
         11    1    4    4    0    0  0.94035089432E-02 -0.30069786364E-01 -0.28614264397E-01  0.42563544030E-01  0.51100000000E-03 0.  1.
</event>
<event>
 8    1  0.1131349E+005  0.1043930E+01  0.7957747E-01            NaN
         13   -1    0    0    0    0  0.00000000000E+00  0.00000000000E+00  0.74505805969E-08  0.10566000000E+00  0.10566000000E+00 0.  1.
     999900   -1    0    0    0    0 -0.00000000000E+00 -0.00000000000E+00 -0.74505805969E-08  0.93827000000E+00  0.93827000000E+00 0.  1.
     999902    2    1    2    0    0 -0.13739691786E-01 -0.54597438245E-02  0.17381620725E-01  0.10211109581E+01  0.10208559546E+01 0.  0.
     999903    2    3    3    0    0  0.73099297017E-01 -0.77603570904E-01  0.75308873981E-01  0.13200955309E+00  0.19730032089E-01 0.  0.
         14    1    1    2    0    0  0.13739691786E-01  0.54597438245E-02 -0.17381620725E-01  0.22819041874E-01  0.00000000000E+00 0. -1.
     999901    1    3    3    0    0 -0.86838988802E-01  0.72143827079E-01 -0.57927253255E-01  0.88910140503E+00  0.88000000000E+00 0.  1.
        -11    1    4    4    0    0  0.46925072245E-01 -0.62595561381E-01  0.53471891721E-01  0.94761126180E-01  0.51100000000E-03 0.  1.
         11    1    4    4    0    0  0.26174224772E-01 -0.15008009523E-01  0.21836982260E-01  0.37248426913E-01  0.51100000000E-03 0. -1.
</event>
<event>
 8    1  0.1131349E+005  0.1043930E+01  0.7957747E-01            NaN
         13   -1    0    0    0    0  0.00000000000E+00  0.00000000000E+00  0.74505805969E-08  0.10566000000E+00  0.10566000000E+00 0.  1.
     999900   -1    0    0    0    0 -0.00000000000E+00 -0.00000000000E+00 -0.74505805969E-08  0.93827000000E+00  0.93827000000E+00 0.  1.
     999902    2    1    2    0    0 -0.22546632165E-01 -0.84161188078E-02  0.17712415771E-02  0.10197987138E+01  0.10195131670E+01 0.  0.
     999903    2    3    3    0    0 -0.36073845803E-01 -0.86526626250E-01 -0.89770091962E-01  0.13150593962E+00  0.21141507603E-01 0.  0.
         14    1    1    2    0    0  0.22546632165E-01  0.84161188078E-02 -0.17712415771E-02  0.24131286217E-01  0.00000000000E+00 0.  1.
     999901    1    3    3    0    0  0.13527213638E-01  0.78110507442E-01  0.91541333539E-01  0.88829277416E+00  0.88000000000E+00 0. -1.
        -11    1    4    4    0    0 -0.41273848346E-02 -0.36493004890E-01 -0.34993633143E-01  0.50730564683E-01  0.51100000000E-03 0. -1.
         11    1    4    4    0    0 -0.31946460968E-01 -0.50033621360E-01 -0.54776458818E-01  0.80775374938E-01  0.51100000000E-03 0.  1.
</event>
<event>
 8    1  0.1131349E+005  0.1043930E+01  0.7957747E-01            NaN
         13   -1    0    0    0    0  0.00000000000E+00  0.00000000000E+00  0.74505805969E-08  0.10566000000E+00  0.10566000000E+00 0.  1.
     999900   -1    0    0    0    0 -0.00000000000E+00 -0.00000000000E+00 -0.74505805969E-08  0.93827000000E+00  0.93827000000E+00 0. -1.
     999902    2    1    2    0    0  0.87684914007E-03  0.16167522819E-01 -0.18812044667E-01  0.10191096317E+01  0.10188073374E+01 0.  0.
     999903    2    3    3    0    0 -0.76835579833E-01 -0.94370377867E-01  0.31633995183E-01  0.12736827230E+00  0.20309913616E-01 0.  0.
         14    1    1    2    0    0 -0.87684914007E-03 -0.16167522819E-01  0.18812044667E-01  0.24820368310E-01  0.00000000000E+00 0.  1.
     999901    1    3    3    0    0  0.77712428973E-01  0.11053790069E+00 -0.50446039850E-01  0.89174135939E+00  0.88000000000E+00 0.  1.
        -11    1    4    4    0    0 -0.36517618779E-01 -0.55443495038E-01  0.93116329273E-02  0.67040922220E-01  0.51100000000E-03 0.  1.
         11    1    4    4    0    0 -0.40317961054E-01 -0.38926882828E-01  0.22322362256E-01  0.60327350082E-01  0.51100000000E-03 0. -1.
</event>
<event>
 8    1  0.1131349E+005  0.1043930E+01  0.7957747E-01            NaN
         13   -1    0    0    0    0  0.00000000000E+00  0.00000000000E+00  0.74505805969E-08  0.10566000000E+00  0.10566000000E+00 0.  1.
     999900   -1    0    0    0    0 -0.00000000000E+00 -0.00000000000E+00 -0.74505805969E-08  0.93827000000E+00  0.93827000000E+00 0. -1.
     999902    2    1    2    0    0  0.15341906011E-01 -0.16491393359E-01  0.12306432538E-02  0.10213721939E+01  0.10211230601E+01 0.  0.
     999903    2    3    3    0    0 -0.37549736905E-01  0.11903813603E+00  0.25659869807E-01  0.12909277219E+00  0.20650770957E-01 0.  0.
         14    1    1    2    0    0 -0.15341906011E-01  0.16491393359E-01 -0.12306432538E-02  0.22557806139E-01  0.00000000000E+00 0.  1.
     999901    1    3    3    0    0  0.52891642916E-01 -0.13552952939E+00 -0.24429226553E-01  0.89227942167E+00  0.88000000000E+00 0.  1.
        -11    1    4    4    0    0 -0.25103645569E-01  0.10260265452E+00  0.24518990084E-01  0.10843864500E+00  0.51100000000E-03 0.  1.
         11    1    4    4    0    0 -0.12446091336E-01  0.16435481518E-01  0.11408797230E-02  0.20654127186E-01  0.51100000000E-03 0. -1.
</event>
<event>
 8    1  0.1131349E+005  0.1043930E+01  0.7957747E-01            NaN
         13   -1    0    0    0    0  0.00000000000E+00  0.00000000000E+00  0.74505805969E-08  0.10566000000E+00  0.10566000000E+00 0. -1.
     999900   -1    0    0    0    0 -0.00000000000E+00 -0.00000000000E+00 -0.74505805969E-08  0.93827000000E+00  0.93827000000E+00 0.  1.
     999902    2    1    2    0    0 -0.25746264844E-02 -0.20952838318E-01 -0.44160281265E-02  0.10223626302E+01  0.10221351164E+01 0.  0.
     999903    2    3    3    0    0  0.27708950222E-01  0.12349462353E+00 -0.21750418686E-01  0.12990386627E+00  0.19576153745E-01 0.  0.
         14    1    1    2    0    0  0.25746264844E-02  0.20952838318E-01  0.44160281265E-02  0.21567369787E-01  0.00000000000E+00 0.  1.
     999901    1    3    3    0    0 -0.30283576706E-01 -0.14444746184E+00  0.17334390559E-01  0.89245876395E+00  0.88000000000E+00 0.  1.
        -11    1    4    4    0    0  0.21131659240E-01  0.89888827530E-01 -0.24532072653E-01  0.95543874982E-01  0.51100000000E-03 0. -1.
         11    1    4    4    0    0  0.65772909814E-02  0.33605795996E-01  0.27816539671E-02  0.34359991283E-01  0.51100000000E-03 0.  1.
</event>
<event>
 8    1  0.1131349E+005  0.1043930E+01  0.7957747E-01            NaN
         13   -1    0    0    0    0  0.00000000000E+00  0.00000000000E+00  0.74505805969E-08  0.10566000000E+00  0.10566000000E+00 0.  1.
     999900   -1    0    0    0    0 -0.00000000000E+00 -0.00000000000E+00 -0.74505805969E-08  0.93827000000E+00  0.93827000000E+00 0.  1.
     999902    2    1    2    0    0 -0.49334172643E-02 -0.10059992955E-01  0.21399863662E-01  0.10197743334E+01  0.10194882024E+01 0.  0.
     999903    2    3    3    0    0 -0.83801124562E-01  0.87006150436E-01  0.45717280879E-01  0.13059871057E+00  0.19319801782E-01 0.  0.
         14    1    1    2    0    0  0.49334172643E-02  0.10059992955E-01 -0.21399863662E-01  0.24155666600E-01  0.00000000000E+00 0. -1.
     999901    1    3    3    0    0  0.78867707298E-01 -0.97066143392E-01 -0.24317417218E-01  0.88917562283E+00  0.88000000000E+00 0.  1.
        -11    1    4    4    0    0 -0.50073419524E-01  0.50442301660E-01  0.16720322229E-01  0.73017829576E-01  0.51100000000E-03 0.  1.
         11    1    4    4    0    0 -0.33727705038E-01  0.36563848776E-01  0.28996958650E-01  0.57580880998E-01  0.51100000000E-03 0. -1.
</event>
<event>
 8    1  0.1131349E+005  0.1043930E+01  0.7957747E-01            NaN
         13   -1    0    0    0    0  0.00000000000E+00  0.00000000000E+00  0.74505805969E-08  0.10566000000E+00  0.10566000000E+00 0.  1.
     999900   -1    0    0    0    0 -0.00000000000E+00 -0.00000000000E+00 -0.74505805969E-08  0.93827000000E+00  0.93827000000E+00 0. -1.
     999902    2    1    2    0    0 -0.14111235583E-01 -0.14401093804E-01 -0.12348852185E-01  0.10202865522E+01  0.10200125666E+01 0.  0.
     999903    2    3    3    0    0  0.97049632160E-01 -0.10205439590E-01 -0.83964773017E-01  0.13039713092E+00  0.20749615538E-01 0.  0.
         14    1    1    2    0    0  0.14111235583E-01  0.14401093804E-01  0.12348852185E-01  0.23643447776E-01  0.00000000000E+00 0. -1.
     999901    1    3    3    0    0 -0.11116086774E+00 -0.41956542141E-02  0.71615920831E-01  0.88988942130E+00  0.88000000000E+00 0.  1.
        -11    1    4    4    0    0  0.38043586623E-01 -0.13981959551E-01 -0.37069885834E-01  0.54929475082E-01  0.51100000000E-03 0. -1.
         11    1    4    4    0    0  0.59006045537E-01  0.37765199606E-02 -0.46894887182E-01  0.75467655839E-01  0.51100000000E-03 0.  1.
</event>
<event>
 8    1  0.1131349E+005  0.1043930E+01  0.7957747E-01            NaN
         13   -1    0    0    0    0  0.00000000000E+00  0.00000000000E+00  0.74505805969E-08  0.10566000000E+00  0.10566000000E+00 0. -1.
     999900   -1    0    0    0    0 -0.00000000000E+00 -0.00000000000E+00 -0.74505805969E-08  0.93827000000E+00  0.93827000000E+00 0.  1.
     999902    2    1    2    0    0 -0.12711812787E-01 -0.35470825317E-02  0.19377999823E-01  0.10204847690E+01  0.10202154110E+01 0.  0.
     999903    2    3    3    0    0 -0.11701045642E+00 -0.63845368372E-02  0.60710752990E-01  0.13335757707E+00  0.19137361639E-01 0.  0.
         14    1    1    2    0    0  0.12711812787E-01  0.35470825317E-02 -0.19377999823E-01  0.23445230985E-01  0.00000000000E+00 0.  1.
     999901    1    3    3    0    0  0.10429864363E+00  0.28374543055E-02 -0.41332753168E-01  0.88712719195E+00  0.88000000000E+00 0.  1.
        -11    1    4    4    0    0 -0.59856818287E-01  0.58523707423E-02  0.27536211124E-01  0.66148265154E-01  0.51100000000E-03 0. -1.
         11    1    4    4    0    0 -0.57153638131E-01 -0.12236907580E-01  0.33174541866E-01  0.67209311913E-01  0.51100000000E-03 0.  1.
</event>
<event>
 8    1  0.1131349E+005  0.1043930E+01  0.7957747E-01            NaN
         13   -1    0    0    0    0  0.00000000000E+00  0.00000000000E+00  0.74505805969E-08  0.10566000000E+00  0.10566000000E+00 0. -1.
     999900   -1    0    0    0    0 -0.00000000000E+00 -0.00000000000E+00 -0.74505805969E-08  0.93827000000E+00  0.93827000000E+00 0.  1.
     999902    2    1    2    0    0  0.99730628183E-02 -0.30860503436E-02  0.22197163273E-01  0.10194004312E+01  0.10191052641E+01 0.  0.
     999903    2    3    3    0    0 -0.82016632548E-01 -0.40180748776E-01 -0.86370066000E-01  0.12719812006E+00  0.19451294566E-01 0.  0.
         14    1    1    2    0    0 -0.99730628183E-02  0.30860503436E-02 -0.22197163273E-01  0.24529568811E-01  0.00000000000E+00 0.  1.
     999901    1    3    3    0    0  0.91989695366E-01  0.37094698432E-01  0.10856722927E+00  0.89220231113E+00  0.88000000000E+00 0. -1.
        -11    1    4    4    0    0 -0.55135722264E-01 -0.31518481216E-01 -0.48285114001E-01  0.79781425676E-01  0.51100000000E-03 0. -1.
         11    1    4    4    0    0 -0.26880910283E-01 -0.86622675601E-02 -0.38084951999E-01  0.47416694388E-01  0.51100000000E-03 0.  1.
</event>
<event>
 7    1  0.1131349E+005  0.1043930E+01  0.7957747E-01            NaN
         13   -1    0    0    0    0  0.00000000000E+00  0.00000000000E+00  0.74505805969E-08  0.10566000000E+00  0.10566000000E+00 0. -1.
     999900   -1    0    0    0    0 -0.00000000000E+00 -0.00000000000E+00 -0.74505805969E-08  0.93827000000E+00  0.93827000000E+00 0.  1.
     999903    2    1    2    0    0  0.56590907683E-01  0.11959360465E-02  0.10259348354E+00  0.11885818915E+00  0.19947059099E-01 0.  0.
         14    1    1    2    0    0  0.95346560053E-02  0.30718766768E-01 -0.20644299706E-01  0.38219620710E-01  0.00000000000E+00 0.  1.
     999901    1    1    2    0    0 -0.66125563689E-01 -0.31914702814E-01 -0.81949183836E-01  0.88685219014E+00  0.88000000000E+00 0.  1.
        -11    1    3    3    0    0  0.19842174116E-02 -0.33439322441E-02  0.15267459313E-01  0.15763103643E-01  0.51100000000E-03 0. -1.
         11    1    3    3    0    0  0.54606690272E-01  0.45398682906E-02  0.87326024229E-01  0.10309508550E+00  0.51100000000E-03 0.  1.
</event>
<event>
 8    1  0.1131349E+005  0.1043930E+01  0.7957747E-01            NaN
         13   -1    0    0    0    0  0.00000000000E+00  0.00000000000E+00  0.74505805969E-08  0.10566000000E+00  0.10566000000E+00 0.  1.
     999900   -1    0    0    0    0 -0.00000000000E+00 -0.00000000000E+00 -0.74505805969E-08  0.93827000000E+00  0.93827000000E+00 0. -1.
     999902    2    1    2    0    0  0.22268252122E-01 -0.75308211585E-02 -0.92417459337E-03  0.10204046431E+01  0.10201334193E+01 0.  0.
     999903    2    3    3    0    0 -0.68885076841E-01  0.86447039835E-01 -0.63868027925E-01  0.12849506447E+00  0.14615474449E-01 0.  0.
         14    1    1    2    0    0 -0.22268252122E-01  0.75308211585E-02  0.92417459337E-03  0.23525356928E-01  0.00000000000E+00 0. -1.
     999901    1    3    3    0    0  0.91153328963E-01 -0.93977860993E-01  0.62943853332E-01  0.89190957861E+00  0.88000000000E+00 0.  1.
        -11    1    4    4    0    0 -0.45819367642E-01  0.47700097823E-01 -0.33650119178E-01  0.74211221693E-01  0.51100000000E-03 0.  1.
         11    1    4    4    0    0 -0.23065709199E-01  0.38746942011E-01 -0.30217908748E-01  0.54283842773E-01  0.51100000000E-03 0. -1.
</event>
<event>
 8    1  0.1131349E+005  0.1043930E+01  0.7957747E-01            NaN
         13   -1    0    0    0    0  0.00000000000E+00  0.00000000000E+00  0.74505805969E-08  0.10566000000E+00  0.10566000000E+00 0.  1.
     999900   -1    0    0    0    0 -0.00000000000E+00 -0.00000000000E+00 -0.74505805969E-08  0.93827000000E+00  0.93827000000E+00 0.  1.
     999902    2    1    2    0    0 -0.20384550677E-01  0.84760897022E-02 -0.75779168943E-02  0.10205890740E+01  0.10203221350E+01 0.  0.
     999903    2    3    3    0    0 -0.68091333898E-02 -0.11648345267E+00 -0.54753246090E-01  0.13040668207E+00  0.19829920006E-01 0.  0.
         14    1    1    2    0    0  0.20384550677E-01 -0.84760897022E-02  0.75779168943E-02  0.23340926018E-01  0.00000000000E+00 0.  1.
     999901    1    3    3    0    0 -0.13575417287E-01  0.12495954237E+00  0.47175329196E-01  0.89018239191E+00  0.88000000000E+00 0.  1.
        -11    1    4    4    0    0  0.25928434510E-02 -0.27437982488E-01 -0.21239064696E-01  0.34798343500E-01  0.51100000000E-03 0.  1.
         11    1    4    4    0    0 -0.94019768408E-02 -0.89045470183E-01 -0.33514181394E-01  0.95608338570E-01  0.51100000000E-03 0. -1.
</event>
<event>
 8    1  0.1131349E+005  0.1043930E+01  0.7957747E-01            NaN
         13   -1    0    0    0    0  0.00000000000E+00  0.00000000000E+00  0.74505805969E-08  0.10566000000E+00  0.10566000000E+00 0.  1.
     999900   -1    0    0    0    0 -0.00000000000E+00 -0.00000000000E+00 -0.74505805969E-08  0.93827000000E+00  0.93827000000E+00 0.  1.
     999902    2    1    2    0    0  0.81246931304E-02 -0.82076458562E-02  0.20524670513E-01  0.10203792423E+01  0.10201074257E+01 0.  0.
     999903    2    3    3    0    0  0.11851073394E-01  0.72375473514E-02 -0.12595365985E+00  0.12813020689E+00  0.18978815965E-01 0.  0.
         14    1    1    2    0    0 -0.81246931304E-02  0.82076458562E-02 -0.20524670513E-01  0.23550757708E-01  0.00000000000E+00 0. -1.
     999901    1    3    3    0    0 -0.37263802640E-02 -0.15445193208E-01  0.14647833037E+00  0.89224903540E+00  0.88000000000E+00 0. -1.
        -11    1    4    4    0    0  0.14367936343E-01  0.17659854152E-02 -0.53543747217E-01  0.55468462087E-01  0.51100000000E-03 0. -1.
         11    1    4    4    0    0 -0.25168629481E-02  0.54715619362E-02 -0.72409912637E-01  0.72661744806E-01  0.51100000000E-03 0.  1.
</event>
<event>
 7    1  0.1131349E+005  0.1043930E+01  0.7957747E-01            NaN
         13   -1    0    0    0    0  0.00000000000E+00  0.00000000000E+00  0.74505805969E-08  0.10566000000E+00  0.10566000000E+00 0. -1.
     999900   -1    0    0    0    0 -0.00000000000E+00 -0.00000000000E+00 -0.74505805969E-08  0.93827000000E+00  0.93827000000E+00 0.  1.
     999903    2    1    2    0    0  0.94161432279E-01  0.13648740978E-01 -0.57703080097E-01  0.11292820539E+00  0.19247614418E-01 0.  0.
         14    1    1    2    0    0 -0.18937249104E-01  0.36906253941E-01  0.18661726657E-01  0.45485723314E-01  0.00000000000E+00 0. -1.
     999901    1    1    2    0    0 -0.75224183174E-01 -0.50554994919E-01  0.39041353439E-01  0.88551607130E+00  0.88000000000E+00 0. -1.
        -11    1    3    3    0    0  0.78199826073E-02 -0.40795023543E-02 -0.38718925627E-02  0.96460945701E-02  0.51100000000E-03 0.  1.
         11    1    3    3    0    0  0.86341449671E-01  0.17728243333E-01 -0.53831187534E-01  0.10328211082E+00  0.51100000000E-03 0. -1.
</event>
<event>
 8    1  0.1131349E+005  0.1043930E+01  0.7957747E-01            NaN
         13   -1    0    0    0    0  0.00000000000E+00  0.00000000000E+00  0.74505805969E-08  0.10566000000E+00  0.10566000000E+00 0.  1.
     999900   -1    0    0    0    0 -0.00000000000E+00 -0.00000000000E+00 -0.74505805969E-08  0.93827000000E+00  0.93827000000E+00 0.  1.
     999902    2    1    2    0    0 -0.10377227249E-01 -0.19064873924E-01  0.10382058091E-01  0.10198687574E+01  0.10195848856E+01 0.  0.
     999903    2    3    3    0    0  0.91862535323E-01  0.72266199183E-02 -0.86914570954E-01  0.12823495048E+00  0.19977748843E-01 0.  0.
         14    1    1    2    0    0  0.10377227249E-01  0.19064873924E-01 -0.10382058091E-01  0.24061242556E-01  0.00000000000E+00 0. -1.
     999901    1    3    3    0    0 -0.10223976257E+00 -0.26291493843E-01  0.97296629045E-01  0.89163380696E+00  0.88000000000E+00 0. -1.
        -11    1    4    4    0    0  0.26238740785E-01 -0.16933082124E-02 -0.14227401253E-01  0.29900148463E-01  0.51100000000E-03 0.  1.
         11    1    4    4    0    0  0.65623794538E-01  0.89199281307E-02 -0.72687169701E-01  0.98334802016E-01  0.51100000000E-03 0. -1.
</event>
<event>
 8    1  0.1131349E+005  0.1043930E+01  0.7957747E-01            NaN
         13   -1    0    0    0    0  0.00000000000E+00  0.00000000000E+00  0.74505805969E-08  0.10566000000E+00  0.10566000000E+00 0. -1.
     999900   -1    0    0    0    0 -0.00000000000E+00 -0.00000000000E+00 -0.74505805969E-08  0.93827000000E+00  0.93827000000E+00 0.  1.
     999902    2    1    2    0    0  0.73961864582E-02  0.16876553885E-01 -0.13994620481E-01  0.10207919135E+01  0.10205296466E+01 0.  0.
     999903    2    3    3    0    0 -0.74737982919E-01  0.50814641487E-01  0.91123788614E-01  0.13009123677E+00  0.21267137860E-01 0.  0.
         14    1    1    2    0    0 -0.73961864582E-02 -0.16876553885E-01  0.13994620481E-01  0.23138086515E-01  0.00000000000E+00 0. -1.
     999901    1    3    3    0    0  0.82134169378E-01 -0.33938087602E-01 -0.10511840910E+00  0.89070067671E+00  0.88000000000E+00 0.  1.
        -11    1    4    4    0    0 -0.64892226999E-01  0.35186713535E-01  0.78221982189E-01  0.10755484904E+00  0.51100000000E-03 0. -1.
         11    1    4    4    0    0 -0.98457559201E-02  0.15627927952E-01  0.12901806425E-01  0.22536387726E-01  0.51100000000E-03 0.  1.
</event>
<event>
 8    1  0.1131349E+005  0.1043930E+01  0.7957747E-01            NaN
         13   -1    0    0    0    0  0.00000000000E+00  0.00000000000E+00  0.74505805969E-08  0.10566000000E+00  0.10566000000E+00 0.  1.
     999900   -1    0    0    0    0 -0.00000000000E+00 -0.00000000000E+00 -0.74505805969E-08  0.93827000000E+00  0.93827000000E+00 0.  1.
     999902    2    1    2    0    0 -0.58307784727E-02 -0.97517918961E-02 -0.21246006750E-01  0.10198366767E+01  0.10195520384E+01 0.  0.
     999903    2    3    3    0    0  0.11403375393E+00 -0.59180196776E-01  0.80595953182E-02  0.12985381643E+00  0.17060593125E-01 0.  0.
         14    1    1    2    0    0  0.58307784727E-02  0.97517918961E-02  0.21246006750E-01  0.24093323258E-01  0.00000000000E+00 0.  1.
     999901    1    3    3    0    0 -0.11986453241E+00  0.49428404880E-01 -0.29305602068E-01  0.88998286031E+00  0.88000000000E+00 0. -1.
        -11    1    4    4    0    0  0.58053790948E-01 -0.23748696065E-01 -0.24467422126E-02  0.62773329342E-01  0.51100000000E-03 0.  1.
         11    1    4    4    0    0  0.55979962987E-01 -0.35431500711E-01  0.10506337531E-01  0.67080487088E-01  0.51100000000E-03 0. -1.
</event>
<event>
 8    1  0.1131349E+005  0.1043930E+01  0.7957747E-01            NaN
         13   -1    0    0    0    0  0.00000000000E+00  0.00000000000E+00  0.74505805969E-08  0.10566000000E+00  0.10566000000E+00 0. -1.
     999900   -1    0    0    0    0 -0.00000000000E+00 -0.00000000000E+00 -0.74505805969E-08  0.93827000000E+00  0.93827000000E+00 0. -1.
     999902    2    1    2    0    0 -0.24624864989E-01 -0.26977521137E-02 -0.24674305349E-02  0.10190352203E+01  0.10187310883E+01 0.  0.
     999903    2    3    3    0    0  0.33566621677E-01 -0.95477611669E-01 -0.77601566046E-01  0.12906921547E+00  0.19853637156E-01 0.  0.
         14    1    1    2    0    0  0.24624864989E-01  0.26977521137E-02  0.24674305349E-02  0.24894779686E-01  0.00000000000E+00 0.  1.
     999901    1    3    3    0    0 -0.58191486666E-01  0.92779859555E-01  0.75134135511E-01  0.88996600484E+00  0.88000000000E+00 0.  1.
        -11    1    4    4    0    0  0.51545477840E-03 -0.15217300215E-01 -0.18932221166E-01  0.24300659224E-01  0.51100000000E-03 0.  1.
         11    1    4    4    0    0  0.33051166899E-01 -0.80260311454E-01 -0.58669344880E-01  0.10476855625E+00  0.51100000000E-03 0. -1.
</event>
<event>
 8    1  0.1131349E+005  0.1043930E+01  0.7957747E-01            NaN
         13   -1    0    0    0    0  0.00000000000E+00  0.00000000000E+00  0.74505805969E-08  0.10566000000E+00  0.10566000000E+00 0. -1.
     999900   -1    0    0    0    0 -0.00000000000E+00 -0.00000000000E+00 -0.74505805969E-08  0.93827000000E+00  0.93827000000E+00 0.  1.
     999902    2    1    2    0    0 -0.14844611388E-02  0.22221098797E-01 -0.34181343596E-02  0.10213985886E+01  0.10211500440E+01 0.  0.
     999903    2    3    3    0    0  0.48499383853E-02 -0.67236025073E-01 -0.10980077734E+00  0.13046651019E+00  0.20520589846E-01 0.  0.
         14    1    1    2    0    0  0.14844611388E-02 -0.22221098797E-01  0.34181343596E-02  0.22531411388E-01  0.00000000000E+00 0. -1.
     999901    1    3    3    0    0 -0.63343995240E-02  0.89457123870E-01  0.10638264298E+00  0.89093207842E+00  0.88000000000E+00 0. -1.
        -11    1    4    4    0    0  0.39826732303E-03 -0.54183466960E-01 -0.99309706895E-01  0.11313127646E+00  0.51100000000E-03 0. -1.
         11    1    4    4    0    0  0.44516710622E-02 -0.13052558113E-01 -0.10491070445E-01  0.17335233734E-01  0.51100000000E-03 0.  1.
</event>
<event>
 8    1  0.1131349E+005  0.1043930E+01  0.7957747E-01            NaN
         13   -1    0    0    0    0  0.00000000000E+00  0.00000000000E+00  0.74505805969E-08  0.10566000000E+00  0.10566000000E+00 0. -1.
     999900   -1    0    0    0    0 -0.00000000000E+00 -0.00000000000E+00 -0.74505805969E-08  0.93827000000E+00  0.93827000000E+00 0. -1.
     999902    2    1    2    0    0  0.66304608525E-02 -0.68051344104E-03  0.22658990284E-01  0.10203110256E+01  0.10200376136E+01 0.  0.
     999903    2    3    3    0    0 -0.68994731894E-01  0.30350029876E-01 -0.10126928503E+00  0.12787599616E+00  0.20381485774E-01 0.  0.
         14    1    1    2    0    0 -0.66304608525E-02  0.68051344104E-03 -0.22658990284E-01  0.23618974371E-01  0.00000000000E+00 0.  1.
     999901    1    3    3    0    0  0.75625192746E-01 -0.31030543317E-01  0.12392827531E+00  0.89243502947E+00  0.88000000000E+00 0.  1.
        -11    1    4    4    0    0 -0.25211190440E-01  0.15499225963E-01 -0.55033840638E-01  0.62488517867E-01  0.51100000000E-03 0.  1.
         11    1    4    4    0    0 -0.43783541454E-01  0.14850803914E-01 -0.46235444388E-01  0.65387478296E-01  0.51100000000E-03 0. -1.
</event>
<event>
 8    1  0.1131349E+005  0.1043930E+01  0.7957747E-01            NaN
         13   -1    0    0    0    0  0.00000000000E+00  0.00000000000E+00  0.74505805969E-08  0.10566000000E+00  0.10566000000E+00 0. -1.
     999900   -1    0    0    0    0 -0.00000000000E+00 -0.00000000000E+00 -0.74505805969E-08  0.93827000000E+00  0.93827000000E+00 0.  1.
     999902    2    1    2    0    0  0.39327443905E-02 -0.14135241335E-01  0.18139599655E-01  0.10205994063E+01  0.10203327063E+01 0.  0.
     999903    2    3    3    0    0 -0.26186696321E-02 -0.13071110815E+00 -0.85758424598E-02  0.13248535475E+00  0.19661457852E-01 0.  0.
         14    1    1    2    0    0 -0.39327443905E-02  0.14135241335E-01 -0.18139599655E-01  0.23330593685E-01  0.00000000000E+00 0.  1.
     999901    1    3    3    0    0  0.65514140226E-02  0.11657586681E+00  0.26715442115E-01  0.88811405157E+00  0.88000000000E+00 0. -1.
        -11    1    4    4    0    0 -0.55201482079E-02 -0.11724893540E+00 -0.24528698940E-02  0.11740554748E+00  0.51100000000E-03 0. -1.
         11    1    4    4    0    0  0.29014785758E-02 -0.13462172747E-01 -0.61229725658E-02  0.15079807261E-01  0.51100000000E-03 0.  1.
</event>
<event>
 8    1  0.1131349E+005  0.1043930E+01  0.7957747E-01            NaN
         13   -1    0    0    0    0  0.00000000000E+00  0.00000000000E+00  0.74505805969E-08  0.10566000000E+00  0.10566000000E+00 0. -1.
     999900   -1    0    0    0    0 -0.00000000000E+00 -0.00000000000E+00 -0.74505805969E-08  0.93827000000E+00  0.93827000000E+00 0. -1.
     999902    2    1    2    0    0 -0.78538311369E-02 -0.18183523859E-01  0.11941013816E-01  0.10208018567E+01  0.10205398177E+01 0.  0.
     999903    2    3    3    0    0  0.58030133132E-01 -0.97140401179E-01 -0.64197872334E-01  0.13154822849E+00  0.19488861294E-01 0.  0.
         14    1    1    2    0    0  0.78538311369E-02  0.18183523859E-01 -0.11941013816E-01  0.23128143341E-01  0.00000000000E+00 0.  1.
     999901    1    3    3    0    0 -0.65883964269E-01  0.78956877321E-01  0.76138886150E-01  0.88925362817E+00  0.88000000000E+00 0.  1.
        -11    1    4    4    0    0  0.14160674682E-01 -0.12010744087E-01 -0.15030202343E-01  0.23894576465E-01  0.51100000000E-03 0. -1.
         11    1    4    4    0    0  0.43869458450E-01 -0.85129657093E-01 -0.49167669991E-01  0.10765365203E+00  0.51100000000E-03 0.  1.
</event>
<event>
 8    1  0.1131349E+005  0.1043930E+01  0.7957747E-01            NaN
         13   -1    0    0    0    0  0.00000000000E+00  0.00000000000E+00  0.74505805969E-08  0.10566000000E+00  0.10566000000E+00 0. -1.
     999900   -1    0    0    0    0 -0.00000000000E+00 -0.00000000000E+00 -0.74505805969E-08  0.93827000000E+00  0.93827000000E+00 0.  1.
     999902    2    1    2    0    0  0.17002017813E-01  0.12100535266E-01  0.14627569499E-01  0.10184455468E+01  0.10181266496E+01 0.  0.
     999903    2    3    3    0    0 -0.10120286579E-01 -0.12015528859E+00 -0.34033453836E-01  0.12682055979E+00  0.19633258254E-01 0.  0.
         14    1    1    2    0    0 -0.17002017813E-01 -0.12100535266E-01 -0.14627569499E-01  0.25484453161E-01  0.00000000000E+00 0. -1.
     999901    1    3    3    0    0  0.27122304392E-01  0.13225582385E+00  0.48661023335E-01  0.89162498705E+00  0.88000000000E+00 0. -1.
        -11    1    4    4    0    0  0.49496694622E-02 -0.57833880927E-01 -0.16484921063E-01  0.60342942871E-01  0.51100000000E-03 0.  1.
         11    1    4    4    0    0 -0.15069956041E-01 -0.62321407660E-01 -0.17548532773E-01  0.66477616920E-01  0.51100000000E-03 0. -1.
</event>
<event>
 8    1  0.1131349E+005  0.1043930E+01  0.7957747E-01            NaN
         13   -1    0    0    0    0  0.00000000000E+00  0.00000000000E+00  0.74505805969E-08  0.10566000000E+00  0.10566000000E+00 0. -1.
     999900   -1    0    0    0    0 -0.00000000000E+00 -0.00000000000E+00 -0.74505805969E-08  0.93827000000E+00  0.93827000000E+00 0. -1.
     999902    2    1    2    0    0  0.20315501298E-01  0.10865692548E-01 -0.58956159017E-02  0.10201488908E+01  0.10198716675E+01 0.  0.
     999903    2    3    3    0    0 -0.98389191752E-01 -0.36204089052E-01 -0.71811008461E-01  0.12849245054E+00  0.19034699691E-01 0.  0.
         14    1    1    2    0    0 -0.20315501298E-01 -0.10865692548E-01  0.58956159017E-02  0.23781109192E-01  0.00000000000E+00 0.  1.
     999901    1    3    3    0    0  0.11870469305E+00  0.47069781600E-01  0.65915392559E-01  0.89165644027E+00  0.88000000000E+00 0.  1.
        -11    1    4    4    0    0 -0.73943919677E-01 -0.22114021366E-01 -0.43860494119E-01  0.88773516679E-01  0.51100000000E-03 0. -1.
         11    1    4    4    0    0 -0.24445272075E-01 -0.14090067686E-01 -0.27950514342E-01  0.39718933863E-01  0.51100000000E-03 0.  1.
</event>
<event>
 8    1  0.1131349E+005  0.1043930E+01  0.7957747E-01            NaN
         13   -1    0    0    0    0  0.00000000000E+00  0.00000000000E+00  0.74505805969E-08  0.10566000000E+00  0.10566000000E+00 0.  1.
     999900   -1    0    0    0    0 -0.00000000000E+00 -0.00000000000E+00 -0.74505805969E-08  0.93827000000E+00  0.93827000000E+00 0.  1.
     999902    2    1    2    0    0 -0.20119856380E-02 -0.23887998010E-01 -0.15708170746E-02  0.10199060120E+01  0.10196230290E+01 0.  0.
     999903    2    3    3    0    0  0.16634385308E-01  0.56588868265E-01 -0.11303012574E+00  0.12903711552E+00  0.19893845051E-01 0.  0.
         14    1    1    2    0    0  0.20119856380E-02  0.23887998010E-01  0.15708170746E-02  0.24023988042E-01  0.00000000000E+00 0.  1.
     999901    1    3    3    0    0 -0.18646370946E-01 -0.80476866276E-01  0.11145930866E+00  0.89086889644E+00  0.88000000000E+00 0.  1.
        -11    1    4    4    0    0  0.36996252221E-02  0.37052253335E-01 -0.82778808159E-01  0.90769757658E-01  0.51100000000E-03 0. -1.
         11    1    4    4    0    0  0.12934760086E-01  0.19536614930E-01 -0.30251317579E-01  0.38267357861E-01  0.51100000000E-03 0.  1.
</event>
<event>
 7    1  0.1131349E+005  0.1043930E+01  0.7957747E-01            NaN
         13   -1    0    0    0    0  0.00000000000E+00  0.00000000000E+00  0.74505805969E-08  0.10566000000E+00  0.10566000000E+00 0.  1.
     999900   -1    0    0    0    0 -0.00000000000E+00 -0.00000000000E+00 -0.74505805969E-08  0.93827000000E+00  0.93827000000E+00 0.  1.
     999903    2    1    2    0    0 -0.18487624557E-02 -0.85659535296E-01  0.58559569402E-01  0.10584790240E+00  0.20822616644E-01 0.  0.
         14    1    1    2    0    0  0.85265935677E-03  0.53905323357E-01 -0.16999122886E-01  0.56528586513E-01  0.00000000000E+00 0. -1.
     999901    1    1    2    0    0  0.99610309897E-03  0.31754211939E-01 -0.41560446516E-01  0.88155351109E+00  0.88000000000E+00 0.  1.
        -11    1    3    3    0    0 -0.76535094365E-02 -0.43117633819E-01  0.20034929398E-01  0.48159797236E-01  0.51100000000E-03 0. -1.
         11    1    3    3    0    0  0.58047469808E-02 -0.42541901477E-01  0.38524640005E-01  0.57688105162E-01  0.51100000000E-03 0.  1.
</event>
<event>
 8    1  0.1131349E+005  0.1043930E+01  0.7957747E-01            NaN
         13   -1    0    0    0    0  0.00000000000E+00  0.00000000000E+00  0.74505805969E-08  0.10566000000E+00  0.10566000000E+00 0. -1.
     999900   -1    0    0    0    0 -0.00000000000E+00 -0.00000000000E+00 -0.74505805969E-08  0.93827000000E+00  0.93827000000E+00 0. -1.
     999902    2    1    2    0    0  0.43604694402E-02 -0.24293966793E-01 -0.10629465406E-01  0.10170562944E+01  0.10167011901E+01 0.  0.
     999903    2    3    3    0    0  0.43211310945E-01  0.60792175983E-01  0.98968690177E-01  0.12533840446E+00  0.18761874738E-01 0.  0.
         14    1    1    2    0    0 -0.43604694402E-02  0.24293966793E-01  0.10629465406E-01  0.26873705571E-01  0.00000000000E+00 0.  1.
     999901    1    3    3    0    0 -0.38850841505E-01 -0.85086142776E-01 -0.10959815558E+00  0.89171788997E+00  0.88000000000E+00 0. -1.
        -11    1    4    4    0    0  0.85090223404E-02  0.18089246420E-01  0.39768955017E-01  0.44513539529E-01  0.51100000000E-03 0.  1.
         11    1    4    4    0    0  0.34702288605E-01  0.42702929563E-01  0.59199735160E-01  0.80824864934E-01  0.51100000000E-03 0. -1.
</event>
<event>
 8    1  0.1143874E+005  0.1043930E+01  0.7957747E-01            NaN
         13   -1    0    0    0    0  0.00000000000E+00  0.00000000000E+00  0.74505805969E-08  0.10566000000E+00  0.10566000000E+00 0. -1.
     999900   -1    0    0    0    0 -0.00000000000E+00 -0.00000000000E+00 -0.74505805969E-08  0.93827000000E+00  0.93827000000E+00 0. -1.
     999902    2    1    2    0    0 -0.59394930428E-02 -0.23094195212E-01 -0.17017443435E-02  0.10200236125E+01  0.10197434259E+01 0.  0.
     999903    2    3    3    0    0  0.10071189095E+00  0.51455613811E-01 -0.60321442829E-01  0.12852573768E+00  0.94669746866E-02 0.  0.
         14    1    1    2    0    0  0.59394930428E-02  0.23094195212E-01  0.17017443435E-02  0.23906387512E-01  0.00000000000E+00 0.  1.
     999901    1    3    3    0    0 -0.10665138400E+00 -0.74549809022E-01  0.58619698485E-01  0.89149787481E+00  0.88000000000E+00 0. -1.
        -11    1    4    4    0    0  0.51446987620E-01  0.30464473556E-01 -0.28568659398E-01  0.66266930704E-01  0.51100000000E-03 0. -1.
         11    1    4    4    0    0  0.49264903333E-01  0.20991140255E-01 -0.31752783431E-01  0.62258806977E-01  0.51100000000E-03 0.  1.
</event>
<event>
 8    1  0.1131349E+005  0.1043930E+01  0.7957747E-01            NaN
         13   -1    0    0    0    0  0.00000000000E+00  0.00000000000E+00  0.74505805969E-08  0.10566000000E+00  0.10566000000E+00 0. -1.
     999900   -1    0    0    0    0 -0.00000000000E+00 -0.00000000000E+00 -0.74505805969E-08  0.93827000000E+00  0.93827000000E+00 0.  1.
     999902    2    1    2    0    0 -0.15547832944E-01 -0.19372008458E-02 -0.18113086611E-01  0.10199806417E+01  0.10196994350E+01 0.  0.
     999903    2    3    3    0    0 -0.10429937179E+00 -0.69611196668E-01 -0.38819324131E-01  0.13268962201E+00  0.19378292125E-01 0.  0.
         14    1    1    2    0    0  0.15547832944E-01  0.19372008458E-02  0.18113086611E-01  0.23949358299E-01  0.00000000000E+00 0. -1.
     999901    1    3    3    0    0  0.88751538842E-01  0.67673995822E-01  0.20706237520E-01  0.88729101969E+00  0.88000000000E+00 0.  1.
        -11    1    4    4    0    0 -0.56862778968E-01 -0.47922933278E-01 -0.17902864175E-01  0.76490240113E-01  0.51100000000E-03 0. -1.
         11    1    4    4    0    0 -0.47436592818E-01 -0.21688263390E-01 -0.20916459956E-01  0.56199381893E-01  0.51100000000E-03 0.  1.
</event>
<event>
 8    1  0.1131349E+005  0.1043930E+01  0.7957747E-01            NaN
         13   -1    0    0    0    0  0.00000000000E+00  0.00000000000E+00  0.74505805969E-08  0.10566000000E+00  0.10566000000E+00 0. -1.
     999900   -1    0    0    0    0 -0.00000000000E+00 -0.00000000000E+00 -0.74505805969E-08  0.93827000000E+00  0.93827000000E+00 0. -1.
     999902    2    1    2    0    0  0.17822060446E-01 -0.20514904466E-01 -0.10896350815E-01  0.10146517213E+01  0.10142292137E+01 0.  0.
     999903    2    3    3    0    0  0.53211395720E-01  0.13980403958E-03  0.11166271485E+00  0.12521383890E+00  0.19454341006E-01 0.  0.
         14    1    1    2    0    0 -0.17822060446E-01  0.20514904466E-01  0.10896350815E-01  0.29278278721E-01  0.00000000000E+00 0.  1.
     999901    1    3    3    0    0 -0.35389335273E-01 -0.20654708506E-01 -0.12255906567E+00  0.88943788238E+00  0.88000000000E+00 0. -1.
        -11    1    4    4    0    0  0.36783247162E-02  0.56176359250E-02  0.15637600432E-01  0.17025967648E-01  0.51100000000E-03 0.  1.
         11    1    4    4    0    0  0.49533071004E-01 -0.54778318854E-02  0.96025114421E-01  0.10818787125E+00  0.51100000000E-03 0. -1.
</event>
<event>
 8    1  0.1131349E+005  0.1043930E+01  0.7957747E-01            NaN
         13   -1    0    0    0    0  0.00000000000E+00  0.00000000000E+00  0.74505805969E-08  0.10566000000E+00  0.10566000000E+00 0.  1.
     999900   -1    0    0    0    0 -0.00000000000E+00 -0.00000000000E+00 -0.74505805969E-08  0.93827000000E+00  0.93827000000E+00 0.  1.
     999902    2    1    2    0    0  0.14175630497E-02  0.33153197322E-02 -0.21193807097E-01  0.10224316678E+01  0.10222056236E+01 0.  0.
     999903    2    3    3    0    0 -0.16097963580E-01  0.13016323440E+00 -0.95850687965E-02  0.13308811775E+00  0.20468549622E-01 0.  0.
         14    1    1    2    0    0 -0.14175630497E-02 -0.33153197322E-02  0.21193807097E-01  0.21498332243E-01  0.00000000000E+00 0.  1.
     999901    1    3    3    0    0  0.17515526630E-01 -0.12684791466E+00 -0.11608738301E-01  0.88934355000E+00  0.88000000000E+00 0.  1.
        -11    1    4    4    0    0 -0.15501126200E-01  0.11708131591E+00 -0.23701889516E-02  0.11812788987E+00  0.51100000000E-03 0. -1.
         11    1    4    4    0    0 -0.59683738043E-03  0.13081918485E-01 -0.72148798449E-02  0.14960227882E-01  0.51100000000E-03 0.  1.
</event>
<event>
 8    1  0.1131349E+005  0.1043930E+01  0.7957747E-01            NaN
         13   -1    0    0    0    0  0.00000000000E+00  0.00000000000E+00  0.74505805969E-08  0.10566000000E+00  0.10566000000E+00 0. -1.
     999900   -1    0    0    0    0 -0.00000000000E+00 -0.00000000000E+00 -0.74505805969E-08  0.93827000000E+00  0.93827000000E+00 0.  1.
     999902    2    1    2    0    0  0.21160310400E-01  0.76604218497E-02 -0.11282677745E-01  0.10187558145E+01  0.10184447309E+01 0.  0.
     999903    2    3    3    0    0  0.67671269400E-01 -0.23787613782E-01 -0.10862102327E+00  0.13161039137E+00  0.19429800522E-01 0.  0.
         14    1    1    2    0    0 -0.21160310400E-01 -0.76604218497E-02  0.11282677745E-01  0.25174185512E-01  0.00000000000E+00 0. -1.
     999901    1    3    3    0    0 -0.46510959001E-01  0.31448035631E-01  0.97338345525E-01  0.88714542312E+00  0.88000000000E+00 0. -1.
        -11    1    4    4    0    0  0.54812083099E-01 -0.13921027367E-01 -0.71968729595E-01  0.91530970809E-01  0.51100000000E-03 0. -1.
         11    1    4    4    0    0  0.12859186301E-01 -0.98665864147E-02 -0.36652293674E-01  0.40079420560E-01  0.51100000000E-03 0.  1.
</event>
<event>
 8    1  0.1131349E+005  0.1043930E+01  0.7957747E-01            NaN
         13   -1    0    0    0    0  0.00000000000E+00  0.00000000000E+00  0.74505805969E-08  0.10566000000E+00  0.10566000000E+00 0. -1.
     999900   -1    0    0    0    0 -0.00000000000E+00 -0.00000000000E+00 -0.74505805969E-08  0.93827000000E+00  0.93827000000E+00 0. -1.
     999902    2    1    2    0    0 -0.14525388037E-01  0.18013580704E-01 -0.93767106706E-02  0.10189620467E+01  0.10186561019E+01 0.  0.
     999903    2    3    3    0    0 -0.56268148263E-01  0.44158123008E-01  0.10560558894E+00  0.13011620838E+00  0.25722420820E-01 0.  0.
         14    1    1    2    0    0  0.14525388037E-01 -0.18013580704E-01  0.93767106706E-02  0.24967953268E-01  0.00000000000E+00 0. -1.
     999901    1    3    3    0    0  0.41742760226E-01 -0.26144542304E-01 -0.11498229961E+00  0.88884583835E+00  0.88000000000E+00 0. -1.
        -11    1    4    4    0    0 -0.40793239454E-02  0.15398051323E-01  0.16677550307E-01  0.23068217825E-01  0.51100000000E-03 0. -1.
         11    1    4    4    0    0 -0.52188824318E-01  0.28760071685E-01  0.88928038632E-01  0.10704799056E+00  0.51100000000E-03 0.  1.
</event>
<event>
 8    1  0.1131349E+005  0.1043930E+01  0.7957747E-01            NaN
         13   -1    0    0    0    0  0.00000000000E+00  0.00000000000E+00  0.74505805969E-08  0.10566000000E+00  0.10566000000E+00 0.  1.
     999900   -1    0    0    0    0 -0.00000000000E+00 -0.00000000000E+00 -0.74505805969E-08  0.93827000000E+00  0.93827000000E+00 0. -1.
     999902    2    1    2    0    0  0.49687908078E-02  0.77459513987E-02  0.21556993417E-01  0.10204908744E+01  0.10202216583E+01 0.  0.
     999903    2    3    3    0    0  0.12708416443E+00  0.13827957219E-01 -0.18724135313E-01  0.13112496283E+00  0.22395655466E-01 0.  0.
         14    1    1    2    0    0 -0.49687908078E-02 -0.77459513987E-02 -0.21556993417E-01  0.23439125631E-01  0.00000000000E+00 0. -1.
     999901    1    3    3    0    0 -0.12211537363E+00 -0.60820058202E-02  0.40281128730E-01  0.88936591154E+00  0.88000000000E+00 0.  1.
        -11    1    4    4    0    0  0.28931913649E-01  0.24925070045E-02  0.50984851122E-02  0.29487690482E-01  0.51100000000E-03 0. -1.
         11    1    4    4    0    0  0.98152250786E-01  0.11335450214E-01 -0.23822620425E-01  0.10163727235E+00  0.51100000000E-03 0.  1.
</event>
<event>
 8    1  0.1131349E+005  0.1043930E+01  0.7957747E-01            NaN
         13   -1    0    0    0    0  0.00000000000E+00  0.00000000000E+00  0.74505805969E-08  0.10566000000E+00  0.10566000000E+00 0. -1.
     999900   -1    0    0    0    0 -0.00000000000E+00 -0.00000000000E+00 -0.74505805969E-08  0.93827000000E+00  0.93827000000E+00 0.  1.
     999902    2    1    2    0    0  0.49074919702E-02 -0.15380391868E-01  0.84203271860E-02  0.10257217095E+01  0.10255600829E+01 0.  0.
     999903    2    3    3    0    0 -0.85663244057E-01  0.63237359498E-01 -0.77784953321E-01  0.13341281715E+00  0.20281168563E-01 0.  0.
         14    1    1    2    0    0 -0.49074919702E-02  0.15380391868E-01 -0.84203271860E-02  0.18208290457E-01  0.00000000000E+00 0.  1.
     999901    1    3    3    0    0  0.90570736027E-01 -0.78617751366E-01  0.86205280507E-01  0.89230889239E+00  0.88000000000E+00 0. -1.
        -11    1    4    4    0    0 -0.56991179960E-01  0.29788404406E-01 -0.47504132086E-01  0.79951531046E-01  0.51100000000E-03 0.  1.
         11    1    4    4    0    0 -0.28672064097E-01  0.33448955093E-01 -0.30280821235E-01  0.53461286105E-01  0.51100000000E-03 0. -1.
</event>
<event>
 8    1  0.1131349E+005  0.1043930E+01  0.7957747E-01            NaN
         13   -1    0    0    0    0  0.00000000000E+00  0.00000000000E+00  0.74505805969E-08  0.10566000000E+00  0.10566000000E+00 0. -1.
     999900   -1    0    0    0    0 -0.00000000000E+00 -0.00000000000E+00 -0.74505805969E-08  0.93827000000E+00  0.93827000000E+00 0. -1.
     999902    2    1    2    0    0  0.78134786534E-02  0.98090521730E-02  0.20263021211E-01  0.10201002291E+01  0.10198218567E+01 0.  0.
     999903    2    3    3    0    0 -0.63388893293E-02  0.12094316930E+00  0.49153366847E-01  0.13252728359E+00  0.21908804278E-01 0.  0.
         14    1    1    2    0    0 -0.78134786534E-02 -0.98090521730E-02 -0.20263021211E-01  0.23829770914E-01  0.00000000000E+00 0.  1.
     999901    1    3    3    0    0  0.14152367983E-01 -0.11113411713E+00 -0.28890345636E-01  0.88757294550E+00  0.88000000000E+00 0. -1.
        -11    1    4    4    0    0 -0.12886463573E-02  0.41547084189E-02  0.70063825067E-02  0.82627312863E-02  0.51100000000E-03 0.  1.
         11    1    4    4    0    0 -0.50502429721E-02  0.11678846088E+00  0.42146984340E-01  0.12426455230E+00  0.51100000000E-03 0. -1.
</event>
<event>
 8    1  0.1131349E+005  0.1043930E+01  0.7957747E-01            NaN
         13   -1    0    0    0    0  0.00000000000E+00  0.00000000000E+00  0.74505805969E-08  0.10566000000E+00  0.10566000000E+00 0.  1.
     999900   -1    0    0    0    0 -0.00000000000E+00 -0.00000000000E+00 -0.74505805969E-08  0.93827000000E+00  0.93827000000E+00 0. -1.
     999902    2    1    2    0    0  0.18130698249E-01 -0.39832398825E-02 -0.14754182176E-01  0.10202176760E+01  0.10199420729E+01 0.  0.
     999903    2    3    3    0    0 -0.97360637141E-01 -0.76802915020E-01 -0.31430183005E-01  0.12953308386E+00  0.20326878492E-01 0.  0.
         14    1    1    2    0    0 -0.18130698249E-01  0.39832398825E-02  0.14754182176E-01  0.23712324024E-01  0.00000000000E+00 0.  1.
     999901    1    3    3    0    0  0.11549133539E+00  0.72819675137E-01  0.16676000829E-01  0.89068459212E+00  0.88000000000E+00 0.  1.
        -11    1    4    4    0    0 -0.13631314140E-01 -0.11243287297E-01 -0.12165190162E-01  0.21458732654E-01  0.51100000000E-03 0. -1.
         11    1    4    4    0    0 -0.83729323001E-01 -0.65559627723E-01 -0.19264992843E-01  0.10807435120E+00  0.51100000000E-03 0.  1.
</event>
<event>
 8    1  0.1131349E+005  0.1043930E+01  0.7957747E-01            NaN
         13   -1    0    0    0    0  0.00000000000E+00  0.00000000000E+00  0.74505805969E-08  0.10566000000E+00  0.10566000000E+00 0.  1.
     999900   -1    0    0    0    0 -0.00000000000E+00 -0.00000000000E+00 -0.74505805969E-08  0.93827000000E+00  0.93827000000E+00 0.  1.
     999902    2    1    2    0    0  0.10660785561E-01  0.19515019794E-01 -0.60295741957E-02  0.10208899455E+01  0.10206299215E+01 0.  0.
     999903    2    3    3    0    0 -0.35379997429E-01  0.78043533500E-01  0.97756770021E-01  0.13166728168E+00  0.20912906054E-01 0.  0.
         14    1    1    2    0    0 -0.10660785561E-01 -0.19515019794E-01  0.60295741957E-02  0.23040054499E-01  0.00000000000E+00 0.  1.
     999901    1    3    3    0    0  0.46040782990E-01 -0.58528513706E-01 -0.10378634422E+00  0.88922266383E+00  0.88000000000E+00 0.  1.
        -11    1    4    4    0    0 -0.21078168980E-01  0.48164654451E-01  0.74521275485E-01  0.91201999796E-01  0.51100000000E-03 0.  1.
         11    1    4    4    0    0 -0.14301828450E-01  0.29878879049E-01  0.23235494536E-01  0.40465281879E-01  0.51100000000E-03 0. -1.
</event>
<event>
 8    1  0.1131349E+005  0.1043930E+01  0.7957747E-01            NaN
         13   -1    0    0    0    0  0.00000000000E+00  0.00000000000E+00  0.74505805969E-08  0.10566000000E+00  0.10566000000E+00 0. -1.
     999900   -1    0    0    0    0 -0.00000000000E+00 -0.00000000000E+00 -0.74505805969E-08  0.93827000000E+00  0.93827000000E+00 0.  1.
     999902    2    1    2    0    0  0.17724922777E-01  0.16081770908E-01  0.64396227310E-03  0.10199881761E+01  0.10197071484E+01 0.  0.
     999903    2    3    3    0    0 -0.33269425372E-01 -0.80678846481E-01 -0.91969481890E-01  0.12839393508E+00  0.20265390029E-01 0.  0.
         14    1    1    2    0    0 -0.17724922777E-01 -0.16081770908E-01 -0.64396227310E-03  0.23941823873E-01  0.00000000000E+00 0.  1.
     999901    1    3    3    0    0  0.50994348149E-01  0.96760617389E-01  0.92613444163E-01  0.89159424104E+00  0.88000000000E+00 0. -1.
        -11    1    4    4    0    0  0.43980703744E-03 -0.17470780345E-01 -0.13099508512E-01  0.21846735233E-01  0.51100000000E-03 0. -1.
         11    1    4    4    0    0 -0.33709232410E-01 -0.63208066136E-01 -0.78869973378E-01  0.10654719985E+00  0.51100000000E-03 0.  1.
</event>
<event>
 8    1  0.1131349E+005  0.1043930E+01  0.7957747E-01            NaN
         13   -1    0    0    0    0  0.00000000000E+00  0.00000000000E+00  0.74505805969E-08  0.10566000000E+00  0.10566000000E+00 0.  1.
     999900   -1    0    0    0    0 -0.00000000000E+00 -0.00000000000E+00 -0.74505805969E-08  0.93827000000E+00  0.93827000000E+00 0.  1.
     999902    2    1    2    0    0  0.15438676992E-01 -0.12867066993E-01 -0.13448407432E-01  0.10197479028E+01  0.10194611378E+01 0.  0.
     999903    2    3    3    0    0  0.67899843655E-01  0.34760650065E-02  0.10855654209E+00  0.12963303404E+00  0.19943141326E-01 0.  0.
         14    1    1    2    0    0 -0.15438676992E-01  0.12867066993E-01  0.13448407432E-01  0.24182097153E-01  0.00000000000E+00 0. -1.
     999901    1    3    3    0    0 -0.52461166663E-01 -0.16343132000E-01 -0.12200494952E+00  0.89011486881E+00  0.88000000000E+00 0.  1.
        -11    1    4    4    0    0  0.22011939050E-01 -0.38655896745E-02  0.21864472647E-01  0.31269546358E-01  0.51100000000E-03 0. -1.
         11    1    4    4    0    0  0.45887904605E-01  0.73416546810E-02  0.86692069445E-01  0.98363487677E-01  0.51100000000E-03 0.  1.
</event>
<event>
 8    1  0.1131349E+005  0.1043930E+01  0.7957747E-01            NaN
         13   -1    0    0    0    0  0.00000000000E+00  0.00000000000E+00  0.74505805969E-08  0.10566000000E+00  0.10566000000E+00 0.  1.
     999900   -1    0    0    0    0 -0.00000000000E+00 -0.00000000000E+00 -0.74505805969E-08  0.93827000000E+00  0.93827000000E+00 0.  1.
     999902    2    1    2    0    0  0.22882446688E-01 -0.11580912322E-01 -0.30445842308E-02  0.10181037848E+01  0.10177761656E+01 0.  0.
     999903    2    3    3    0    0 -0.94032877564E-01  0.44468375576E-01  0.67819844430E-01  0.12578518536E+00  0.20068957828E-01 0.  0.
         14    1    1    2    0    0 -0.22882446688E-01  0.11580912322E-01  0.30445842308E-02  0.25826215166E-01  0.00000000000E+00 0.  1.
     999901    1    3    3    0    0  0.11691532425E+00 -0.56049287898E-01 -0.70864428661E-01  0.89231859947E+00  0.88000000000E+00 0.  1.
        -11    1    4    4    0    0 -0.50483545445E-01  0.28843292569E-01  0.27104493314E-01  0.64151684044E-01  0.51100000000E-03 0.  1.
         11    1    4    4    0    0 -0.43549332119E-01  0.15625083007E-01  0.40715351115E-01  0.61633501316E-01  0.51100000000E-03 0. -1.
</event>
<event>
 8    1  0.1131349E+005  0.1043930E+01  0.7957747E-01            NaN
         13   -1    0    0    0    0  0.00000000000E+00  0.00000000000E+00  0.74505805969E-08  0.10566000000E+00  0.10566000000E+00 0. -1.
     999900   -1    0    0    0    0 -0.00000000000E+00 -0.00000000000E+00 -0.74505805969E-08  0.93827000000E+00  0.93827000000E+00 0.  1.
     999902    2    1    2    0    0  0.66079068992E-02 -0.21950994285E-01 -0.46122032100E-02  0.10205466084E+01  0.10202786859E+01 0.  0.
     999903    2    3    3    0    0 -0.88573530404E-01  0.86977583451E-01 -0.26263251161E-01  0.12847390458E+00  0.20134931933E-01 0.  0.
         14    1    1    2    0    0 -0.66079068992E-02  0.21950994285E-01  0.46122032100E-02  0.23383391587E-01  0.00000000000E+00 0. -1.
     999901    1    3    3    0    0  0.95181437303E-01 -0.10892857774E+00  0.21651047951E-01  0.89207270384E+00  0.88000000000E+00 0.  1.
        -11    1    4    4    0    0 -0.80231945586E-01  0.73444623691E-01 -0.17074110424E-01  0.11010478740E+00  0.51100000000E-03 0. -1.
         11    1    4    4    0    0 -0.83415848183E-02  0.13532959760E-01 -0.91891407362E-02  0.18369117171E-01  0.51100000000E-03 0.  1.
</event>
<event>
 8    1  0.1131349E+005  0.1043930E+01  0.7957747E-01            NaN
         13   -1    0    0    0    0  0.00000000000E+00  0.00000000000E+00  0.74505805969E-08  0.10566000000E+00  0.10566000000E+00 0.  1.
     999900   -1    0    0    0    0 -0.00000000000E+00 -0.00000000000E+00 -0.74505805969E-08  0.93827000000E+00  0.93827000000E+00 0. -1.
     999902    2    1    2    0    0 -0.67963553985E-02 -0.22059718101E-01 -0.41448330261E-02  0.10204778945E+01  0.10202083768E+01 0.  0.
     999903    2    3    3    0    0 -0.11926415616E+00  0.33137569292E-01  0.36850929873E-01  0.13065971125E+00  0.19797264201E-01 0.  0.
         14    1    1    2    0    0  0.67963553985E-02  0.22059718101E-01  0.41448330261E-02  0.23452105454E-01  0.00000000000E+00 0.  1.
     999901    1    3    3    0    0  0.11246780076E+00 -0.55197287393E-01 -0.40995762899E-01  0.88981818329E+00  0.88000000000E+00 0. -1.
        -11    1    4    4    0    0 -0.10398396955E+00  0.34495111456E-01  0.28578659607E-01  0.11322358210E+00  0.51100000000E-03 0.  1.
         11    1    4    4    0    0 -0.15280186606E-01 -0.13575421638E-02  0.82722702664E-02  0.17436129152E-01  0.51100000000E-03 0. -1.
</event>
<event>
 8    1  0.1131349E+005  0.1043930E+01  0.7957747E-01            NaN
         13   -1    0    0    0    0  0.00000000000E+00  0.00000000000E+00  0.74505805969E-08  0.10566000000E+00  0.10566000000E+00 0.  1.
     999900   -1    0    0    0    0 -0.00000000000E+00 -0.00000000000E+00 -0.74505805969E-08  0.93827000000E+00  0.93827000000E+00 0. -1.
     999902    2    1    2    0    0  0.89121368665E-02 -0.16537396910E-01  0.14353856427E-01  0.10202879850E+01  0.10200140329E+01 0.  0.
     999903    2    3    3    0    0 -0.22577566674E-01  0.11700596306E+00 -0.42669344061E-01  0.12783234136E+00  0.17896722226E-01 0.  0.
         14    1    1    2    0    0 -0.89121368665E-02  0.16537396910E-01 -0.14353856427E-01  0.23642015024E-01  0.00000000000E+00 0. -1.
     999901    1    3    3    0    0  0.31489703540E-01 -0.13354335997E+00  0.57023200488E-01  0.89245564361E+00  0.88000000000E+00 0. -1.
        -11    1    4    4    0    0  0.28564014741E-02  0.19312341852E-01 -0.77841814709E-02  0.21023324650E-01  0.51100000000E-03 0.  1.
         11    1    4    4    0    0 -0.25433968148E-01  0.97693621212E-01 -0.34885162590E-01  0.10680901671E+00  0.51100000000E-03 0. -1.
</event>
<event>
 8    1  0.1131349E+005  0.1043930E+01  0.7957747E-01            NaN
         13   -1    0    0    0    0  0.00000000000E+00  0.00000000000E+00  0.74505805969E-08  0.10566000000E+00  0.10566000000E+00 0.  1.
     999900   -1    0    0    0    0 -0.00000000000E+00 -0.00000000000E+00 -0.74505805969E-08  0.93827000000E+00  0.93827000000E+00 0. -1.
     999902    2    1    2    0    0  0.12455073367E-01  0.48592213798E-03  0.19552807140E-01  0.10207421316E+01  0.10204787220E+01 0.  0.
     999903    2    3    3    0    0  0.75915509888E-02 -0.77194989790E-01  0.10628027990E+00  0.13305996302E+00  0.19818117120E-01 0.  0.
         14    1    1    2    0    0 -0.12455073367E-01 -0.48592213798E-03 -0.19552807140E-01  0.23187868379E-01  0.00000000000E+00 0.  1.
     999901    1    3    3    0    0  0.48635223783E-02  0.77680911928E-01 -0.86727472765E-01  0.88768216861E+00  0.88000000000E+00 0. -1.
        -11    1    4    4    0    0  0.12387323562E-02 -0.49598132320E-01  0.52239548664E-01  0.72046795579E-01  0.51100000000E-03 0. -1.
         11    1    4    4    0    0  0.63528186326E-02 -0.27596857470E-01  0.54040731240E-01  0.61013167437E-01  0.51100000000E-03 0.  1.
</event>
<event>
 8    1  0.1131349E+005  0.1043930E+01  0.7957747E-01            NaN
         13   -1    0    0    0    0  0.00000000000E+00  0.00000000000E+00  0.74505805969E-08  0.10566000000E+00  0.10566000000E+00 0. -1.
     999900   -1    0    0    0    0 -0.00000000000E+00 -0.00000000000E+00 -0.74505805969E-08  0.93827000000E+00  0.93827000000E+00 0. -1.
     999902    2    1    2    0    0 -0.22213158168E-01  0.30143717611E-03  0.78399643949E-02  0.10203719801E+01  0.10200999939E+01 0.  0.
     999903    2    3    3    0    0  0.12476047161E+00 -0.19298460696E-01 -0.17282950477E-02  0.12791640393E+00  0.20542967861E-01 0.  0.
         14    1    1    2    0    0  0.22213158168E-01 -0.30143717611E-03 -0.78399643949E-02  0.23558019905E-01  0.00000000000E+00 0.  1.
     999901    1    3    3    0    0 -0.14697362978E+00  0.19599897872E-01  0.95682594426E-02  0.89245557617E+00  0.88000000000E+00 0. -1.
        -11    1    4    4    0    0  0.34740871001E-01  0.37370681336E-02  0.91871678956E-03  0.34957101678E-01  0.51100000000E-03 0.  1.
         11    1    4    4    0    0  0.90019600606E-01 -0.23035528829E-01 -0.26470118372E-02  0.92959302248E-01  0.51100000000E-03 0. -1.
</event>
<event>
 8    1  0.1131349E+005  0.1043930E+01  0.7957747E-01            NaN
         13   -1    0    0    0    0  0.00000000000E+00  0.00000000000E+00  0.74505805969E-08  0.10566000000E+00  0.10566000000E+00 0. -1.
     999900   -1    0    0    0    0 -0.00000000000E+00 -0.00000000000E+00 -0.74505805969E-08  0.93827000000E+00  0.93827000000E+00 0.  1.
     999902    2    1    2    0    0  0.18976320467E-01  0.13172799460E-01 -0.68417749226E-02  0.10198378173E+01  0.10195532062E+01 0.  0.
     999903    2    3    3    0    0 -0.12011211441E+00 -0.35189598859E-01 -0.14063797296E-01  0.12757290600E+00  0.20293547180E-01 0.  0.
         14    1    1    2    0    0 -0.18976320467E-01 -0.13172799460E-01  0.68417749226E-02  0.24092182720E-01  0.00000000000E+00 0. -1.
     999901    1    3    3    0    0  0.13908843487E+00  0.48362398320E-01  0.72220223734E-02  0.89226491128E+00  0.88000000000E+00 0.  1.
        -11    1    4    4    0    0 -0.82821489789E-01 -0.16959039036E-01 -0.29213243012E-02  0.84591982082E-01  0.51100000000E-03 0. -1.
         11    1    4    4    0    0 -0.37290624617E-01 -0.18230559824E-01 -0.11142472995E-01  0.42980923923E-01  0.51100000000E-03 0.  1.
</event>
<event>
 8    1  0.1131349E+005  0.1043930E+01  0.7957747E-01            NaN
         13   -1    0    0    0    0  0.00000000000E+00  0.00000000000E+00  0.74505805969E-08  0.10566000000E+00  0.10566000000E+00 0. -1.
     999900   -1    0    0    0    0 -0.00000000000E+00 -0.00000000000E+00 -0.74505805969E-08  0.93827000000E+00  0.93827000000E+00 0.  1.
     999902    2    1    2    0    0  0.45902469394E-02  0.26076197112E-01  0.23296802178E-02  0.10173505750E+01  0.10170033071E+01 0.  0.
     999903    2    3    3    0    0 -0.99502856416E-02 -0.11902768486E+00 -0.29685898113E-01  0.12477477380E+00  0.20515693591E-01 0.  0.
         14    1    1    2    0    0 -0.45902469394E-02 -0.26076197112E-01 -0.23296802178E-02  0.26579424988E-01  0.00000000000E+00 0.  1.
     999901    1    3    3    0    0  0.14540532581E-01  0.14510388197E+00  0.32015578330E-01  0.89257580121E+00  0.88000000000E+00 0. -1.
        -11    1    4    4    0    0 -0.94392464872E-02 -0.59399810904E-01 -0.54083988048E-02  0.60389972747E-01  0.51100000000E-03 0. -1.
         11    1    4    4    0    0 -0.51103915437E-03 -0.59627873954E-01 -0.24277499308E-01  0.64384801055E-01  0.51100000000E-03 0.  1.
</event>
<event>
 8    1  0.1131349E+005  0.1043930E+01  0.7957747E-01            NaN
         13   -1    0    0    0    0  0.00000000000E+00  0.00000000000E+00  0.74505805969E-08  0.10566000000E+00  0.10566000000E+00 0.  1.
     999900   -1    0    0    0    0 -0.00000000000E+00 -0.00000000000E+00 -0.74505805969E-08  0.93827000000E+00  0.93827000000E+00 0. -1.
     999902    2    1    2    0    0 -0.72917761411E-02  0.69312321100E-02  0.20558899867E-01  0.10210415675E+01  0.10207849932E+01 0.  0.
     999903    2    3    3    0    0  0.24542474886E-01 -0.59120515498E-01 -0.10970659831E+00  0.12843563379E+00  0.19042213314E-01 0.  0.
         14    1    1    2    0    0  0.72917761411E-02 -0.69312321100E-02 -0.20558899867E-01  0.22888432484E-01  0.00000000000E+00 0. -1.
     999901    1    3    3    0    0 -0.31834251027E-01  0.66051747608E-01  0.13026549818E+00  0.89260593372E+00  0.88000000000E+00 0.  1.
        -11    1    4    4    0    0 -0.88703407697E-03 -0.20132157641E-01 -0.30401599700E-01  0.36477513430E-01  0.51100000000E-03 0. -1.
         11    1    4    4    0    0  0.25429508963E-01 -0.38988357857E-01 -0.79304998614E-01  0.91958120363E-01  0.51100000000E-03 0.  1.
</event>
<event>
 8    1  0.1131349E+005  0.1043930E+01  0.7957747E-01            NaN
         13   -1    0    0    0    0  0.00000000000E+00  0.00000000000E+00  0.74505805969E-08  0.10566000000E+00  0.10566000000E+00 0.  1.
     999900   -1    0    0    0    0 -0.00000000000E+00 -0.00000000000E+00 -0.74505805969E-08  0.93827000000E+00  0.93827000000E+00 0.  1.
     999902    2    1    2    0    0 -0.10785348734E-01 -0.19976055672E-01  0.78828025689E-02  0.10198986637E+01  0.10196155055E+01 0.  0.
     999903    2    3    3    0    0 -0.74122835528E-02 -0.87599059411E-01  0.97447368049E-01  0.13276504379E+00  0.20050689659E-01 0.  0.
         14    1    1    2    0    0  0.10785348734E-01  0.19976055672E-01 -0.78828025689E-02  0.24031336290E-01  0.00000000000E+00 0.  1.
     999901    1    3    3    0    0 -0.33730651815E-02  0.67623003739E-01 -0.89564565480E-01  0.88713361992E+00  0.88000000000E+00 0.  1.
        -11    1    4    4    0    0  0.38211702368E-02 -0.32259786386E-01  0.46387982541E-01  0.56633922740E-01  0.51100000000E-03 0. -1.
         11    1    4    4    0    0 -0.11233453790E-01 -0.55339273024E-01  0.51059385508E-01  0.76131121050E-01  0.51100000000E-03 0.  1.
</event>
<event>
 8    1  0.1131349E+005  0.1043930E+01  0.7957747E-01            NaN
         13   -1    0    0    0    0  0.00000000000E+00  0.00000000000E+00  0.74505805969E-08  0.10566000000E+00  0.10566000000E+00 0. -1.
     999900   -1    0    0    0    0 -0.00000000000E+00 -0.00000000000E+00 -0.74505805969E-08  0.93827000000E+00  0.93827000000E+00 0. -1.
     999902    2    1    2    0    0  0.17136319641E-01 -0.15662999725E-01 -0.58045366904E-02  0.10199993574E+01  0.10197185952E+01 0.  0.
     999903    2    3    3    0    0 -0.82655268238E-01 -0.41980010697E-01 -0.89235134654E-01  0.13004901562E+00  0.18857956976E-01 0.  0.
         14    1    1    2    0    0 -0.17136319641E-01  0.15662999725E-01  0.58045366904E-02  0.23930642645E-01  0.00000000000E+00 0. -1.
     999901    1    3    3    0    0  0.99791587880E-01  0.26317010973E-01  0.83430597963E-01  0.88995034174E+00  0.88000000000E+00 0.  1.
        -11    1    4    4    0    0 -0.37349301446E-01 -0.13548173222E-01 -0.49168031929E-01  0.63216135606E-01  0.51100000000E-03 0.  1.
         11    1    4    4    0    0 -0.45305966792E-01 -0.28431837476E-01 -0.40067102725E-01  0.66832880014E-01  0.51100000000E-03 0. -1.
</event>
<event>
 8    1  0.1131349E+005  0.1043930E+01  0.7957747E-01            NaN
         13   -1    0    0    0    0  0.00000000000E+00  0.00000000000E+00  0.74505805969E-08  0.10566000000E+00  0.10566000000E+00 0. -1.
     999900   -1    0    0    0    0 -0.00000000000E+00 -0.00000000000E+00 -0.74505805969E-08  0.93827000000E+00  0.93827000000E+00 0.  1.
     999902    2    1    2    0    0 -0.16492616847E-01 -0.79628924819E-02 -0.11158261219E-01  0.10224842344E+01  0.10222593061E+01 0.  0.
     999903    2    3    3    0    0 -0.63780267629E-01 -0.83481380893E-01  0.79827994003E-01  0.13331739821E+00  0.19077645137E-01 0.  0.
         14    1    1    2    0    0  0.16492616847E-01  0.79628924819E-02  0.11158261219E-01  0.21445765563E-01  0.00000000000E+00 0.  1.
     999901    1    3    3    0    0  0.47287650782E-01  0.75518488411E-01 -0.90986255223E-01  0.88916683623E+00  0.88000000000E+00 0.  1.
        -11    1    4    4    0    0 -0.13550578662E-01 -0.26179083386E-01  0.14083823054E-01  0.32673808805E-01  0.51100000000E-03 0.  1.
         11    1    4    4    0    0 -0.50229688967E-01 -0.57302297507E-01  0.65744170949E-01  0.10064358940E+00  0.51100000000E-03 0. -1.
</event>
<event>
 8    1  0.1131349E+005  0.1043930E+01  0.7957747E-01            NaN
         13   -1    0    0    0    0  0.00000000000E+00  0.00000000000E+00  0.74505805969E-08  0.10566000000E+00  0.10566000000E+00 0.  1.
     999900   -1    0    0    0    0 -0.00000000000E+00 -0.00000000000E+00 -0.74505805969E-08  0.93827000000E+00  0.93827000000E+00 0.  1.
     999902    2    1    2    0    0 -0.27320092296E-02  0.23151028666E-01 -0.39380339671E-02  0.10202880434E+01  0.10200140927E+01 0.  0.
     999903    2    3    3    0    0  0.98339656777E-01 -0.74004111113E-01 -0.32448682853E-01  0.12873464621E+00  0.19297553183E-01 0.  0.
         14    1    1    2    0    0  0.27320092296E-02 -0.23151028666E-01  0.39380339671E-02  0.23641956650E-01  0.00000000000E+00 0. -1.
     999901    1    3    3    0    0 -0.10107166601E+00  0.97155139779E-01  0.28510648886E-01  0.89155339714E+00  0.88000000000E+00 0. -1.
        -11    1    4    4    0    0  0.23885628161E-01 -0.14375701890E-01  0.28671571846E-03  0.27884177671E-01  0.51100000000E-03 0. -1.
         11    1    4    4    0    0  0.74454028616E-01 -0.59628409223E-01 -0.32735398572E-01  0.10085046854E+00  0.51100000000E-03 0.  1.
</event>
<event>
 8    1  0.1131349E+005  0.1043930E+01  0.7957747E-01            NaN
         13   -1    0    0    0    0  0.00000000000E+00  0.00000000000E+00  0.74505805969E-08  0.10566000000E+00  0.10566000000E+00 0. -1.
     999900   -1    0    0    0    0 -0.00000000000E+00 -0.00000000000E+00 -0.74505805969E-08  0.93827000000E+00  0.93827000000E+00 0. -1.
     999902    2    1    2    0    0  0.22885004342E-01 -0.63274502036E-02 -0.10170788800E-01  0.10180996885E+01  0.10177719640E+01 0.  0.
     999903    2    3    3    0    0  0.38946984614E-02 -0.14424737954E-01  0.12512779758E+00  0.12752015508E+00  0.19523895163E-01 0.  0.
         14    1    1    2    0    0 -0.22885004342E-01  0.63274502036E-02  0.10170788800E-01  0.25830311548E-01  0.00000000000E+00 0. -1.
     999901    1    3    3    0    0  0.18990305881E-01  0.80972877506E-02 -0.13529858638E+00  0.89057953337E+00  0.88000000000E+00 0. -1.
        -11    1    4    4    0    0  0.10748414964E-01 -0.10827280737E-01  0.10175586908E+00  0.10289449181E+00  0.51100000000E-03 0. -1.
         11    1    4    4    0    0 -0.68537165024E-02 -0.35974572171E-02  0.23371928504E-01  0.24625663267E-01  0.51100000000E-03 0.  1.
</event>
<event>
 8    1  0.1131349E+005  0.1043930E+01  0.7957747E-01            NaN
         13   -1    0    0    0    0  0.00000000000E+00  0.00000000000E+00  0.74505805969E-08  0.10566000000E+00  0.10566000000E+00 0.  1.
     999900   -1    0    0    0    0 -0.00000000000E+00 -0.00000000000E+00 -0.74505805969E-08  0.93827000000E+00  0.93827000000E+00 0.  1.
     999902    2    1    2    0    0 -0.43332900577E-03  0.50488858482E-02  0.22589389674E-01  0.10207791998E+01  0.10205166413E+01 0.  0.
     999903    2    3    3    0    0  0.25436860150E-01 -0.10351777461E+00 -0.69715486421E-01  0.12894055042E+00  0.20061230801E-01 0.  0.
         14    1    1    2    0    0  0.43332900577E-03 -0.50488858482E-02 -0.22589389674E-01  0.23150800163E-01  0.00000000000E+00 0. -1.
     999901    1    3    3    0    0 -0.25870189156E-01  0.10856666045E+00  0.92304876095E-01  0.89183864942E+00  0.88000000000E+00 0. -1.
        -11    1    4    4    0    0  0.21031223169E-01 -0.47672880579E-01 -0.38697523102E-01  0.64905895771E-01  0.51100000000E-03 0.  1.
         11    1    4    4    0    0  0.44056369807E-02 -0.55844894027E-01 -0.31017963319E-01  0.64034654645E-01  0.51100000000E-03 0. -1.
</event>
<event>
 8    1  0.1131349E+005  0.1043930E+01  0.7957747E-01            NaN
         13   -1    0    0    0    0  0.00000000000E+00  0.00000000000E+00  0.74505805969E-08  0.10566000000E+00  0.10566000000E+00 0. -1.
     999900   -1    0    0    0    0 -0.00000000000E+00 -0.00000000000E+00 -0.74505805969E-08  0.93827000000E+00  0.93827000000E+00 0.  1.
     999902    2    1    2    0    0 -0.32092688702E-02  0.18175475694E-01  0.15220770776E-01  0.10200068065E+01  0.10197262212E+01 0.  0.
     999903    2    3    3    0    0 -0.71347417062E-01  0.10742859821E+00  0.24034595244E-01  0.13282778816E+00  0.20837511916E-01 0.  0.
         14    1    1    2    0    0  0.32092688702E-02 -0.18175475694E-01 -0.15220770776E-01  0.23923193482E-01  0.00000000000E+00 0.  1.
     999901    1    3    3    0    0  0.68138148192E-01 -0.89253122518E-01 -0.88138244683E-02  0.88717901836E+00  0.88000000000E+00 0.  1.
        -11    1    4    4    0    0 -0.40425785828E-01  0.75425574102E-01  0.21578112762E-01  0.88256090214E-01  0.51100000000E-03 0.  1.
         11    1    4    4    0    0 -0.30921631234E-01  0.32003024110E-01  0.24564824826E-02  0.44571697943E-01  0.51100000000E-03 0. -1.
</event>
<event>
 8    1  0.1131349E+005  0.1043930E+01  0.7957747E-01            NaN
         13   -1    0    0    0    0  0.00000000000E+00  0.00000000000E+00  0.74505805969E-08  0.10566000000E+00  0.10566000000E+00 0. -1.
     999900   -1    0    0    0    0 -0.00000000000E+00 -0.00000000000E+00 -0.74505805969E-08  0.93827000000E+00  0.93827000000E+00 0.  1.
     999902    2    1    2    0    0  0.11305849740E-01  0.19717147198E-01 -0.63783842147E-02  0.10203233925E+01  0.10200502700E+01 0.  0.
     999903    2    3    3    0    0 -0.50602768738E-01  0.39220067335E-01  0.11155945333E+00  0.13008613511E+00  0.19443174492E-01 0.  0.
         14    1    1    2    0    0 -0.11305849740E-01 -0.19717147198E-01  0.63783842147E-02  0.23606607489E-01  0.00000000000E+00 0. -1.
     999901    1    3    3    0    0  0.61908618478E-01 -0.19502920138E-01 -0.11793783755E+00  0.89023725740E+00  0.88000000000E+00 0.  1.
        -11    1    4    4    0    0 -0.21472151543E-01  0.28867970399E-01  0.58970233482E-01  0.69080840794E-01  0.51100000000E-03 0.  1.
         11    1    4    4    0    0 -0.29130617195E-01  0.10352096936E-01  0.52589219852E-01  0.61005294318E-01  0.51100000000E-03 0. -1.
</event>
<event>
 8    1  0.1131349E+005  0.1043930E+01  0.7957747E-01            NaN
         13   -1    0    0    0    0  0.00000000000E+00  0.00000000000E+00  0.74505805969E-08  0.10566000000E+00  0.10566000000E+00 0.  1.
     999900   -1    0    0    0    0 -0.00000000000E+00 -0.00000000000E+00 -0.74505805969E-08  0.93827000000E+00  0.93827000000E+00 0.  1.
     999902    2    1    2    0    0  0.14341123974E-01  0.14961010075E-01  0.11539814169E-01  0.10202093978E+01  0.10199336000E+01 0.  0.
     999903    2    3    3    0    0  0.10314418334E+00 -0.19698341193E-01  0.77240688496E-01  0.13262624173E+00  0.24430489863E-01 0.  0.
         14    1    1    2    0    0 -0.14341123974E-01 -0.14961010075E-01 -0.11539814169E-01  0.23720602234E-01  0.00000000000E+00 0.  1.
     999901    1    3    3    0    0 -0.88803059364E-01  0.34659351268E-01 -0.65700874327E-01  0.88758315603E+00  0.88000000000E+00 0. -1.
        -11    1    4    4    0    0  0.63281045232E-01 -0.19486128730E-01  0.36432372249E-01  0.75576310887E-01  0.51100000000E-03 0.  1.
         11    1    4    4    0    0  0.39863138107E-01 -0.21221246334E-03  0.40808316247E-01  0.57049930848E-01  0.51100000000E-03 0. -1.
</event>
<event>
 8    1  0.1131349E+005  0.1043930E+01  0.7957747E-01            NaN
         13   -1    0    0    0    0  0.00000000000E+00  0.00000000000E+00  0.74505805969E-08  0.10566000000E+00  0.10566000000E+00 0. -1.
     999900   -1    0    0    0    0 -0.00000000000E+00 -0.00000000000E+00 -0.74505805969E-08  0.93827000000E+00  0.93827000000E+00 0.  1.
     999902    2    1    2    0    0 -0.67290828308E-02  0.22420575049E-01 -0.15638914376E-02  0.10204692136E+01  0.10201994939E+01 0.  0.
     999903    2    3    3    0    0  0.60181398369E-01 -0.10137852117E+00 -0.46253853255E-01  0.12816857963E+00  0.19706866847E-01 0.  0.
         14    1    1    2    0    0  0.67290828308E-02 -0.22420575049E-01  0.15638914376E-02  0.23460786383E-01  0.00000000000E+00 0.  1.
     999901    1    3    3    0    0 -0.66910481200E-01  0.12379909622E+00  0.44689961818E-01  0.89230063398E+00  0.88000000000E+00 0.  1.
        -11    1    4    4    0    0  0.19797406327E-01 -0.52098200412E-01 -0.19236695834E-01  0.58961609298E-01  0.51100000000E-03 0. -1.
         11    1    4    4    0    0  0.40383992043E-01 -0.49280320754E-01 -0.27017157421E-01  0.69206970336E-01  0.51100000000E-03 0.  1.
</event>
<event>
 8    1  0.1131349E+005  0.1043930E+01  0.7957747E-01            NaN
         13   -1    0    0    0    0  0.00000000000E+00  0.00000000000E+00  0.74505805969E-08  0.10566000000E+00  0.10566000000E+00 0.  1.
     999900   -1    0    0    0    0 -0.00000000000E+00 -0.00000000000E+00 -0.74505805969E-08  0.93827000000E+00  0.93827000000E+00 0.  1.
     999902    2    1    2    0    0  0.20937395377E-01 -0.55470435440E-02  0.10149177772E-01  0.10200103423E+01  0.10197298408E+01 0.  0.
     999903    2    3    3    0    0  0.34486662483E-01 -0.87090162169E-02 -0.12321461579E+00  0.12985334366E+00  0.20368418261E-01 0.  0.
         14    1    1    2    0    0 -0.20937395377E-01  0.55470435440E-02 -0.10149177772E-01  0.23919657746E-01  0.00000000000E+00 0.  1.
     999901    1    3    3    0    0 -0.13549267106E-01  0.31619726730E-02  0.13336379356E+00  0.89015699859E+00  0.88000000000E+00 0. -1.
        -11    1    4    4    0    0  0.11246491179E-01 -0.98152042789E-02 -0.72941653260E-01  0.74455138844E-01  0.51100000000E-03 0.  1.
         11    1    4    4    0    0  0.23240171304E-01  0.11061880619E-02 -0.50272962532E-01  0.55398204817E-01  0.51100000000E-03 0. -1.
</event>
<event>
 8    1  0.1131349E+005  0.1043930E+01  0.7957747E-01            NaN
         13   -1    0    0    0    0  0.00000000000E+00  0.00000000000E+00  0.74505805969E-08  0.10566000000E+00  0.10566000000E+00 0. -1.
     999900   -1    0    0    0    0 -0.00000000000E+00 -0.00000000000E+00 -0.74505805969E-08  0.93827000000E+00  0.93827000000E+00 0. -1.
     999902    2    1    2    0    0 -0.69299960611E-02 -0.20357664271E-01  0.39484984848E-03  0.10224215076E+01  0.10221952474E+01 0.  0.
     999903    2    3    3    0    0 -0.90117262704E-01 -0.43098910376E-01  0.86944698519E-01  0.13398008468E+00  0.20313674663E-01 0.  0.
         14    1    1    2    0    0  0.69299960611E-02  0.20357664271E-01 -0.39484984848E-03  0.21508492425E-01  0.00000000000E+00 0. -1.
     999901    1    3    3    0    0  0.83187266643E-01  0.22741246105E-01 -0.86549848670E-01  0.88844142289E+00  0.88000000000E+00 0. -1.
        -11    1    4    4    0    0 -0.29692472025E-01 -0.22219006370E-01  0.23483085018E-01  0.43898104082E-01  0.51100000000E-03 0.  1.
         11    1    4    4    0    0 -0.60424790679E-01 -0.20879904006E-01  0.63461613501E-01  0.90081980601E-01  0.51100000000E-03 0. -1.
</event>
<event>
 8    1  0.1131349E+005  0.1043930E+01  0.7957747E-01            NaN
         13   -1    0    0    0    0  0.00000000000E+00  0.00000000000E+00  0.74505805969E-08  0.10566000000E+00  0.10566000000E+00 0. -1.
     999900   -1    0    0    0    0 -0.00000000000E+00 -0.00000000000E+00 -0.74505805969E-08  0.93827000000E+00  0.93827000000E+00 0. -1.
     999902    2    1    2    0    0 -0.17511603239E-02 -0.19653525654E-01  0.13380180246E-01  0.10200897639E+01  0.10198111441E+01 0.  0.
     999903    2    3    3    0    0 -0.33803342352E-01 -0.63852916539E-01  0.10997198081E+00  0.13312251285E+00  0.20196681879E-01 0.  0.
         14    1    1    2    0    0  0.17511603239E-02  0.19653525654E-01 -0.13380180246E-01  0.23840236084E-01  0.00000000000E+00 0.  1.
     999901    1    3    3    0    0  0.32052182028E-01  0.44199390884E-01 -0.96591800566E-01  0.88696725107E+00  0.88000000000E+00 0. -1.
        -11    1    4    4    0    0 -0.14578378062E-01 -0.20145251190E-01  0.54639876128E-01  0.60034468738E-01  0.51100000000E-03 0. -1.
         11    1    4    4    0    0 -0.19224964290E-01 -0.43707665349E-01  0.55332104685E-01  0.73088044112E-01  0.51100000000E-03 0.  1.
</event>
<event>
 8    1  0.1131349E+005  0.1043930E+01  0.7957747E-01            NaN
         13   -1    0    0    0    0  0.00000000000E+00  0.00000000000E+00  0.74505805969E-08  0.10566000000E+00  0.10566000000E+00 0.  1.
     999900   -1    0    0    0    0 -0.00000000000E+00 -0.00000000000E+00 -0.74505805969E-08  0.93827000000E+00  0.93827000000E+00 0. -1.
     999902    2    1    2    0    0 -0.18003316280E-01  0.10037733685E-01  0.58275386561E-02  0.10225095495E+01  0.10222851574E+01 0.  0.
     999903    2    3    3    0    0 -0.10099347379E+00  0.32287898617E-01 -0.79647249939E-01  0.13420308457E+00  0.20605662805E-01 0.  0.
         14    1    1    2    0    0  0.18003316280E-01 -0.10037733685E-01 -0.58275386561E-02  0.21420450542E-01  0.00000000000E+00 0. -1.
     999901    1    3    3    0    0  0.82990157508E-01 -0.22250164932E-01  0.85474788595E-01  0.88830646489E+00  0.88000000000E+00 0.  1.
        -11    1    4    4    0    0 -0.45777230654E-01  0.19748681548E-01 -0.48597700526E-01  0.69624441733E-01  0.51100000000E-03 0.  1.
         11    1    4    4    0    0 -0.55216243134E-01  0.12539217069E-01 -0.31049549413E-01  0.64578642834E-01  0.51100000000E-03 0. -1.
</event>
<event>
 8    1  0.1131349E+005  0.1043930E+01  0.7957747E-01            NaN
         13   -1    0    0    0    0  0.00000000000E+00  0.00000000000E+00  0.74505805969E-08  0.10566000000E+00  0.10566000000E+00 0.  1.
     999900   -1    0    0    0    0 -0.00000000000E+00 -0.00000000000E+00 -0.74505805969E-08  0.93827000000E+00  0.93827000000E+00 0.  1.
     999902    2    1    2    0    0  0.14812841951E-01  0.89713858093E-02 -0.15727738671E-01  0.10205362441E+01  0.10202680813E+01 0.  0.
     999903    2    3    3    0    0  0.10216879252E+00 -0.77533938454E-01 -0.23695461426E-01  0.13195438643E+00  0.20012781621E-01 0.  0.
         14    1    1    2    0    0 -0.14812841951E-01 -0.89713858093E-02  0.15727738671E-01  0.23393755870E-01  0.00000000000E+00 0.  1.
     999901    1    3    3    0    0 -0.87355950572E-01  0.86505324263E-01  0.79677227548E-02  0.88858185770E+00  0.88000000000E+00 0. -1.
        -11    1    4    4    0    0  0.30419722203E-01 -0.21362391160E-01  0.21493721391E-02  0.37236973246E-01  0.51100000000E-03 0.  1.
         11    1    4    4    0    0  0.71749070321E-01 -0.56171547294E-01 -0.25844833565E-01  0.94717413184E-01  0.51100000000E-03 0. -1.
</event>
<event>
 8    1  0.1131349E+005  0.1043930E+01  0.7957747E-01            NaN
         13   -1    0    0    0    0  0.00000000000E+00  0.00000000000E+00  0.74505805969E-08  0.10566000000E+00  0.10566000000E+00 0.  1.
     999900   -1    0    0    0    0 -0.00000000000E+00 -0.00000000000E+00 -0.74505805969E-08  0.93827000000E+00  0.93827000000E+00 0. -1.
     999902    2    1    2    0    0  0.13240271057E-01 -0.10800463210E-01 -0.16180172851E-01  0.10203980477E+01  0.10201266701E+01 0.  0.
     999903    2    3    3    0    0 -0.80544717073E-01  0.96448345726E-01  0.16766475432E-01  0.12833111492E+00  0.19950576841E-01 0.  0.
         14    1    1    2    0    0 -0.13240271057E-01  0.10800463210E-01  0.16180172851E-01  0.23531952251E-01  0.00000000000E+00 0.  1.
     999901    1    3    3    0    0  0.93784988130E-01 -0.10724880894E+00 -0.32946648283E-01  0.89206693283E+00  0.88000000000E+00 0.  1.
        -11    1    4    4    0    0 -0.23666596475E-01  0.42192793079E-01  0.25334991248E-02  0.48446045404E-01  0.51100000000E-03 0. -1.
         11    1    4    4    0    0 -0.56878120598E-01  0.54255552647E-01  0.14232976307E-01  0.79885069514E-01  0.51100000000E-03 0.  1.
</event>
<event>
 8    1  0.1131349E+005  0.1043930E+01  0.7957747E-01            NaN
         13   -1    0    0    0    0  0.00000000000E+00  0.00000000000E+00  0.74505805969E-08  0.10566000000E+00  0.10566000000E+00 0. -1.
     999900   -1    0    0    0    0 -0.00000000000E+00 -0.00000000000E+00 -0.74505805969E-08  0.93827000000E+00  0.93827000000E+00 0.  1.
     999902    2    1    2    0    0 -0.12568983710E-01 -0.19139045751E-01  0.19306490655E-02  0.10209515355E+01  0.10206929157E+01 0.  0.
     999903    2    3    3    0    0 -0.42803501741E-01 -0.50437606840E-01 -0.11297942350E+00  0.13241450716E+00  0.19828253200E-01 0.  0.
         14    1    1    2    0    0  0.12568983710E-01  0.19139045751E-01 -0.19306490655E-02  0.22978464474E-01  0.00000000000E+00 0.  1.
     999901    1    3    3    0    0  0.30234518031E-01  0.31298561089E-01  0.11491007257E+00  0.88853702837E+00  0.88000000000E+00 0. -1.
        -11    1    4    4    0    0 -0.24104834362E-01 -0.23011156466E-01 -0.38826953608E-01  0.51169813455E-01  0.51100000000E-03 0.  1.
         11    1    4    4    0    0 -0.18698667379E-01 -0.27426450374E-01 -0.74152469896E-01  0.81244693701E-01  0.51100000000E-03 0. -1.
</event>
<event>
 8    1  0.1131349E+005  0.1043930E+01  0.7957747E-01            NaN
         13   -1    0    0    0    0  0.00000000000E+00  0.00000000000E+00  0.74505805969E-08  0.10566000000E+00  0.10566000000E+00 0.  1.
     999900   -1    0    0    0    0 -0.00000000000E+00 -0.00000000000E+00 -0.74505805969E-08  0.93827000000E+00  0.93827000000E+00 0. -1.
     999902    2    1    2    0    0  0.13108440824E-01  0.18869036609E-01  0.11341487151E-01  0.10183077227E+01  0.10179853226E+01 0.  0.
     999903    2    3    3    0    0 -0.59919318304E-01  0.10469936699E+00 -0.43285825242E-01  0.12944100464E+00  0.18139152683E-01 0.  0.
         14    1    1    2    0    0 -0.13108440824E-01 -0.18869036609E-01 -0.11341487151E-01  0.25622277303E-01  0.00000000000E+00 0. -1.
     999901    1    3    3    0    0  0.73027759128E-01 -0.85830330382E-01  0.54627312393E-01  0.88886671806E+00  0.88000000000E+00 0. -1.
        -11    1    4    4    0    0 -0.57351260567E-02  0.13348388160E-01 -0.11612692922E-01  0.18606098335E-01  0.51100000000E-03 0.  1.
         11    1    4    4    0    0 -0.54184192248E-01  0.91350978831E-01 -0.31673132321E-01  0.11083490630E+00  0.51100000000E-03 0. -1.
</event>
<event>
 8    1  0.1131349E+005  0.1043930E+01  0.7957747E-01            NaN
         13   -1    0    0    0    0  0.00000000000E+00  0.00000000000E+00  0.74505805969E-08  0.10566000000E+00  0.10566000000E+00 0. -1.
     999900   -1    0    0    0    0 -0.00000000000E+00 -0.00000000000E+00 -0.74505805969E-08  0.93827000000E+00  0.93827000000E+00 0. -1.
     999902    2    1    2    0    0  0.63525985522E-02 -0.21499145327E-01 -0.67130601646E-02  0.10205284202E+01  0.10202600760E+01 0.  0.
     999903    2    3    3    0    0  0.12612165980E+00 -0.31466881880E-01 -0.14276261509E-01  0.13232732488E+00  0.20245284419E-01 0.  0.
         14    1    1    2    0    0 -0.63525985522E-02  0.21499145327E-01  0.67130601646E-02  0.23401579753E-01  0.00000000000E+00 0. -1.
     999901    1    3    3    0    0 -0.11976906124E+00  0.99677365527E-02  0.75632013443E-02  0.88820109537E+00  0.88000000000E+00 0.  1.
        -11    1    4    4    0    0  0.74367014831E-02  0.22822604327E-02 -0.32444078677E-02  0.84439650073E-02  0.51100000000E-03 0.  1.
         11    1    4    4    0    0  0.11868495831E+00 -0.33749142313E-01 -0.11031853641E-01  0.12388335987E+00  0.51100000000E-03 0. -1.
</event>
<event>
 8    1  0.1131349E+005  0.1043930E+01  0.7957747E-01            NaN
         13   -1    0    0    0    0  0.00000000000E+00  0.00000000000E+00  0.74505805969E-08  0.10566000000E+00  0.10566000000E+00 0.  1.
     999900   -1    0    0    0    0 -0.00000000000E+00 -0.00000000000E+00 -0.74505805969E-08  0.93827000000E+00  0.93827000000E+00 0. -1.
     999902    2    1    2    0    0 -0.21236786642E-01 -0.22087074557E-03  0.11147992379E-01  0.10199440119E+01  0.10196619341E+01 0.  0.
     999903    2    3    3    0    0 -0.23436492815E-01 -0.84447274260E-01 -0.93526663596E-01  0.12974419762E+00  0.20142211557E-01 0.  0.
         14    1    1    2    0    0  0.21236786642E-01  0.22087074557E-03 -0.11147992379E-01  0.23985988094E-01  0.00000000000E+00 0.  1.
     999901    1    3    3    0    0  0.21997061721E-02  0.84226403514E-01  0.10467465598E+00  0.89019981429E+00  0.88000000000E+00 0.  1.
        -11    1    4    4    0    0 -0.19869620702E-01 -0.78321728412E-01 -0.76409967349E-01  0.11121078725E+00  0.51100000000E-03 0. -1.
         11    1    4    4    0    0 -0.35668721122E-02 -0.61255458477E-02 -0.17116696247E-01  0.18533410372E-01  0.51100000000E-03 0.  1.
</event>
<event>
 8    1  0.1131349E+005  0.1043930E+01  0.7957747E-01            NaN
         13   -1    0    0    0    0  0.00000000000E+00  0.00000000000E+00  0.74505805969E-08  0.10566000000E+00  0.10566000000E+00 0. -1.
     999900   -1    0    0    0    0 -0.00000000000E+00 -0.00000000000E+00 -0.74505805969E-08  0.93827000000E+00  0.93827000000E+00 0.  1.
     999902    2    1    2    0    0 -0.18276305317E-01  0.56344228862E-03  0.16398916364E-01  0.10193685411E+01  0.10190725967E+01 0.  0.
     999903    2    3    3    0    0 -0.43181536131E-01  0.11403258255E+00 -0.36688638231E-01  0.13014764352E+00  0.26912413390E-01 0.  0.
         14    1    1    2    0    0  0.18276305317E-01 -0.56344228862E-03 -0.16398916364E-01  0.24561458856E-01  0.00000000000E+00 0.  1.
     999901    1    3    3    0    0  0.24905230814E-01 -0.11346914026E+00  0.53087554594E-01  0.88922089762E+00  0.88000000000E+00 0.  1.
        -11    1    4    4    0    0 -0.10124920490E-02  0.36985279304E-01 -0.95148598757E-02  0.38206409211E-01  0.51100000000E-03 0.  1.
         11    1    4    4    0    0 -0.42169044082E-01  0.77047303243E-01 -0.27173778355E-01  0.91941234312E-01  0.51100000000E-03 0. -1.
</event>
<event>
 8    1  0.1131349E+005  0.1043930E+01  0.7957747E-01            NaN
         13   -1    0    0    0    0  0.00000000000E+00  0.00000000000E+00  0.74505805969E-08  0.10566000000E+00  0.10566000000E+00 0. -1.
     999900   -1    0    0    0    0 -0.00000000000E+00 -0.00000000000E+00 -0.74505805969E-08  0.93827000000E+00  0.93827000000E+00 0. -1.
     999902    2    1    2    0    0 -0.11559189527E-01  0.58872815196E-02  0.19752312317E-01  0.10202989021E+01  0.10200252060E+01 0.  0.
     999903    2    3    3    0    0  0.88355337859E-01 -0.52956954825E-01 -0.71633914591E-01  0.12800018563E+00  0.25328344008E-01 0.  0.
         14    1    1    2    0    0  0.11559189527E-01 -0.58872815196E-02 -0.19752312317E-01  0.23631097903E-01  0.00000000000E+00 0. -1.
     999901    1    3    3    0    0 -0.99914527386E-01  0.58844236344E-01  0.91386226908E-01  0.89229871646E+00  0.88000000000E+00 0.  1.
        -11    1    4    4    0    0  0.60524769045E-01 -0.44324505096E-01 -0.61940770832E-01  0.97287355974E-01  0.51100000000E-03 0. -1.
         11    1    4    4    0    0  0.27830568814E-01 -0.86324497283E-02 -0.96931437584E-02  0.30712829660E-01  0.51100000000E-03 0.  1.
</event>
<event>
 8    1  0.1131349E+005  0.1043930E+01  0.7957747E-01            NaN
         13   -1    0    0    0    0  0.00000000000E+00  0.00000000000E+00  0.74505805969E-08  0.10566000000E+00  0.10566000000E+00 0.  1.
     999900   -1    0    0    0    0 -0.00000000000E+00 -0.00000000000E+00 -0.74505805969E-08  0.93827000000E+00  0.93827000000E+00 0. -1.
     999902    2    1    2    0    0 -0.18190786661E-01 -0.71916652358E-02  0.13235382553E-01  0.10203122076E+01  0.10200388232E+01 0.  0.
     999903    2    3    3    0    0 -0.41275134492E-02 -0.88000910000E-01 -0.93643651049E-01  0.13005885176E+00  0.19620780101E-01 0.  0.
         14    1    1    2    0    0  0.18190786661E-01  0.71916652358E-02 -0.13235382553E-01  0.23617792436E-01  0.00000000000E+00 0.  1.
     999901    1    3    3    0    0 -0.14063273212E-01  0.80809244764E-01  0.10687903360E+00  0.89025335580E+00  0.88000000000E+00 0.  1.
        -11    1    4    4    0    0  0.52556014437E-02 -0.31848772212E-01 -0.24714322732E-01  0.40657404086E-01  0.51100000000E-03 0. -1.
         11    1    4    4    0    0 -0.93831148928E-02 -0.56152137788E-01 -0.68929328318E-01  0.89401447676E-01  0.51100000000E-03 0.  1.
</event>
<event>
 8    1  0.1131349E+005  0.1043930E+01  0.7957747E-01            NaN
         13   -1    0    0    0    0  0.00000000000E+00  0.00000000000E+00  0.74505805969E-08  0.10566000000E+00  0.10566000000E+00 0.  1.
     999900   -1    0    0    0    0 -0.00000000000E+00 -0.00000000000E+00 -0.74505805969E-08  0.93827000000E+00  0.93827000000E+00 0.  1.
     999902    2    1    2    0    0  0.13514123698E-01  0.19037650965E-01 -0.10904758467E-02  0.10205579476E+01  0.10202902879E+01 0.  0.
     999903    2    3    3    0    0  0.36362098795E-01 -0.10282762530E+00  0.65713169529E-01  0.12935881021E+00  0.22798209946E-01 0.  0.
         14    1    1    2    0    0 -0.13514123698E-01 -0.19037650965E-01  0.10904758467E-02  0.23372052352E-01  0.00000000000E+00 0. -1.
     999901    1    3    3    0    0 -0.22847975097E-01  0.12186527627E+00 -0.66803645376E-01  0.89119913743E+00  0.88000000000E+00 0.  1.
        -11    1    4    4    0    0  0.22267818161E-01 -0.48892679421E-01  0.20228018405E-01  0.57408916348E-01  0.51100000000E-03 0.  1.
         11    1    4    4    0    0  0.14094280633E-01 -0.53934945880E-01  0.45485151124E-01  0.71949893867E-01  0.51100000000E-03 0. -1.
</event>
<event>
 8    1  0.1131349E+005  0.1043930E+01  0.7957747E-01            NaN
         13   -1    0    0    0    0  0.00000000000E+00  0.00000000000E+00  0.74505805969E-08  0.10566000000E+00  0.10566000000E+00 0.  1.
     999900   -1    0    0    0    0 -0.00000000000E+00 -0.00000000000E+00 -0.74505805969E-08  0.93827000000E+00  0.93827000000E+00 0. -1.
     999902    2    1    2    0    0  0.23347126895E-01  0.76762569495E-02  0.26778701967E-02  0.10192078592E+01  0.10189079822E+01 0.  0.
     999903    2    3    3    0    0 -0.66194144320E-01  0.10479519309E+00  0.29715614508E-01  0.12893780660E+00  0.19448470078E-01 0.  0.
         14    1    1    2    0    0 -0.23347126895E-01 -0.76762569495E-02 -0.26778701967E-02  0.24722140761E-01  0.00000000000E+00 0.  1.
     999901    1    3    3    0    0  0.89541271215E-01 -0.97118936140E-01 -0.27037744311E-01  0.89027005264E+00  0.88000000000E+00 0. -1.
        -11    1    4    4    0    0 -0.18798113544E-01  0.34657863328E-01  0.18470514268E-01  0.43542595026E-01  0.51100000000E-03 0. -1.
         11    1    4    4    0    0 -0.47396030776E-01  0.70137329762E-01  0.11245100240E-01  0.85395211575E-01  0.51100000000E-03 0.  1.
</event>
<event>
 8    1  0.1131349E+005  0.1043930E+01  0.7957747E-01            NaN
         13   -1    0    0    0    0  0.00000000000E+00  0.00000000000E+00  0.74505805969E-08  0.10566000000E+00  0.10566000000E+00 0. -1.
     999900   -1    0    0    0    0 -0.00000000000E+00 -0.00000000000E+00 -0.74505805969E-08  0.93827000000E+00  0.93827000000E+00 0. -1.
     999902    2    1    2    0    0  0.12233476086E-01 -0.72163169089E-03 -0.19984289002E-01  0.10204875066E+01  0.10202182123E+01 0.  0.
     999903    2    3    3    0    0 -0.44643618818E-01  0.93878326272E-02 -0.12271027144E+00  0.13263063038E+00  0.21257687962E-01 0.  0.
         14    1    1    2    0    0 -0.12233476086E-01  0.72163169089E-03  0.19984289002E-01  0.23442493390E-01  0.00000000000E+00 0. -1.
     999901    1    3    3    0    0  0.56877094905E-01 -0.10109464318E-01  0.10272598243E+00  0.88785687623E+00  0.88000000000E+00 0.  1.
        -11    1    4    4    0    0 -0.43872113659E-02  0.75163467382E-02 -0.35548349489E-01  0.36601767229E-01  0.51100000000E-03 0. -1.
         11    1    4    4    0    0 -0.40256407452E-01  0.18714858890E-02 -0.87161921947E-01  0.96028863156E-01  0.51100000000E-03 0.  1.
</event>
<event>
 8    1  0.1131349E+005  0.1043930E+01  0.7957747E-01            NaN
         13   -1    0    0    0    0  0.00000000000E+00  0.00000000000E+00  0.74505805969E-08  0.10566000000E+00  0.10566000000E+00 0. -1.
     999900   -1    0    0    0    0 -0.00000000000E+00 -0.00000000000E+00 -0.74505805969E-08  0.93827000000E+00  0.93827000000E+00 0.  1.
     999902    2    1    2    0    0  0.13148221752E-01 -0.61141634111E-02  0.19387368146E-01  0.10197199035E+01  0.10194324660E+01 0.  0.
     999903    2    3    3    0    0  0.10717302015E+00  0.71627106052E-01 -0.11130287653E-01  0.13077913212E+00  0.19047297043E-01 0.  0.
         14    1    1    2    0    0 -0.13148221752E-01  0.61141634111E-02 -0.19387368146E-01  0.24210096511E-01  0.00000000000E+00 0.  1.
     999901    1    3    3    0    0 -0.94024798398E-01 -0.77741269463E-01  0.30517655799E-01  0.88894077137E+00  0.88000000000E+00 0. -1.
        -11    1    4    4    0    0  0.10338769122E-01  0.11070863639E-01 -0.64510726096E-02  0.16472147021E-01  0.51100000000E-03 0. -1.
         11    1    4    4    0    0  0.96834251028E-01  0.60556242413E-01 -0.46792150434E-02  0.11430698510E+00  0.51100000000E-03 0.  1.
</event>
<event>
 8    1  0.1131349E+005  0.1043930E+01  0.7957747E-01            NaN
         13   -1    0    0    0    0  0.00000000000E+00  0.00000000000E+00  0.74505805969E-08  0.10566000000E+00  0.10566000000E+00 0. -1.
     999900   -1    0    0    0    0 -0.00000000000E+00 -0.00000000000E+00 -0.74505805969E-08  0.93827000000E+00  0.93827000000E+00 0. -1.
     999902    2    1    2    0    0 -0.19633648425E-01 -0.11119463639E-01 -0.10710929127E-01  0.10189530782E+01  0.10186469108E+01 0.  0.
     999903    2    3    3    0    0 -0.56010493668E-01  0.27135357009E-01  0.11114978506E+00  0.12898861828E+00  0.20255515951E-01 0.  0.
         14    1    1    2    0    0  0.19633648425E-01  0.11119463639E-01  0.10710929127E-01  0.24976921845E-01  0.00000000000E+00 0. -1.
     999901    1    3    3    0    0  0.36376845243E-01 -0.38254820648E-01 -0.12186071419E+00  0.88996445987E+00  0.88000000000E+00 0. -1.
        -11    1    4    4    0    0 -0.18618451958E-01  0.20079617980E-01  0.45562540580E-01  0.53160549627E-01  0.51100000000E-03 0. -1.
         11    1    4    4    0    0 -0.37392041710E-01  0.70557390296E-02  0.65587244481E-01  0.75828068656E-01  0.51100000000E-03 0.  1.
</event>
<event>
 8    1  0.1131349E+005  0.1043930E+01  0.7957747E-01            NaN
         13   -1    0    0    0    0  0.00000000000E+00  0.00000000000E+00  0.74505805969E-08  0.10566000000E+00  0.10566000000E+00 0. -1.
     999900   -1    0    0    0    0 -0.00000000000E+00 -0.00000000000E+00 -0.74505805969E-08  0.93827000000E+00  0.93827000000E+00 0. -1.
     999902    2    1    2    0    0 -0.38687490019E-02  0.14423166218E-01 -0.23140927142E-01  0.10163891676E+01  0.10160159657E+01 0.  0.
     999903    2    3    3    0    0 -0.70532797400E-01 -0.92450747350E-01 -0.47317891010E-01  0.12709132413E+00  0.19778919687E-01 0.  0.
         14    1    1    2    0    0  0.38687490019E-02 -0.14423166218E-01  0.23140927142E-01  0.27540832442E-01  0.00000000000E+00 0. -1.
     999901    1    3    3    0    0  0.66664048398E-01  0.10687391357E+00  0.24176963868E-01  0.88929784343E+00  0.88000000000E+00 0.  1.
        -11    1    4    4    0    0 -0.65188972190E-01 -0.82293535040E-01 -0.36060058074E-01  0.11100638231E+00  0.51100000000E-03 0. -1.
         11    1    4    4    0    0 -0.53438252093E-02 -0.10157212310E-01 -0.11257832935E-01  0.16084941814E-01  0.51100000000E-03 0.  1.
</event>
<event>
 8    1  0.1131349E+005  0.1043930E+01  0.7957747E-01            NaN
         13   -1    0    0    0    0  0.00000000000E+00  0.00000000000E+00  0.74505805969E-08  0.10566000000E+00  0.10566000000E+00 0.  1.
     999900   -1    0    0    0    0 -0.00000000000E+00 -0.00000000000E+00 -0.74505805969E-08  0.93827000000E+00  0.93827000000E+00 0.  1.
     999902    2    1    2    0    0 -0.11576379618E-01 -0.10958569418E-01 -0.17786642168E-01  0.10200455396E+01  0.10197658728E+01 0.  0.
     999903    2    3    3    0    0 -0.42514638319E-01 -0.77605716077E-01  0.93103837187E-01  0.13004794611E+00  0.20347042787E-01 0.  0.
         14    1    1    2    0    0  0.11576379618E-01  0.10958569418E-01  0.17786642168E-01  0.23884460395E-01  0.00000000000E+00 0.  1.
     999901    1    3    3    0    0  0.30938258700E-01  0.66647146659E-01 -0.11089047935E+00  0.88999759349E+00  0.88000000000E+00 0.  1.
        -11    1    4    4    0    0 -0.23964814877E-01 -0.60217953258E-01  0.60159824391E-01  0.88430649881E-01  0.51100000000E-03 0. -1.
         11    1    4    4    0    0 -0.18549823442E-01 -0.17387762820E-01  0.32944012796E-01  0.41617296233E-01  0.51100000000E-03 0.  1.
</event>
<event>
 8    1  0.1131349E+005  0.1043930E+01  0.7957747E-01            NaN
         13   -1    0    0    0    0  0.00000000000E+00  0.00000000000E+00  0.74505805969E-08  0.10566000000E+00  0.10566000000E+00 0. -1.
     999900   -1    0    0    0    0 -0.00000000000E+00 -0.00000000000E+00 -0.74505805969E-08  0.93827000000E+00  0.93827000000E+00 0.  1.
     999902    2    1    2    0    0  0.89467306147E-02  0.22355979059E-01  0.18340058560E-02  0.10197805204E+01  0.10194945377E+01 0.  0.
     999903    2    3    3    0    0  0.75757681246E-01 -0.64732911176E-01 -0.79853162719E-01  0.12920712563E+00  0.19707299676E-01 0.  0.
         14    1    1    2    0    0 -0.89467306147E-02 -0.22355979059E-01 -0.18340058560E-02  0.24149479619E-01  0.00000000000E+00 0.  1.
     999901    1    3    3    0    0 -0.66810950631E-01  0.87088890235E-01  0.81687168575E-01  0.89057339475E+00  0.88000000000E+00 0. -1.
        -11    1    4    4    0    0  0.49577412730E-01 -0.41865978876E-01 -0.39602130546E-01  0.76021509489E-01  0.51100000000E-03 0.  1.
         11    1    4    4    0    0  0.26180268516E-01 -0.22866932301E-01 -0.40251032173E-01  0.53185616142E-01  0.51100000000E-03 0. -1.
</event>
<event>
 8    1  0.1131349E+005  0.1043930E+01  0.7957747E-01            NaN
         13   -1    0    0    0    0  0.00000000000E+00  0.00000000000E+00  0.74505805969E-08  0.10566000000E+00  0.10566000000E+00 0.  1.
     999900   -1    0    0    0    0 -0.00000000000E+00 -0.00000000000E+00 -0.74505805969E-08  0.93827000000E+00  0.93827000000E+00 0.  1.
     999902    2    1    2    0    0  0.73920243916E-02 -0.17849567175E-01 -0.15944134793E-01  0.10188807584E+01  0.10185727933E+01 0.  0.
     999903    2    3    3    0    0 -0.59950113222E-01  0.36085713793E-01  0.10356647188E+00  0.12662139968E+00  0.20267460214E-01 0.  0.
         14    1    1    2    0    0 -0.73920243916E-02  0.17849567175E-01  0.15944134793E-01  0.25049241650E-01  0.00000000000E+00 0.  1.
     999901    1    3    3    0    0  0.67342137613E-01 -0.53935280968E-01 -0.11951060667E+00  0.89225935867E+00  0.88000000000E+00 0.  1.
        -11    1    4    4    0    0 -0.23124255611E-01  0.50504426174E-02  0.44522466170E-01  0.50425680790E-01  0.51100000000E-03 0. -1.
         11    1    4    4    0    0 -0.36825857610E-01  0.31035271175E-01  0.59044005709E-01  0.76195718888E-01  0.51100000000E-03 0.  1.
</event>
<event>
 8    1  0.1131349E+005  0.1043930E+01  0.7957747E-01            NaN
         13   -1    0    0    0    0  0.00000000000E+00  0.00000000000E+00  0.74505805969E-08  0.10566000000E+00  0.10566000000E+00 0.  1.
     999900   -1    0    0    0    0 -0.00000000000E+00 -0.00000000000E+00 -0.74505805969E-08  0.93827000000E+00  0.93827000000E+00 0. -1.
     999902    2    1    2    0    0  0.30091096326E-02  0.22557120008E-01 -0.24693695386E-02  0.10210394738E+01  0.10207828520E+01 0.  0.
     999903    2    3    3    0    0  0.11289395163E+00 -0.61089624083E-01 -0.93820997239E-02  0.13024250359E+00  0.19952429915E-01 0.  0.
         14    1    1    2    0    0 -0.30091096326E-02 -0.22557120008E-01  0.24693695386E-02  0.22890526201E-01  0.00000000000E+00 0. -1.
     999901    1    3    3    0    0 -0.10988484200E+00  0.83646744092E-01  0.69127301853E-02  0.89079697021E+00  0.88000000000E+00 0.  1.
        -11    1    4    4    0    0  0.59827222795E-01 -0.34737015445E-01  0.46937210530E-02  0.69341538544E-01  0.51100000000E-03 0. -1.
         11    1    4    4    0    0  0.53066728839E-01 -0.26352608639E-01 -0.14075820777E-01  0.60900965044E-01  0.51100000000E-03 0.  1.
</event>
<event>
 8    1  0.1131349E+005  0.1043930E+01  0.7957747E-01            NaN
         13   -1    0    0    0    0  0.00000000000E+00  0.00000000000E+00  0.74505805969E-08  0.10566000000E+00  0.10566000000E+00 0. -1.
     999900   -1    0    0    0    0 -0.00000000000E+00 -0.00000000000E+00 -0.74505805969E-08  0.93827000000E+00  0.93827000000E+00 0. -1.
     999902    2    1    2    0    0 -0.10314784000E-01  0.92703139386E-02 -0.18941057983E-01  0.10204545412E+01  0.10201844801E+01 0.  0.
     999903    2    3    3    0    0  0.45479377519E-01 -0.31161277801E-01 -0.11845311799E+00  0.13216947873E+00  0.19955724337E-01 0.  0.
         14    1    1    2    0    0  0.10314784000E-01 -0.92703139386E-02  0.18941057983E-01  0.23475458824E-01  0.00000000000E+00 0. -1.
     999901    1    3    3    0    0 -0.55794161519E-01  0.40431591739E-01  0.99512060006E-01  0.88828506244E+00  0.88000000000E+00 0. -1.
        -11    1    4    4    0    0  0.16291988030E-01 -0.23222621381E-01 -0.58353813624E-01  0.64885650981E-01  0.51100000000E-03 0.  1.
         11    1    4    4    0    0  0.29187389490E-01 -0.79386564203E-02 -0.60099304365E-01  0.67283827753E-01  0.51100000000E-03 0. -1.
</event>
<event>
 8    1  0.1131349E+005  0.1043930E+01  0.7957747E-01            NaN
         13   -1    0    0    0    0  0.00000000000E+00  0.00000000000E+00  0.74505805969E-08  0.10566000000E+00  0.10566000000E+00 0. -1.
     999900   -1    0    0    0    0 -0.00000000000E+00 -0.00000000000E+00 -0.74505805969E-08  0.93827000000E+00  0.93827000000E+00 0. -1.
     999902    2    1    2    0    0  0.19393076002E-01  0.12184565427E-01 -0.52710768226E-02  0.10204281005E+01  0.10201574236E+01 0.  0.
     999903    2    3    3    0    0  0.84607882820E-01 -0.88630995138E-01 -0.43188394206E-01  0.13146551899E+00  0.20099705349E-01 0.  0.
         14    1    1    2    0    0 -0.19393076002E-01 -0.12184565427E-01  0.52710768226E-02  0.23501899547E-01  0.00000000000E+00 0. -1.
     999901    1    3    3    0    0 -0.65214806818E-01  0.10081556057E+00  0.37917317384E-01  0.88896258146E+00  0.88000000000E+00 0. -1.
        -11    1    4    4    0    0  0.79972298189E-01 -0.75030762728E-01 -0.36213232045E-01  0.11548525070E+00  0.51100000000E-03 0. -1.
         11    1    4    4    0    0  0.46355846309E-02 -0.13600232410E-01 -0.69751621616E-02  0.15980268291E-01  0.51100000000E-03 0.  1.
</event>
<event>
 8    1  0.1131349E+005  0.1043930E+01  0.7957747E-01            NaN
         13   -1    0    0    0    0  0.00000000000E+00  0.00000000000E+00  0.74505805969E-08  0.10566000000E+00  0.10566000000E+00 0. -1.
     999900   -1    0    0    0    0 -0.00000000000E+00 -0.00000000000E+00 -0.74505805969E-08  0.93827000000E+00  0.93827000000E+00 0.  1.
     999902    2    1    2    0    0  0.74324316131E-02  0.99940286547E-02  0.22194608544E-01  0.10184796111E+01  0.10181615765E+01 0.  0.
     999903    2    3    3    0    0 -0.10695885779E+00  0.67044410225E-01 -0.14248397326E-01  0.12849747315E+00  0.19324429551E-01 0.  0.
         14    1    1    2    0    0 -0.74324316131E-02 -0.99940286547E-02 -0.22194608544E-01  0.25450388933E-01  0.00000000000E+00 0. -1.
     999901    1    3    3    0    0  0.11439128941E+00 -0.57050381570E-01  0.36443005870E-01  0.88998213791E+00  0.88000000000E+00 0.  1.
        -11    1    4    4    0    0 -0.35948874403E-01  0.28532782284E-01 -0.13003619950E-01  0.47705308808E-01  0.51100000000E-03 0. -1.
         11    1    4    4    0    0 -0.71009983390E-01  0.38511627941E-01 -0.12447773761E-02  0.80792164344E-01  0.51100000000E-03 0.  1.
</event>
<event>
 8    1  0.1131349E+005  0.1043930E+01  0.7957747E-01            NaN
         13   -1    0    0    0    0  0.00000000000E+00  0.00000000000E+00  0.74505805969E-08  0.10566000000E+00  0.10566000000E+00 0. -1.
     999900   -1    0    0    0    0 -0.00000000000E+00 -0.00000000000E+00 -0.74505805969E-08  0.93827000000E+00  0.93827000000E+00 0.  1.
     999902    2    1    2    0    0 -0.15193131095E-01  0.11563983453E-01 -0.12686343080E-01  0.10210062079E+01  0.10207488311E+01 0.  0.
     999903    2    3    3    0    0  0.19297339462E-01  0.12943124105E+00 -0.25702812284E-02  0.13242046765E+00  0.20093293344E-01 0.  0.
         14    1    1    2    0    0  0.15193131095E-01 -0.11563983453E-01  0.12686343080E-01  0.22923792149E-01  0.00000000000E+00 0. -1.
     999901    1    3    3    0    0 -0.34490470557E-01 -0.11786725760E+00 -0.10116061852E-01  0.88858574020E+00  0.88000000000E+00 0. -1.
        -11    1    4    4    0    0  0.18064147285E-02  0.78305331907E-01 -0.29105539848E-02  0.78381889392E-01  0.51100000000E-03 0.  1.
         11    1    4    4    0    0  0.17490924733E-01  0.51125909146E-01  0.34027275649E-03  0.54038578262E-01  0.51100000000E-03 0. -1.
</event>
<event>
 8    1  0.1131349E+005  0.1043930E+01  0.7957747E-01            NaN
         13   -1    0    0    0    0  0.00000000000E+00  0.00000000000E+00  0.74505805969E-08  0.10566000000E+00  0.10566000000E+00 0.  1.
     999900   -1    0    0    0    0 -0.00000000000E+00 -0.00000000000E+00 -0.74505805969E-08  0.93827000000E+00  0.93827000000E+00 0. -1.
     999902    2    1    2    0    0 -0.55726383666E-02 -0.20209215454E-01 -0.10615759930E-01  0.10204318927E+01  0.10201613042E+01 0.  0.
     999903    2    3    3    0    0  0.10790371493E+00 -0.17609283855E-01 -0.69526454402E-01  0.13118833083E+00  0.20570651718E-01 0.  0.
         14    1    1    2    0    0  0.55726383666E-02  0.20209215454E-01  0.10615759930E-01  0.23498107297E-01  0.00000000000E+00 0.  1.
     999901    1    3    3    0    0 -0.11347635330E+00 -0.25999315990E-02  0.58910694471E-01  0.88924356187E+00  0.88000000000E+00 0.  1.
        -11    1    4    4    0    0  0.89467993437E-02 -0.49279890973E-02 -0.12930018052E-01  0.16485653850E-01  0.51100000000E-03 0. -1.
         11    1    4    4    0    0  0.98956915586E-01 -0.12681294758E-01 -0.56596436350E-01  0.11470267698E+00  0.51100000000E-03 0.  1.
</event>
<event>
 8    1  0.1131349E+005  0.1043930E+01  0.7957747E-01            NaN
         13   -1    0    0    0    0  0.00000000000E+00  0.00000000000E+00  0.74505805969E-08  0.10566000000E+00  0.10566000000E+00 0.  1.
     999900   -1    0    0    0    0 -0.00000000000E+00 -0.00000000000E+00 -0.74505805969E-08  0.93827000000E+00  0.93827000000E+00 0. -1.
     999902    2    1    2    0    0  0.69292076075E-02  0.22524510711E-01 -0.21953388108E-02  0.10202617298E+01  0.10199871618E+01 0.  0.
     999903    2    3    3    0    0 -0.49842717502E-01 -0.19878701294E-01 -0.11665235637E+00  0.13002496764E+00  0.20475856768E-01 0.  0.
         14    1    1    2    0    0 -0.69292076075E-02 -0.22524510711E-01  0.21953388108E-02  0.23668270180E-01  0.00000000000E+00 0.  1.
     999901    1    3    3    0    0  0.56771925110E-01  0.42403212005E-01  0.11445701756E+00  0.89023676218E+00  0.88000000000E+00 0.  1.
        -11    1    4    4    0    0 -0.21867170391E-01 -0.55371126925E-02 -0.27984537493E-01  0.35947575962E-01  0.51100000000E-03 0. -1.
         11    1    4    4    0    0 -0.27975547112E-01 -0.14341588601E-01 -0.88667818875E-01  0.94077391677E-01  0.51100000000E-03 0.  1.
</event>
<event>
 8    1  0.1131349E+005  0.1043930E+01  0.7957747E-01            NaN
         13   -1    0    0    0    0  0.00000000000E+00  0.00000000000E+00  0.74505805969E-08  0.10566000000E+00  0.10566000000E+00 0. -1.
     999900   -1    0    0    0    0 -0.00000000000E+00 -0.00000000000E+00 -0.74505805969E-08  0.93827000000E+00  0.93827000000E+00 0. -1.
     999902    2    1    2    0    0 -0.13796945798E-01 -0.41847689367E-02 -0.18433346006E-01  0.10205279435E+01  0.10202595881E+01 0.  0.
     999903    2    3    3    0    0 -0.31319908883E-01 -0.12617260782E+00  0.58972994216E-02  0.13160721171E+00  0.19626929882E-01 0.  0.
         14    1    1    2    0    0  0.13796945798E-01  0.41847689367E-02  0.18433346006E-01  0.23402056521E-01  0.00000000000E+00 0. -1.
     999901    1    3    3    0    0  0.17522963085E-01  0.12198783888E+00 -0.24330645428E-01  0.88892073177E+00  0.88000000000E+00 0.  1.
        -11    1    4    4    0    0 -0.80347501344E-02 -0.35405069483E-01  0.10467815955E-01  0.37787728784E-01  0.51100000000E-03 0.  1.
         11    1    4    4    0    0 -0.23285158748E-01 -0.90767538335E-01 -0.45705165334E-02  0.93819482921E-01  0.51100000000E-03 0. -1.
</event>
<event>
 8    1  0.1131349E+005  0.1043930E+01  0.7957747E-01            NaN
         13   -1    0    0    0    0  0.00000000000E+00  0.00000000000E+00  0.74505805969E-08  0.10566000000E+00  0.10566000000E+00 0.  1.
     999900   -1    0    0    0    0 -0.00000000000E+00 -0.00000000000E+00 -0.74505805969E-08  0.93827000000E+00  0.93827000000E+00 0.  1.
     999902    2    1    2    0    0  0.16399270721E-01  0.16954314897E-01 -0.81842585106E-03  0.10203279938E+01  0.10200549791E+01 0.  0.
     999903    2    3    3    0    0  0.73649672013E-01 -0.33346686718E-01 -0.10148847386E+00  0.13131603792E+00  0.20191973270E-01 0.  0.
         14    1    1    2    0    0 -0.16399270721E-01 -0.16954314897E-01  0.81842585106E-03  0.23602006158E-01  0.00000000000E+00 0.  1.
     999901    1    3    3    0    0 -0.57250401293E-01  0.50301001615E-01  0.10067004801E+00  0.88901195593E+00  0.88000000000E+00 0. -1.
        -11    1    4    4    0    0  0.26422678554E-01 -0.81027152383E-02 -0.21332040961E-01  0.34916028250E-01  0.51100000000E-03 0. -1.
         11    1    4    4    0    0  0.47226993459E-01 -0.25243971480E-01 -0.80156432901E-01  0.96400009667E-01  0.51100000000E-03 0.  1.
</event>
<event>
 8    1  0.1131349E+005  0.1043930E+01  0.7957747E-01            NaN
         13   -1    0    0    0    0  0.00000000000E+00  0.00000000000E+00  0.74505805969E-08  0.10566000000E+00  0.10566000000E+00 0.  1.
     999900   -1    0    0    0    0 -0.00000000000E+00 -0.00000000000E+00 -0.74505805969E-08  0.93827000000E+00  0.93827000000E+00 0. -1.
     999902    2    1    2    0    0  0.98066778462E-02  0.19633725722E-01  0.38648192339E-02  0.10216456794E+01  0.10214026157E+01 0.  0.
     999903    2    3    3    0    0 -0.48229771361E-01  0.12047820717E+00  0.16101992089E-01  0.13390270576E+00  0.28801930699E-01 0.  0.
         14    1    1    2    0    0 -0.98066778462E-02 -0.19633725722E-01 -0.38648192339E-02  0.22284320582E-01  0.00000000000E+00 0. -1.
     999901    1    3    3    0    0  0.58036449207E-01 -0.10084448145E+00 -0.12237172856E-01  0.88774297366E+00  0.88000000000E+00 0.  1.
        -11    1    4    4    0    0 -0.47406017199E-02  0.47370408538E-01  0.18119890728E-02  0.47644237166E-01  0.51100000000E-03 0. -1.
         11    1    4    4    0    0 -0.43489169641E-01  0.73107798635E-01  0.14290003017E-01  0.86258468596E-01  0.51100000000E-03 0.  1.
</event>
<event>
 8    1  0.1131349E+005  0.1043930E+01  0.7957747E-01            NaN
         13   -1    0    0    0    0  0.00000000000E+00  0.00000000000E+00  0.74505805969E-08  0.10566000000E+00  0.10566000000E+00 0.  1.
     999900   -1    0    0    0    0 -0.00000000000E+00 -0.00000000000E+00 -0.74505805969E-08  0.93827000000E+00  0.93827000000E+00 0. -1.
     999902    2    1    2    0    0 -0.10303952890E-01  0.15660625444E-02  0.21853277691E-01  0.10197186443E+01  0.10194311766E+01 0.  0.
     999903    2    3    3    0    0  0.78581253499E-02 -0.56063532820E-01 -0.11240578026E+00  0.12748743776E+00  0.20325292230E-01 0.  0.
         14    1    1    2    0    0  0.10303952890E-01 -0.15660625444E-02 -0.21853277691E-01  0.24211355660E-01  0.00000000000E+00 0. -1.
     999901    1    3    3    0    0 -0.18162078239E-01  0.57629595365E-01  0.13425905795E+00  0.89223120658E+00  0.88000000000E+00 0.  1.
        -11    1    4    4    0    0  0.10462210085E-01 -0.14436287933E-01 -0.42373188292E-01  0.45974041112E-01  0.51100000000E-03 0. -1.
         11    1    4    4    0    0 -0.26040847351E-02 -0.41627244887E-01 -0.70032591972E-01  0.81513396650E-01  0.51100000000E-03 0.  1.
</event>
<event>
 8    1  0.1131349E+005  0.1043930E+01  0.7957747E-01            NaN
         13   -1    0    0    0    0  0.00000000000E+00  0.00000000000E+00  0.74505805969E-08  0.10566000000E+00  0.10566000000E+00 0.  1.
     999900   -1    0    0    0    0 -0.00000000000E+00 -0.00000000000E+00 -0.74505805969E-08  0.93827000000E+00  0.93827000000E+00 0.  1.
     999902    2    1    2    0    0  0.16086791860E-02 -0.19760685497E-01  0.12213941441E-01  0.10206436756E+01  0.10203779984E+01 0.  0.
     999903    2    3    3    0    0  0.45033798027E-01 -0.31731742877E-01  0.11972696895E+00  0.13295673850E+00  0.17549950072E-01 0.  0.
         14    1    1    2    0    0 -0.16086791860E-02  0.19760685497E-01 -0.12213941441E-01  0.23286324432E-01  0.00000000000E+00 0. -1.
     999901    1    3    3    0    0 -0.43425118841E-01  0.11971057380E-01 -0.10751302751E+00  0.88768693707E+00  0.88000000000E+00 0.  1.
        -11    1    4    4    0    0  0.33627215772E-01 -0.31762470690E-01  0.92145475402E-01  0.10310525662E+00  0.51100000000E-03 0.  1.
         11    1    4    4    0    0  0.11406582255E-01  0.30727812758E-04  0.27581493547E-01  0.29851481877E-01  0.51100000000E-03 0. -1.
</event>
<event>
 8    1  0.1131349E+005  0.1043930E+01  0.7957747E-01            NaN
         13   -1    0    0    0    0  0.00000000000E+00  0.00000000000E+00  0.74505805969E-08  0.10566000000E+00  0.10566000000E+00 0.  1.
     999900   -1    0    0    0    0 -0.00000000000E+00 -0.00000000000E+00 -0.74505805969E-08  0.93827000000E+00  0.93827000000E+00 0. -1.
     999902    2    1    2    0    0  0.26616199352E-02 -0.15541694191E-01  0.17887316819E-01  0.10200849883E+01  0.10198062555E+01 0.  0.
     999903    2    3    3    0    0 -0.12487076954E+00  0.11264374290E-01  0.29770532527E-01  0.13040848167E+00  0.20012303013E-01 0.  0.
         14    1    1    2    0    0 -0.26616199352E-02  0.15541694191E-01 -0.17887316819E-01  0.23845011679E-01  0.00000000000E+00 0. -1.
     999901    1    3    3    0    0  0.12753238947E+00 -0.26806068480E-01 -0.11883215709E-01  0.88967650665E+00  0.88000000000E+00 0.  1.
        -11    1    4    4    0    0 -0.20012718388E-01 -0.48392654776E-02  0.16820656060E-02  0.20664410307E-01  0.51100000000E-03 0. -1.
         11    1    4    4    0    0 -0.10485805115E+00  0.16103639767E-01  0.28088466921E-01  0.10974407136E+00  0.51100000000E-03 0.  1.
</event>
<event>
 8    1  0.1131349E+005  0.1043930E+01  0.7957747E-01            NaN
         13   -1    0    0    0    0  0.00000000000E+00  0.00000000000E+00  0.74505805969E-08  0.10566000000E+00  0.10566000000E+00 0.  1.
     999900   -1    0    0    0    0 -0.00000000000E+00 -0.00000000000E+00 -0.74505805969E-08  0.93827000000E+00  0.93827000000E+00 0. -1.
     999902    2    1    2    0    0  0.70136410947E-02  0.12327708695E-01 -0.19689217787E-01  0.10196642039E+01  0.10193754264E+01 0.  0.
     999903    2    3    3    0    0  0.51404591843E-01  0.11590346469E+00  0.31794622799E-01  0.13098592715E+00  0.83886758276E-02 0.  0.
         14    1    1    2    0    0 -0.70136410947E-02 -0.12327708695E-01  0.19689217787E-01  0.24265796096E-01  0.00000000000E+00 0.  1.
     999901    1    3    3    0    0 -0.44390950749E-01 -0.10357575599E+00 -0.51483840586E-01  0.88867827676E+00  0.88000000000E+00 0.  1.
        -11    1    4    4    0    0  0.18429918636E-01  0.51535252015E-01  0.14507679918E-01  0.56624005500E-01  0.51100000000E-03 0.  1.
         11    1    4    4    0    0  0.32974673207E-01  0.64368212674E-01  0.17286942881E-01  0.74361921647E-01  0.51100000000E-03 0. -1.
</event>
<event>
 8    1  0.1131349E+005  0.1043930E+01  0.7957747E-01            NaN
         13   -1    0    0    0    0  0.00000000000E+00  0.00000000000E+00  0.74505805969E-08  0.10566000000E+00  0.10566000000E+00 0. -1.
     999900   -1    0    0    0    0 -0.00000000000E+00 -0.00000000000E+00 -0.74505805969E-08  0.93827000000E+00  0.93827000000E+00 0.  1.
     999902    2    1    2    0    0 -0.19459084685E-02 -0.95109160639E-02  0.21130289776E-01  0.10206763287E+01  0.10204114046E+01 0.  0.
     999903    2    3    3    0    0  0.25761829787E-01  0.12142799522E+00  0.35249659109E-01  0.13044485662E+00  0.19102153112E-01 0.  0.
         14    1    1    2    0    0  0.19459084685E-02  0.95109160639E-02 -0.21130289776E-01  0.23253671327E-01  0.00000000000E+00 0.  1.
     999901    1    3    3    0    0 -0.27707738256E-01 -0.13093891128E+00 -0.14119369332E-01  0.89023147206E+00  0.88000000000E+00 0.  1.
        -11    1    4    4    0    0  0.26424656854E-02  0.56889100477E-01  0.13645956026E-01  0.58564713052E-01  0.51100000000E-03 0.  1.
         11    1    4    4    0    0  0.23119364102E-01  0.64538894744E-01  0.21603703083E-01  0.71880143566E-01  0.51100000000E-03 0. -1.
</event>
<event>
 8    1  0.1131349E+005  0.1043930E+01  0.7957747E-01            NaN
         13   -1    0    0    0    0  0.00000000000E+00  0.00000000000E+00  0.74505805969E-08  0.10566000000E+00  0.10566000000E+00 0. -1.
     999900   -1    0    0    0    0 -0.00000000000E+00 -0.00000000000E+00 -0.74505805969E-08  0.93827000000E+00  0.93827000000E+00 0.  1.
     999902    2    1    2    0    0 -0.12433872593E-01  0.96513186596E-02  0.16899733462E-01  0.10208356256E+01  0.10205743600E+01 0.  0.
     999903    2    3    3    0    0 -0.81724809643E-01 -0.65701374510E-01  0.79030412710E-01  0.13272556277E+00  0.19355974698E-01 0.  0.
         14    1    1    2    0    0  0.12433872593E-01 -0.96513186596E-02 -0.16899733462E-01  0.23094374437E-01  0.00000000000E+00 0.  1.
     999901    1    3    3    0    0  0.69290937050E-01  0.75352693170E-01 -0.62130679248E-01  0.88811006279E+00  0.88000000000E+00 0.  1.
        -11    1    4    4    0    0 -0.61042406799E-01 -0.55342296742E-01  0.69144779418E-01  0.10756489612E+00  0.51100000000E-03 0.  1.
         11    1    4    4    0    0 -0.20682402844E-01 -0.10359077768E-01  0.98856332925E-02  0.25160666649E-01  0.51100000000E-03 0. -1.
</event>
<event>
 8    1  0.1131349E+005  0.1043930E+01  0.7957747E-01            NaN
         13   -1    0    0    0    0  0.00000000000E+00  0.00000000000E+00  0.74505805969E-08  0.10566000000E+00  0.10566000000E+00 0.  1.
     999900   -1    0    0    0    0 -0.00000000000E+00 -0.00000000000E+00 -0.74505805969E-08  0.93827000000E+00  0.93827000000E+00 0.  1.
     999902    2    1    2    0    0  0.96829010428E-02  0.34448013486E-02  0.25100852370E-01  0.10168066149E+01  0.10164447915E+01 0.  0.
     999903    2    3    3    0    0  0.57361677873E-02  0.84477732434E-01 -0.90436413576E-01  0.12555425309E+00  0.20389572612E-01 0.  0.
         14    1    1    2    0    0 -0.96829010428E-02 -0.34448013486E-02 -0.25100852370E-01  0.27123385089E-01  0.00000000000E+00 0. -1.
     999901    1    3    3    0    0  0.39467332556E-02 -0.81032931086E-01  0.11553726595E+00  0.89125236182E+00  0.88000000000E+00 0. -1.
        -11    1    4    4    0    0  0.26733245665E-02  0.63968830831E-01 -0.79590187347E-01  0.10214703630E+00  0.51100000000E-03 0. -1.
         11    1    4    4    0    0  0.30628432208E-02  0.20508901603E-01 -0.10846226228E-01  0.23407216792E-01  0.51100000000E-03 0.  1.
</event>
<event>
 8    1  0.1131349E+005  0.1043930E+01  0.7957747E-01            NaN
         13   -1    0    0    0    0  0.00000000000E+00  0.00000000000E+00  0.74505805969E-08  0.10566000000E+00  0.10566000000E+00 0.  1.
     999900   -1    0    0    0    0 -0.00000000000E+00 -0.00000000000E+00 -0.74505805969E-08  0.93827000000E+00  0.93827000000E+00 0. -1.
     999902    2    1    2    0    0  0.53303622137E-02  0.66272736513E-02 -0.24710460514E-01  0.10177968721E+01  0.10174613174E+01 0.  0.
     999903    2    3    3    0    0 -0.11741846976E+00  0.88642582011E-02 -0.48485677063E-01  0.12895631224E+00  0.20327259349E-01 0.  0.
         14    1    1    2    0    0 -0.53303622137E-02 -0.66272736513E-02  0.24710460514E-01  0.26133127945E-01  0.00000000000E+00 0.  1.
     999901    1    3    3    0    0  0.12274883197E+00 -0.22369845497E-02  0.23775216549E-01  0.88884055981E+00  0.88000000000E+00 0.  1.
        -11    1    4    4    0    0 -0.54952021891E-01  0.77271888966E-02 -0.12608812388E-01  0.56909379095E-01  0.51100000000E-03 0. -1.
         11    1    4    4    0    0 -0.62466447866E-01  0.11370693044E-02 -0.35876864675E-01  0.72046933145E-01  0.51100000000E-03 0.  1.
</event>
<event>
 8    1  0.1131349E+005  0.1043930E+01  0.7957747E-01            NaN
         13   -1    0    0    0    0  0.00000000000E+00  0.00000000000E+00  0.74505805969E-08  0.10566000000E+00  0.10566000000E+00 0. -1.
     999900   -1    0    0    0    0 -0.00000000000E+00 -0.00000000000E+00 -0.74505805969E-08  0.93827000000E+00  0.93827000000E+00 0.  1.
     999902    2    1    2    0    0  0.19253157168E-01  0.86168449884E-02 -0.14782402890E-01  0.10181724086E+01  0.10178465504E+01 0.  0.
     999903    2    3    3    0    0  0.12224117718E+00 -0.18225169299E-01 -0.40110043136E-01  0.13139818969E+00  0.19534751046E-01 0.  0.
         14    1    1    2    0    0 -0.19253157168E-01 -0.86168449884E-02  0.14782402890E-01  0.25757591380E-01  0.00000000000E+00 0. -1.
     999901    1    3    3    0    0 -0.10298802002E+00  0.26842014287E-01  0.25327640246E-01  0.88677421893E+00  0.88000000000E+00 0. -1.
        -11    1    4    4    0    0  0.50235548061E-01  0.19626306336E-03 -0.22313101455E-01  0.54970759734E-01  0.51100000000E-03 0. -1.
         11    1    4    4    0    0  0.72005629122E-01 -0.18421432362E-01 -0.17796941681E-01  0.76427429956E-01  0.51100000000E-03 0.  1.
</event>
<event>
 8    1  0.1131349E+005  0.1043930E+01  0.7957747E-01            NaN
         13   -1    0    0    0    0  0.00000000000E+00  0.00000000000E+00  0.74505805969E-08  0.10566000000E+00  0.10566000000E+00 0.  1.
     999900   -1    0    0    0    0 -0.00000000000E+00 -0.00000000000E+00 -0.74505805969E-08  0.93827000000E+00  0.93827000000E+00 0.  1.
     999902    2    1    2    0    0  0.16564804880E-01 -0.15717677005E-01 -0.62352259903E-02  0.10202590014E+01  0.10199843694E+01 0.  0.
     999903    2    3    3    0    0 -0.69997304754E-01 -0.10333674378E+00 -0.35072250267E-01  0.13121362931E+00  0.20220002202E-01 0.  0.
         14    1    1    2    0    0 -0.16564804880E-01  0.15717677005E-01  0.62352259903E-02  0.23670998591E-01  0.00000000000E+00 0.  1.
     999901    1    3    3    0    0  0.86562109634E-01  0.87619066777E-01  0.28837024277E-01  0.88904537210E+00  0.88000000000E+00 0. -1.
        -11    1    4    4    0    0 -0.45284520094E-01 -0.72688868868E-01 -0.14744666112E-01  0.86902391896E-01  0.51100000000E-03 0. -1.
         11    1    4    4    0    0 -0.24712784660E-01 -0.30647874914E-01 -0.20327584156E-01  0.44311237412E-01  0.51100000000E-03 0.  1.
</event>
<event>
 8    1  0.1131349E+005  0.1043930E+01  0.7957747E-01            NaN
         13   -1    0    0    0    0  0.00000000000E+00  0.00000000000E+00  0.74505805969E-08  0.10566000000E+00  0.10566000000E+00 0.  1.
     999900   -1    0    0    0    0 -0.00000000000E+00 -0.00000000000E+00 -0.74505805969E-08  0.93827000000E+00  0.93827000000E+00 0. -1.
     999902    2    1    2    0    0 -0.16221412764E-01 -0.10688732675E-01 -0.13897652116E-01  0.10200442726E+01  0.10197645758E+01 0.  0.
     999903    2    3    3    0    0 -0.46635042243E-01  0.32877856129E-01 -0.11770186429E+00  0.13235156059E+00  0.20184799820E-01 0.  0.
         14    1    1    2    0    0  0.16221412764E-01  0.10688732675E-01  0.13897652116E-01  0.23885727383E-01  0.00000000000E+00 0.  1.
     999901    1    3    3    0    0  0.30413629480E-01 -0.43566588804E-01  0.10380421218E+00  0.88769271203E+00  0.88000000000E+00 0.  1.
        -11    1    4    4    0    0 -0.21706594357E-01  0.20168786505E-01 -0.40133098010E-01  0.49888704779E-01  0.51100000000E-03 0.  1.
         11    1    4    4    0    0 -0.24928447886E-01  0.12709069624E-01 -0.77568766285E-01  0.82462855812E-01  0.51100000000E-03 0. -1.
</event>
<event>
 8    1  0.1131349E+005  0.1043930E+01  0.7957747E-01            NaN
         13   -1    0    0    0    0  0.00000000000E+00  0.00000000000E+00  0.74505805969E-08  0.10566000000E+00  0.10566000000E+00 0.  1.
     999900   -1    0    0    0    0 -0.00000000000E+00 -0.00000000000E+00 -0.74505805969E-08  0.93827000000E+00  0.93827000000E+00 0.  1.
     999902    2    1    2    0    0  0.23265637009E-01 -0.11249148386E-02  0.33672329281E-02  0.10203950567E+01  0.10201236093E+01 0.  0.
     999903    2    3    3    0    0 -0.87030685017E-01  0.89894802692E-01 -0.21340441714E-01  0.12850922498E+00  0.20094545673E-01 0.  0.
         14    1    1    2    0    0 -0.23265637009E-01  0.11249148386E-02 -0.33672329281E-02  0.23534943307E-01  0.00000000000E+00 0. -1.
     999901    1    3    3    0    0  0.11029632203E+00 -0.91019717531E-01  0.24707674642E-01  0.89188583172E+00  0.88000000000E+00 0. -1.
        -11    1    4    4    0    0 -0.26462199733E-01  0.15153818164E-01 -0.61993956639E-02  0.31122015476E-01  0.51100000000E-03 0. -1.
         11    1    4    4    0    0 -0.60568485284E-01  0.74740984528E-01 -0.15141046050E-01  0.97387209500E-01  0.51100000000E-03 0.  1.
</event>
<event>
 8    1  0.1151104E+005  0.1043930E+01  0.7957747E-01            NaN
         13   -1    0    0    0    0  0.00000000000E+00  0.00000000000E+00  0.74505805969E-08  0.10566000000E+00  0.10566000000E+00 0.  1.
     999900   -1    0    0    0    0 -0.00000000000E+00 -0.00000000000E+00 -0.74505805969E-08  0.93827000000E+00  0.93827000000E+00 0.  1.
     999902    2    1    2    0    0  0.93129542524E-02 -0.18584348979E-01  0.11608699695E-01  0.10201209460E+01  0.10198430631E+01 0.  0.
     999903    2    3    3    0    0 -0.28294935847E-01  0.78692214763E-01  0.98557135718E-01  0.12970693343E+00  0.10831044264E-01 0.  0.
         14    1    1    2    0    0 -0.93129542524E-02  0.18584348979E-01 -0.11608699695E-01  0.23809054002E-01  0.00000000000E+00 0. -1.
     999901    1    3    3    0    0  0.37607890099E-01 -0.97276563742E-01 -0.86948436023E-01  0.89041401257E+00  0.88000000000E+00 0.  1.
        -11    1    4    4    0    0 -0.16832186067E-01  0.31363455309E-01  0.40069254974E-01  0.53598462029E-01  0.51100000000E-03 0. -1.
         11    1    4    4    0    0 -0.11462749780E-01  0.47328759454E-01  0.58487880745E-01  0.76108471401E-01  0.51100000000E-03 0.  1.
</event>
<event>
 8    1  0.1131349E+005  0.1043930E+01  0.7957747E-01            NaN
         13   -1    0    0    0    0  0.00000000000E+00  0.00000000000E+00  0.74505805969E-08  0.10566000000E+00  0.10566000000E+00 0.  1.
     999900   -1    0    0    0    0 -0.00000000000E+00 -0.00000000000E+00 -0.74505805969E-08  0.93827000000E+00  0.93827000000E+00 0. -1.
     999902    2    1    2    0    0 -0.18826836356E-01 -0.11184200851E-01 -0.92566817108E-02  0.10201555963E+01  0.10198785312E+01 0.  0.
     999903    2    3    3    0    0  0.11210284832E-01 -0.22247225498E-01 -0.12777917047E+00  0.13163311513E+00  0.19471801816E-01 0.  0.
         14    1    1    2    0    0  0.18826836356E-01  0.11184200851E-01  0.92566817108E-02  0.23774403718E-01  0.00000000000E+00 0.  1.
     999901    1    3    3    0    0 -0.30037121188E-01  0.11063024648E-01  0.11852248876E+00  0.88852248115E+00  0.88000000000E+00 0.  1.
        -11    1    4    4    0    0  0.13971854214E-01 -0.13003331985E-01 -0.10734913411E+00  0.10903392623E+00  0.51100000000E-03 0.  1.
         11    1    4    4    0    0 -0.27615693825E-02 -0.92438935135E-02 -0.20430036357E-01  0.22599188908E-01  0.51100000000E-03 0. -1.
</event>
<event>
 8    1  0.1131349E+005  0.1043930E+01  0.7957747E-01            NaN
         13   -1    0    0    0    0  0.00000000000E+00  0.00000000000E+00  0.74505805969E-08  0.10566000000E+00  0.10566000000E+00 0.  1.
     999900   -1    0    0    0    0 -0.00000000000E+00 -0.00000000000E+00 -0.74505805969E-08  0.93827000000E+00  0.93827000000E+00 0. -1.
     999902    2    1    2    0    0 -0.23746369205E-01 -0.11934747518E-02  0.30264559731E-02  0.10199618155E+01  0.10196801612E+01 0.  0.
     999903    2    3    3    0    0  0.57169191985E-01 -0.84963068746E-01 -0.76544727029E-01  0.12872882347E+00  0.14999173082E-01 0.  0.
         14    1    1    2    0    0  0.23746369205E-01  0.11934747518E-02 -0.30264559731E-02  0.23968184499E-01  0.00000000000E+00 0. -1.
     999901    1    3    3    0    0 -0.80915561190E-01  0.83769593994E-01  0.79571183002E-01  0.89123299203E+00  0.88000000000E+00 0.  1.
        -11    1    4    4    0    0  0.38817265619E-01 -0.64211440175E-01 -0.48732843919E-01  0.89470891115E-01  0.51100000000E-03 0.  1.
         11    1    4    4    0    0  0.18351926365E-01 -0.20751628571E-01 -0.27811883110E-01  0.39257932355E-01  0.51100000000E-03 0. -1.
</event>
<event>
 8    1  0.1131349E+005  0.1043930E+01  0.7957747E-01            NaN
         13   -1    0    0    0    0  0.00000000000E+00  0.00000000000E+00  0.74505805969E-08  0.10566000000E+00  0.10566000000E+00 0.  1.
     999900   -1    0    0    0    0 -0.00000000000E+00 -0.00000000000E+00 -0.74505805969E-08  0.93827000000E+00  0.93827000000E+00 0.  1.
     999902    2    1    2    0    0 -0.19128572437E-01 -0.10383361837E-01 -0.82303395720E-02  0.10206608149E+01  0.10203955331E+01 0.  0.
     999903    2    3    3    0    0 -0.94420784555E-01  0.87593313813E-01  0.18659044547E-01  0.13162122906E+00  0.19700629838E-01 0.  0.
         14    1    1    2    0    0  0.19128572437E-01  0.10383361837E-01  0.82303395720E-02  0.23269185117E-01  0.00000000000E+00 0. -1.
     999901    1    3    3    0    0  0.75292212117E-01 -0.97976675650E-01 -0.26889384120E-01  0.88903958582E+00  0.88000000000E+00 0.  1.
        -11    1    4    4    0    0 -0.26381865529E-01  0.26151719384E-01 -0.34672521804E-02  0.37312172467E-01  0.51100000000E-03 0. -1.
         11    1    4    4    0    0 -0.68038919025E-01  0.61441594429E-01  0.22126296728E-01  0.94309056596E-01  0.51100000000E-03 0.  1.
</event>
<event>
 8    1  0.1131349E+005  0.1043930E+01  0.7957747E-01            NaN
         13   -1    0    0    0    0  0.00000000000E+00  0.00000000000E+00  0.74505805969E-08  0.10566000000E+00  0.10566000000E+00 0.  1.
     999900   -1    0    0    0    0 -0.00000000000E+00 -0.00000000000E+00 -0.74505805969E-08  0.93827000000E+00  0.93827000000E+00 0.  1.
     999902    2    1    2    0    0  0.88572888112E-02  0.28519505623E-01  0.96623033052E-02  0.10125425205E+01  0.10120559184E+01 0.  0.
     999903    2    3    3    0    0 -0.55338359492E-01  0.66502712961E-01 -0.86404335232E-01  0.12417739039E+00  0.21664955000E-01 0.  0.
         14    1    1    2    0    0 -0.88572888112E-02 -0.28519505623E-01 -0.96623033052E-02  0.31387479529E-01  0.00000000000E+00 0. -1.
     999901    1    3    3    0    0  0.64195648303E-01 -0.37983207339E-01  0.96066638537E-01  0.88836513008E+00  0.88000000000E+00 0. -1.
        -11    1    4    4    0    0 -0.26209619099E-01  0.46023443547E-01 -0.58663555597E-01  0.79036544494E-01  0.51100000000E-03 0. -1.
         11    1    4    4    0    0 -0.29128740393E-01  0.20479269415E-01 -0.27740779634E-01  0.45140845898E-01  0.51100000000E-03 0.  1.
</event>
<event>
 8    1  0.1131349E+005  0.1043930E+01  0.7957747E-01            NaN
         13   -1    0    0    0    0  0.00000000000E+00  0.00000000000E+00  0.74505805969E-08  0.10566000000E+00  0.10566000000E+00 0.  1.
     999900   -1    0    0    0    0 -0.00000000000E+00 -0.00000000000E+00 -0.74505805969E-08  0.93827000000E+00  0.93827000000E+00 0. -1.
     999902    2    1    2    0    0 -0.74736077395E-02  0.68574481345E-02 -0.19431593582E-01  0.10220104599E+01  0.10217753735E+01 0.  0.
     999903    2    3    3    0    0  0.34894043946E-01 -0.34856750696E-01  0.11850717566E+00  0.12928306798E+00  0.15413423097E-01 0.  0.
         14    1    1    2    0    0  0.74736077395E-02 -0.68574481345E-02  0.19431593582E-01  0.21919540066E-01  0.00000000000E+00 0.  1.
     999901    1    3    3    0    0 -0.42367651685E-01  0.41714198831E-01 -0.13793876924E+00  0.89272739196E+00  0.88000000000E+00 0. -1.
        -11    1    4    4    0    0  0.14820295662E-01 -0.23918435050E-01  0.54942636188E-01  0.61730762923E-01  0.51100000000E-03 0.  1.
         11    1    4    4    0    0  0.20073748284E-01 -0.10938315646E-01  0.63564539467E-01  0.67552305053E-01  0.51100000000E-03 0. -1.
</event>
<event>
 8    1  0.1131349E+005  0.1043930E+01  0.7957747E-01            NaN
         13   -1    0    0    0    0  0.00000000000E+00  0.00000000000E+00  0.74505805969E-08  0.10566000000E+00  0.10566000000E+00 0. -1.
     999900   -1    0    0    0    0 -0.00000000000E+00 -0.00000000000E+00 -0.74505805969E-08  0.93827000000E+00  0.93827000000E+00 0. -1.
     999902    2    1    2    0    0 -0.13737472001E-01 -0.14553793562E-01 -0.75569926905E-02  0.10225374970E+01  0.10223136963E+01 0.  0.
     999903    2    3    3    0    0  0.13874581329E-02 -0.12211681828E+00 -0.53234051087E-01  0.13468336406E+00  0.19781355149E-01 0.  0.
         14    1    1    2    0    0  0.13737472001E-01  0.14553793562E-01  0.75569926905E-02  0.21392502952E-01  0.00000000000E+00 0. -1.
     999901    1    3    3    0    0 -0.15124930134E-01  0.10756302472E+00  0.45677058397E-01  0.88785413299E+00  0.88000000000E+00 0.  1.
        -11    1    4    4    0    0 -0.69562982013E-02 -0.88713608069E-01 -0.42502211800E-01  0.98616395545E-01  0.51100000000E-03 0. -1.
         11    1    4    4    0    0  0.83437563342E-02 -0.33403210215E-01 -0.10731839287E-01  0.36066968516E-01  0.51100000000E-03 0.  1.
</event>
<event>
 8    1  0.1131349E+005  0.1043930E+01  0.7957747E-01            NaN
         13   -1    0    0    0    0  0.00000000000E+00  0.00000000000E+00  0.74505805969E-08  0.10566000000E+00  0.10566000000E+00 0. -1.
     999900   -1    0    0    0    0 -0.00000000000E+00 -0.00000000000E+00 -0.74505805969E-08  0.93827000000E+00  0.93827000000E+00 0. -1.
     999902    2    1    2    0    0  0.16197418419E-01  0.34047449040E-02  0.14024158430E-01  0.10222360914E+01  0.10220058712E+01 0.  0.
     999903    2    3    3    0    0  0.54516214084E-01 -0.48023753839E-01  0.11149890829E+00  0.13453425662E+00  0.19727167161E-01 0.  0.
         14    1    1    2    0    0 -0.16197418419E-01 -0.34047449040E-02 -0.14024158430E-01  0.21693908614E-01  0.00000000000E+00 0.  1.
     999901    1    3    3    0    0 -0.38318795665E-01  0.51428498743E-01 -0.97474749859E-01  0.88770183476E+00  0.88000000000E+00 0. -1.
        -11    1    4    4    0    0  0.37959761547E-01 -0.22072222883E-01  0.73613563965E-01  0.85716652060E-01  0.51100000000E-03 0.  1.
         11    1    4    4    0    0  0.16556452537E-01 -0.25951530957E-01  0.37885344324E-01  0.48817604562E-01  0.51100000000E-03 0. -1.
</event>
<event>
 8    1  0.1131349E+005  0.1043930E+01  0.7957747E-01            NaN
         13   -1    0    0    0    0  0.00000000000E+00  0.00000000000E+00  0.74505805969E-08  0.10566000000E+00  0.10566000000E+00 0.  1.
     999900   -1    0    0    0    0 -0.00000000000E+00 -0.00000000000E+00 -0.74505805969E-08  0.93827000000E+00  0.93827000000E+00 0.  1.
     999902    2    1    2    0    0  0.20238929169E-01 -0.89087753546E-02 -0.11944270059E-02  0.10217848608E+01  0.10215448569E+01 0.  0.
     999903    2    3    3    0    0 -0.69276293975E-01 -0.43251680973E-01 -0.10062961384E+00  0.13101004827E+00  0.19167700741E-01 0.  0.
         14    1    1    2    0    0 -0.20238929169E-01  0.89087753546E-02  0.11944270059E-02  0.22145139152E-01  0.00000000000E+00 0. -1.
     999901    1    3    3    0    0  0.89515223144E-01  0.34342905619E-01  0.99435186837E-01  0.89077481258E+00  0.88000000000E+00 0. -1.
        -11    1    4    4    0    0 -0.41978002295E-01 -0.14996624941E-01 -0.52127176423E-01  0.68589759288E-01  0.51100000000E-03 0. -1.
         11    1    4    4    0    0 -0.27298291680E-01 -0.28255056032E-01 -0.48502437419E-01  0.62420288982E-01  0.51100000000E-03 0.  1.
</event>
<event>
 8    1  0.1131349E+005  0.1043930E+01  0.7957747E-01            NaN
         13   -1    0    0    0    0  0.00000000000E+00  0.00000000000E+00  0.74505805969E-08  0.10566000000E+00  0.10566000000E+00 0.  1.
     999900   -1    0    0    0    0 -0.00000000000E+00 -0.00000000000E+00 -0.74505805969E-08  0.93827000000E+00  0.93827000000E+00 0.  1.
     999902    2    1    2    0    0  0.18692076513E-01  0.12206314788E-01  0.10589342546E-01  0.10192212562E+01  0.10189217080E+01 0.  0.
     999903    2    3    3    0    0 -0.24214170551E-02  0.12604055517E+00  0.30612200010E-01  0.13141219524E+00  0.20975544331E-01 0.  0.
         14    1    1    2    0    0 -0.18692076513E-01 -0.12206314788E-01 -0.10589342546E-01  0.24708743809E-01  0.00000000000E+00 0. -1.
     999901    1    3    3    0    0  0.21113493568E-01 -0.11383424038E+00 -0.20022857464E-01  0.88780906096E+00  0.88000000000E+00 0.  1.
        -11    1    4    4    0    0 -0.47974056201E-02  0.60228266134E-01  0.24752877013E-01  0.65294909324E-01  0.51100000000E-03 0.  1.
         11    1    4    4    0    0  0.23759885649E-02  0.65812289032E-01  0.58593229965E-02  0.66117285912E-01  0.51100000000E-03 0. -1.
</event>
<event>
 8    1  0.1131349E+005  0.1043930E+01  0.7957747E-01            NaN
         13   -1    0    0    0    0  0.00000000000E+00  0.00000000000E+00  0.74505805969E-08  0.10566000000E+00  0.10566000000E+00 0.  1.
     999900   -1    0    0    0    0 -0.00000000000E+00 -0.00000000000E+00 -0.74505805969E-08  0.93827000000E+00  0.93827000000E+00 0. -1.
     999902    2    1    2    0    0  0.20772794789E-01 -0.99467051465E-02  0.11460886778E-01  0.10182045676E+01  0.10178795330E+01 0.  0.
     999903    2    3    3    0    0  0.97864384901E-01  0.37235047094E-01  0.76407064560E-01  0.13119428749E+00  0.20248826890E-01 0.  0.
         14    1    1    2    0    0 -0.20772794789E-01  0.99467051465E-02 -0.11460886778E-01  0.25725432404E-01  0.00000000000E+00 0.  1.
     999901    1    3    3    0    0 -0.77091590111E-01 -0.47181752241E-01 -0.64946177783E-01  0.88701028011E+00  0.88000000000E+00 0. -1.
        -11    1    4    4    0    0  0.44571940515E-02  0.72495685003E-02  0.68020017061E-02  0.10906473787E-01  0.51100000000E-03 0. -1.
         11    1    4    4    0    0  0.93407190849E-01  0.29985478594E-01  0.69605062854E-01  0.12028781370E+00  0.51100000000E-03 0.  1.
</event>
<event>
 8    1  0.1131349E+005  0.1043930E+01  0.7957747E-01            NaN
         13   -1    0    0    0    0  0.00000000000E+00  0.00000000000E+00  0.74505805969E-08  0.10566000000E+00  0.10566000000E+00 0. -1.
     999900   -1    0    0    0    0 -0.00000000000E+00 -0.00000000000E+00 -0.74505805969E-08  0.93827000000E+00  0.93827000000E+00 0.  1.
     999902    2    1    2    0    0  0.13829947404E-01 -0.19899847191E-01 -0.41438473562E-02  0.10193445809E+01  0.10190480517E+01 0.  0.
     999903    2    3    3    0    0  0.16336266379E-01  0.11829561191E+00  0.40988425984E-01  0.12741342396E+00  0.17129043880E-01 0.  0.
         14    1    1    2    0    0 -0.13829947404E-01  0.19899847191E-01  0.41438473562E-02  0.24585419141E-01  0.00000000000E+00 0.  1.
     999901    1    3    3    0    0 -0.25063189752E-02 -0.13819545910E+00 -0.45132273340E-01  0.89193115690E+00  0.88000000000E+00 0. -1.
        -11    1    4    4    0    0  0.22559590443E-02  0.66420585473E-01  0.27959790092E-01  0.72102666447E-01  0.51100000000E-03 0. -1.
         11    1    4    4    0    0  0.14080307335E-01  0.51875026436E-01  0.13028635892E-01  0.55310757513E-01  0.51100000000E-03 0.  1.
</event>
<event>
 8    1  0.1131349E+005  0.1043930E+01  0.7957747E-01            NaN
         13   -1    0    0    0    0  0.00000000000E+00  0.00000000000E+00  0.74505805969E-08  0.10566000000E+00  0.10566000000E+00 0. -1.
     999900   -1    0    0    0    0 -0.00000000000E+00 -0.00000000000E+00 -0.74505805969E-08  0.93827000000E+00  0.93827000000E+00 0. -1.
     999902    2    1    2    0    0  0.11889545642E-01 -0.77498542653E-02  0.18819562411E-01  0.10203588849E+01  0.10200865927E+01 0.  0.
     999903    2    3    3    0    0 -0.87406124111E-01 -0.56046315907E-01  0.77882669866E-01  0.13149408705E+00  0.21070467577E-01 0.  0.
         14    1    1    2    0    0 -0.11889545642E-01  0.77498542653E-02 -0.18819562411E-01  0.23571115079E-01  0.00000000000E+00 0. -1.
     999901    1    3    3    0    0  0.99295669753E-01  0.48296461642E-01 -0.59063107455E-01  0.88886479787E+00  0.88000000000E+00 0. -1.
        -11    1    4    4    0    0 -0.19161194936E-01 -0.23515646104E-01  0.22966106702E-01  0.38050495149E-01  0.51100000000E-03 0. -1.
         11    1    4    4    0    0 -0.68244929175E-01 -0.32530669803E-01  0.54916563164E-01  0.93443591897E-01  0.51100000000E-03 0.  1.
</event>
<event>
 8    1  0.1131349E+005  0.1043930E+01  0.7957747E-01            NaN
         13   -1    0    0    0    0  0.00000000000E+00  0.00000000000E+00  0.74505805969E-08  0.10566000000E+00  0.10566000000E+00 0. -1.
     999900   -1    0    0    0    0 -0.00000000000E+00 -0.00000000000E+00 -0.74505805969E-08  0.93827000000E+00  0.93827000000E+00 0. -1.
     999902    2    1    2    0    0 -0.19105807506E-01  0.70020727797E-02 -0.11839177992E-01  0.10203879729E+01  0.10201163601E+01 0.  0.
     999903    2    3    3    0    0  0.10222991562E+00 -0.64029542067E-01 -0.40299595917E-01  0.12877267280E+00  0.20189252680E-01 0.  0.
         14    1    1    2    0    0  0.19105807506E-01 -0.70020727797E-02  0.11839177992E-01  0.23542027083E-01  0.00000000000E+00 0. -1.
     999901    1    3    3    0    0 -0.12133572313E+00  0.71031614847E-01  0.28460417925E-01  0.89161530012E+00  0.88000000000E+00 0. -1.
        -11    1    4    4    0    0  0.59909888738E-01 -0.46540327166E-01 -0.18675381283E-01  0.78129557841E-01  0.51100000000E-03 0.  1.
         11    1    4    4    0    0  0.42320026883E-01 -0.17489214901E-01 -0.21624214634E-01  0.50643114959E-01  0.51100000000E-03 0. -1.
</event>
<event>
 8    1  0.1131349E+005  0.1043930E+01  0.7957747E-01            NaN
         13   -1    0    0    0    0  0.00000000000E+00  0.00000000000E+00  0.74505805969E-08  0.10566000000E+00  0.10566000000E+00 0.  1.
     999900   -1    0    0    0    0 -0.00000000000E+00 -0.00000000000E+00 -0.74505805969E-08  0.93827000000E+00  0.93827000000E+00 0. -1.
     999902    2    1    2    0    0 -0.20734667965E-01 -0.72090580735E-02  0.12086097565E-01  0.10188706559E+01  0.10185624393E+01 0.  0.
     999903    2    3    3    0    0  0.30372589756E-01 -0.50504695058E-01 -0.11144029255E+00  0.12772238929E+00  0.20514665247E-01 0.  0.
         14    1    1    2    0    0  0.20734667965E-01  0.72090580735E-02 -0.12086097565E-01  0.25059344131E-01  0.00000000000E+00 0. -1.
     999901    1    3    3    0    0 -0.51107257721E-01  0.43295636984E-01  0.12352639012E+00  0.89114826658E+00  0.88000000000E+00 0.  1.
        -11    1    4    4    0    0  0.90101147906E-02 -0.34367104160E-01 -0.60081330826E-01  0.69801915817E-01  0.51100000000E-03 0.  1.
         11    1    4    4    0    0  0.21362474966E-01 -0.16137590898E-01 -0.51358961725E-01  0.57920473471E-01  0.51100000000E-03 0. -1.
</event>
<event>
 8    1  0.1131349E+005  0.1043930E+01  0.7957747E-01            NaN
         13   -1    0    0    0    0  0.00000000000E+00  0.00000000000E+00  0.74505805969E-08  0.10566000000E+00  0.10566000000E+00 0.  1.
     999900   -1    0    0    0    0 -0.00000000000E+00 -0.00000000000E+00 -0.74505805969E-08  0.93827000000E+00  0.93827000000E+00 0.  1.
     999902    2    1    2    0    0  0.20595631814E-01 -0.12594155916E-01  0.45438008867E-03  0.10197846221E+01  0.10194987377E+01 0.  0.
     999903    2    3    3    0    0  0.14239846124E-01 -0.12363282864E+00 -0.38526241116E-01  0.13192794915E+00  0.20805359361E-01 0.  0.
         14    1    1    2    0    0 -0.20595631814E-01  0.12594155916E-01 -0.45438008867E-03  0.24145377908E-01  0.00000000000E+00 0.  1.
     999901    1    3    3    0    0  0.63557856901E-02  0.11103867272E+00  0.38980621204E-01  0.88785667294E+00  0.88000000000E+00 0. -1.
        -11    1    4    4    0    0  0.78157731843E-02 -0.15782173420E-01 -0.13606345137E-02  0.17671325802E-01  0.51100000000E-03 0.  1.
         11    1    4    4    0    0  0.64240729392E-02 -0.10785065522E+00 -0.37165606602E-01  0.11425662335E+00  0.51100000000E-03 0. -1.
</event>
<event>
 8    1  0.1131349E+005  0.1043930E+01  0.7957747E-01            NaN
         13   -1    0    0    0    0  0.00000000000E+00  0.00000000000E+00  0.74505805969E-08  0.10566000000E+00  0.10566000000E+00 0. -1.
     999900   -1    0    0    0    0 -0.00000000000E+00 -0.00000000000E+00 -0.74505805969E-08  0.93827000000E+00  0.93827000000E+00 0. -1.
     999902    2    1    2    0    0  0.19593745654E-01 -0.94738971743E-02  0.86626169638E-02  0.10205054289E+01  0.10202365510E+01 0.  0.
     999903    2    3    3    0    0 -0.12672034247E+00 -0.63469131333E-02 -0.91370262484E-03  0.12836794161E+00  0.19472161611E-01 0.  0.
         14    1    1    2    0    0 -0.19593745654E-01  0.94738971743E-02 -0.86626169638E-02  0.23424571055E-01  0.00000000000E+00 0.  1.
     999901    1    3    3    0    0  0.14631408813E+00 -0.31269840410E-02  0.95763195887E-02  0.89213748734E+00  0.88000000000E+00 0. -1.
        -11    1    4    4    0    0 -0.44711222192E-01 -0.82059386239E-02 -0.74867549177E-02  0.46073239942E-01  0.51100000000E-03 0. -1.
         11    1    4    4    0    0 -0.82009120281E-01  0.18590254906E-02  0.65730522928E-02  0.82294701667E-01  0.51100000000E-03 0.  1.
</event>
<event>
 8    1  0.1131349E+005  0.1043930E+01  0.7957747E-01            NaN
         13   -1    0    0    0    0  0.00000000000E+00  0.00000000000E+00  0.74505805969E-08  0.10566000000E+00  0.10566000000E+00 0.  1.
     999900   -1    0    0    0    0 -0.00000000000E+00 -0.00000000000E+00 -0.74505805969E-08  0.93827000000E+00  0.93827000000E+00 0. -1.
     999902    2    1    2    0    0 -0.10938280986E-01 -0.19680719543E-01  0.91407541111E-02  0.10196291749E+01  0.10193395530E+01 0.  0.
     999903    2    3    3    0    0 -0.10462512600E+00 -0.37776445474E-01 -0.66661766593E-01  0.13123134606E+00  0.20109655374E-01 0.  0.
         14    1    1    2    0    0  0.10938280986E-01  0.19680719543E-01 -0.91407541111E-02  0.24300825056E-01  0.00000000000E+00 0. -1.
     999901    1    3    3    0    0  0.93686845016E-01  0.18095725931E-01  0.75802520704E-01  0.88839782889E+00  0.88000000000E+00 0.  1.
        -11    1    4    4    0    0 -0.80046679858E-01 -0.20422484147E-01 -0.44301465887E-01  0.93741291947E-01  0.51100000000E-03 0.  1.
         11    1    4    4    0    0 -0.24578446143E-01 -0.17353961328E-01 -0.22360300707E-01  0.37490054111E-01  0.51100000000E-03 0. -1.
</event>
<event>
 8    1  0.1131349E+005  0.1043930E+01  0.7957747E-01            NaN
         13   -1    0    0    0    0  0.00000000000E+00  0.00000000000E+00  0.74505805969E-08  0.10566000000E+00  0.10566000000E+00 0. -1.
     999900   -1    0    0    0    0 -0.00000000000E+00 -0.00000000000E+00 -0.74505805969E-08  0.93827000000E+00  0.93827000000E+00 0.  1.
     999902    2    1    2    0    0 -0.18119719757E-02  0.16001817705E-01  0.17093533161E-01  0.10204453180E+01  0.10201750422E+01 0.  0.
     999903    2    3    3    0    0  0.52456617481E-01  0.10031948005E+00 -0.63203595962E-01  0.13111850691E+00  0.19536466391E-01 0.  0.
         14    1    1    2    0    0  0.18119719757E-02 -0.16001817705E-01 -0.17093533161E-01  0.23484681992E-01  0.00000000000E+00 0.  1.
     999901    1    3    3    0    0 -0.54268589456E-01 -0.84317662340E-01  0.80297129123E-01  0.88932681109E+00  0.88000000000E+00 0. -1.
        -11    1    4    4    0    0  0.14250906413E-01  0.14844096123E-01 -0.17079135918E-01  0.26746841459E-01  0.51100000000E-03 0. -1.
         11    1    4    4    0    0  0.38205711068E-01  0.85475383922E-01 -0.46124460043E-01  0.10437166546E+00  0.51100000000E-03 0.  1.
</event>
<event>
 8    1  0.1131349E+005  0.1043930E+01  0.7957747E-01            NaN
         13   -1    0    0    0    0  0.00000000000E+00  0.00000000000E+00  0.74505805969E-08  0.10566000000E+00  0.10566000000E+00 0. -1.
     999900   -1    0    0    0    0 -0.00000000000E+00 -0.00000000000E+00 -0.74505805969E-08  0.93827000000E+00  0.93827000000E+00 0. -1.
     999902    2    1    2    0    0 -0.27822172268E-01  0.46808233515E-02  0.90693724734E-02  0.10142949381E+01  0.10138619159E+01 0.  0.
     999903    2    3    3    0    0 -0.10958064685E+00  0.39273273621E-03 -0.62253935978E-01  0.12762146369E+00  0.20090123116E-01 0.  0.
         14    1    1    2    0    0  0.27822172268E-01 -0.46808233515E-02 -0.90693724734E-02  0.29635061903E-01  0.00000000000E+00 0.  1.
     999901    1    3    3    0    0  0.81758474581E-01  0.42880906153E-02  0.71323308451E-01  0.88667347441E+00  0.88000000000E+00 0.  1.
        -11    1    4    4    0    0 -0.21207515957E-01  0.76525559349E-02 -0.15631556778E-01  0.27439515916E-01  0.51100000000E-03 0. -1.
         11    1    4    4    0    0 -0.88373130892E-01 -0.72598231987E-02 -0.46622379200E-01  0.10018194777E+00  0.51100000000E-03 0.  1.
</event>
<event>
 8    1  0.1131349E+005  0.1043930E+01  0.7957747E-01            NaN
         13   -1    0    0    0    0  0.00000000000E+00  0.00000000000E+00  0.74505805969E-08  0.10566000000E+00  0.10566000000E+00 0.  1.
     999900   -1    0    0    0    0 -0.00000000000E+00 -0.00000000000E+00 -0.74505805969E-08  0.93827000000E+00  0.93827000000E+00 0. -1.
     999902    2    1    2    0    0 -0.50304397027E-02  0.23389306781E-01  0.56592913906E-02  0.10193456030E+01  0.10190490988E+01 0.  0.
     999903    2    3    3    0    0 -0.77433113327E-01 -0.85817034943E-01 -0.50957099324E-01  0.12784485266E+00  0.19678156755E-01 0.  0.
         14    1    1    2    0    0  0.50304397027E-02 -0.23389306781E-01 -0.56592913906E-02  0.24584396969E-01  0.00000000000E+00 0. -1.
     999901    1    3    3    0    0  0.72402673624E-01  0.10920634172E+00  0.56616390715E-01  0.89150075037E+00  0.88000000000E+00 0. -1.
        -11    1    4    4    0    0 -0.23340196289E-01 -0.40149756945E-01 -0.21103534159E-01  0.51013606230E-01  0.51100000000E-03 0. -1.
         11    1    4    4    0    0 -0.54092917037E-01 -0.45667277998E-01 -0.29853565165E-01  0.76831246427E-01  0.51100000000E-03 0.  1.
</event>
<event>
 8    1  0.1131349E+005  0.1043930E+01  0.7957747E-01            NaN
         13   -1    0    0    0    0  0.00000000000E+00  0.00000000000E+00  0.74505805969E-08  0.10566000000E+00  0.10566000000E+00 0. -1.
     999900   -1    0    0    0    0 -0.00000000000E+00 -0.00000000000E+00 -0.74505805969E-08  0.93827000000E+00  0.93827000000E+00 0.  1.
     999902    2    1    2    0    0  0.18194812595E-01  0.67942476434E-02 -0.13486424079E-01  0.10202847755E+01  0.10200107482E+01 0.  0.
     999903    2    3    3    0    0 -0.11298428906E+00  0.29510295083E-02 -0.59760268676E-01  0.12935043690E+00  0.19649113557E-01 0.  0.
         14    1    1    2    0    0 -0.18194812595E-01 -0.67942476434E-02  0.13486424079E-01  0.23645224483E-01  0.00000000000E+00 0. -1.
     999901    1    3    3    0    0  0.13117910166E+00  0.38432181351E-02  0.46273844597E-01  0.89093433862E+00  0.88000000000E+00 0. -1.
        -11    1    4    4    0    0 -0.60572234811E-01  0.93851963962E-02 -0.25420698320E-01  0.66359253805E-01  0.51100000000E-03 0. -1.
         11    1    4    4    0    0 -0.52412054250E-01 -0.64341668879E-02 -0.34339570356E-01  0.62991183093E-01  0.51100000000E-03 0.  1.
</event>
<event>
 8    1  0.1131349E+005  0.1043930E+01  0.7957747E-01            NaN
         13   -1    0    0    0    0  0.00000000000E+00  0.00000000000E+00  0.74505805969E-08  0.10566000000E+00  0.10566000000E+00 0. -1.
     999900   -1    0    0    0    0 -0.00000000000E+00 -0.00000000000E+00 -0.74505805969E-08  0.93827000000E+00  0.93827000000E+00 0.  1.
     999902    2    1    2    0    0  0.22323495480E-01 -0.12144500415E-02 -0.48226538636E-02  0.10210592473E+01  0.10208030736E+01 0.  0.
     999903    2    3    3    0    0  0.93160682718E-01 -0.26143035191E-01  0.88921944383E-01  0.13289969453E+00  0.19820330976E-01 0.  0.
         14    1    1    2    0    0 -0.22323495480E-01  0.12144500415E-02  0.48226538636E-02  0.22870752712E-01  0.00000000000E+00 0. -1.
     999901    1    3    3    0    0 -0.70837187238E-01  0.24928585150E-01 -0.93744598247E-01  0.88815955276E+00  0.88000000000E+00 0.  1.
        -11    1    4    4    0    0  0.16336536205E-01 -0.12766291208E-01  0.20383141865E-01  0.29079102457E-01  0.51100000000E-03 0. -1.
         11    1    4    4    0    0  0.76824146512E-01 -0.13376743983E-01  0.68538802518E-01  0.10382059207E+00  0.51100000000E-03 0.  1.
</event>
<event>
 8    1  0.1131349E+005  0.1043930E+01  0.7957747E-01            NaN
         13   -1    0    0    0    0  0.00000000000E+00  0.00000000000E+00  0.74505805969E-08  0.10566000000E+00  0.10566000000E+00 0. -1.
     999900   -1    0    0    0    0 -0.00000000000E+00 -0.00000000000E+00 -0.74505805969E-08  0.93827000000E+00  0.93827000000E+00 0.  1.
     999902    2    1    2    0    0 -0.16677929602E-01  0.10992666436E-01 -0.12931611776E-01  0.10201346510E+01  0.10198570917E+01 0.  0.
     999903    2    3    3    0    0  0.44245939327E-01  0.11917092139E+00 -0.25361494251E-01  0.13133278633E+00  0.21111222694E-01 0.  0.
         14    1    1    2    0    0  0.16677929602E-01 -0.10992666436E-01  0.12931611776E-01  0.23795349006E-01  0.00000000000E+00 0. -1.
     999901    1    3    3    0    0 -0.60923868929E-01 -0.10817825495E+00  0.12429882476E-01  0.88880186466E+00  0.88000000000E+00 0. -1.
        -11    1    4    4    0    0  0.15329517084E-01  0.31451010499E-01 -0.16059597143E-01  0.38501064100E-01  0.51100000000E-03 0. -1.
         11    1    4    4    0    0  0.28916422243E-01  0.87719910889E-01 -0.93018971081E-02  0.92831722231E-01  0.51100000000E-03 0.  1.
</event>
<event>
 8    1  0.1131349E+005  0.1043930E+01  0.7957747E-01            NaN
         13   -1    0    0    0    0  0.00000000000E+00  0.00000000000E+00  0.74505805969E-08  0.10566000000E+00  0.10566000000E+00 0. -1.
     999900   -1    0    0    0    0 -0.00000000000E+00 -0.00000000000E+00 -0.74505805969E-08  0.93827000000E+00  0.93827000000E+00 0. -1.
     999902    2    1    2    0    0 -0.11942814698E-01  0.13005991068E-01  0.15250214467E-01  0.10205985691E+01  0.10203318497E+01 0.  0.
     999903    2    3    3    0    0 -0.59049125489E-01 -0.83729492143E-01  0.80384113657E-01  0.13165583582E+00  0.19344929602E-01 0.  0.
         14    1    1    2    0    0  0.11942814698E-01 -0.13005991068E-01 -0.15250214467E-01  0.23331430901E-01  0.00000000000E+00 0.  1.
     999901    1    3    3    0    0  0.47106310790E-01  0.96735483211E-01 -0.65133899189E-01  0.88894273328E+00  0.88000000000E+00 0. -1.
        -11    1    4    4    0    0 -0.58005484910E-01 -0.73730451644E-01  0.68979922562E-01  0.11644443575E+00  0.51100000000E-03 0. -1.
         11    1    4    4    0    0 -0.10436405786E-02 -0.99990404984E-02  0.11404191095E-01  0.15211400069E-01  0.51100000000E-03 0.  1.
</event>
<event>
 8    1  0.1131349E+005  0.1043930E+01  0.7957747E-01            NaN
         13   -1    0    0    0    0  0.00000000000E+00  0.00000000000E+00  0.74505805969E-08  0.10566000000E+00  0.10566000000E+00 0. -1.
     999900   -1    0    0    0    0 -0.00000000000E+00 -0.00000000000E+00 -0.74505805969E-08  0.93827000000E+00  0.93827000000E+00 0.  1.
     999902    2    1    2    0    0  0.89027263477E-02  0.16390689174E-01 -0.13096558693E-01  0.10211389255E+01  0.10208845537E+01 0.  0.
     999903    2    3    3    0    0  0.10073039364E+00  0.49472004704E-01 -0.69960859111E-01  0.13391841029E+00  0.21107518927E-01 0.  0.
         14    1    1    2    0    0 -0.89027263477E-02 -0.16390689174E-01  0.13096558693E-01  0.22791074516E-01  0.00000000000E+00 0.  1.
     999901    1    3    3    0    0 -0.91827667290E-01 -0.33081315531E-01  0.56864300418E-01  0.88722051519E+00  0.88000000000E+00 0. -1.
        -11    1    4    4    0    0  0.55678053331E-01  0.17809551997E-01 -0.28806715865E-01  0.65171418313E-01  0.51100000000E-03 0.  1.
         11    1    4    4    0    0  0.45052340307E-01  0.31662452707E-01 -0.41154143246E-01  0.68746991977E-01  0.51100000000E-03 0. -1.
</event>
<event>
 8    1  0.1131349E+005  0.1043930E+01  0.7957747E-01            NaN
         13   -1    0    0    0    0  0.00000000000E+00  0.00000000000E+00  0.74505805969E-08  0.10566000000E+00  0.10566000000E+00 0. -1.
     999900   -1    0    0    0    0 -0.00000000000E+00 -0.00000000000E+00 -0.74505805969E-08  0.93827000000E+00  0.93827000000E+00 0. -1.
     999902    2    1    2    0    0 -0.14991085794E-01 -0.13066986882E-01 -0.11867758623E-01  0.10207713624E+01  0.10205086241E+01 0.  0.
     999903    2    3    3    0    0  0.66839025141E-01  0.64260423607E-01  0.86323050241E-01  0.12818123789E+00  0.19542349432E-01 0.  0.
         14    1    1    2    0    0  0.14991085794E-01  0.13066986882E-01  0.11867758623E-01  0.23158637572E-01  0.00000000000E+00 0. -1.
     999901    1    3    3    0    0 -0.81830110935E-01 -0.77327410490E-01 -0.98190808864E-01  0.89259012453E+00  0.88000000000E+00 0. -1.
        -11    1    4    4    0    0  0.18044265669E-01  0.69841033962E-02  0.20715820267E-01  0.28351006228E-01  0.51100000000E-03 0.  1.
         11    1    4    4    0    0  0.48794759472E-01  0.57276320211E-01  0.65607229973E-01  0.99830231667E-01  0.51100000000E-03 0. -1.
</event>
<event>
 7    1  0.1131349E+005  0.1043930E+01  0.7957747E-01            NaN
         13   -1    0    0    0    0  0.00000000000E+00  0.00000000000E+00  0.74505805969E-08  0.10566000000E+00  0.10566000000E+00 0. -1.
     999900   -1    0    0    0    0 -0.00000000000E+00 -0.00000000000E+00 -0.74505805969E-08  0.93827000000E+00  0.93827000000E+00 0. -1.
     999902    2    1    2    0    0  0.16823704157E-01 -0.15063588431E-01 -0.76045602210E-02  0.10201019062E+01  0.10198235735E+01 0.  0.
         14    1    1    2    0    0 -0.16823704157E-01  0.15063588431E-01  0.76045602210E-02  0.23828093800E-01  0.00000000000E+00 0. -1.
     999901    1    3    3    0    0 -0.95715998165E-01  0.16550086638E-01 -0.57890586679E-01  0.88723546914E+00  0.88000000000E+00 0.  1.
        -11    1    3    3    0    0  0.43889040220E-01 -0.26725144868E-01  0.77834185858E-02  0.51974262337E-01  0.51100000000E-03 0.  1.
         11    1    3    3    0    0  0.68650662102E-01 -0.48885302016E-02  0.42502607872E-01  0.80892174724E-01  0.51100000000E-03 0. -1.
</event>
<event>
 8    1  0.1131349E+005  0.1043930E+01  0.7957747E-01            NaN
         13   -1    0    0    0    0  0.00000000000E+00  0.00000000000E+00  0.74505805969E-08  0.10566000000E+00  0.10566000000E+00 0.  1.
     999900   -1    0    0    0    0 -0.00000000000E+00 -0.00000000000E+00 -0.74505805969E-08  0.93827000000E+00  0.93827000000E+00 0.  1.
     999902    2    1    2    0    0  0.15194302195E-01 -0.20364853533E-01 -0.40956890852E-02  0.10181934744E+01  0.10178681558E+01 0.  0.
     999903    2    3    3    0    0  0.57096207534E-01 -0.11537149558E+00 -0.20110572574E-01  0.13194378717E+00  0.20836720865E-01 0.  0.
         14    1    1    2    0    0 -0.15194302195E-01  0.20364853533E-01  0.40956890852E-02  0.25736525556E-01  0.00000000000E+00 0.  1.
     999901    1    3    3    0    0 -0.41901905340E-01  0.95006642044E-01  0.16014883489E-01  0.88624968728E+00  0.88000000000E+00 0. -1.
        -11    1    4    4    0    0  0.25871917817E-01 -0.57969147899E-01 -0.20126490686E-01  0.66596658985E-01  0.51100000000E-03 0.  1.
         11    1    4    4    0    0  0.31224289717E-01 -0.57402347678E-01  0.15918111976E-04  0.65347128183E-01  0.51100000000E-03 0. -1.
</event>
<event>
 8    1  0.1131349E+005  0.1043930E+01  0.7957747E-01            NaN
         13   -1    0    0    0    0  0.00000000000E+00  0.00000000000E+00  0.74505805969E-08  0.10566000000E+00  0.10566000000E+00 0. -1.
     999900   -1    0    0    0    0 -0.00000000000E+00 -0.00000000000E+00 -0.74505805969E-08  0.93827000000E+00  0.93827000000E+00 0.  1.
     999902    2    1    2    0    0  0.47664447912E-02  0.17183959126E-01  0.13923952904E-01  0.10213051484E+01  0.10210545148E+01 0.  0.
     999903    2    3    3    0    0  0.24668554899E-01 -0.12374228849E+00  0.22407796450E-01  0.12982981115E+00  0.20808146453E-01 0.  0.
         14    1    1    2    0    0 -0.47664447912E-02 -0.17183959126E-01 -0.13923952904E-01  0.22624851638E-01  0.00000000000E+00 0. -1.
     999901    1    3    3    0    0 -0.19902110108E-01  0.14092624762E+00 -0.84838435466E-02  0.89147533721E+00  0.88000000000E+00 0. -1.
        -11    1    4    4    0    0  0.11933492795E-01 -0.20748245486E-01  0.67622881973E-02  0.24877451712E-01  0.51100000000E-03 0. -1.
         11    1    4    4    0    0  0.12735062104E-01 -0.10299404301E+00  0.15645508253E-01  0.10495235944E+00  0.51100000000E-03 0.  1.
</event>
<event>
 8    1  0.1131349E+005  0.1043930E+01  0.7957747E-01            NaN
         13   -1    0    0    0    0  0.00000000000E+00  0.00000000000E+00  0.74505805969E-08  0.10566000000E+00  0.10566000000E+00 0.  1.
     999900   -1    0    0    0    0 -0.00000000000E+00 -0.00000000000E+00 -0.74505805969E-08  0.93827000000E+00  0.93827000000E+00 0. -1.
     999902    2    1    2    0    0  0.23355459553E-01  0.28624006851E-02  0.69352007973E-02  0.10193990433E+01  0.10191038424E+01 0.  0.
     999903    2    3    3    0    0 -0.32955486026E-01 -0.28314698439E-01 -0.11900136848E+00  0.12810618814E+00  0.19028492654E-01 0.  0.
         14    1    1    2    0    0 -0.23355459553E-01 -0.28624006851E-02 -0.69352007973E-02  0.24530956743E-01  0.00000000000E+00 0.  1.
     999901    1    3    3    0    0  0.56310945580E-01  0.31177099124E-01  0.12593656928E+00  0.89129285512E+00  0.88000000000E+00 0.  1.
        -11    1    4    4    0    0 -0.30781864344E-01 -0.24102066949E-01 -0.82513232815E-01  0.91307872138E-01  0.51100000000E-03 0. -1.
         11    1    4    4    0    0 -0.21736216822E-02 -0.42126314897E-02 -0.36488135665E-01  0.36798316002E-01  0.51100000000E-03 0.  1.
</event>
<event>
 8    1  0.1131349E+005  0.1043930E+01  0.7957747E-01            NaN
         13   -1    0    0    0    0  0.00000000000E+00  0.00000000000E+00  0.74505805969E-08  0.10566000000E+00  0.10566000000E+00 0. -1.
     999900   -1    0    0    0    0 -0.00000000000E+00 -0.00000000000E+00 -0.74505805969E-08  0.93827000000E+00  0.93827000000E+00 0.  1.
     999902    2    1    2    0    0 -0.91761887758E-02  0.17383345978E-01 -0.14325555048E-01  0.10196070749E+01  0.10193169196E+01 0.  0.
     999903    2    3    3    0    0  0.10709079218E+00  0.66705220448E-01 -0.11695080201E-01  0.13058650284E+00  0.31591701723E-01 0.  0.
         14    1    1    2    0    0  0.91761887758E-02 -0.17383345978E-01  0.14325555048E-01  0.24322925097E-01  0.00000000000E+00 0.  1.
     999901    1    3    3    0    0 -0.11626698095E+00 -0.49321874470E-01 -0.26304748472E-02  0.88902057207E+00  0.88000000000E+00 0.  1.
        -11    1    4    4    0    0  0.74423707132E-01  0.42765249644E-01  0.67069829795E-02  0.86098777588E-01  0.51100000000E-03 0.  1.
         11    1    4    4    0    0  0.32667085045E-01  0.23939970803E-01 -0.18402063180E-01  0.44487725248E-01  0.51100000000E-03 0. -1.
</event>
<event>
 8    1  0.1131349E+005  0.1043930E+01  0.7957747E-01            NaN
         13   -1    0    0    0    0  0.00000000000E+00  0.00000000000E+00  0.74505805969E-08  0.10566000000E+00  0.10566000000E+00 0. -1.
     999900   -1    0    0    0    0 -0.00000000000E+00 -0.00000000000E+00 -0.74505805969E-08  0.93827000000E+00  0.93827000000E+00 0.  1.
     999902    2    1    2    0    0 -0.14836195729E-01  0.23405868619E-01  0.74586920540E-02  0.10152319256E+01  0.10148262330E+01 0.  0.
     999903    2    3    3    0    0  0.79440359100E-01  0.25907750857E-01 -0.90596610796E-01  0.12477745136E+00  0.19485488740E-01 0.  0.
         14    1    1    2    0    0  0.14836195729E-01 -0.23405868619E-01 -0.74586920540E-02  0.28698074441E-01  0.00000000000E+00 0.  1.
     999901    1    3    3    0    0 -0.94276554828E-01 -0.25018822379E-02  0.98055302851E-01  0.89045447420E+00  0.88000000000E+00 0. -1.
        -11    1    4    4    0    0  0.12540963040E-01  0.43975355125E-02 -0.26556524151E-01  0.29700575222E-01  0.51100000000E-03 0. -1.
         11    1    4    4    0    0  0.66899396060E-01  0.21510215344E-01 -0.64040086646E-01  0.95076876137E-01  0.51100000000E-03 0.  1.
</event>
<event>
 8    1  0.1131349E+005  0.1043930E+01  0.7957747E-01            NaN
         13   -1    0    0    0    0  0.00000000000E+00  0.00000000000E+00  0.74505805969E-08  0.10566000000E+00  0.10566000000E+00 0.  1.
     999900   -1    0    0    0    0 -0.00000000000E+00 -0.00000000000E+00 -0.74505805969E-08  0.93827000000E+00  0.93827000000E+00 0. -1.
     999902    2    1    2    0    0  0.95249619096E-02 -0.17143735685E-01  0.10937490287E-01  0.10214742376E+01  0.10212273776E+01 0.  0.
     999903    2    3    3    0    0 -0.53603836024E-01  0.78855220454E-02  0.11899039832E+00  0.13226833351E+00  0.20016105132E-01 0.  0.
         14    1    1    2    0    0 -0.95249619096E-02  0.17143735685E-01 -0.10937490287E-01  0.22455762432E-01  0.00000000000E+00 0. -1.
     999901    1    3    3    0    0  0.63128797934E-01 -0.25029257731E-01 -0.10805290803E+00  0.88920590405E+00  0.88000000000E+00 0. -1.
        -11    1    4    4    0    0 -0.54959127501E-01  0.60186498329E-02  0.11552201119E+00  0.12807156605E+00  0.51100000000E-03 0.  1.
         11    1    4    4    0    0  0.13552914768E-02  0.18668722125E-02  0.34683871281E-02  0.41967674603E-02  0.51100000000E-03 0. -1.
</event>
<event>
 8    1  0.1131349E+005  0.1043930E+01  0.7957747E-01            NaN
         13   -1    0    0    0    0  0.00000000000E+00  0.00000000000E+00  0.74505805969E-08  0.10566000000E+00  0.10566000000E+00 0. -1.
     999900   -1    0    0    0    0 -0.00000000000E+00 -0.00000000000E+00 -0.74505805969E-08  0.93827000000E+00  0.93827000000E+00 0. -1.
     999902    2    1    2    0    0 -0.13817787432E-01  0.82080640885E-02 -0.17746063860E-01  0.10199878541E+01  0.10197068188E+01 0.  0.
     999903    2    3    3    0    0  0.12274556751E+00  0.34084841562E-01 -0.33388271613E-02  0.12896219458E+00  0.19795178638E-01 0.  0.
         14    1    1    2    0    0  0.13817787432E-01 -0.82080640885E-02  0.17746063860E-01  0.23942145855E-01  0.00000000000E+00 0. -1.
     999901    1    3    3    0    0 -0.13656335494E+00 -0.25876777473E-01 -0.14407236699E-01  0.89102565956E+00  0.88000000000E+00 0. -1.
        -11    1    4    4    0    0  0.99479964898E-01  0.23945079393E-01  0.44219997623E-02  0.10241799376E+00  0.51100000000E-03 0.  1.
         11    1    4    4    0    0  0.23265602614E-01  0.10139762169E-01 -0.77608269236E-02  0.26544200824E-01  0.51100000000E-03 0. -1.
</event>
<event>
 8    1  0.1131349E+005  0.1043930E+01  0.7957747E-01            NaN
         13   -1    0    0    0    0  0.00000000000E+00  0.00000000000E+00  0.74505805969E-08  0.10566000000E+00  0.10566000000E+00 0.  1.
     999900   -1    0    0    0    0 -0.00000000000E+00 -0.00000000000E+00 -0.74505805969E-08  0.93827000000E+00  0.93827000000E+00 0. -1.
     999902    2    1    2    0    0 -0.18621814190E-01 -0.10991730780E-01  0.10672446126E-01  0.10198158710E+01  0.10195307350E+01 0.  0.
     999903    2    3    3    0    0 -0.57305503190E-01 -0.10624827068E+00  0.52822600433E-01  0.13282834480E+00  0.16748920841E-01 0.  0.
         14    1    1    2    0    0  0.18621814190E-01  0.10991730780E-01 -0.10672446126E-01  0.24114128962E-01  0.00000000000E+00 0. -1.
     999901    1    3    3    0    0  0.38683689000E-01  0.95256539895E-01 -0.42150154307E-01  0.88698752623E+00  0.88000000000E+00 0. -1.
        -11    1    4    4    0    0 -0.21467546811E-01 -0.57410321775E-01  0.26552286313E-01  0.66798844614E-01  0.51100000000E-03 0.  1.
         11    1    4    4    0    0 -0.35837956379E-01 -0.48837948900E-01  0.26270314120E-01  0.66029500189E-01  0.51100000000E-03 0. -1.
</event>
<event>
 7    1  0.1131349E+005  0.1043930E+01  0.7957747E-01            NaN
         13   -1    0    0    0    0  0.00000000000E+00  0.00000000000E+00  0.74505805969E-08  0.10566000000E+00  0.10566000000E+00 0.  1.
     999900   -1    0    0    0    0 -0.00000000000E+00 -0.00000000000E+00 -0.74505805969E-08  0.93827000000E+00  0.93827000000E+00 0.  1.
     999902    2    1    2    0    0 -0.11354595185E-01 -0.19759941925E-01 -0.42327528766E-02  0.10207503034E+01  0.10204870815E+01 0.  0.
         14    1    1    2    0    0  0.11354595185E-01  0.19759941925E-01  0.42327528766E-02  0.23179696581E-01  0.00000000000E+00 0. -1.
     999901    1    3    3    0    0 -0.39588784251E-01  0.11465207386E-01 -0.12776790756E+00  0.89018164496E+00  0.88000000000E+00 0.  1.
        -11    1    3    3    0    0  0.47071914993E-02 -0.47096036394E-02  0.15908806394E-01  0.17253673816E-01  0.51100000000E-03 0. -1.
         11    1    3    3    0    0  0.23526997567E-01 -0.26515545671E-01  0.10762634829E+00  0.11331498464E+00  0.51100000000E-03 0.  1.
</event>
<event>
 8    1  0.1131349E+005  0.1043930E+01  0.7957747E-01            NaN
         13   -1    0    0    0    0  0.00000000000E+00  0.00000000000E+00  0.74505805969E-08  0.10566000000E+00  0.10566000000E+00 0. -1.
     999900   -1    0    0    0    0 -0.00000000000E+00 -0.00000000000E+00 -0.74505805969E-08  0.93827000000E+00  0.93827000000E+00 0.  1.
     999902    2    1    2    0    0  0.81539326542E-02  0.15075829329E-01 -0.15548220740E-01  0.10207888156E+01  0.10205264777E+01 0.  0.
     999903    2    3    3    0    0  0.45304479123E-01  0.88260637540E-01  0.84039968587E-01  0.13137665764E+00  0.18832787505E-01 0.  0.
         14    1    1    2    0    0 -0.81539326542E-02 -0.15075829329E-01  0.15548220740E-01  0.23141184409E-01  0.00000000000E+00 0. -1.
     999901    1    3    3    0    0 -0.37150546469E-01 -0.73184808211E-01 -0.99588189327E-01  0.88941215795E+00  0.88000000000E+00 0.  1.
        -11    1    4    4    0    0  0.38454084863E-01  0.64002704932E-01  0.53941960900E-01  0.92114380788E-01  0.51100000000E-03 0. -1.
         11    1    4    4    0    0  0.68503942599E-02  0.24257932608E-01  0.30098007687E-01  0.39262276852E-01  0.51100000000E-03 0.  1.
</event>
<event>
 8    1  0.1131349E+005  0.1043930E+01  0.7957747E-01            NaN
         13   -1    0    0    0    0  0.00000000000E+00  0.00000000000E+00  0.74505805969E-08  0.10566000000E+00  0.10566000000E+00 0.  1.
     999900   -1    0    0    0    0 -0.00000000000E+00 -0.00000000000E+00 -0.74505805969E-08  0.93827000000E+00  0.93827000000E+00 0.  1.
     999902    2    1    2    0    0  0.15069835300E-01 -0.20286760083E-02 -0.19573121166E-01  0.10191444693E+01  0.10188430334E+01 0.  0.
     999903    2    3    3    0    0 -0.70075301197E-01 -0.10414763521E+00 -0.22724024642E-01  0.12915126462E+00  0.20159119535E-01 0.  0.
         14    1    1    2    0    0 -0.15069835300E-01  0.20286760083E-02  0.19573121166E-01  0.24785530749E-01  0.00000000000E+00 0.  1.
     999901    1    3    3    0    0  0.85145136497E-01  0.10211895920E+00  0.31509034756E-02  0.88999320463E+00  0.88000000000E+00 0. -1.
        -11    1    4    4    0    0 -0.34996824134E-01 -0.34474477961E-01 -0.84629342842E-02  0.49851275890E-01  0.51100000000E-03 0. -1.
         11    1    4    4    0    0 -0.35078477062E-01 -0.69673157245E-01 -0.14261090358E-01  0.79299988730E-01  0.51100000000E-03 0.  1.
</event>
<event>
 8    1  0.1131349E+005  0.1043930E+01  0.7957747E-01            NaN
         13   -1    0    0    0    0  0.00000000000E+00  0.00000000000E+00  0.74505805969E-08  0.10566000000E+00  0.10566000000E+00 0. -1.
     999900   -1    0    0    0    0 -0.00000000000E+00 -0.00000000000E+00 -0.74505805969E-08  0.93827000000E+00  0.93827000000E+00 0. -1.
     999902    2    1    2    0    0  0.23454934196E-01  0.66182775796E-03 -0.46301074264E-02  0.10200132726E+01  0.10197328407E+01 0.  0.
     999903    2    3    3    0    0  0.12782037022E+00 -0.19994374914E-01  0.24463189693E-01  0.13312813750E+00  0.19668026671E-01 0.  0.
         14    1    1    2    0    0 -0.23454934196E-01 -0.66182775796E-03  0.46301074264E-02  0.23916727387E-01  0.00000000000E+00 0. -1.
     999901    1    3    3    0    0 -0.10436543602E+00  0.20656202672E-01 -0.29093297119E-01  0.88688513511E+00  0.88000000000E+00 0. -1.
        -11    1    4    4    0    0  0.65073821755E-01 -0.31745129537E-02  0.19337875493E-01  0.67962448160E-01  0.51100000000E-03 0.  1.
         11    1    4    4    0    0  0.62746548465E-01 -0.16819861960E-01  0.51253141991E-02  0.65165689341E-01  0.51100000000E-03 0. -1.
</event>
<event>
 8    1  0.1131349E+005  0.1043930E+01  0.7957747E-01            NaN
         13   -1    0    0    0    0  0.00000000000E+00  0.00000000000E+00  0.74505805969E-08  0.10566000000E+00  0.10566000000E+00 0. -1.
     999900   -1    0    0    0    0 -0.00000000000E+00 -0.00000000000E+00 -0.74505805969E-08  0.93827000000E+00  0.93827000000E+00 0. -1.
     999902    2    1    2    0    0 -0.11111892374E-01  0.23273428390E-03  0.20608546073E-01  0.10205154642E+01  0.10202468192E+01 0.  0.
     999903    2    3    3    0    0  0.50194339638E-01 -0.88909363492E-01 -0.75941311711E-01  0.12864852189E+00  0.18947630755E-01 0.  0.
         14    1    1    2    0    0  0.11111892374E-01 -0.23273428390E-03 -0.20608546073E-01  0.23414535841E-01  0.00000000000E+00 0.  1.
     999901    1    3    3    0    0 -0.61306232012E-01  0.89142097776E-01  0.96549857784E-01  0.89186694227E+00  0.88000000000E+00 0.  1.
        -11    1    4    4    0    0  0.29082761024E-01 -0.41365665551E-01 -0.47401264054E-01  0.69311371579E-01  0.51100000000E-03 0. -1.
         11    1    4    4    0    0  0.21111578614E-01 -0.47543697941E-01 -0.28540047656E-01  0.59337150308E-01  0.51100000000E-03 0.  1.
</event>
<event>
 8    1  0.1131349E+005  0.1043930E+01  0.7957747E-01            NaN
         13   -1    0    0    0    0  0.00000000000E+00  0.00000000000E+00  0.74505805969E-08  0.10566000000E+00  0.10566000000E+00 0.  1.
     999900   -1    0    0    0    0 -0.00000000000E+00 -0.00000000000E+00 -0.74505805969E-08  0.93827000000E+00  0.93827000000E+00 0.  1.
     999902    2    1    2    0    0  0.88135533380E-03  0.80009349593E-02 -0.22688930891E-01  0.10198555461E+01  0.10195713587E+01 0.  0.
     999903    2    3    3    0    0 -0.89471521346E-01  0.49428046715E-01 -0.81292089789E-01  0.13232291109E+00  0.21275901913E-01 0.  0.
         14    1    1    2    0    0 -0.88135533380E-03 -0.80009349593E-02  0.22688930891E-01  0.24074453938E-01  0.00000000000E+00 0.  1.
     999901    1    3    3    0    0  0.90352876680E-01 -0.41427111756E-01  0.58603158899E-01  0.88753263498E+00  0.88000000000E+00 0. -1.
        -11    1    4    4    0    0 -0.22389568050E-01  0.10198533909E-01 -0.31718672465E-01  0.40145213355E-01  0.51100000000E-03 0.  1.
         11    1    4    4    0    0 -0.67081953296E-01  0.39229512806E-01 -0.49573417324E-01  0.92177697732E-01  0.51100000000E-03 0. -1.
</event>
<event>
 8    1  0.1131349E+005  0.1043930E+01  0.7957747E-01            NaN
         13   -1    0    0    0    0  0.00000000000E+00  0.00000000000E+00  0.74505805969E-08  0.10566000000E+00  0.10566000000E+00 0.  1.
     999900   -1    0    0    0    0 -0.00000000000E+00 -0.00000000000E+00 -0.74505805969E-08  0.93827000000E+00  0.93827000000E+00 0.  1.
     999902    2    1    2    0    0 -0.19237272244E-01  0.47216842370E-02  0.13256558879E-01  0.10200950824E+01  0.10198165883E+01 0.  0.
     999903    2    3    3    0    0  0.21478055751E-01  0.12023067230E+00 -0.39923677223E-01  0.13002306181E+00  0.19884042797E-01 0.  0.
         14    1    1    2    0    0  0.19237272244E-01 -0.47216842370E-02 -0.13256558879E-01  0.23834917637E-01  0.00000000000E+00 0.  1.
     999901    1    3    3    0    0 -0.40715327996E-01 -0.11550898807E+00  0.53180236102E-01  0.89007202055E+00  0.88000000000E+00 0.  1.
        -11    1    4    4    0    0  0.13700110275E-01  0.29413802519E-01 -0.13219064800E-01  0.35040970240E-01  0.51100000000E-03 0.  1.
         11    1    4    4    0    0  0.77779454761E-02  0.90816869786E-01 -0.26704612423E-01  0.94982091571E-01  0.51100000000E-03 0. -1.
</event>
<event>
 8    1  0.1131349E+005  0.1043930E+01  0.7957747E-01            NaN
         13   -1    0    0    0    0  0.00000000000E+00  0.00000000000E+00  0.74505805969E-08  0.10566000000E+00  0.10566000000E+00 0. -1.
     999900   -1    0    0    0    0 -0.00000000000E+00 -0.00000000000E+00 -0.74505805969E-08  0.93827000000E+00  0.93827000000E+00 0. -1.
     999902    2    1    2    0    0  0.20582000955E-01  0.15320742500E-02  0.11260237529E-01  0.10204191735E+01  0.10201482885E+01 0.  0.
     999903    2    3    3    0    0  0.17344358223E-01  0.67089078996E-01 -0.10809464745E+00  0.12993964436E+00  0.19952119829E-01 0.  0.
         14    1    1    2    0    0 -0.20582000955E-01 -0.15320742500E-02 -0.11260237529E-01  0.23510826528E-01  0.00000000000E+00 0.  1.
     999901    1    3    3    0    0  0.32376427328E-02 -0.65557004746E-01  0.11935488498E+00  0.89047952911E+00  0.88000000000E+00 0.  1.
        -11    1    4    4    0    0  0.17689566441E-01  0.35796714539E-01 -0.70482045187E-01  0.81008057299E-01  0.51100000000E-03 0. -1.
         11    1    4    4    0    0 -0.34520821845E-03  0.31292364457E-01 -0.37612602264E-01  0.48931587059E-01  0.51100000000E-03 0.  1.
</event>
<event>
 8    1  0.1131349E+005  0.1043930E+01  0.7957747E-01            NaN
         13   -1    0    0    0    0  0.00000000000E+00  0.00000000000E+00  0.74505805969E-08  0.10566000000E+00  0.10566000000E+00 0. -1.
     999900   -1    0    0    0    0 -0.00000000000E+00 -0.00000000000E+00 -0.74505805969E-08  0.93827000000E+00  0.93827000000E+00 0.  1.
     999902    2    1    2    0    0 -0.14864266178E-01  0.78306903516E-02  0.17298665308E-01  0.10198154828E+01  0.10195303374E+01 0.  0.
     999903    2    3    3    0    0 -0.29948101979E-01  0.75431866034E-01 -0.98768447761E-01  0.12949586835E+00  0.20666843543E-01 0.  0.
         14    1    1    2    0    0  0.14864266178E-01 -0.78306903516E-02 -0.17298665308E-01  0.24114517243E-01  0.00000000000E+00 0.  1.
     999901    1    3    3    0    0  0.15083835801E-01 -0.67601175682E-01  0.11606711307E+00  0.89031961440E+00  0.88000000000E+00 0. -1.
        -11    1    4    4    0    0 -0.83966170030E-02  0.48512930798E-02 -0.14850193465E-01  0.17743381543E-01  0.51100000000E-03 0.  1.
         11    1    4    4    0    0 -0.21551484976E-01  0.70580572954E-01 -0.83918254296E-01  0.11175248681E+00  0.51100000000E-03 0. -1.
</event>
<event>
 8    1  0.1131349E+005  0.1043930E+01  0.7957747E-01            NaN
         13   -1    0    0    0    0  0.00000000000E+00  0.00000000000E+00  0.74505805969E-08  0.10566000000E+00  0.10566000000E+00 0. -1.
     999900   -1    0    0    0    0 -0.00000000000E+00 -0.00000000000E+00 -0.74505805969E-08  0.93827000000E+00  0.93827000000E+00 0.  1.
     999902    2    1    2    0    0  0.11285039922E-01  0.46746436479E-03  0.21668302444E-01  0.10194946572E+01  0.10192017808E+01 0.  0.
     999903    2    3    3    0    0  0.12310392909E+00 -0.35506152379E-01  0.23443853086E-01  0.13168796781E+00  0.19412429097E-01 0.  0.
         14    1    1    2    0    0 -0.11285039922E-01 -0.46746436479E-03 -0.21668302444E-01  0.24435342841E-01  0.00000000000E+00 0.  1.
     999901    1    3    3    0    0 -0.11181888917E+00  0.35973616744E-01 -0.17755506423E-02  0.88780668935E+00  0.88000000000E+00 0.  1.
        -11    1    4    4    0    0  0.28091961492E-01 -0.16566292023E-01  0.79804444389E-02  0.33578995612E-01  0.51100000000E-03 0.  1.
         11    1    4    4    0    0  0.95011967599E-01 -0.18939860355E-01  0.15463408647E-01  0.98108972196E-01  0.51100000000E-03 0. -1.
</event>
<event>
 8    1  0.1131349E+005  0.1043930E+01  0.7957747E-01            NaN
         13   -1    0    0    0    0  0.00000000000E+00  0.00000000000E+00  0.74505805969E-08  0.10566000000E+00  0.10566000000E+00 0. -1.
     999900   -1    0    0    0    0 -0.00000000000E+00 -0.00000000000E+00 -0.74505805969E-08  0.93827000000E+00  0.93827000000E+00 0. -1.
     999902    2    1    2    0    0  0.38552769207E-03 -0.17755623017E-01 -0.13867637627E-01  0.10213973092E+01  0.10211487360E+01 0.  0.
     999903    2    3    3    0    0 -0.12228993903E+00 -0.15056748470E-01  0.40842141087E-01  0.13120086239E+00  0.19080119033E-01 0.  0.
         14    1    1    2    0    0 -0.38552769207E-03  0.17755623017E-01  0.13867637627E-01  0.22532690778E-01  0.00000000000E+00 0. -1.
     999901    1    3    3    0    0  0.12267546672E+00 -0.26988745465E-02 -0.54709778714E-01  0.89019644683E+00  0.88000000000E+00 0.  1.
        -11    1    4    4    0    0 -0.47814126772E-01 -0.15180912472E-01  0.14906888161E-01  0.52336672211E-01  0.51100000000E-03 0.  1.
         11    1    4    4    0    0 -0.74475812256E-01  0.12416400117E-03  0.25935252926E-01  0.78864190183E-01  0.51100000000E-03 0. -1.
</event>
<event>
 8    1  0.1131349E+005  0.1043930E+01  0.7957747E-01            NaN
         13   -1    0    0    0    0  0.00000000000E+00  0.00000000000E+00  0.74505805969E-08  0.10566000000E+00  0.10566000000E+00 0. -1.
     999900   -1    0    0    0    0 -0.00000000000E+00 -0.00000000000E+00 -0.74505805969E-08  0.93827000000E+00  0.93827000000E+00 0.  1.
     999902    2    1    2    0    0 -0.65466066696E-02  0.20203793780E-01 -0.12656947688E-01  0.10192065361E+01  0.10189066265E+01 0.  0.
     999903    2    3    3    0    0  0.12127117398E+00 -0.31357290814E-01 -0.19800956564E-01  0.12845013430E+00  0.20429924023E-01 0.  0.
         14    1    1    2    0    0  0.65466066696E-02 -0.20203793780E-01  0.12656947688E-01  0.24723463891E-01  0.00000000000E+00 0. -1.
     999901    1    3    3    0    0 -0.12781778065E+00  0.51561084595E-01  0.71440088761E-02  0.89075640181E+00  0.88000000000E+00 0.  1.
        -11    1    4    4    0    0  0.33650465867E-01  0.50252811171E-03 -0.41970654189E-02  0.33918768650E-01  0.51100000000E-03 0. -1.
         11    1    4    4    0    0  0.87620708114E-01 -0.31859818926E-01 -0.15603891145E-01  0.94531365654E-01  0.51100000000E-03 0.  1.
</event>
<event>
 8    1  0.1131349E+005  0.1043930E+01  0.7957747E-01            NaN
         13   -1    0    0    0    0  0.00000000000E+00  0.00000000000E+00  0.74505805969E-08  0.10566000000E+00  0.10566000000E+00 0.  1.
     999900   -1    0    0    0    0 -0.00000000000E+00 -0.00000000000E+00 -0.74505805969E-08  0.93827000000E+00  0.93827000000E+00 0.  1.
     999902    2    1    2    0    0  0.23248825524E-01  0.40297491694E-02 -0.91832978273E-03  0.10203166543E+01  0.10200433740E+01 0.  0.
     999903    2    3    3    0    0 -0.40188490677E-01 -0.96325870194E-01  0.73310434072E-01  0.12924681818E+00  0.20893353331E-01 0.  0.
         14    1    1    2    0    0 -0.23248825524E-01 -0.40297491694E-02  0.91832978273E-03  0.23613345723E-01  0.00000000000E+00 0. -1.
     999901    1    3    3    0    0  0.63437316201E-01  0.10035561936E+00 -0.74228763855E-01  0.89106983610E+00  0.88000000000E+00 0.  1.
        -11    1    4    4    0    0 -0.27599897822E-01 -0.45317396181E-01  0.44933938474E-01  0.69532299718E-01  0.51100000000E-03 0. -1.
         11    1    4    4    0    0 -0.12588592855E-01 -0.51008474014E-01  0.28376495599E-01  0.59714518459E-01  0.51100000000E-03 0.  1.
</event>
<event>
 8    1  0.1131349E+005  0.1043930E+01  0.7957747E-01            NaN
         13   -1    0    0    0    0  0.00000000000E+00  0.00000000000E+00  0.74505805969E-08  0.10566000000E+00  0.10566000000E+00 0.  1.
     999900   -1    0    0    0    0 -0.00000000000E+00 -0.00000000000E+00 -0.74505805969E-08  0.93827000000E+00  0.93827000000E+00 0.  1.
     999902    2    1    2    0    0  0.22001683480E-02 -0.14109108203E-01  0.19091092325E-01  0.10200893314E+01  0.10198107013E+01 0.  0.
     999903    2    3    3    0    0 -0.28252511489E-01 -0.11922381287E+00  0.47614864613E-01  0.13285200548E+00  0.19234294060E-01 0.  0.
         14    1    1    2    0    0 -0.22001683480E-02  0.14109108203E-01 -0.19091092325E-01  0.23840668640E-01  0.00000000000E+00 0. -1.
     999901    1    3    3    0    0  0.30452679837E-01  0.10511470467E+00 -0.28523772288E-01  0.88723732588E+00  0.88000000000E+00 0.  1.
        -11    1    4    4    0    0 -0.67078500650E-04 -0.37852439869E-01  0.16354745068E-01  0.41237731640E-01  0.51100000000E-03 0. -1.
         11    1    4    4    0    0 -0.28185432988E-01 -0.81371372999E-01  0.31260119545E-01  0.91614273841E-01  0.51100000000E-03 0.  1.
</event>
<event>
 8    1  0.1131349E+005  0.1043930E+01  0.7957747E-01            NaN
         13   -1    0    0    0    0  0.00000000000E+00  0.00000000000E+00  0.74505805969E-08  0.10566000000E+00  0.10566000000E+00 0.  1.
     999900   -1    0    0    0    0 -0.00000000000E+00 -0.00000000000E+00 -0.74505805969E-08  0.93827000000E+00  0.93827000000E+00 0. -1.
     999902    2    1    2    0    0 -0.19715472978E-01  0.12098155584E-01 -0.58310218007E-02  0.10200748945E+01  0.10197959229E+01 0.  0.
     999903    2    3    3    0    0  0.42470080299E-01 -0.37784729748E-01 -0.11478388393E+00  0.12977939779E+00  0.20879620675E-01 0.  0.
         14    1    1    2    0    0  0.19715472978E-01 -0.12098155584E-01  0.58310218007E-02  0.23855105502E-01  0.00000000000E+00 0.  1.
     999901    1    3    3    0    0 -0.62185553277E-01  0.49882885332E-01  0.10895286213E+00  0.89029549670E+00  0.88000000000E+00 0. -1.
        -11    1    4    4    0    0  0.15364998410E-01 -0.27413381110E-01 -0.55891109879E-01  0.64122179661E-01  0.51100000000E-03 0.  1.
         11    1    4    4    0    0  0.27105081889E-01 -0.10371348638E-01 -0.58892774049E-01  0.65657218133E-01  0.51100000000E-03 0. -1.
</event>
<event>
 8    1  0.1131349E+005  0.1043930E+01  0.7957747E-01            NaN
         13   -1    0    0    0    0  0.00000000000E+00  0.00000000000E+00  0.74505805969E-08  0.10566000000E+00  0.10566000000E+00 0.  1.
     999900   -1    0    0    0    0 -0.00000000000E+00 -0.00000000000E+00 -0.74505805969E-08  0.93827000000E+00  0.93827000000E+00 0.  1.
     999902    2    1    2    0    0 -0.14665196069E-01  0.11894263766E-01  0.13470982117E-01  0.10207349823E+01  0.10204714084E+01 0.  0.
     999903    2    3    3    0    0 -0.80111320806E-01  0.87742438501E-01  0.58437632834E-01  0.13391023044E+00  0.20010838331E-01 0.  0.
         14    1    1    2    0    0  0.14665196069E-01 -0.11894263766E-01 -0.13470982117E-01  0.23195017687E-01  0.00000000000E+00 0. -1.
     999901    1    3    3    0    0  0.65446124736E-01 -0.75848174735E-01 -0.44966650717E-01  0.88682475187E+00  0.88000000000E+00 0.  1.
        -11    1    4    4    0    0 -0.78484713152E-01  0.82077684495E-01  0.51227419890E-01  0.12458373152E+00  0.51100000000E-03 0.  1.
         11    1    4    4    0    0 -0.16266076535E-02  0.56647540065E-02  0.72102129437E-02  0.93264989201E-02  0.51100000000E-03 0. -1.
</event>
<event>
 8    1  0.1131349E+005  0.1043930E+01  0.7957747E-01            NaN
         13   -1    0    0    0    0  0.00000000000E+00  0.00000000000E+00  0.74505805969E-08  0.10566000000E+00  0.10566000000E+00 0.  1.
     999900   -1    0    0    0    0 -0.00000000000E+00 -0.00000000000E+00 -0.74505805969E-08  0.93827000000E+00  0.93827000000E+00 0. -1.
     999902    2    1    2    0    0  0.88884495294E-02 -0.12790879347E-01  0.17835056669E-01  0.10202508873E+01  0.10199760648E+01 0.  0.
     999903    2    3    3    0    0 -0.10898534840E+00  0.55281950281E-01 -0.33867566598E-01  0.12828603175E+00  0.19400868062E-01 0.  0.
         14    1    1    2    0    0 -0.88884495294E-02  0.12790879347E-01 -0.17835056669E-01  0.23679112650E-01  0.00000000000E+00 0. -1.
     999901    1    3    3    0    0  0.11787379793E+00 -0.68072829628E-01  0.51702623267E-01  0.89196485560E+00  0.88000000000E+00 0. -1.
        -11    1    4    4    0    0 -0.67162836342E-01  0.30283560318E-01 -0.29503807523E-01  0.79364200937E-01  0.51100000000E-03 0. -1.
         11    1    4    4    0    0 -0.41822512061E-01  0.24998389963E-01 -0.43637590747E-02  0.48921830813E-01  0.51100000000E-03 0.  1.
</event>
<event>
 8    1  0.1131349E+005  0.1043930E+01  0.7957747E-01            NaN
         13   -1    0    0    0    0  0.00000000000E+00  0.00000000000E+00  0.74505805969E-08  0.10566000000E+00  0.10566000000E+00 0. -1.
     999900   -1    0    0    0    0 -0.00000000000E+00 -0.00000000000E+00 -0.74505805969E-08  0.93827000000E+00  0.93827000000E+00 0.  1.
     999902    2    1    2    0    0 -0.19706530273E-01 -0.12177838359E-01 -0.52428293750E-02  0.10201784876E+01  0.10199019620E+01 0.  0.
     999903    2    3    3    0    0  0.22063458813E-01  0.12208190739E+00  0.26504119495E-01  0.12845079367E+00  0.20158117881E-01 0.  0.
         14    1    1    2    0    0  0.19706530273E-01  0.12177838359E-01  0.52428293750E-02  0.23751512423E-01  0.00000000000E+00 0.  1.
     999901    1    3    3    0    0 -0.41769989086E-01 -0.13425974575E+00 -0.31746948870E-01  0.89172769391E+00  0.88000000000E+00 0.  1.
        -11    1    4    4    0    0  0.28088243058E-02  0.71567415174E-01  0.15211576060E-01  0.73221838108E-01  0.51100000000E-03 0.  1.
         11    1    4    4    0    0  0.19254634507E-01  0.50514492220E-01  0.11292543436E-01  0.55228955562E-01  0.51100000000E-03 0. -1.
</event>
<event>
 8    1  0.1131349E+005  0.1043930E+01  0.7957747E-01            NaN
         13   -1    0    0    0    0  0.00000000000E+00  0.00000000000E+00  0.74505805969E-08  0.10566000000E+00  0.10566000000E+00 0.  1.
     999900   -1    0    0    0    0 -0.00000000000E+00 -0.00000000000E+00 -0.74505805969E-08  0.93827000000E+00  0.93827000000E+00 0.  1.
     999902    2    1    2    0    0 -0.12457941661E-01 -0.21495662284E-01  0.52837616410E-02  0.10185295680E+01  0.10182127965E+01 0.  0.
     999903    2    3    3    0    0  0.45583178343E-01  0.15833477967E-01 -0.11618626991E+00  0.12750925126E+00  0.20756557269E-01 0.  0.
         14    1    1    2    0    0  0.12457941661E-01  0.21495662284E-01 -0.52837616410E-02  0.25400431975E-01  0.00000000000E+00 0. -1.
     999901    1    3    3    0    0 -0.58041120004E-01 -0.37329140251E-01  0.12147003155E+00  0.89102031676E+00  0.88000000000E+00 0. -1.
        -11    1    4    4    0    0  0.16841981581E-01  0.10995937934E-01 -0.26947690428E-01  0.33630375184E-01  0.51100000000E-03 0.  1.
         11    1    4    4    0    0  0.28741196763E-01  0.48375400333E-02 -0.89238579479E-01  0.93878876077E-01  0.51100000000E-03 0. -1.
</event>
<event>
 8    1  0.1131349E+005  0.1043930E+01  0.7957747E-01            NaN
         13   -1    0    0    0    0  0.00000000000E+00  0.00000000000E+00  0.74505805969E-08  0.10566000000E+00  0.10566000000E+00 0. -1.
     999900   -1    0    0    0    0 -0.00000000000E+00 -0.00000000000E+00 -0.74505805969E-08  0.93827000000E+00  0.93827000000E+00 0.  1.
     999902    2    1    2    0    0  0.16837586400E-01  0.66317311201E-02  0.14737652041E-01  0.10205915647E+01  0.10203246833E+01 0.  0.
     999903    2    3    3    0    0 -0.29300810659E-01  0.69269937365E-01 -0.10315857127E+00  0.12932739736E+00  0.20664538553E-01 0.  0.
         14    1    1    2    0    0 -0.16837586400E-01 -0.66317311201E-02 -0.14737652041E-01  0.23338435276E-01  0.00000000000E+00 0.  1.
     999901    1    3    3    0    0  0.46138397059E-01 -0.62638206245E-01  0.11789622331E+00  0.89126416737E+00  0.88000000000E+00 0. -1.
        -11    1    4    4    0    0 -0.26294403730E-01  0.53034068327E-01 -0.91973275780E-01  0.10937711209E+00  0.51100000000E-03 0.  1.
         11    1    4    4    0    0 -0.30064069283E-02  0.16235869038E-01 -0.11185295485E-01  0.19950285264E-01  0.51100000000E-03 0. -1.
</event>
<event>
 8    1  0.1131349E+005  0.1043930E+01  0.7957747E-01            NaN
         13   -1    0    0    0    0  0.00000000000E+00  0.00000000000E+00  0.74505805969E-08  0.10566000000E+00  0.10566000000E+00 0.  1.
     999900   -1    0    0    0    0 -0.00000000000E+00 -0.00000000000E+00 -0.74505805969E-08  0.93827000000E+00  0.93827000000E+00 0.  1.
     999902    2    1    2    0    0  0.41845092309E-02 -0.24226960984E-01 -0.21130283466E-02  0.10192536825E+01  0.10189549297E+01 0.  0.
     999903    2    3    3    0    0  0.28228949998E-01  0.11615935867E+00  0.37556232946E-01  0.12691960596E+00  0.20205086464E-01 0.  0.
         14    1    1    2    0    0 -0.41845092309E-02  0.24226960984E-01  0.21130283466E-02  0.24676317489E-01  0.00000000000E+00 0.  1.
     999901    1    3    3    0    0 -0.24044440767E-01 -0.14038631966E+00 -0.39669261292E-01  0.89233407655E+00  0.88000000000E+00 0.  1.
        -11    1    4    4    0    0  0.21020969114E-01  0.10398990892E+00  0.27632273518E-01  0.10963387232E+00  0.51100000000E-03 0.  1.
         11    1    4    4    0    0  0.72079808832E-02  0.12169449753E-01  0.99239594278E-02  0.17285733639E-01  0.51100000000E-03 0. -1.
</event>
<event>
 8    1  0.1131349E+005  0.1043930E+01  0.7957747E-01            NaN
         13   -1    0    0    0    0  0.00000000000E+00  0.00000000000E+00  0.74505805969E-08  0.10566000000E+00  0.10566000000E+00 0.  1.
     999900   -1    0    0    0    0 -0.00000000000E+00 -0.00000000000E+00 -0.74505805969E-08  0.93827000000E+00  0.93827000000E+00 0.  1.
     999902    2    1    2    0    0  0.16541082149E-01 -0.57179883683E-02 -0.17904222100E-01  0.10188927486E+01  0.10185850819E+01 0.  0.
     999903    2    3    3    0    0  0.11893868563E+00  0.97735179407E-03  0.49431757443E-01  0.13037475162E+00  0.20167078660E-01 0.  0.
         14    1    1    2    0    0 -0.16541082149E-01  0.57179883683E-02  0.17904222100E-01  0.25037251419E-01  0.00000000000E+00 0.  1.
     999901    1    3    3    0    0 -0.10239760348E+00 -0.66953401624E-02 -0.67335979543E-01  0.88851799696E+00  0.88000000000E+00 0.  1.
        -11    1    4    4    0    0  0.58354778155E-01 -0.86512649935E-02  0.28821742152E-01  0.65658803379E-01  0.51100000000E-03 0.  1.
         11    1    4    4    0    0  0.60583907471E-01  0.96286167876E-02  0.20610015291E-01  0.64715948243E-01  0.51100000000E-03 0. -1.
</event>
<event>
 8    1  0.1131349E+005  0.1043930E+01  0.7957747E-01            NaN
         13   -1    0    0    0    0  0.00000000000E+00  0.00000000000E+00  0.74505805969E-08  0.10566000000E+00  0.10566000000E+00 0. -1.
     999900   -1    0    0    0    0 -0.00000000000E+00 -0.00000000000E+00 -0.74505805969E-08  0.93827000000E+00  0.93827000000E+00 0. -1.
     999902    2    1    2    0    0 -0.11746650884E-01 -0.18210361994E-01 -0.95823307044E-02  0.10202356515E+01  0.10199604710E+01 0.  0.
     999903    2    3    3    0    0 -0.78247027328E-01 -0.91804025361E-02 -0.10361565779E+00  0.13268502934E+00  0.25733934686E-01 0.  0.
         14    1    1    2    0    0  0.11746650884E-01  0.18210361994E-01  0.95823307044E-02  0.23694348538E-01  0.00000000000E+00 0. -1.
     999901    1    3    3    0    0  0.66500376444E-01 -0.90299594575E-02  0.94033327084E-01  0.88755062213E+00  0.88000000000E+00 0.  1.
        -11    1    4    4    0    0 -0.13273230238E-01 -0.10904853544E-02 -0.48429269328E-02  0.14180368879E-01  0.51100000000E-03 0. -1.
         11    1    4    4    0    0 -0.64973797090E-01 -0.80899171817E-02 -0.98772730855E-01  0.11850466046E+00  0.51100000000E-03 0.  1.
</event>
<event>
 8    1  0.1131349E+005  0.1043930E+01  0.7957747E-01            NaN
         13   -1    0    0    0    0  0.00000000000E+00  0.00000000000E+00  0.74505805969E-08  0.10566000000E+00  0.10566000000E+00 0.  1.
     999900   -1    0    0    0    0 -0.00000000000E+00 -0.00000000000E+00 -0.74505805969E-08  0.93827000000E+00  0.93827000000E+00 0.  1.
     999902    2    1    2    0    0  0.11360947215E-01  0.12067256164E-01  0.16536583695E-01  0.10205174309E+01  0.10202488316E+01 0.  0.
     999903    2    3    3    0    0  0.10056562610E+00 -0.52103352384E-01  0.66342581223E-01  0.13228549093E+00  0.16428893637E-01 0.  0.
         14    1    1    2    0    0 -0.11360947215E-01 -0.12067256164E-01 -0.16536583695E-01  0.23412569130E-01  0.00000000000E+00 0. -1.
     999901    1    3    3    0    0 -0.89204678881E-01  0.64170608548E-01 -0.49805997528E-01  0.88823193994E+00  0.88000000000E+00 0.  1.
        -11    1    4    4    0    0  0.32772601951E-01 -0.98947092855E-02  0.24720357919E-01  0.42229207039E-01  0.51100000000E-03 0. -1.
         11    1    4    4    0    0  0.67793024145E-01 -0.42208643099E-01  0.41622223304E-01  0.90056283894E-01  0.51100000000E-03 0.  1.
</event>
<event>
 8    1  0.1131349E+005  0.1043930E+01  0.7957747E-01            NaN
         13   -1    0    0    0    0  0.00000000000E+00  0.00000000000E+00  0.74505805969E-08  0.10566000000E+00  0.10566000000E+00 0.  1.
     999900   -1    0    0    0    0 -0.00000000000E+00 -0.00000000000E+00 -0.74505805969E-08  0.93827000000E+00  0.93827000000E+00 0.  1.
     999902    2    1    2    0    0  0.16803426785E-01 -0.38117344820E-02 -0.17839132771E-01  0.10191284047E+01  0.10188265731E+01 0.  0.
     999903    2    3    3    0    0  0.12120300412E+00 -0.47527065957E-01  0.18029364664E-02  0.13166228544E+00  0.19563144418E-01 0.  0.
         14    1    1    2    0    0 -0.16803426785E-01  0.38117344820E-02  0.17839132771E-01  0.24801595302E-01  0.00000000000E+00 0.  1.
     999901    1    3    3    0    0 -0.10439957734E+00  0.43715331475E-01 -0.19642069238E-01  0.88746611926E+00  0.88000000000E+00 0. -1.
        -11    1    4    4    0    0  0.57981136924E-01 -0.14089770945E-01  0.62833738830E-02  0.60000631602E-01  0.51100000000E-03 0.  1.
         11    1    4    4    0    0  0.63221867199E-01 -0.33437295012E-01 -0.44804374166E-02  0.71661653834E-01  0.51100000000E-03 0. -1.
</event>
<event>
 8    1  0.1131349E+005  0.1043930E+01  0.7957747E-01            NaN
         13   -1    0    0    0    0  0.00000000000E+00  0.00000000000E+00  0.74505805969E-08  0.10566000000E+00  0.10566000000E+00 0. -1.
     999900   -1    0    0    0    0 -0.00000000000E+00 -0.00000000000E+00 -0.74505805969E-08  0.93827000000E+00  0.93827000000E+00 0. -1.
     999902    2    1    2    0    0  0.12241225823E-01 -0.16733485463E-01  0.12849442231E-01  0.10195380892E+01  0.10192462657E+01 0.  0.
     999903    2    3    3    0    0 -0.11262818286E+00  0.36394414747E-01  0.45629516690E-01  0.12853333263E+00  0.20714820899E-01 0.  0.
         14    1    1    2    0    0 -0.12241225823E-01  0.16733485463E-01 -0.12849442231E-01  0.24391910770E-01  0.00000000000E+00 0.  1.
     999901    1    3    3    0    0  0.12486940868E+00 -0.53127900210E-01 -0.32780074460E-01  0.89100475660E+00  0.88000000000E+00 0. -1.
        -11    1    4    4    0    0 -0.63000311048E-01  0.10327472637E-01  0.28495020817E-01  0.69913684037E-01  0.51100000000E-03 0. -1.
         11    1    4    4    0    0 -0.49627871808E-01  0.26066942110E-01  0.17134495873E-01  0.58619648592E-01  0.51100000000E-03 0.  1.
</event>
<event>
 8    1  0.1131349E+005  0.1043930E+01  0.7957747E-01            NaN
         13   -1    0    0    0    0  0.00000000000E+00  0.00000000000E+00  0.74505805969E-08  0.10566000000E+00  0.10566000000E+00 0. -1.
     999900   -1    0    0    0    0 -0.00000000000E+00 -0.00000000000E+00 -0.74505805969E-08  0.93827000000E+00  0.93827000000E+00 0.  1.
     999902    2    1    2    0    0 -0.17978043931E-01  0.14952944028E-01  0.67652590124E-02  0.10195872531E+01  0.10192966189E+01 0.  0.
     999903    2    3    3    0    0  0.38343377382E-01  0.57778829610E-01  0.10906200965E+00  0.13084050390E+00  0.20398719828E-01 0.  0.
         14    1    1    2    0    0  0.17978043931E-01 -0.14952944028E-01 -0.67652590124E-02  0.24342746932E-01  0.00000000000E+00 0.  1.
     999901    1    3    3    0    0 -0.56321421313E-01 -0.42825885583E-01 -0.10229675064E+00  0.88874674917E+00  0.88000000000E+00 0.  1.
        -11    1    4    4    0    0  0.16861761615E-01  0.15793451812E-01  0.51330538565E-01  0.56292427868E-01  0.51100000000E-03 0. -1.
         11    1    4    4    0    0  0.21481615767E-01  0.41985377798E-01  0.57731471085E-01  0.74548076028E-01  0.51100000000E-03 0.  1.
</event>
<event>
 8    1  0.1131349E+005  0.1043930E+01  0.7957747E-01            NaN
         13   -1    0    0    0    0  0.00000000000E+00  0.00000000000E+00  0.74505805969E-08  0.10566000000E+00  0.10566000000E+00 0. -1.
     999900   -1    0    0    0    0 -0.00000000000E+00 -0.00000000000E+00 -0.74505805969E-08  0.93827000000E+00  0.93827000000E+00 0. -1.
     999902    2    1    2    0    0  0.28069590025E-02  0.18016528877E-01 -0.14195033653E-01  0.10208221374E+01  0.10205605631E+01 0.  0.
     999903    2    3    3    0    0  0.19441221560E-01 -0.12586983139E+00  0.22247620432E-02  0.12883021312E+00  0.19263922124E-01 0.  0.
         14    1    1    2    0    0 -0.28069590025E-02 -0.18016528877E-01  0.14195033653E-01  0.23107862558E-01  0.00000000000E+00 0. -1.
     999901    1    3    3    0    0 -0.16634262558E-01  0.14388636027E+00 -0.16419795696E-01  0.89199192432E+00  0.88000000000E+00 0.  1.
        -11    1    4    4    0    0  0.12934105380E-01 -0.38023311543E-01  0.62502811734E-02  0.40649605637E-01  0.51100000000E-03 0. -1.
         11    1    4    4    0    0  0.65071161805E-02 -0.87846519852E-01 -0.40255191301E-02  0.88180607484E-01  0.51100000000E-03 0.  1.
</event>
<event>
 8    1  0.1131349E+005  0.1043930E+01  0.7957747E-01            NaN
         13   -1    0    0    0    0  0.00000000000E+00  0.00000000000E+00  0.74505805969E-08  0.10566000000E+00  0.10566000000E+00 0.  1.
     999900   -1    0    0    0    0 -0.00000000000E+00 -0.00000000000E+00 -0.74505805969E-08  0.93827000000E+00  0.93827000000E+00 0. -1.
     999902    2    1    2    0    0 -0.15767772136E-01 -0.17515408478E-01  0.14903415847E-01  0.10160458831E+01  0.10156631885E+01 0.  0.
     999903    2    3    3    0    0  0.81006652686E-01 -0.95705569714E-01 -0.54581564985E-02  0.12706130265E+00  0.19827992991E-01 0.  0.
         14    1    1    2    0    0  0.15767772136E-01  0.17515408478E-01 -0.14903415847E-01  0.27884116917E-01  0.00000000000E+00 0. -1.
     999901    1    3    3    0    0 -0.96774424822E-01  0.78190161236E-01  0.20361572346E-01  0.88898458043E+00  0.88000000000E+00 0. -1.
        -11    1    4    4    0    0  0.43219969211E-01 -0.40942696139E-01 -0.10001311180E-01  0.60370170217E-01  0.51100000000E-03 0. -1.
         11    1    4    4    0    0  0.37786683475E-01 -0.54762873575E-01  0.45431546814E-02  0.66691132436E-01  0.51100000000E-03 0.  1.
</event>
<event>
 8    1  0.1131349E+005  0.1043930E+01  0.7957747E-01            NaN
         13   -1    0    0    0    0  0.00000000000E+00  0.00000000000E+00  0.74505805969E-08  0.10566000000E+00  0.10566000000E+00 0. -1.
     999900   -1    0    0    0    0 -0.00000000000E+00 -0.00000000000E+00 -0.74505805969E-08  0.93827000000E+00  0.93827000000E+00 0.  1.
     999902    2    1    2    0    0  0.16555462074E-01  0.44326689810E-02  0.16788020756E-01  0.10199389700E+01  0.10196567722E+01 0.  0.
     999903    2    3    3    0    0 -0.65649242204E-01 -0.56981740170E-01  0.95479979396E-01  0.13048870867E+00  0.18818472566E-01 0.  0.
         14    1    1    2    0    0 -0.16555462074E-01 -0.44326689810E-02 -0.16788020756E-01  0.23991029984E-01  0.00000000000E+00 0.  1.
     999901    1    3    3    0    0  0.82204704279E-01  0.61414409151E-01 -0.78691958640E-01  0.88945026135E+00  0.88000000000E+00 0.  1.
        -11    1    4    4    0    0 -0.56283089826E-01 -0.55907863748E-01  0.82699029416E-01  0.11459871734E+00  0.51100000000E-03 0. -1.
         11    1    4    4    0    0 -0.93661523782E-02 -0.10738764217E-02  0.12780949980E-01  0.15889991325E-01  0.51100000000E-03 0.  1.
</event>
<event>
 8    1  0.1131349E+005  0.1043930E+01  0.7957747E-01            NaN
         13   -1    0    0    0    0  0.00000000000E+00  0.00000000000E+00  0.74505805969E-08  0.10566000000E+00  0.10566000000E+00 0.  1.
     999900   -1    0    0    0    0 -0.00000000000E+00 -0.00000000000E+00 -0.74505805969E-08  0.93827000000E+00  0.93827000000E+00 0. -1.
     999902    2    1    2    0    0  0.18910001197E-02 -0.98289558486E-03 -0.23735417531E-01  0.10200990955E+01  0.10198206963E+01 0.  0.
     999903    2    3    3    0    0  0.15463942567E-01 -0.11829224878E+00 -0.52274668538E-01  0.13175220492E+00  0.19844719414E-01 0.  0.
         14    1    1    2    0    0 -0.18910001197E-02  0.98289558486E-03  0.23735417531E-01  0.23830904526E-01  0.00000000000E+00 0.  1.
     999901    1    3    3    0    0 -0.13572942448E-01  0.11730935320E+00  0.28539251007E-01  0.88834689056E+00  0.88000000000E+00 0. -1.
        -11    1    4    4    0    0  0.89474643730E-02 -0.29865211601E-01 -0.21584540371E-01  0.37922835953E-01  0.51100000000E-03 0.  1.
         11    1    4    4    0    0  0.65164781944E-02 -0.88427037179E-01 -0.30690128166E-01  0.93829368964E-01  0.51100000000E-03 0. -1.
</event>
<event>
 8    1  0.1131349E+005  0.1043930E+01  0.7957747E-01            NaN
         13   -1    0    0    0    0  0.00000000000E+00  0.00000000000E+00  0.74505805969E-08  0.10566000000E+00  0.10566000000E+00 0. -1.
     999900   -1    0    0    0    0 -0.00000000000E+00 -0.00000000000E+00 -0.74505805969E-08  0.93827000000E+00  0.93827000000E+00 0. -1.
     999902    2    1    2    0    0 -0.22599558386E-01 -0.12381637319E-02 -0.30997619925E-02  0.10210852717E+01  0.10208296873E+01 0.  0.
     999903    2    3    3    0    0  0.30941000686E-01  0.11567794119E+00 -0.48063743141E-01  0.13060353313E+00  0.20209598177E-01 0.  0.
         14    1    1    2    0    0  0.22599558386E-01  0.12381637319E-02  0.30997619925E-02  0.22844728343E-01  0.00000000000E+00 0. -1.
     999901    1    3    3    0    0 -0.53540559072E-01 -0.11691610492E+00  0.44963981149E-01  0.89048173853E+00  0.88000000000E+00 0. -1.
        -11    1    4    4    0    0  0.25747206512E-01  0.68195493052E-01 -0.21772698583E-01  0.76077956337E-01  0.51100000000E-03 0.  1.
         11    1    4    4    0    0  0.51937941734E-02  0.47482448139E-01 -0.26291044558E-01  0.54525576789E-01  0.51100000000E-03 0. -1.
</event>
<event>
 8    1  0.1131349E+005  0.1043930E+01  0.7957747E-01            NaN
         13   -1    0    0    0    0  0.00000000000E+00  0.00000000000E+00  0.74505805969E-08  0.10566000000E+00  0.10566000000E+00 0.  1.
     999900   -1    0    0    0    0 -0.00000000000E+00 -0.00000000000E+00 -0.74505805969E-08  0.93827000000E+00  0.93827000000E+00 0.  1.
     999902    2    1    2    0    0 -0.10386012924E-01 -0.12861930977E-01 -0.16480221270E-01  0.10205869876E+01  0.10203200004E+01 0.  0.
     999903    2    3    3    0    0  0.12027960031E+00  0.30185316613E-01 -0.26354629343E-01  0.12984343760E+00  0.28043113411E-01 0.  0.
         14    1    1    2    0    0  0.10386012924E-01  0.12861930977E-01  0.16480221270E-01  0.23343012360E-01  0.00000000000E+00 0.  1.
     999901    1    3    3    0    0 -0.13066561323E+00 -0.43047247590E-01  0.98744080732E-02  0.89074355004E+00  0.88000000000E+00 0. -1.
        -11    1    4    4    0    0  0.79760765857E-01  0.22702638014E-01 -0.30649907972E-01  0.88413050635E-01  0.51100000000E-03 0. -1.
         11    1    4    4    0    0  0.40518834453E-01  0.74826785995E-02  0.42952786287E-02  0.41430386963E-01  0.51100000000E-03 0.  1.
</event>
<event>
 8    1  0.1131349E+005  0.1043930E+01  0.7957747E-01            NaN
         13   -1    0    0    0    0  0.00000000000E+00  0.00000000000E+00  0.74505805969E-08  0.10566000000E+00  0.10566000000E+00 0.  1.
     999900   -1    0    0    0    0 -0.00000000000E+00 -0.00000000000E+00 -0.74505805969E-08  0.93827000000E+00  0.93827000000E+00 0.  1.
     999902    2    1    2    0    0 -0.16688213793E-01  0.11101649212E-02 -0.15212899889E-01  0.10213211241E+01  0.10210708483E+01 0.  0.
     999903    2    3    3    0    0  0.39705350019E-01 -0.88946605813E-02  0.12073189566E+00  0.12904240196E+00  0.20496855076E-01 0.  0.
         14    1    1    2    0    0  0.16688213793E-01 -0.11101649212E-02  0.15212899889E-01  0.22608875886E-01  0.00000000000E+00 0.  1.
     999901    1    3    3    0    0 -0.56393563813E-01  0.10004825503E-01 -0.13594479555E+00  0.89227872215E+00  0.88000000000E+00 0.  1.
        -11    1    4    4    0    0  0.34284248265E-01 -0.63121991914E-02  0.72629964316E-01  0.80564423757E-01  0.51100000000E-03 0.  1.
         11    1    4    4    0    0  0.54211017541E-02 -0.25824613899E-02  0.48101931340E-01  0.48477978204E-01  0.51100000000E-03 0. -1.
</event>
<event>
 8    1  0.1131349E+005  0.1043930E+01  0.7957747E-01            NaN
         13   -1    0    0    0    0  0.00000000000E+00  0.00000000000E+00  0.74505805969E-08  0.10566000000E+00  0.10566000000E+00 0.  1.
     999900   -1    0    0    0    0 -0.00000000000E+00 -0.00000000000E+00 -0.74505805969E-08  0.93827000000E+00  0.93827000000E+00 0. -1.
     999902    2    1    2    0    0 -0.54241149984E-02 -0.11406440136E-01  0.17816510179E-01  0.10220906792E+01  0.10218573288E+01 0.  0.
     999903    2    3    3    0    0 -0.11630623777E-01 -0.13150056783E+00  0.12304959775E-01  0.13389503773E+00  0.18676143679E-01 0.  0.
         14    1    1    2    0    0  0.54241149984E-02  0.11406440136E-01 -0.17816510179E-01  0.21839320847E-01  0.00000000000E+00 0.  1.
     999901    1    3    3    0    0  0.62065087785E-02  0.12009412770E+00  0.55115504036E-02  0.88819564143E+00  0.88000000000E+00 0. -1.
        -11    1    4    4    0    0  0.50587814407E-02 -0.38962609029E-01  0.40475408656E-02  0.39500884548E-01  0.51100000000E-03 0.  1.
         11    1    4    4    0    0 -0.16689405218E-01 -0.92537958806E-01  0.82574189098E-02  0.94394153180E-01  0.51100000000E-03 0. -1.
</event>
<event>
 8    1  0.1131349E+005  0.1043930E+01  0.7957747E-01            NaN
         13   -1    0    0    0    0  0.00000000000E+00  0.00000000000E+00  0.74505805969E-08  0.10566000000E+00  0.10566000000E+00 0. -1.
     999900   -1    0    0    0    0 -0.00000000000E+00 -0.00000000000E+00 -0.74505805969E-08  0.93827000000E+00  0.93827000000E+00 0.  1.
     999902    2    1    2    0    0  0.19093297546E-01 -0.10187195194E-01  0.87338301525E-02  0.10205930605E+01  0.10203262137E+01 0.  0.
     999903    2    3    3    0    0  0.88889452218E-01 -0.74942228555E-01  0.63362757496E-01  0.13377344113E+00  0.19047891717E-01 0.  0.
         14    1    1    2    0    0 -0.19093297546E-01  0.10187195194E-01 -0.87338301525E-02  0.23336939521E-01  0.00000000000E+00 0.  1.
     999901    1    3    3    0    0 -0.69796154672E-01  0.64755033361E-01 -0.54628927343E-01  0.88681961935E+00  0.88000000000E+00 0.  1.
        -11    1    4    4    0    0  0.30482506804E-01 -0.23770917596E-01  0.11280186850E-01  0.40270876335E-01  0.51100000000E-03 0.  1.
         11    1    4    4    0    0  0.58406945413E-01 -0.51171310959E-01  0.52082570646E-01  0.93502564799E-01  0.51100000000E-03 0. -1.
</event>
<event>
 8    1  0.1131349E+005  0.1043930E+01  0.7957747E-01            NaN
         13   -1    0    0    0    0  0.00000000000E+00  0.00000000000E+00  0.74505805969E-08  0.10566000000E+00  0.10566000000E+00 0.  1.
     999900   -1    0    0    0    0 -0.00000000000E+00 -0.00000000000E+00 -0.74505805969E-08  0.93827000000E+00  0.93827000000E+00 0. -1.
     999902    2    1    2    0    0 -0.28212444023E-02 -0.20668171062E-01 -0.15611917244E-01  0.10178749683E+01  0.10175414421E+01 0.  0.
     999903    2    3    3    0    0  0.12268650223E+00 -0.31448361166E-01 -0.14287415347E-01  0.12890356201E+00  0.19261900530E-01 0.  0.
         14    1    1    2    0    0  0.28212444023E-02  0.20668171062E-01  0.15611917244E-01  0.26055031665E-01  0.00000000000E+00 0.  1.
     999901    1    3    3    0    0 -0.12550774663E+00  0.10780190105E-01 -0.13245018967E-02  0.88897140633E+00  0.88000000000E+00 0. -1.
        -11    1    4    4    0    0  0.10289731077E-01 -0.44470914882E-02  0.39127748839E-02  0.11883859501E-01  0.51100000000E-03 0. -1.
         11    1    4    4    0    0  0.11239677115E+00 -0.27001269678E-01 -0.18200190231E-01  0.11701970251E+00  0.51100000000E-03 0.  1.
</event>
<event>
 8    1  0.1131349E+005  0.1043930E+01  0.7957747E-01            NaN
         13   -1    0    0    0    0  0.00000000000E+00  0.00000000000E+00  0.74505805969E-08  0.10566000000E+00  0.10566000000E+00 0.  1.
     999900   -1    0    0    0    0 -0.00000000000E+00 -0.00000000000E+00 -0.74505805969E-08  0.93827000000E+00  0.93827000000E+00 0.  1.
     999902    2    1    2    0    0  0.82093231924E-02  0.75298055151E-02 -0.20860261994E-01  0.10202817128E+01  0.10200076137E+01 0.  0.
     999903    2    3    3    0    0  0.22837081940E-03 -0.32093250507E-01  0.12131069599E+00  0.12795539160E+00  0.25025355065E-01 0.  0.
         14    1    1    2    0    0 -0.82093231924E-02 -0.75298055151E-02  0.20860261994E-01  0.23648287229E-01  0.00000000000E+00 0.  1.
     999901    1    3    3    0    0  0.79809523730E-02  0.39623056022E-01 -0.14217095798E+00  0.89232632118E+00  0.88000000000E+00 0.  1.
        -11    1    4    4    0    0 -0.20546720121E-02 -0.29963806765E-01  0.65548447181E-01  0.72103477321E-01  0.51100000000E-03 0.  1.
         11    1    4    4    0    0  0.22830428315E-02 -0.21294437420E-02  0.55762248807E-01  0.55851914275E-01  0.51100000000E-03 0. -1.
</event>
<event>
 8    1  0.1131349E+005  0.1043930E+01  0.7957747E-01            NaN
         13   -1    0    0    0    0  0.00000000000E+00  0.00000000000E+00  0.74505805969E-08  0.10566000000E+00  0.10566000000E+00 0.  1.
     999900   -1    0    0    0    0 -0.00000000000E+00 -0.00000000000E+00 -0.74505805969E-08  0.93827000000E+00  0.93827000000E+00 0.  1.
     999902    2    1    2    0    0  0.27639898762E-02  0.11324107452E-01  0.20730263423E-01  0.10201472569E+01  0.10198699951E+01 0.  0.
     999903    2    3    3    0    0  0.27060647445E-01  0.11697561195E+00 -0.47831082385E-01  0.13084796747E+00  0.20440296435E-01 0.  0.
         14    1    1    2    0    0 -0.27639898762E-02 -0.11324107452E-01 -0.20730263423E-01  0.23782743139E-01  0.00000000000E+00 0. -1.
     999901    1    3    3    0    0 -0.24296657569E-01 -0.10565150450E+00  0.68561345808E-01  0.88929928939E+00  0.88000000000E+00 0.  1.
        -11    1    4    4    0    0  0.22000676768E-01  0.10736289411E+00 -0.48720484365E-01  0.11993651457E+00  0.51100000000E-03 0. -1.
         11    1    4    4    0    0  0.50599706767E-02  0.96127178428E-02  0.88940197967E-03  0.10911452903E-01  0.51100000000E-03 0.  1.
</event>
<event>
 8    1  0.1131349E+005  0.1043930E+01  0.7957747E-01            NaN
         13   -1    0    0    0    0  0.00000000000E+00  0.00000000000E+00  0.74505805969E-08  0.10566000000E+00  0.10566000000E+00 0.  1.
     999900   -1    0    0    0    0 -0.00000000000E+00 -0.00000000000E+00 -0.74505805969E-08  0.93827000000E+00  0.93827000000E+00 0.  1.
     999902    2    1    2    0    0  0.21492377494E-01  0.92432577244E-02  0.57027014469E-02  0.10198492835E+01  0.10195649465E+01 0.  0.
     999903    2    3    3    0    0  0.10261995814E+00  0.61279804672E-01 -0.54014717270E-01  0.13257499859E+00  0.19299489607E-01 0.  0.
         14    1    1    2    0    0 -0.21492377494E-01 -0.92432577244E-02 -0.57027014469E-02  0.24080716507E-01  0.00000000000E+00 0. -1.
     999901    1    3    3    0    0 -0.81127580646E-01 -0.52036546947E-01  0.59717418717E-01  0.88727428491E+00  0.88000000000E+00 0. -1.
        -11    1    4    4    0    0  0.19672039682E-01  0.18941221758E-01 -0.67371947993E-02  0.28132009202E-01  0.51100000000E-03 0. -1.
         11    1    4    4    0    0  0.82947918457E-01  0.42338582913E-01 -0.47277522471E-01  0.10444298938E+00  0.51100000000E-03 0.  1.
</event>
<event>
 8    1  0.1131349E+005  0.1043930E+01  0.7957747E-01            NaN
         13   -1    0    0    0    0  0.00000000000E+00  0.00000000000E+00  0.74505805969E-08  0.10566000000E+00  0.10566000000E+00 0.  1.
     999900   -1    0    0    0    0 -0.00000000000E+00 -0.00000000000E+00 -0.74505805969E-08  0.93827000000E+00  0.93827000000E+00 0.  1.
     999902    2    1    2    0    0  0.16194717134E-01 -0.10968417121E-01 -0.14604623393E-01  0.10195195502E+01  0.10192272774E+01 0.  0.
     999903    2    3    3    0    0  0.31479422466E-01  0.24093175322E-01  0.12040082987E+00  0.12840260503E+00  0.20480088092E-01 0.  0.
         14    1    1    2    0    0 -0.16194717134E-01  0.10968417121E-01  0.14604623393E-01  0.24410449845E-01  0.00000000000E+00 0. -1.
     999901    1    3    3    0    0 -0.15284705333E-01 -0.35061592443E-01 -0.13500545326E+00  0.89111694513E+00  0.88000000000E+00 0.  1.
        -11    1    4    4    0    0  0.17058079282E-02  0.13593550331E-02  0.35891720183E-01  0.35961567339E-01  0.51100000000E-03 0.  1.
         11    1    4    4    0    0  0.29773614538E-01  0.22733820289E-01  0.84509109689E-01  0.92441037689E-01  0.51100000000E-03 0. -1.
</event>
<event>
 8    1  0.1131349E+005  0.1043930E+01  0.7957747E-01            NaN
         13   -1    0    0    0    0  0.00000000000E+00  0.00000000000E+00  0.74505805969E-08  0.10566000000E+00  0.10566000000E+00 0. -1.
     999900   -1    0    0    0    0 -0.00000000000E+00 -0.00000000000E+00 -0.74505805969E-08  0.93827000000E+00  0.93827000000E+00 0.  1.
     999902    2    1    2    0    0  0.10384612412E-01 -0.21259660868E-01 -0.64423548251E-02  0.10194082282E+01  0.10191132511E+01 0.  0.
     999903    2    3    3    0    0  0.42285411361E-01 -0.10473602748E+00  0.64868533751E-01  0.13201248360E+00  0.21486686283E-01 0.  0.
         14    1    1    2    0    0 -0.10384612412E-01  0.21259660868E-01  0.64423548251E-02  0.24521771772E-01  0.00000000000E+00 0. -1.
     999901    1    3    3    0    0 -0.31900798949E-01  0.83476366617E-01 -0.71310888576E-01  0.88739574463E+00  0.88000000000E+00 0.  1.
        -11    1    4    4    0    0  0.61607415096E-02 -0.20450849637E-01  0.34469418055E-02  0.21641037767E-01  0.51100000000E-03 0. -1.
         11    1    4    4    0    0  0.36124669852E-01 -0.84285177848E-01  0.61421591946E-01  0.11037144583E+00  0.51100000000E-03 0.  1.
</event>
<event>
 8    1  0.1131349E+005  0.1043930E+01  0.7957747E-01            NaN
         13   -1    0    0    0    0  0.00000000000E+00  0.00000000000E+00  0.74505805969E-08  0.10566000000E+00  0.10566000000E+00 0. -1.
     999900   -1    0    0    0    0 -0.00000000000E+00 -0.00000000000E+00 -0.74505805969E-08  0.93827000000E+00  0.93827000000E+00 0. -1.
     999902    2    1    2    0    0 -0.21751366522E-02 -0.20434961648E-01  0.80635441584E-02  0.10218542300E+01  0.10216157437E+01 0.  0.
     999903    2    3    3    0    0 -0.47248000843E-01 -0.11988088547E+00  0.30952486623E-01  0.13481141336E+00  0.24743897433E-01 0.  0.
         14    1    1    2    0    0  0.21751366522E-02  0.20434961648E-01 -0.80635441584E-02  0.22075770007E-01  0.00000000000E+00 0. -1.
     999901    1    3    3    0    0  0.45072864191E-01  0.99445923820E-01 -0.22888942465E-01  0.88704281663E+00  0.88000000000E+00 0. -1.
        -11    1    4    4    0    0 -0.29594567860E-01 -0.93132304552E-01  0.14532304863E-01  0.98797336015E-01  0.51100000000E-03 0.  1.
         11    1    4    4    0    0 -0.17653432983E-01 -0.26748580916E-01  0.16420181760E-01  0.36014077347E-01  0.51100000000E-03 0. -1.
</event>
<event>
 8    1  0.1131349E+005  0.1043930E+01  0.7957747E-01            NaN
         13   -1    0    0    0    0  0.00000000000E+00  0.00000000000E+00  0.74505805969E-08  0.10566000000E+00  0.10566000000E+00 0. -1.
     999900   -1    0    0    0    0 -0.00000000000E+00 -0.00000000000E+00 -0.74505805969E-08  0.93827000000E+00  0.93827000000E+00 0. -1.
     999902    2    1    2    0    0  0.16539959981E-01  0.14372311587E-01  0.83622552866E-02  0.10204766222E+01  0.10202070748E+01 0.  0.
     999903    2    3    3    0    0 -0.10020971668E+00  0.37423700098E-01  0.71323709936E-01  0.13023732950E+00  0.20788692825E-01 0.  0.
         14    1    1    2    0    0 -0.16539959981E-01 -0.14372311587E-01 -0.83622552866E-02  0.23453377796E-01  0.00000000000E+00 0. -1.
     999901    1    3    3    0    0  0.11674967666E+00 -0.23051388511E-01 -0.62961454649E-01  0.89023929271E+00  0.88000000000E+00 0. -1.
        -11    1    4    4    0    0 -0.64575627598E-01  0.15027950532E-01  0.37017153892E-01  0.75936695873E-01  0.51100000000E-03 0. -1.
         11    1    4    4    0    0 -0.35634089080E-01  0.22395749567E-01  0.34306556043E-01  0.54300633622E-01  0.51100000000E-03 0.  1.
</event>
<event>
 8    1  0.1131349E+005  0.1043930E+01  0.7957747E-01            NaN
         13   -1    0    0    0    0  0.00000000000E+00  0.00000000000E+00  0.74505805969E-08  0.10566000000E+00  0.10566000000E+00 0. -1.
     999900   -1    0    0    0    0 -0.00000000000E+00 -0.00000000000E+00 -0.74505805969E-08  0.93827000000E+00  0.93827000000E+00 0.  1.
     999902    2    1    2    0    0  0.57159707636E-02 -0.21414938080E-01  0.93264155117E-02  0.10198830892E+01  0.10195995594E+01 0.  0.
     999903    2    3    3    0    0 -0.11766401590E+00  0.10604715423E-01  0.50034963655E-01  0.12976789144E+00  0.19466058529E-01 0.  0.
         14    1    1    2    0    0 -0.57159707636E-02  0.21414938080E-01 -0.93264155117E-02  0.24046910842E-01  0.00000000000E+00 0. -1.
     999901    1    3    3    0    0  0.12337998666E+00 -0.32019653503E-01 -0.40708548143E-01  0.89011519772E+00  0.88000000000E+00 0. -1.
        -11    1    4    4    0    0 -0.28587833789E-02 -0.28663951850E-02  0.24736786231E-02  0.47716947403E-02  0.51100000000E-03 0. -1.
         11    1    4    4    0    0 -0.11480523252E+00  0.13471110608E-01  0.47561285031E-01  0.12499619670E+00  0.51100000000E-03 0.  1.
</event>
<event>
 8    1  0.1131349E+005  0.1043930E+01  0.7957747E-01            NaN
         13   -1    0    0    0    0  0.00000000000E+00  0.00000000000E+00  0.74505805969E-08  0.10566000000E+00  0.10566000000E+00 0.  1.
     999900   -1    0    0    0    0 -0.00000000000E+00 -0.00000000000E+00 -0.74505805969E-08  0.93827000000E+00  0.93827000000E+00 0.  1.
     999902    2    1    2    0    0  0.73225156082E-02  0.21557730363E-01 -0.69424398000E-02  0.10201276379E+01  0.10198499130E+01 0.  0.
     999903    2    3    3    0    0 -0.57303870339E-01  0.11297785906E+00  0.31723041808E-01  0.13219226343E+00  0.20511288011E-01 0.  0.
         14    1    1    2    0    0 -0.73225156082E-02 -0.21557730363E-01  0.69424398000E-02  0.23802362144E-01  0.00000000000E+00 0.  1.
     999901    1    3    3    0    0  0.64626385947E-01 -0.91420128695E-01 -0.38665481607E-01  0.88793537443E+00  0.88000000000E+00 0. -1.
        -11    1    4    4    0    0 -0.51296918022E-01  0.10771314968E+00  0.33649439532E-01  0.12395984154E+00  0.51100000000E-03 0.  1.
         11    1    4    4    0    0 -0.60069523171E-02  0.52647093753E-02 -0.19263977249E-02  0.82324218879E-02  0.51100000000E-03 0. -1.
</event>
<event>
 8    1  0.1131349E+005  0.1043930E+01  0.7957747E-01            NaN
         13   -1    0    0    0    0  0.00000000000E+00  0.00000000000E+00  0.74505805969E-08  0.10566000000E+00  0.10566000000E+00 0. -1.
     999900   -1    0    0    0    0 -0.00000000000E+00 -0.00000000000E+00 -0.74505805969E-08  0.93827000000E+00  0.93827000000E+00 0. -1.
     999902    2    1    2    0    0  0.76035460531E-03  0.25695719419E-02  0.27153948813E-01  0.10166441470E+01  0.10162779166E+01 0.  0.
     999903    2    3    3    0    0 -0.11079070485E+00  0.33568233530E-01  0.52703286093E-01  0.12869295208E+00  0.19566117803E-01 0.  0.
         14    1    1    2    0    0 -0.76035460531E-03 -0.25695719419E-02 -0.27153948813E-01  0.27285853023E-01  0.00000000000E+00 0.  1.
     999901    1    3    3    0    0  0.11155105946E+00 -0.30998661589E-01 -0.25549337281E-01  0.88795119490E+00  0.88000000000E+00 0.  1.
        -11    1    4    4    0    0 -0.28800786955E-01  0.16529930888E-01  0.99621157461E-02  0.34673171409E-01  0.51100000000E-03 0.  1.
         11    1    4    4    0    0 -0.81989917896E-01  0.17038302642E-01  0.42741170347E-01  0.94019780669E-01  0.51100000000E-03 0. -1.
</event>
<event>
 8    1  0.1131349E+005  0.1043930E+01  0.7957747E-01            NaN
         13   -1    0    0    0    0  0.00000000000E+00  0.00000000000E+00  0.74505805969E-08  0.10566000000E+00  0.10566000000E+00 0. -1.
     999900   -1    0    0    0    0 -0.00000000000E+00 -0.00000000000E+00 -0.74505805969E-08  0.93827000000E+00  0.93827000000E+00 0.  1.
     999902    2    1    2    0    0  0.23321509073E-01  0.39052390447E-02  0.26300629342E-02  0.10201379654E+01  0.10198604844E+01 0.  0.
     999903    2    3    3    0    0 -0.37061502351E-01  0.95936183870E-01 -0.76829376367E-01  0.12972816913E+00  0.18690598190E-01 0.  0.
         14    1    1    2    0    0 -0.23321509073E-01 -0.39052390447E-02 -0.26300629342E-02  0.23792034559E-01  0.00000000000E+00 0.  1.
     999901    1    3    3    0    0  0.60383011424E-01 -0.92030944825E-01  0.79459439301E-01  0.89040979631E+00  0.88000000000E+00 0. -1.
        -11    1    4    4    0    0 -0.34999691438E-01  0.93343955859E-01 -0.69083477408E-01  0.12128833608E+00  0.51100000000E-03 0. -1.
         11    1    4    4    0    0 -0.20618109131E-02  0.25922280110E-02 -0.77458989585E-02  0.84398330539E-02  0.51100000000E-03 0.  1.
</event>
<event>
 8    1  0.1131349E+005  0.1043930E+01  0.7957747E-01            NaN
         13   -1    0    0    0    0  0.00000000000E+00  0.00000000000E+00  0.74505805969E-08  0.10566000000E+00  0.10566000000E+00 0. -1.
     999900   -1    0    0    0    0 -0.00000000000E+00 -0.00000000000E+00 -0.74505805969E-08  0.93827000000E+00  0.93827000000E+00 0.  1.
     999902    2    1    2    0    0  0.79509307025E-02  0.16895904336E-01 -0.12286457505E-01  0.10215772391E+01  0.10213326635E+01 0.  0.
     999903    2    3    3    0    0  0.17160071699E-01 -0.20567914542E-01 -0.12891322538E+00  0.13304465725E+00  0.19098533369E-01 0.  0.
         14    1    1    2    0    0 -0.79509307025E-02 -0.16895904336E-01  0.12286457505E-01  0.22352760912E-01  0.00000000000E+00 0. -1.
     999901    1    3    3    0    0 -0.92091409968E-02  0.37463818878E-01  0.11662676787E+00  0.88853258184E+00  0.88000000000E+00 0. -1.
        -11    1    4    4    0    0 -0.13410835046E-02  0.48526949672E-03 -0.35105472687E-01  0.35138146295E-01  0.51100000000E-03 0. -1.
         11    1    4    4    0    0  0.18501155204E-01 -0.21053184039E-01 -0.93807752688E-01  0.97906510955E-01  0.51100000000E-03 0.  1.
</event>
<event>
 8    1  0.1131349E+005  0.1043930E+01  0.7957747E-01            NaN
         13   -1    0    0    0    0  0.00000000000E+00  0.00000000000E+00  0.74505805969E-08  0.10566000000E+00  0.10566000000E+00 0. -1.
     999900   -1    0    0    0    0 -0.00000000000E+00 -0.00000000000E+00 -0.74505805969E-08  0.93827000000E+00  0.93827000000E+00 0. -1.
     999902    2    1    2    0    0  0.22394403013E-01  0.74527453262E-02 -0.60828889868E-02  0.10195567721E+01  0.10192654008E+01 0.  0.
     999903    2    3    3    0    0  0.24692585295E-01 -0.12501946607E+00  0.10523637251E-01  0.12948377221E+00  0.20388959293E-01 0.  0.
         14    1    1    2    0    0 -0.22394403013E-01 -0.74527453262E-02  0.60828889868E-02  0.24373227887E-01  0.00000000000E+00 0.  1.
     999901    1    3    3    0    0 -0.22981822815E-02  0.13247221140E+00 -0.16606526238E-01  0.89007299990E+00  0.88000000000E+00 0.  1.
        -11    1    4    4    0    0  0.28112670281E-01 -0.10373992705E+00  0.94740631344E-02  0.10789955369E+00  0.51100000000E-03 0.  1.
         11    1    4    4    0    0 -0.34200849861E-02 -0.21279539023E-01  0.10495741168E-02  0.21584218521E-01  0.51100000000E-03 0. -1.
</event>
<event>
 8    1  0.1131349E+005  0.1043930E+01  0.7957747E-01            NaN
         13   -1    0    0    0    0  0.00000000000E+00  0.00000000000E+00  0.74505805969E-08  0.10566000000E+00  0.10566000000E+00 0.  1.
     999900   -1    0    0    0    0 -0.00000000000E+00 -0.00000000000E+00 -0.74505805969E-08  0.93827000000E+00  0.93827000000E+00 0. -1.
     999902    2    1    2    0    0 -0.10499385670E-03  0.63249840766E-02 -0.22461472828E-01  0.10205947432E+01  0.10203279354E+01 0.  0.
     999903    2    3    3    0    0  0.94073714399E-01  0.80312271772E-01 -0.37937593119E-01  0.13234744763E+00  0.27868641597E-01 0.  0.
         14    1    1    2    0    0  0.10499385670E-03 -0.63249840766E-02  0.22461472828E-01  0.23335256777E-01  0.00000000000E+00 0.  1.
     999901    1    3    3    0    0 -0.94178708255E-01 -0.73987287695E-01  0.15476120292E-01  0.88824729559E+00  0.88000000000E+00 0. -1.
        -11    1    4    4    0    0  0.25029301011E-01  0.24236342558E-01 -0.24008105668E-01  0.42314494780E-01  0.51100000000E-03 0. -1.
         11    1    4    4    0    0  0.69044413387E-01  0.56075929213E-01 -0.13929487451E-01  0.90032952850E-01  0.51100000000E-03 0.  1.
</event>
<event>
 8    1  0.1131349E+005  0.1043930E+01  0.7957747E-01            NaN
         13   -1    0    0    0    0  0.00000000000E+00  0.00000000000E+00  0.74505805969E-08  0.10566000000E+00  0.10566000000E+00 0.  1.
     999900   -1    0    0    0    0 -0.00000000000E+00 -0.00000000000E+00 -0.74505805969E-08  0.93827000000E+00  0.93827000000E+00 0.  1.
     999902    2    1    2    0    0  0.69298897364E-02 -0.27164792646E-02 -0.22155620861E-01  0.10205574912E+01  0.10202898209E+01 0.  0.
     999903    2    3    3    0    0 -0.90842396547E-02 -0.12629882077E+00 -0.30405660637E-01  0.13173967488E+00  0.19922906420E-01 0.  0.
         14    1    1    2    0    0 -0.69298897364E-02  0.27164792646E-02  0.22155620861E-01  0.23372508789E-01  0.00000000000E+00 0.  1.
     999901    1    3    3    0    0  0.16014129391E-01  0.12358234151E+00  0.82500397759E-02  0.88881781633E+00  0.88000000000E+00 0. -1.
        -11    1    4    4    0    0 -0.12619899123E-02 -0.10158075589E+00 -0.18734206860E-01  0.10330282771E+00  0.51100000000E-03 0. -1.
         11    1    4    4    0    0 -0.78222497424E-02 -0.24718064879E-01 -0.11671453777E-01  0.28436847165E-01  0.51100000000E-03 0.  1.
</event>
<event>
 8    1  0.1131349E+005  0.1043930E+01  0.7957747E-01            NaN
         13   -1    0    0    0    0  0.00000000000E+00  0.00000000000E+00  0.74505805969E-08  0.10566000000E+00  0.10566000000E+00 0. -1.
     999900   -1    0    0    0    0 -0.00000000000E+00 -0.00000000000E+00 -0.74505805969E-08  0.93827000000E+00  0.93827000000E+00 0.  1.
     999902    2    1    2    0    0  0.17290669864E-01 -0.15682724326E-01  0.16684150025E-02  0.10205270362E+01  0.10202586598E+01 0.  0.
     999903    2    3    3    0    0  0.76306094251E-01  0.92797885293E-01  0.47415270446E-01  0.13072726221E+00  0.20182707443E-01 0.  0.
         14    1    1    2    0    0 -0.17290669864E-01  0.15682724326E-01 -0.16684150025E-02  0.23402963813E-01  0.00000000000E+00 0. -1.
     999901    1    3    3    0    0 -0.59015424388E-01 -0.10848060962E+00 -0.45746855444E-01  0.88979977397E+00  0.88000000000E+00 0.  1.
        -11    1    4    4    0    0  0.27746219261E-01  0.31518249543E-01  0.65460074234E-02  0.42501341999E-01  0.51100000000E-03 0. -1.
         11    1    4    4    0    0  0.48559874990E-01  0.61279635750E-01  0.40869263023E-01  0.88225920215E-01  0.51100000000E-03 0.  1.
</event>
<event>
 8    1  0.1131349E+005  0.1043930E+01  0.7957747E-01            NaN
         13   -1    0    0    0    0  0.00000000000E+00  0.00000000000E+00  0.74505805969E-08  0.10566000000E+00  0.10566000000E+00 0. -1.
     999900   -1    0    0    0    0 -0.00000000000E+00 -0.00000000000E+00 -0.74505805969E-08  0.93827000000E+00  0.93827000000E+00 0. -1.
     999902    2    1    2    0    0 -0.79233105635E-02  0.23341961039E-01 -0.15765170207E-02  0.10192295668E+01  0.10189302225E+01 0.  0.
     999903    2    3    3    0    0 -0.15029955452E-01  0.11666578984E-01  0.12688558300E+00  0.12979754010E+00  0.19632667085E-01 0.  0.
         14    1    1    2    0    0  0.79233105635E-02 -0.23341961039E-01  0.15765170207E-02  0.24700433222E-01  0.00000000000E+00 0. -1.
     999901    1    3    3    0    0  0.71066448882E-02  0.11675382054E-01 -0.12846210002E+00  0.88943202668E+00  0.88000000000E+00 0. -1.
        -11    1    4    4    0    0 -0.13238890493E-01  0.10251478505E-01  0.47321304213E-01  0.50198884315E-01  0.51100000000E-03 0.  1.
         11    1    4    4    0    0 -0.17910649584E-02  0.14151004792E-02  0.79564278782E-01  0.79598655781E-01  0.51100000000E-03 0. -1.
</event>
<event>
 8    1  0.1131349E+005  0.1043930E+01  0.7957747E-01            NaN
         13   -1    0    0    0    0  0.00000000000E+00  0.00000000000E+00  0.74505805969E-08  0.10566000000E+00  0.10566000000E+00 0.  1.
     999900   -1    0    0    0    0 -0.00000000000E+00 -0.00000000000E+00 -0.74505805969E-08  0.93827000000E+00  0.93827000000E+00 0.  1.
     999902    2    1    2    0    0 -0.23354719932E-01 -0.18816517093E-02 -0.14538919300E-02  0.10204545371E+01  0.10201844759E+01 0.  0.
     999903    2    3    3    0    0  0.22405865399E-01  0.12449100431E+00  0.22192771694E-01  0.12993601172E+00  0.19769043176E-01 0.  0.
         14    1    1    2    0    0  0.23354719932E-01  0.18816517093E-02  0.14538919300E-02  0.23475462892E-01  0.00000000000E+00 0. -1.
     999901    1    3    3    0    0 -0.45760585332E-01 -0.12637265602E+00 -0.23646663624E-01  0.89051852539E+00  0.88000000000E+00 0.  1.
        -11    1    4    4    0    0  0.97738949559E-02  0.74886134956E-01  0.40714410241E-02  0.75632664797E-01  0.51100000000E-03 0.  1.
         11    1    4    4    0    0  0.12631970443E-01  0.49604869352E-01  0.18121330670E-01  0.54303346923E-01  0.51100000000E-03 0. -1.
</event>
<event>
 8    1  0.1131349E+005  0.1043930E+01  0.7957747E-01            NaN
         13   -1    0    0    0    0  0.00000000000E+00  0.00000000000E+00  0.74505805969E-08  0.10566000000E+00  0.10566000000E+00 0. -1.
     999900   -1    0    0    0    0 -0.00000000000E+00 -0.00000000000E+00 -0.74505805969E-08  0.93827000000E+00  0.93827000000E+00 0. -1.
     999902    2    1    2    0    0  0.18883361052E-01  0.61484535637E-02  0.12796621731E-01  0.10203050485E+01  0.10200314964E+01 0.  0.
     999903    2    3    3    0    0  0.62611929349E-01 -0.10709911256E+00  0.38985452677E-01  0.13158515236E+00  0.20107540726E-01 0.  0.
         14    1    1    2    0    0 -0.18883361052E-01 -0.61484535637E-02 -0.12796621731E-01  0.23624951504E-01  0.00000000000E+00 0.  1.
     999901    1    3    3    0    0 -0.43728568297E-01  0.11324756612E+00 -0.26188830946E-01  0.88871989613E+00  0.88000000000E+00 0. -1.
        -11    1    4    4    0    0  0.38832381274E-01 -0.77759394362E-01  0.34639835432E-01  0.93566321754E-01  0.51100000000E-03 0. -1.
         11    1    4    4    0    0  0.23779548075E-01 -0.29339718197E-01  0.43456172452E-02  0.38018830608E-01  0.51100000000E-03 0.  1.
</event>
<event>
 8    1  0.1131349E+005  0.1043930E+01  0.7957747E-01            NaN
         13   -1    0    0    0    0  0.00000000000E+00  0.00000000000E+00  0.74505805969E-08  0.10566000000E+00  0.10566000000E+00 0. -1.
     999900   -1    0    0    0    0 -0.00000000000E+00 -0.00000000000E+00 -0.74505805969E-08  0.93827000000E+00  0.93827000000E+00 0.  1.
     999902    2    1    2    0    0 -0.61628337473E-02  0.86667748406E-02  0.21016627772E-01  0.10203759738E+01  0.10201040809E+01 0.  0.
     999903    2    3    3    0    0  0.98370334135E-01 -0.11621561869E-01  0.84517148382E-01  0.13168529878E+00  0.19649076499E-01 0.  0.
         14    1    1    2    0    0  0.61628337473E-02 -0.86667748406E-02 -0.21016627772E-01  0.23554026170E-01  0.00000000000E+00 0.  1.
     999901    1    3    3    0    0 -0.10453316788E+00  0.20288336709E-01 -0.63500520610E-01  0.88869067504E+00  0.88000000000E+00 0.  1.
        -11    1    4    4    0    0  0.69439040176E-01 -0.39179545878E-02  0.48224640794E-01  0.84634554228E-01  0.51100000000E-03 0.  1.
         11    1    4    4    0    0  0.28931293959E-01 -0.77036072807E-02  0.36292507588E-01  0.47050744556E-01  0.51100000000E-03 0. -1.
</event>
<event>
 8    1  0.1131349E+005  0.1043930E+01  0.7957747E-01            NaN
         13   -1    0    0    0    0  0.00000000000E+00  0.00000000000E+00  0.74505805969E-08  0.10566000000E+00  0.10566000000E+00 0.  1.
     999900   -1    0    0    0    0 -0.00000000000E+00 -0.00000000000E+00 -0.74505805969E-08  0.93827000000E+00  0.93827000000E+00 0. -1.
     999902    2    1    2    0    0  0.25637389781E-02  0.23454276077E-01 -0.27430056052E-02  0.10201771075E+01  0.10199005494E+01 0.  0.
     999903    2    3    3    0    0 -0.93032019378E-01 -0.52351007131E-01 -0.69819955421E-01  0.12923136997E+00  0.20744547021E-01 0.  0.
         14    1    1    2    0    0 -0.25637389781E-02 -0.23454276077E-01  0.27430056052E-02  0.23752892531E-01  0.00000000000E+00 0.  1.
     999901    1    3    3    0    0  0.95595758356E-01  0.75805283208E-01  0.67076949816E-01  0.89094573750E+00  0.88000000000E+00 0. -1.
        -11    1    4    4    0    0 -0.86955041830E-02  0.35499621307E-03 -0.95997466552E-02  0.12967423497E-01  0.51100000000E-03 0.  1.
         11    1    4    4    0    0 -0.84336515195E-01 -0.52706003344E-01 -0.60220208766E-01  0.11626394647E+00  0.51100000000E-03 0. -1.
</event>
<event>
 8    1  0.1131349E+005  0.1043930E+01  0.7957747E-01            NaN
         13   -1    0    0    0    0  0.00000000000E+00  0.00000000000E+00  0.74505805969E-08  0.10566000000E+00  0.10566000000E+00 0. -1.
     999900   -1    0    0    0    0 -0.00000000000E+00 -0.00000000000E+00 -0.74505805969E-08  0.93827000000E+00  0.93827000000E+00 0. -1.
     999902    2    1    2    0    0 -0.11811564899E-01  0.41069925044E-02  0.18953051899E-01  0.10212232030E+01  0.10209707301E+01 0.  0.
     999903    2    3    3    0    0  0.61295938807E-01 -0.45614201565E-01  0.10645890464E+00  0.13247454423E+00  0.19446310498E-01 0.  0.
         14    1    1    2    0    0  0.11811564899E-01 -0.41069925044E-02 -0.18953051899E-01  0.22706796980E-01  0.00000000000E+00 0.  1.
     999901    1    3    3    0    0 -0.73107503706E-01  0.49721194069E-01 -0.87505852746E-01  0.88874865879E+00  0.88000000000E+00 0. -1.
        -11    1    4    4    0    0  0.16712514641E-01 -0.22455375507E-01  0.46168588900E-01  0.53993997414E-01  0.51100000000E-03 0. -1.
         11    1    4    4    0    0  0.44583424166E-01 -0.23158826058E-01  0.60290315744E-01  0.78480546815E-01  0.51100000000E-03 0.  1.
</event>
<event>
 8    1  0.1131349E+005  0.1043930E+01  0.7957747E-01            NaN
         13   -1    0    0    0    0  0.00000000000E+00  0.00000000000E+00  0.74505805969E-08  0.10566000000E+00  0.10566000000E+00 0.  1.
     999900   -1    0    0    0    0 -0.00000000000E+00 -0.00000000000E+00 -0.74505805969E-08  0.93827000000E+00  0.93827000000E+00 0.  1.
     999902    2    1    2    0    0 -0.13275665591E-01  0.74607348726E-02 -0.18125752123E-01  0.10202562012E+01  0.10199815034E+01 0.  0.
     999903    2    3    3    0    0  0.12300606146E+00  0.25438519366E-01  0.20214866095E-01  0.12875975536E+00  0.19819797272E-01 0.  0.
         14    1    1    2    0    0  0.13275665591E-01 -0.74607348726E-02  0.18125752123E-01  0.23673798845E-01  0.00000000000E+00 0.  1.
     999901    1    3    3    0    0 -0.13628172706E+00 -0.17977784493E-01 -0.38340618219E-01  0.89149644580E+00  0.88000000000E+00 0.  1.
        -11    1    4    4    0    0  0.90537161942E-01  0.20998354762E-01  0.63057675728E-02  0.93155420781E-01  0.51100000000E-03 0. -1.
         11    1    4    4    0    0  0.32468899523E-01  0.44401646039E-02  0.13909098523E-01  0.35604334577E-01  0.51100000000E-03 0.  1.
</event>
<event>
 8    1  0.1131349E+005  0.1043930E+01  0.7957747E-01            NaN
         13   -1    0    0    0    0  0.00000000000E+00  0.00000000000E+00  0.74505805969E-08  0.10566000000E+00  0.10566000000E+00 0. -1.
     999900   -1    0    0    0    0 -0.00000000000E+00 -0.00000000000E+00 -0.74505805969E-08  0.93827000000E+00  0.93827000000E+00 0. -1.
     999902    2    1    2    0    0 -0.16232764415E-01 -0.18270134717E-01  0.12597400479E-02  0.10194578238E+01  0.10191640531E+01 0.  0.
     999903    2    3    3    0    0 -0.71346723509E-01 -0.34875725996E-01 -0.10273473528E+00  0.13146675118E+00  0.20552606009E-01 0.  0.
         14    1    1    2    0    0  0.16232764415E-01  0.18270134717E-01 -0.12597400479E-02  0.24472176203E-01  0.00000000000E+00 0.  1.
     999901    1    3    3    0    0  0.55113959094E-01  0.16605591279E-01  0.10399447533E+00  0.88799107262E+00  0.88000000000E+00 0.  1.
        -11    1    4    4    0    0 -0.46393777475E-01 -0.14287991001E-01 -0.50706516518E-01  0.70199296390E-01  0.51100000000E-03 0. -1.
         11    1    4    4    0    0 -0.24952946034E-01 -0.20587734995E-01 -0.52028218761E-01  0.61267454790E-01  0.51100000000E-03 0.  1.
</event>
<event>
 8    1  0.1131349E+005  0.1043930E+01  0.7957747E-01            NaN
         13   -1    0    0    0    0  0.00000000000E+00  0.00000000000E+00  0.74505805969E-08  0.10566000000E+00  0.10566000000E+00 0.  1.
     999900   -1    0    0    0    0 -0.00000000000E+00 -0.00000000000E+00 -0.74505805969E-08  0.93827000000E+00  0.93827000000E+00 0.  1.
     999902    2    1    2    0    0 -0.86659066235E-03  0.20314421705E-01  0.12486259402E-01  0.10200692921E+01  0.10197901879E+01 0.  0.
     999903    2    3    3    0    0 -0.85583018308E-01  0.50558600101E-01 -0.82078128522E-01  0.13044352418E+00  0.19951660409E-01 0.  0.
         14    1    1    2    0    0  0.86659066235E-03 -0.20314421705E-01 -0.12486259402E-01  0.23860707920E-01  0.00000000000E+00 0.  1.
     999901    1    3    3    0    0  0.84716427646E-01 -0.30244178396E-01  0.94564387924E-01  0.88962576790E+00  0.88000000000E+00 0.  1.
        -11    1    4    4    0    0 -0.17351097622E-01  0.16876930535E-02 -0.13323210258E-01  0.21947162666E-01  0.51100000000E-03 0.  1.
         11    1    4    4    0    0 -0.68231920687E-01  0.48870907048E-01 -0.68754918264E-01  0.10849636152E+00  0.51100000000E-03 0. -1.
</event>
<event>
 8    1  0.1131349E+005  0.1043930E+01  0.7957747E-01            NaN
         13   -1    0    0    0    0  0.00000000000E+00  0.00000000000E+00  0.74505805969E-08  0.10566000000E+00  0.10566000000E+00 0. -1.
     999900   -1    0    0    0    0 -0.00000000000E+00 -0.00000000000E+00 -0.74505805969E-08  0.93827000000E+00  0.93827000000E+00 0.  1.
     999902    2    1    2    0    0 -0.21052013462E-01  0.92032836264E-02 -0.30962843241E-02  0.10207464999E+01  0.10204831906E+01 0.  0.
     999903    2    3    3    0    0 -0.71702837530E-01  0.58344909219E-01 -0.94186831116E-01  0.13323430671E+00  0.18297431162E-01 0.  0.
         14    1    1    2    0    0  0.21052013462E-01 -0.92032836264E-02  0.30962843241E-02  0.23183500101E-01  0.00000000000E+00 0.  1.
     999901    1    3    3    0    0  0.50650824067E-01 -0.49141625593E-01  0.91090546792E-01  0.88751219319E+00  0.88000000000E+00 0. -1.
        -11    1    4    4    0    0 -0.42590547898E-01  0.45757768863E-01 -0.62473091942E-01  0.88379163378E-01  0.51100000000E-03 0. -1.
         11    1    4    4    0    0 -0.29112289631E-01  0.12587140357E-01 -0.31713739174E-01  0.44855143332E-01  0.51100000000E-03 0.  1.
</event>
<event>
 8    1  0.1131349E+005  0.1043930E+01  0.7957747E-01            NaN
         13   -1    0    0    0    0  0.00000000000E+00  0.00000000000E+00  0.74505805969E-08  0.10566000000E+00  0.10566000000E+00 0. -1.
     999900   -1    0    0    0    0 -0.00000000000E+00 -0.00000000000E+00 -0.74505805969E-08  0.93827000000E+00  0.93827000000E+00 0. -1.
     999902    2    1    2    0    0  0.77567032094E-02  0.29762348300E-02 -0.22288088308E-01  0.10201438002E+01  0.10198664569E+01 0.  0.
     999903    2    3    3    0    0  0.68629603801E-02 -0.98764246310E-01  0.79866226864E-01  0.12841097681E+00  0.17586591409E-01 0.  0.
         14    1    1    2    0    0 -0.77567032094E-02 -0.29762348300E-02  0.22288088308E-01  0.23786199757E-01  0.00000000000E+00 0. -1.
     999901    1    3    3    0    0  0.89374282933E-03  0.10174048114E+00 -0.10215431517E+00  0.89173282343E+00  0.88000000000E+00 0. -1.
        -11    1    4    4    0    0 -0.12116424786E-02 -0.80768288909E-01  0.62688674059E-01  0.10225025940E+00  0.51100000000E-03 0.  1.
         11    1    4    4    0    0  0.80746028587E-02 -0.17995957401E-01  0.17177552805E-01  0.26160717411E-01  0.51100000000E-03 0. -1.
</event>
<event>
 8    1  0.1131349E+005  0.1043930E+01  0.7957747E-01            NaN
         13   -1    0    0    0    0  0.00000000000E+00  0.00000000000E+00  0.74505805969E-08  0.10566000000E+00  0.10566000000E+00 0. -1.
     999900   -1    0    0    0    0 -0.00000000000E+00 -0.00000000000E+00 -0.74505805969E-08  0.93827000000E+00  0.93827000000E+00 0. -1.
     999902    2    1    2    0    0  0.19796168238E-02  0.98419474577E-02  0.21245564016E-01  0.10204319830E+01  0.10201613966E+01 0.  0.
     999903    2    3    3    0    0 -0.14783906893E-01 -0.10141550443E+00 -0.74083401708E-01  0.12816136932E+00  0.20816285348E-01 0.  0.
         14    1    1    2    0    0 -0.19796168238E-02 -0.98419474577E-02 -0.21245564016E-01  0.23498016999E-01  0.00000000000E+00 0.  1.
     999901    1    3    3    0    0  0.16763523717E-01  0.11125745189E+00  0.95328965724E-01  0.89227061368E+00  0.88000000000E+00 0. -1.
        -11    1    4    4    0    0 -0.13844397919E-01 -0.30405024955E-01 -0.26931871864E-01  0.42915262313E-01  0.51100000000E-03 0.  1.
         11    1    4    4    0    0 -0.93950897391E-03 -0.71010479476E-01 -0.47151529844E-01  0.85246107009E-01  0.51100000000E-03 0. -1.
</event>
<event>
 8    1  0.1131349E+005  0.1043930E+01  0.7957747E-01            NaN
         13   -1    0    0    0    0  0.00000000000E+00  0.00000000000E+00  0.74505805969E-08  0.10566000000E+00  0.10566000000E+00 0.  1.
     999900   -1    0    0    0    0 -0.00000000000E+00 -0.00000000000E+00 -0.74505805969E-08  0.93827000000E+00  0.93827000000E+00 0. -1.
     999902    2    1    2    0    0  0.13623616869E-01  0.11526472163E-01 -0.19454023581E-01  0.10175307286E+01  0.10171882137E+01 0.  0.
     999903    2    3    3    0    0 -0.80817640049E-01  0.48195670296E-01 -0.86506075803E-01  0.12918408522E+00  0.18732675834E-01 0.  0.
         14    1    1    2    0    0 -0.13623616869E-01 -0.11526472163E-01  0.19454023581E-01  0.26399271403E-01  0.00000000000E+00 0.  1.
     999901    1    3    3    0    0  0.94441256918E-01 -0.36669198133E-01  0.67052052222E-01  0.88834664338E+00  0.88000000000E+00 0.  1.
        -11    1    4    4    0    0 -0.40762570805E-01  0.27389714809E-01 -0.32945969310E-01  0.59139510234E-01  0.51100000000E-03 0. -1.
         11    1    4    4    0    0 -0.40055069244E-01  0.20805955487E-01 -0.53560106493E-01  0.70044574982E-01  0.51100000000E-03 0.  1.
</event>
<event>
 8    1  0.1131349E+005  0.1043930E+01  0.7957747E-01            NaN
         13   -1    0    0    0    0  0.00000000000E+00  0.00000000000E+00  0.74505805969E-08  0.10566000000E+00  0.10566000000E+00 0. -1.
     999900   -1    0    0    0    0 -0.00000000000E+00 -0.00000000000E+00 -0.74505805969E-08  0.93827000000E+00  0.93827000000E+00 0.  1.
     999902    2    1    2    0    0  0.63136106490E-02 -0.12304680783E-01 -0.20190054609E-01  0.10194574612E+01  0.10191636817E+01 0.  0.
     999903    2    3    3    0    0  0.73601845525E-01  0.81496117702E-01  0.63024475204E-01  0.12802549281E+00  0.18962949927E-01 0.  0.
         14    1    1    2    0    0 -0.63136106490E-02  0.12304680783E-01  0.20190054609E-01  0.24472538767E-01  0.00000000000E+00 0. -1.
     999901    1    3    3    0    0 -0.67288234876E-01 -0.93800798485E-01 -0.83214529813E-01  0.89143196842E+00  0.88000000000E+00 0. -1.
        -11    1    4    4    0    0  0.19650468329E-01  0.10739427901E-01  0.11036857492E-01  0.24970974380E-01  0.51100000000E-03 0. -1.
         11    1    4    4    0    0  0.53951377196E-01  0.70756689801E-01  0.51987617712E-01  0.10305451843E+00  0.51100000000E-03 0.  1.
</event>
<event>
 8    1  0.1131349E+005  0.1043930E+01  0.7957747E-01            NaN
         13   -1    0    0    0    0  0.00000000000E+00  0.00000000000E+00  0.74505805969E-08  0.10566000000E+00  0.10566000000E+00 0.  1.
     999900   -1    0    0    0    0 -0.00000000000E+00 -0.00000000000E+00 -0.74505805969E-08  0.93827000000E+00  0.93827000000E+00 0. -1.
     999902    2    1    2    0    0  0.21188213098E-01 -0.97197933525E-02  0.18338429144E-02  0.10205467210E+01  0.10202788011E+01 0.  0.
     999903    2    3    3    0    0 -0.58267538177E-01 -0.11337081660E+00 -0.20054600833E-01  0.13063894207E+00  0.20403384748E-01 0.  0.
         14    1    1    2    0    0 -0.21188213098E-01  0.97197933525E-02 -0.18338429144E-02  0.23383279003E-01  0.00000000000E+00 0. -1.
     999901    1    3    3    0    0  0.79455751275E-01  0.10365102324E+00  0.21888443747E-01  0.88990777893E+00  0.88000000000E+00 0.  1.
        -11    1    4    4    0    0 -0.32992603230E-01 -0.52579466407E-01 -0.94210503949E-03  0.62082693550E-01  0.51100000000E-03 0.  1.
         11    1    4    4    0    0 -0.25274934947E-01 -0.60791350188E-01 -0.19112495793E-01  0.68556248517E-01  0.51100000000E-03 0. -1.
</event>
<event>
 8    1  0.1131349E+005  0.1043930E+01  0.7957747E-01            NaN
         13   -1    0    0    0    0  0.00000000000E+00  0.00000000000E+00  0.74505805969E-08  0.10566000000E+00  0.10566000000E+00 0. -1.
     999900   -1    0    0    0    0 -0.00000000000E+00 -0.00000000000E+00 -0.74505805969E-08  0.93827000000E+00  0.93827000000E+00 0.  1.
     999902    2    1    2    0    0  0.11793717131E-01 -0.17448188309E-01  0.11394800646E-01  0.10199848017E+01  0.10197036938E+01 0.  0.
     999903    2    3    3    0    0  0.50552652217E-01 -0.87403074588E-01 -0.82042740785E-01  0.13143175585E+00  0.18666200407E-01 0.  0.
         14    1    1    2    0    0 -0.11793717131E-01  0.17448188309E-01 -0.11394800646E-01  0.23945198283E-01  0.00000000000E+00 0.  1.
     999901    1    3    3    0    0 -0.38758935086E-01  0.69954886279E-01  0.93437541432E-01  0.88855304586E+00  0.88000000000E+00 0. -1.
        -11    1    4    4    0    0  0.36684041264E-01 -0.52956483581E-01 -0.42471542048E-01  0.77163469606E-01  0.51100000000E-03 0.  1.
         11    1    4    4    0    0  0.13868610954E-01 -0.34446591007E-01 -0.39571198737E-01  0.54268286248E-01  0.51100000000E-03 0. -1.
</event>
<event>
 8    1  0.1131349E+005  0.1043930E+01  0.7957747E-01            NaN
         13   -1    0    0    0    0  0.00000000000E+00  0.00000000000E+00  0.74505805969E-08  0.10566000000E+00  0.10566000000E+00 0.  1.
     999900   -1    0    0    0    0 -0.00000000000E+00 -0.00000000000E+00 -0.74505805969E-08  0.93827000000E+00  0.93827000000E+00 0.  1.
     999902    2    1    2    0    0  0.12739262514E-01  0.11781130311E-02 -0.19856572422E-01  0.10203088182E+01  0.10200353545E+01 0.  0.
     999903    2    3    3    0    0  0.12108960554E+00 -0.45967257780E-01 -0.18500812211E-01  0.13240999466E+00  0.20357929048E-01 0.  0.
         14    1    1    2    0    0 -0.12739262514E-01 -0.11781130311E-02  0.19856572422E-01  0.23621181767E-01  0.00000000000E+00 0.  1.
     999901    1    3    3    0    0 -0.10835034302E+00  0.47145370811E-01 -0.13557602112E-02  0.88789882358E+00  0.88000000000E+00 0.  1.
        -11    1    4    4    0    0  0.62019602227E-01 -0.34356443485E-01 -0.93278855442E-02  0.71512704040E-01  0.51100000000E-03 0.  1.
         11    1    4    4    0    0  0.59070003312E-01 -0.11610814295E-01 -0.91729266668E-02  0.60897290617E-01  0.51100000000E-03 0. -1.
</event>
<event>
 8    1  0.1131349E+005  0.1043930E+01  0.7957747E-01            NaN
         13   -1    0    0    0    0  0.00000000000E+00  0.00000000000E+00  0.74505805969E-08  0.10566000000E+00  0.10566000000E+00 0. -1.
     999900   -1    0    0    0    0 -0.00000000000E+00 -0.00000000000E+00 -0.74505805969E-08  0.93827000000E+00  0.93827000000E+00 0.  1.
     999902    2    1    2    0    0 -0.17634372588E-01  0.21289590027E-02 -0.14886920267E-01  0.10207540651E+01  0.10204909296E+01 0.  0.
     999903    2    3    3    0    0  0.68543086473E-01  0.86291008607E-01  0.63851697247E-01  0.12906489565E+00  0.20890552366E-01 0.  0.
         14    1    1    2    0    0  0.17634372588E-01 -0.21289590027E-02  0.14886920267E-01  0.23175934890E-01  0.00000000000E+00 0.  1.
     999901    1    3    3    0    0 -0.86177459061E-01 -0.84162049604E-01 -0.78738617514E-01  0.89168916946E+00  0.88000000000E+00 0.  1.
        -11    1    4    4    0    0  0.50176198339E-01  0.58832956791E-01  0.54907489666E-01  0.94837024557E-01  0.51100000000E-03 0.  1.
         11    1    4    4    0    0  0.18366888134E-01  0.27458051816E-01  0.89442075811E-02  0.34227871093E-01  0.51100000000E-03 0. -1.
</event>
<event>
 8    1  0.1131349E+005  0.1043930E+01  0.7957747E-01            NaN
         13   -1    0    0    0    0  0.00000000000E+00  0.00000000000E+00  0.74505805969E-08  0.10566000000E+00  0.10566000000E+00 0.  1.
     999900   -1    0    0    0    0 -0.00000000000E+00 -0.00000000000E+00 -0.74505805969E-08  0.93827000000E+00  0.93827000000E+00 0.  1.
     999902    2    1    2    0    0  0.27816365602E-02  0.17984221284E-01  0.14393242410E-01  0.10207279496E+01  0.10204642139E+01 0.  0.
     999903    2    3    3    0    0  0.42366730106E-01  0.65673242099E-02 -0.12050501372E+00  0.12949573254E+00  0.20238993219E-01 0.  0.
         14    1    1    2    0    0 -0.27816365602E-02 -0.17984221284E-01 -0.14393242410E-01  0.23202050431E-01  0.00000000000E+00 0. -1.
     999901    1    3    3    0    0 -0.39585093546E-01  0.11416897074E-01  0.13489825613E+00  0.89123221703E+00  0.88000000000E+00 0. -1.
        -11    1    4    4    0    0  0.31880373054E-01  0.14286454055E-02 -0.10688056122E+00  0.11154422756E+00  0.51100000000E-03 0.  1.
         11    1    4    4    0    0  0.10486357052E-01  0.51386788043E-02 -0.13624452497E-01  0.17951504977E-01  0.51100000000E-03 0. -1.
</event>
<event>
 8    1  0.1131349E+005  0.1043930E+01  0.7957747E-01            NaN
         13   -1    0    0    0    0  0.00000000000E+00  0.00000000000E+00  0.74505805969E-08  0.10566000000E+00  0.10566000000E+00 0. -1.
     999900   -1    0    0    0    0 -0.00000000000E+00 -0.00000000000E+00 -0.74505805969E-08  0.93827000000E+00  0.93827000000E+00 0.  1.
     999902    2    1    2    0    0 -0.58572140236E-02 -0.21565293868E-01  0.10585188458E-01  0.10192031913E+01  0.10189031995E+01 0.  0.
     999903    2    3    3    0    0  0.52390641347E-01  0.10680854922E+00 -0.38166226293E-01  0.12665103218E+00  0.20760000809E-01 0.  0.
         14    1    1    2    0    0  0.58572140236E-02  0.21565293868E-01 -0.10585188458E-01  0.24726808739E-01  0.00000000000E+00 0. -1.
     999901    1    3    3    0    0 -0.58247855371E-01 -0.12837384309E+00  0.48751414751E-01  0.89255215908E+00  0.88000000000E+00 0. -1.
        -11    1    4    4    0    0  0.63431414818E-02  0.25977120417E-01 -0.15457146161E-01  0.30890625074E-01  0.51100000000E-03 0.  1.
         11    1    4    4    0    0  0.46047499865E-01  0.80831428808E-01 -0.22709080132E-01  0.95760407102E-01  0.51100000000E-03 0. -1.
</event>
<event>
 8    1  0.1131349E+005  0.1043930E+01  0.7957747E-01            NaN
         13   -1    0    0    0    0  0.00000000000E+00  0.00000000000E+00  0.74505805969E-08  0.10566000000E+00  0.10566000000E+00 0.  1.
     999900   -1    0    0    0    0 -0.00000000000E+00 -0.00000000000E+00 -0.74505805969E-08  0.93827000000E+00  0.93827000000E+00 0. -1.
     999902    2    1    2    0    0  0.18806597661E-01  0.13660479554E-01  0.19388856318E-02  0.10206049899E+01  0.10203384190E+01 0.  0.
     999903    2    3    3    0    0 -0.91237114627E-01 -0.77240732055E-01  0.32010828363E-01  0.12859771943E+00  0.34961958415E-01 0.  0.
         14    1    1    2    0    0 -0.18806597661E-01 -0.13660479554E-01 -0.19388856318E-02  0.23325010069E-01  0.00000000000E+00 0. -1.
     999901    1    3    3    0    0  0.11004371229E+00  0.90901211609E-01 -0.30071942731E-01  0.89200727050E+00  0.88000000000E+00 0.  1.
        -11    1    4    4    0    0 -0.59534643783E-01 -0.30621228589E-01  0.84047257188E-02  0.67475432463E-01  0.51100000000E-03 0.  1.
         11    1    4    4    0    0 -0.31702470845E-01 -0.46619503466E-01  0.23606102644E-01  0.61122286967E-01  0.51100000000E-03 0. -1.
</event>
<event>
 8    1  0.1131349E+005  0.1043930E+01  0.7957747E-01            NaN
         13   -1    0    0    0    0  0.00000000000E+00  0.00000000000E+00  0.74505805969E-08  0.10566000000E+00  0.10566000000E+00 0.  1.
     999900   -1    0    0    0    0 -0.00000000000E+00 -0.00000000000E+00 -0.74505805969E-08  0.93827000000E+00  0.93827000000E+00 0.  1.
     999902    2    1    2    0    0 -0.51057197214E-02 -0.23552990727E-01  0.41778428559E-02  0.10194705209E+01  0.10191770587E+01 0.  0.
     999903    2    3    3    0    0 -0.16362855048E-01 -0.58958174269E-01 -0.11397908643E+00  0.13079661556E+00  0.19305780515E-01 0.  0.
         14    1    1    2    0    0  0.51057197214E-02  0.23552990727E-01 -0.41778428559E-02  0.24459479082E-01  0.00000000000E+00 0.  1.
     999901    1    3    3    0    0  0.11257135326E-01  0.35405183542E-01  0.11815692929E+00  0.88867390535E+00  0.88000000000E+00 0. -1.
        -11    1    4    4    0    0 -0.18577940226E-02 -0.40606601596E-01 -0.75983963616E-01  0.86175236232E-01  0.51100000000E-03 0.  1.
         11    1    4    4    0    0 -0.14505061025E-01 -0.18351572673E-01 -0.37995122814E-01  0.44621379333E-01  0.51100000000E-03 0. -1.
</event>
<event>
 8    1  0.1131349E+005  0.1043930E+01  0.7957747E-01            NaN
         13   -1    0    0    0    0  0.00000000000E+00  0.00000000000E+00  0.74505805969E-08  0.10566000000E+00  0.10566000000E+00 0.  1.
     999900   -1    0    0    0    0 -0.00000000000E+00 -0.00000000000E+00 -0.74505805969E-08  0.93827000000E+00  0.93827000000E+00 0. -1.
     999902    2    1    2    0    0  0.20899609024E-01 -0.14061348533E-01 -0.31899245084E-02  0.10185392379E+01  0.10182227106E+01 0.  0.
     999903    2    3    3    0    0 -0.72873167630E-01 -0.38260630122E-02  0.10235654641E+00  0.12722663720E+00  0.19611662355E-01 0.  0.
         14    1    1    2    0    0 -0.20899609024E-01  0.14061348533E-01  0.31899245084E-02  0.25390762066E-01  0.00000000000E+00 0.  1.
     999901    1    3    3    0    0  0.93772776655E-01 -0.10235285521E-01 -0.10554647092E+00  0.89131260074E+00  0.88000000000E+00 0. -1.
        -11    1    4    4    0    0 -0.60834707472E-01  0.93661022192E-03  0.72289971572E-01  0.94487247726E-01  0.51100000000E-03 0.  1.
         11    1    4    4    0    0 -0.12038460158E-01 -0.47626732342E-02  0.30066574839E-01  0.32739389470E-01  0.51100000000E-03 0. -1.
</event>
<event>
 8    1  0.1131349E+005  0.1043930E+01  0.7957747E-01            NaN
         13   -1    0    0    0    0  0.00000000000E+00  0.00000000000E+00  0.74505805969E-08  0.10566000000E+00  0.10566000000E+00 0. -1.
     999900   -1    0    0    0    0 -0.00000000000E+00 -0.00000000000E+00 -0.74505805969E-08  0.93827000000E+00  0.93827000000E+00 0.  1.
     999902    2    1    2    0    0 -0.18865989066E-02 -0.10654652199E-01  0.26813482843E-01  0.10150155792E+01  0.10146036577E+01 0.  0.
     999903    2    3    3    0    0 -0.14101795426E-01 -0.12150679420E+00 -0.21575632579E-01  0.12665815399E+00  0.24779394252E-01 0.  0.
         14    1    1    2    0    0  0.18865989066E-02  0.10654652199E-01 -0.26813482843E-01  0.28914420816E-01  0.00000000000E+00 0.  1.
     999901    1    3    3    0    0  0.12215196519E-01  0.11085214200E+00  0.48389115423E-01  0.88835742520E+00  0.88000000000E+00 0. -1.
        -11    1    4    4    0    0 -0.94120443555E-02 -0.47919266425E-01 -0.20354530396E-01  0.52909457588E-01  0.51100000000E-03 0. -1.
         11    1    4    4    0    0 -0.46897510704E-02 -0.73587527774E-01 -0.12211021836E-02  0.73748696399E-01  0.51100000000E-03 0.  1.
</event>
<event>
 8    1  0.1131349E+005  0.1043930E+01  0.7957747E-01            NaN
         13   -1    0    0    0    0  0.00000000000E+00  0.00000000000E+00  0.74505805969E-08  0.10566000000E+00  0.10566000000E+00 0. -1.
     999900   -1    0    0    0    0 -0.00000000000E+00 -0.00000000000E+00 -0.74505805969E-08  0.93827000000E+00  0.93827000000E+00 0.  1.
     999902    2    1    2    0    0 -0.23709813938E-01  0.15526487819E-02  0.41553623039E-02  0.10198087846E+01  0.10195234790E+01 0.  0.
     999903    2    3    3    0    0 -0.67735465728E-01 -0.89967356636E-01 -0.58904429223E-01  0.13172618334E+00  0.34638663608E-01 0.  0.
         14    1    1    2    0    0  0.23709813938E-01 -0.15526487819E-02 -0.41553623039E-02  0.24121215374E-01  0.00000000000E+00 0.  1.
     999901    1    3    3    0    0  0.44025651790E-01  0.91520005418E-01  0.63059791527E-01  0.88808260129E+00  0.88000000000E+00 0.  1.
        -11    1    4    4    0    0 -0.28827720847E-01 -0.63675162380E-01 -0.26899363829E-01  0.74895932391E-01  0.51100000000E-03 0. -1.
         11    1    4    4    0    0 -0.38907744881E-01 -0.26292194257E-01 -0.32005065394E-01  0.56830250945E-01  0.51100000000E-03 0.  1.
</event>
<event>
 8    1  0.1131349E+005  0.1043930E+01  0.7957747E-01            NaN
         13   -1    0    0    0    0  0.00000000000E+00  0.00000000000E+00  0.74505805969E-08  0.10566000000E+00  0.10566000000E+00 0.  1.
     999900   -1    0    0    0    0 -0.00000000000E+00 -0.00000000000E+00 -0.74505805969E-08  0.93827000000E+00  0.93827000000E+00 0. -1.
     999902    2    1    2    0    0 -0.23649302609E-02  0.23426566672E-01 -0.98733729006E-03  0.10203636733E+01  0.10200914929E+01 0.  0.
     999903    2    3    3    0    0  0.44789925257E-01  0.53139689856E-01  0.11003061035E+00  0.13163906193E+00  0.19802610136E-01 0.  0.
         14    1    1    2    0    0  0.23649302609E-02 -0.23426566672E-01  0.98733729006E-03  0.23566326742E-01  0.00000000000E+00 0.  1.
     999901    1    3    3    0    0 -0.47154855518E-01 -0.29713123184E-01 -0.11101794764E+00  0.88872461133E+00  0.88000000000E+00 0. -1.
        -11    1    4    4    0    0  0.46161035189E-01  0.47127030095E-01  0.10246200340E+00  0.12186271537E+00  0.51100000000E-03 0.  1.
         11    1    4    4    0    0 -0.13711099314E-02  0.60126597604E-02  0.75686069474E-02  0.97763465549E-02  0.51100000000E-03 0. -1.
</event>
<event>
 8    1  0.1131349E+005  0.1043930E+01  0.7957747E-01            NaN
         13   -1    0    0    0    0  0.00000000000E+00  0.00000000000E+00  0.74505805969E-08  0.10566000000E+00  0.10566000000E+00 0.  1.
     999900   -1    0    0    0    0 -0.00000000000E+00 -0.00000000000E+00 -0.74505805969E-08  0.93827000000E+00  0.93827000000E+00 0.  1.
     999902    2    1    2    0    0  0.10528475205E-01  0.41350620445E-02  0.19542825116E-01  0.10213497090E+01  0.10211000727E+01 0.  0.
     999903    2    3    3    0    0 -0.47540850548E-03  0.75964604967E-01  0.10833692151E+00  0.13390114133E+00  0.20537279909E-01 0.  0.
         14    1    1    2    0    0 -0.10528475205E-01 -0.41350620445E-02 -0.19542825116E-01  0.22580291003E-01  0.00000000000E+00 0. -1.
     999901    1    3    3    0    0  0.11003883710E-01 -0.71829542923E-01 -0.88794096399E-01  0.88744856766E+00  0.88000000000E+00 0.  1.
        -11    1    4    4    0    0 -0.17397858684E-02  0.41602235079E-01  0.41798550894E-01  0.59001294869E-01  0.51100000000E-03 0.  1.
         11    1    4    4    0    0  0.12643773629E-02  0.34362369888E-01  0.66538370621E-01  0.74899846464E-01  0.51100000000E-03 0. -1.
</event>
<event>
 8    1  0.1131349E+005  0.1043930E+01  0.7957747E-01            NaN
         13   -1    0    0    0    0  0.00000000000E+00  0.00000000000E+00  0.74505805969E-08  0.10566000000E+00  0.10566000000E+00 0. -1.
     999900   -1    0    0    0    0 -0.00000000000E+00 -0.00000000000E+00 -0.74505805969E-08  0.93827000000E+00  0.93827000000E+00 0.  1.
     999902    2    1    2    0    0 -0.20881069139E-01  0.30337891766E-02  0.83775335407E-02  0.10212274452E+01  0.10209750677E+01 0.  0.
     999903    2    3    3    0    0 -0.10152458361E+00 -0.82474765166E-01 -0.14321585013E-01  0.13312253066E+00  0.20178513444E-01 0.  0.
         14    1    1    2    0    0  0.20881069139E-01 -0.30337891766E-02 -0.83775335407E-02  0.22702554777E-01  0.00000000000E+00 0. -1.
     999901    1    3    3    0    0  0.80643514472E-01  0.85508554343E-01  0.22699118554E-01  0.88810491457E+00  0.88000000000E+00 0. -1.
        -11    1    4    4    0    0 -0.19053640375E-01 -0.18800204624E-01  0.47731773836E-02  0.27194360607E-01  0.51100000000E-03 0.  1.
         11    1    4    4    0    0 -0.82470943236E-01 -0.63674560542E-01 -0.19094762397E-01  0.10592817005E+00  0.51100000000E-03 0. -1.
</event>
<event>
 7    1  0.1131349E+005  0.1043930E+01  0.7957747E-01            NaN
         13   -1    0    0    0    0  0.00000000000E+00  0.00000000000E+00  0.74505805969E-08  0.10566000000E+00  0.10566000000E+00 0. -1.
     999900   -1    0    0    0    0 -0.00000000000E+00 -0.00000000000E+00 -0.74505805969E-08  0.93827000000E+00  0.93827000000E+00 0. -1.
     999903    2    1    2    0    0 -0.10603840205E-01 -0.79102498524E-01  0.21251223039E-01  0.85539264600E-01  0.22264424715E-01 0.  0.
         14    1    1    2    0    0  0.37220167022E-01 -0.33569427367E-01 -0.49382056239E-01  0.70362168565E-01  0.00000000000E+00 0.  1.
     999901    1    1    2    0    0 -0.26616326817E-01  0.11267192589E+00  0.28130833199E-01  0.88802856683E+00  0.88000000000E+00 0. -1.
        -11    1    3    3    0    0 -0.14236611125E-01 -0.37751813395E-01  0.38736793330E-02  0.40535749944E-01  0.51100000000E-03 0. -1.
         11    1    3    3    0    0  0.36327709198E-02 -0.41350685128E-01  0.17377543706E-01  0.45003514656E-01  0.51100000000E-03 0.  1.
</event>
<event>
 8    1  0.1131349E+005  0.1043930E+01  0.7957747E-01            NaN
         13   -1    0    0    0    0  0.00000000000E+00  0.00000000000E+00  0.74505805969E-08  0.10566000000E+00  0.10566000000E+00 0. -1.
     999900   -1    0    0    0    0 -0.00000000000E+00 -0.00000000000E+00 -0.74505805969E-08  0.93827000000E+00  0.93827000000E+00 0.  1.
     999902    2    1    2    0    0 -0.64724527828E-02  0.22602116692E-01 -0.86419131619E-03  0.10204035224E+01  0.10201322724E+01 0.  0.
     999903    2    3    3    0    0 -0.20404113775E-01 -0.11096994483E+00  0.57847601080E-01  0.12828096274E+00  0.19468023452E-01 0.  0.
         14    1    1    2    0    0  0.64724527828E-02 -0.22602116692E-01  0.86419131619E-03  0.23526477650E-01  0.00000000000E+00 0.  1.
     999901    1    3    3    0    0  0.13931660992E-01  0.13357206152E+00 -0.58711792396E-01  0.89212255961E+00  0.88000000000E+00 0. -1.
        -11    1    4    4    0    0 -0.16918235696E-01 -0.10409411456E+00  0.48290339892E-01  0.11599150587E+00  0.51100000000E-03 0.  1.
         11    1    4    4    0    0 -0.34858780787E-02 -0.68758302638E-02  0.95572611882E-02  0.12289456872E-01  0.51100000000E-03 0. -1.
</event>
<event>
 8    1  0.1131349E+005  0.1043930E+01  0.7957747E-01            NaN
         13   -1    0    0    0    0  0.00000000000E+00  0.00000000000E+00  0.74505805969E-08  0.10566000000E+00  0.10566000000E+00 0.  1.
     999900   -1    0    0    0    0 -0.00000000000E+00 -0.00000000000E+00 -0.74505805969E-08  0.93827000000E+00  0.93827000000E+00 0.  1.
     999902    2    1    2    0    0 -0.20665004776E-01  0.24205552419E-02 -0.11195321108E-01  0.10203029662E+01  0.10200293653E+01 0.  0.
     999903    2    3    3    0    0  0.92348596214E-01  0.79640279737E-01 -0.37827108274E-01  0.12932361072E+00  0.20563773718E-01 0.  0.
         14    1    1    2    0    0  0.20665004776E-01 -0.24205552419E-02  0.11195321108E-01  0.23627033771E-01  0.00000000000E+00 0.  1.
     999901    1    3    3    0    0 -0.11301360099E+00 -0.77219724495E-01  0.26631787165E-01  0.89097935551E+00  0.88000000000E+00 0. -1.
        -11    1    4    4    0    0  0.55450484122E-01  0.35023240237E-01 -0.23575761090E-01  0.69695488936E-01  0.51100000000E-03 0.  1.
         11    1    4    4    0    0  0.36898112092E-01  0.44617039500E-01 -0.14251347183E-01  0.59628121782E-01  0.51100000000E-03 0. -1.
</event>
<event>
 8    1  0.1131349E+005  0.1043930E+01  0.7957747E-01            NaN
         13   -1    0    0    0    0  0.00000000000E+00  0.00000000000E+00  0.74505805969E-08  0.10566000000E+00  0.10566000000E+00 0. -1.
     999900   -1    0    0    0    0 -0.00000000000E+00 -0.00000000000E+00 -0.74505805969E-08  0.93827000000E+00  0.93827000000E+00 0.  1.
     999902    2    1    2    0    0  0.22988827572E-01  0.86070627050E-02 -0.17305691598E-02  0.10193218186E+01  0.10190247334E+01 0.  0.
     999903    2    3    3    0    0  0.11261611026E+00  0.18455086349E-01  0.63803598705E-01  0.13229038708E+00  0.20170989156E-01 0.  0.
         14    1    1    2    0    0 -0.22988827572E-01 -0.86070627050E-02  0.17305691598E-02  0.24608181387E-01  0.00000000000E+00 0. -1.
     999901    1    3    3    0    0 -0.89627282689E-01 -0.98480236435E-02 -0.65534167865E-01  0.88703143153E+00  0.88000000000E+00 0. -1.
        -11    1    4    4    0    0  0.45432834017E-01  0.11626052544E-01  0.36579718578E-01  0.59478100481E-01  0.51100000000E-03 0. -1.
         11    1    4    4    0    0  0.67183276243E-01  0.68290338043E-02  0.27223880127E-01  0.72812286598E-01  0.51100000000E-03 0.  1.
</event>
<event>
 8    1  0.1131349E+005  0.1043930E+01  0.7957747E-01            NaN
         13   -1    0    0    0    0  0.00000000000E+00  0.00000000000E+00  0.74505805969E-08  0.10566000000E+00  0.10566000000E+00 0. -1.
     999900   -1    0    0    0    0 -0.00000000000E+00 -0.00000000000E+00 -0.74505805969E-08  0.93827000000E+00  0.93827000000E+00 0. -1.
     999902    2    1    2    0    0 -0.18890085557E-01  0.91704527065E-02  0.65598876948E-02  0.10219308032E+01  0.10216939864E+01 0.  0.
     999903    2    3    3    0    0 -0.90547665378E-01  0.87661705718E-01 -0.40170939740E-01  0.13430506233E+00  0.23252763558E-01 0.  0.
         14    1    1    2    0    0  0.18890085557E-01 -0.91704527065E-02 -0.65598876948E-02  0.21999196844E-01  0.00000000000E+00 0.  1.
     999901    1    3    3    0    0  0.71657579820E-01 -0.78491253011E-01  0.46730827435E-01  0.88762574083E+00  0.88000000000E+00 0. -1.
        -11    1    4    4    0    0 -0.43479243239E-01  0.43648921198E-01 -0.75361005540E-02  0.62070337899E-01  0.51100000000E-03 0.  1.
         11    1    4    4    0    0 -0.47068422139E-01  0.44012784520E-01 -0.32634839187E-01  0.72234724431E-01  0.51100000000E-03 0. -1.
</event>
<event>
 8    1  0.1131349E+005  0.1043930E+01  0.7957747E-01            NaN
         13   -1    0    0    0    0  0.00000000000E+00  0.00000000000E+00  0.74505805969E-08  0.10566000000E+00  0.10566000000E+00 0.  1.
     999900   -1    0    0    0    0 -0.00000000000E+00 -0.00000000000E+00 -0.74505805969E-08  0.93827000000E+00  0.93827000000E+00 0.  1.
     999902    2    1    2    0    0 -0.15117190757E-01  0.11126351763E-02 -0.18658616519E-01  0.10198902125E+01  0.10196068527E+01 0.  0.
     999903    2    3    3    0    0 -0.78341489313E-01  0.31933489648E-01  0.96255226462E-01  0.12963607556E+00  0.19578221493E-01 0.  0.
         14    1    1    2    0    0  0.15117190757E-01 -0.11126351763E-02  0.18658616519E-01  0.24039787516E-01  0.00000000000E+00 0.  1.
     999901    1    3    3    0    0  0.63224298556E-01 -0.30820854471E-01 -0.11491384298E+00  0.89025413692E+00  0.88000000000E+00 0.  1.
        -11    1    4    4    0    0 -0.47487264393E-01  0.29180111583E-01  0.58618068989E-01  0.80887936829E-01  0.51100000000E-03 0. -1.
         11    1    4    4    0    0 -0.30854224920E-01  0.27533780649E-02  0.37637157473E-01  0.48748138732E-01  0.51100000000E-03 0.  1.
</event>
<event>
 8    1  0.1131349E+005  0.1043930E+01  0.7957747E-01            NaN
         13   -1    0    0    0    0  0.00000000000E+00  0.00000000000E+00  0.74505805969E-08  0.10566000000E+00  0.10566000000E+00 0.  1.
     999900   -1    0    0    0    0 -0.00000000000E+00 -0.00000000000E+00 -0.74505805969E-08  0.93827000000E+00  0.93827000000E+00 0. -1.
     999902    2    1    2    0    0 -0.21568683628E-01  0.85854844271E-02  0.10229030420E-01  0.10185616788E+01  0.10182457178E+01 0.  0.
     999903    2    3    3    0    0  0.94408142401E-02 -0.11524452906E+00 -0.50585299592E-01  0.12727393407E+00  0.16411925753E-01 0.  0.
         14    1    1    2    0    0  0.21568683628E-01 -0.85854844271E-02 -0.10229030420E-01  0.25368321183E-01  0.00000000000E+00 0.  1.
     999901    1    3    3    0    0 -0.31009497868E-01  0.12383001349E+00  0.60814330012E-01  0.89128774475E+00  0.88000000000E+00 0.  1.
        -11    1    4    4    0    0  0.12596170069E-01 -0.92116584760E-01 -0.44873197478E-01  0.10323755935E+00  0.51100000000E-03 0. -1.
         11    1    4    4    0    0 -0.31553558287E-02 -0.23127944303E-01 -0.57121021146E-02  0.24036374719E-01  0.51100000000E-03 0.  1.
</event>
<event>
 8    1  0.1131349E+005  0.1043930E+01  0.7957747E-01            NaN
         13   -1    0    0    0    0  0.00000000000E+00  0.00000000000E+00  0.74505805969E-08  0.10566000000E+00  0.10566000000E+00 0.  1.
     999900   -1    0    0    0    0 -0.00000000000E+00 -0.00000000000E+00 -0.74505805969E-08  0.93827000000E+00  0.93827000000E+00 0. -1.
     999902    2    1    2    0    0  0.13847828258E-02 -0.23116014377E-01  0.26692470222E-02  0.10206192166E+01  0.10203529745E+01 0.  0.
     999903    2    3    3    0    0  0.62947259492E-01  0.99303685756E-01  0.48743888804E-01  0.12882361548E+00  0.19899189134E-01 0.  0.
         14    1    1    2    0    0 -0.13847828258E-02  0.23116014377E-01 -0.26692470222E-02  0.23310783424E-01  0.00000000000E+00 0.  1.
     999901    1    3    3    0    0 -0.61562476666E-01 -0.12241970013E+00 -0.46074641782E-01  0.89179560109E+00  0.88000000000E+00 0. -1.
        -11    1    4    4    0    0  0.25932421313E-01  0.33703831599E-01  0.27185533443E-01  0.50475272056E-01  0.51100000000E-03 0. -1.
         11    1    4    4    0    0  0.37014838179E-01  0.65599854157E-01  0.21558355361E-01  0.78348343427E-01  0.51100000000E-03 0.  1.
</event>
<event>
 8    1  0.1131349E+005  0.1043930E+01  0.7957747E-01            NaN
         13   -1    0    0    0    0  0.00000000000E+00  0.00000000000E+00  0.74505805969E-08  0.10566000000E+00  0.10566000000E+00 0.  1.
     999900   -1    0    0    0    0 -0.00000000000E+00 -0.00000000000E+00 -0.74505805969E-08  0.93827000000E+00  0.93827000000E+00 0.  1.
     999902    2    1    2    0    0 -0.22776010538E-01  0.39791765129E-02  0.55637001110E-02  0.10201490147E+01  0.10198717944E+01 0.  0.
     999903    2    3    3    0    0  0.12079279774E+00 -0.13282374021E-01  0.34718747583E-01  0.12787104199E+00  0.19449691514E-01 0.  0.
         14    1    1    2    0    0  0.22776010538E-01 -0.39791765129E-02 -0.55637001110E-02  0.23780985276E-01  0.00000000000E+00 0. -1.
     999901    1    3    3    0    0 -0.14356880828E+00  0.17261550534E-01 -0.29155047472E-01  0.89227797274E+00  0.88000000000E+00 0. -1.
        -11    1    4    4    0    0  0.50717070899E-01 -0.31456400828E-02  0.24206778028E-01  0.56288058730E-01  0.51100000000E-03 0. -1.
         11    1    4    4    0    0  0.70075726841E-01 -0.10136733938E-01  0.10511969554E-01  0.71582983258E-01  0.51100000000E-03 0.  1.
</event>
<event>
 8    1  0.1131349E+005  0.1043930E+01  0.7957747E-01            NaN
         13   -1    0    0    0    0  0.00000000000E+00  0.00000000000E+00  0.74505805969E-08  0.10566000000E+00  0.10566000000E+00 0. -1.
     999900   -1    0    0    0    0 -0.00000000000E+00 -0.00000000000E+00 -0.74505805969E-08  0.93827000000E+00  0.93827000000E+00 0. -1.
     999902    2    1    2    0    0  0.38206821450E-02  0.56259717488E-02 -0.17256780955E-01  0.10253815322E+01  0.10252137537E+01 0.  0.
     999903    2    3    3    0    0 -0.51587149687E-01 -0.10087782814E+00  0.67064720341E-01  0.13323625094E+00  0.20412046163E-01 0.  0.
         14    1    1    2    0    0 -0.38206821450E-02 -0.56259717488E-02  0.17256780955E-01  0.18548467837E-01  0.00000000000E+00 0. -1.
     999901    1    3    3    0    0  0.55407831832E-01  0.10650379989E+00 -0.84321501297E-01  0.89214528122E+00  0.88000000000E+00 0. -1.
        -11    1    4    4    0    0 -0.24768518945E-01 -0.40558911637E-01  0.39099544344E-01  0.61542995806E-01  0.51100000000E-03 0. -1.
         11    1    4    4    0    0 -0.26818630742E-01 -0.60318916501E-01  0.27965175998E-01  0.71693255139E-01  0.51100000000E-03 0.  1.
</event>
<event>
 8    1  0.1131349E+005  0.1043930E+01  0.7957747E-01            NaN
         13   -1    0    0    0    0  0.00000000000E+00  0.00000000000E+00  0.74505805969E-08  0.10566000000E+00  0.10566000000E+00 0. -1.
     999900   -1    0    0    0    0 -0.00000000000E+00 -0.00000000000E+00 -0.74505805969E-08  0.93827000000E+00  0.93827000000E+00 0.  1.
     999902    2    1    2    0    0  0.98957038762E-02  0.17600707133E-01 -0.13648064662E-01  0.10195583050E+01  0.10192669708E+01 0.  0.
     999903    2    3    3    0    0  0.10821146170E+00 -0.59749013367E-01 -0.36431118311E-01  0.13041937605E+00  0.20057971620E-01 0.  0.
         14    1    1    2    0    0 -0.98957038762E-02 -0.17600707133E-01  0.13648064662E-01  0.24371694972E-01  0.00000000000E+00 0. -1.
     999901    1    3    3    0    0 -0.98315757823E-01  0.77349720499E-01  0.22783053649E-01  0.88913892898E+00  0.88000000000E+00 0. -1.
        -11    1    4    4    0    0  0.86491980061E-01 -0.43821033071E-01 -0.20440067566E-01  0.99091891885E-01  0.51100000000E-03 0. -1.
         11    1    4    4    0    0  0.21719481638E-01 -0.15927980296E-01 -0.15991050745E-01  0.31327484161E-01  0.51100000000E-03 0.  1.
</event>
<event>
 8    1  0.1131349E+005  0.1043930E+01  0.7957747E-01            NaN
         13   -1    0    0    0    0  0.00000000000E+00  0.00000000000E+00  0.74505805969E-08  0.10566000000E+00  0.10566000000E+00 0.  1.
     999900   -1    0    0    0    0 -0.00000000000E+00 -0.00000000000E+00 -0.74505805969E-08  0.93827000000E+00  0.93827000000E+00 0.  1.
     999902    2    1    2    0    0 -0.92322386376E-02  0.12902454204E-01 -0.16675444685E-01  0.10209130929E+01  0.10206535971E+01 0.  0.
     999903    2    3    3    0    0 -0.12093392875E+00 -0.36330909290E-01  0.29329860183E-01  0.13129650153E+00  0.20822596424E-01 0.  0.
         14    1    1    2    0    0  0.92322386376E-02 -0.12902454204E-01  0.16675444685E-01  0.23016907051E-01  0.00000000000E+00 0.  1.
     999901    1    3    3    0    0  0.11170169011E+00  0.49233363494E-01 -0.46005304867E-01  0.88961659142E+00  0.88000000000E+00 0.  1.
        -11    1    4    4    0    0 -0.61804667933E-01 -0.29228668406E-01  0.17552549545E-01  0.70586720788E-01  0.51100000000E-03 0. -1.
         11    1    4    4    0    0 -0.59129260819E-01 -0.71022408842E-02  0.11777310637E-01  0.60709780740E-01  0.51100000000E-03 0.  1.
</event>
<event>
 8    1  0.1131349E+005  0.1043930E+01  0.7957747E-01            NaN
         13   -1    0    0    0    0  0.00000000000E+00  0.00000000000E+00  0.74505805969E-08  0.10566000000E+00  0.10566000000E+00 0. -1.
     999900   -1    0    0    0    0 -0.00000000000E+00 -0.00000000000E+00 -0.74505805969E-08  0.93827000000E+00  0.93827000000E+00 0. -1.
     999902    2    1    2    0    0 -0.29100636402E-02 -0.68751219368E-03  0.22775600169E-01  0.10209589507E+01  0.10207004996E+01 0.  0.
     999903    2    3    3    0    0  0.82094518504E-01 -0.70950212943E-01  0.73581218721E-01  0.13262126885E+00  0.20019053851E-01 0.  0.
         14    1    1    2    0    0  0.29100636402E-02  0.68751219368E-03 -0.22775600169E-01  0.22971049312E-01  0.00000000000E+00 0.  1.
     999901    1    3    3    0    0 -0.85004582144E-01  0.70262700750E-01 -0.50805618552E-01  0.88833768184E+00  0.88000000000E+00 0. -1.
        -11    1    4    4    0    0  0.40540572503E-01 -0.48112085115E-01  0.41762196832E-01  0.75515911954E-01  0.51100000000E-03 0.  1.
         11    1    4    4    0    0  0.41553946001E-01 -0.22838127829E-01  0.31819021889E-01  0.57105356894E-01  0.51100000000E-03 0. -1.
</event>
<event>
 8    1  0.1131349E+005  0.1043930E+01  0.7957747E-01            NaN
         13   -1    0    0    0    0  0.00000000000E+00  0.00000000000E+00  0.74505805969E-08  0.10566000000E+00  0.10566000000E+00 0.  1.
     999900   -1    0    0    0    0 -0.00000000000E+00 -0.00000000000E+00 -0.74505805969E-08  0.93827000000E+00  0.93827000000E+00 0. -1.
     999902    2    1    2    0    0 -0.37208555497E-02 -0.22034268054E-02  0.21981815891E-01  0.10215268733E+01  0.10212811820E+01 0.  0.
     999903    2    3    3    0    0  0.12804181541E+00 -0.12464057381E-01  0.14952342738E-01  0.13163019645E+00  0.23513333296E-01 0.  0.
         14    1    1    2    0    0  0.37208555497E-02  0.22034268054E-02 -0.21981815891E-01  0.22403126691E-01  0.00000000000E+00 0. -1.
     999901    1    3    3    0    0 -0.13176267096E+00  0.10260630576E-01  0.70294731524E-02  0.88989667686E+00  0.88000000000E+00 0.  1.
        -11    1    4    4    0    0  0.50426578016E-01 -0.16266280838E-01  0.37960002987E-02  0.53123463761E-01  0.51100000000E-03 0.  1.
         11    1    4    4    0    0  0.77615237395E-01  0.38022234567E-02  0.11156342439E-01  0.78506732684E-01  0.51100000000E-03 0. -1.
</event>
<event>
 8    1  0.1131349E+005  0.1043930E+01  0.7957747E-01            NaN
         13   -1    0    0    0    0  0.00000000000E+00  0.00000000000E+00  0.74505805969E-08  0.10566000000E+00  0.10566000000E+00 0. -1.
     999900   -1    0    0    0    0 -0.00000000000E+00 -0.00000000000E+00 -0.74505805969E-08  0.93827000000E+00  0.93827000000E+00 0. -1.
     999902    2    1    2    0    0  0.13445675263E-01 -0.58708990819E-02  0.19345438924E-01  0.10196503862E+01  0.10193612757E+01 0.  0.
     999903    2    3    3    0    0 -0.32041224567E-01  0.99225829371E-01  0.76140166445E-01  0.13041474731E+00  0.18392283274E-01 0.  0.
         14    1    1    2    0    0 -0.13445675263E-01  0.58708990819E-02 -0.19345438924E-01  0.24279613804E-01  0.00000000000E+00 0.  1.
     999901    1    3    3    0    0  0.45486899830E-01 -0.10509672845E+00 -0.56794727521E-01  0.88923563888E+00  0.88000000000E+00 0.  1.
        -11    1    4    4    0    0 -0.21919376686E-01  0.40584980125E-01  0.37636722129E-01  0.59534726502E-01  0.51100000000E-03 0. -1.
         11    1    4    4    0    0 -0.10121847882E-01  0.58640849246E-01  0.38503444315E-01  0.70880020810E-01  0.51100000000E-03 0.  1.
</event>
<event>
 8    1  0.1131349E+005  0.1043930E+01  0.7957747E-01            NaN
         13   -1    0    0    0    0  0.00000000000E+00  0.00000000000E+00  0.74505805969E-08  0.10566000000E+00  0.10566000000E+00 0.  1.
     999900   -1    0    0    0    0 -0.00000000000E+00 -0.00000000000E+00 -0.74505805969E-08  0.93827000000E+00  0.93827000000E+00 0.  1.
     999902    2    1    2    0    0  0.15417978439E-01 -0.17736923875E-01 -0.16337977020E-02  0.10203719478E+01  0.10200999608E+01 0.  0.
     999903    2    3    3    0    0 -0.96082884731E-01 -0.72099889355E-01 -0.46852898686E-01  0.13052221803E+00  0.20261799080E-01 0.  0.
         14    1    1    2    0    0 -0.15417978439E-01  0.17736923875E-01  0.16337977020E-02  0.23558052182E-01  0.00000000000E+00 0.  1.
     999901    1    3    3    0    0  0.11150086317E+00  0.54362965480E-01  0.45219100984E-01  0.88984972978E+00  0.88000000000E+00 0. -1.
        -11    1    4    4    0    0 -0.81483224241E-01 -0.52570641542E-01 -0.41896702669E-01  0.10563514093E+00  0.51100000000E-03 0.  1.
         11    1    4    4    0    0 -0.14599660490E-01 -0.19529247813E-01 -0.49561960175E-02  0.24887077099E-01  0.51100000000E-03 0. -1.
</event>
<event>
 8    1  0.1131349E+005  0.1043930E+01  0.7957747E-01            NaN
         13   -1    0    0    0    0  0.00000000000E+00  0.00000000000E+00  0.74505805969E-08  0.10566000000E+00  0.10566000000E+00 0.  1.
     999900   -1    0    0    0    0 -0.00000000000E+00 -0.00000000000E+00 -0.74505805969E-08  0.93827000000E+00  0.93827000000E+00 0. -1.
     999902    2    1    2    0    0  0.38819598760E-02  0.13724234714E-02 -0.23252738069E-01  0.10203155344E+01  0.10200422279E+01 0.  0.
     999903    2    3    3    0    0 -0.18648193596E-01 -0.79955681492E-02 -0.13085308266E+00  0.13342591259E+00  0.16378665218E-01 0.  0.
         14    1    1    2    0    0 -0.38819598760E-02 -0.13724234714E-02  0.23252738069E-01  0.23614465616E-01  0.00000000000E+00 0.  1.
     999901    1    3    3    0    0  0.22530153472E-01  0.93679916206E-02  0.10760034460E+00  0.88688962179E+00  0.88000000000E+00 0.  1.
        -11    1    4    4    0    0 -0.15821676211E-01 -0.77822387146E-02 -0.12850449843E+00  0.12970950588E+00  0.51100000000E-03 0.  1.
         11    1    4    4    0    0 -0.28265173849E-02 -0.21332943461E-03 -0.23485842370E-02  0.37164067179E-02  0.51100000000E-03 0. -1.
</event>
<event>
 8    1  0.1131349E+005  0.1043930E+01  0.7957747E-01            NaN
         13   -1    0    0    0    0  0.00000000000E+00  0.00000000000E+00  0.74505805969E-08  0.10566000000E+00  0.10566000000E+00 0. -1.
     999900   -1    0    0    0    0 -0.00000000000E+00 -0.00000000000E+00 -0.74505805969E-08  0.93827000000E+00  0.93827000000E+00 0. -1.
     999902    2    1    2    0    0  0.16405727539E-01  0.11030840240E-01  0.12730916860E-01  0.10204160982E+01  0.10201451416E+01 0.  0.
     999903    2    3    3    0    0 -0.94270813856E-01  0.15113651115E-02  0.88506330251E-01  0.13020161256E+00  0.15159777322E-01 0.  0.
         14    1    1    2    0    0 -0.16405727539E-01 -0.11030840240E-01 -0.12730916860E-01  0.23513901773E-01  0.00000000000E+00 0.  1.
     999901    1    3    3    0    0  0.11067654139E+00  0.95194751284E-02 -0.75775413391E-01  0.89021448567E+00  0.88000000000E+00 0. -1.
        -11    1    4    4    0    0 -0.65881915161E-01 -0.49889535427E-02  0.66022778731E-01  0.93405486108E-01  0.51100000000E-03 0.  1.
         11    1    4    4    0    0 -0.28388898695E-01  0.65003186542E-02  0.22483551521E-01  0.36796126449E-01  0.51100000000E-03 0. -1.
</event>
<event>
 8    1  0.1131349E+005  0.1043930E+01  0.7957747E-01            NaN
         13   -1    0    0    0    0  0.00000000000E+00  0.00000000000E+00  0.74505805969E-08  0.10566000000E+00  0.10566000000E+00 0. -1.
     999900   -1    0    0    0    0 -0.00000000000E+00 -0.00000000000E+00 -0.74505805969E-08  0.93827000000E+00  0.93827000000E+00 0. -1.
     999902    2    1    2    0    0  0.15075229211E-02  0.91128190420E-02 -0.21031031321E-01  0.10209600114E+01  0.10207015845E+01 0.  0.
     999903    2    3    3    0    0 -0.68867674103E-01  0.73199627185E-01 -0.85357999137E-01  0.13349297198E+00  0.20819308216E-01 0.  0.
         14    1    1    2    0    0 -0.15075229211E-02 -0.91128190420E-02  0.21031031321E-01  0.22969988565E-01  0.00000000000E+00 0. -1.
     999901    1    3    3    0    0  0.70375197024E-01 -0.64086808143E-01  0.64326967816E-01  0.88746703946E+00  0.88000000000E+00 0.  1.
        -11    1    4    4    0    0 -0.77256487083E-02  0.19167590835E-01 -0.12892006175E-01  0.24362822715E-01  0.51100000000E-03 0. -1.
         11    1    4    4    0    0 -0.61142025394E-01  0.54032036350E-01 -0.72465992961E-01  0.10913014926E+00  0.51100000000E-03 0.  1.
</event>
<event>
 8    1  0.1131349E+005  0.1043930E+01  0.7957747E-01            NaN
         13   -1    0    0    0    0  0.00000000000E+00  0.00000000000E+00  0.74505805969E-08  0.10566000000E+00  0.10566000000E+00 0. -1.
     999900   -1    0    0    0    0 -0.00000000000E+00 -0.00000000000E+00 -0.74505805969E-08  0.93827000000E+00  0.93827000000E+00 0.  1.
     999902    2    1    2    0    0 -0.61769579933E-02  0.44281020188E-02 -0.22335747388E-01  0.10203366003E+01  0.10200637869E+01 0.  0.
     999903    2    3    3    0    0  0.55274883521E-01 -0.11549706193E+00 -0.96035018509E-02  0.12998808212E+00  0.20243274967E-01 0.  0.
         14    1    1    2    0    0  0.61769579933E-02 -0.44281020188E-02  0.22335747388E-01  0.23593399690E-01  0.00000000000E+00 0. -1.
     999901    1    3    3    0    0 -0.61451841515E-01  0.11992516395E+00 -0.12732245537E-01  0.89034851819E+00  0.88000000000E+00 0.  1.
        -11    1    4    4    0    0  0.45436730503E-01 -0.78990292290E-01 -0.64978329279E-03  0.91129830978E-01  0.51100000000E-03 0.  1.
         11    1    4    4    0    0  0.98381530184E-02 -0.36506769642E-01 -0.89537185581E-02  0.38858251138E-01  0.51100000000E-03 0. -1.
</event>
<event>
 8    1  0.1131349E+005  0.1043930E+01  0.7957747E-01            NaN
         13   -1    0    0    0    0  0.00000000000E+00  0.00000000000E+00  0.74505805969E-08  0.10566000000E+00  0.10566000000E+00 0. -1.
     999900   -1    0    0    0    0 -0.00000000000E+00 -0.00000000000E+00 -0.74505805969E-08  0.93827000000E+00  0.93827000000E+00 0. -1.
     999902    2    1    2    0    0  0.28962863080E-02  0.15770966078E-01 -0.17442296125E-01  0.10202372682E+01  0.10199621257E+01 0.  0.
     999903    2    3    3    0    0  0.12760653453E+00  0.15437301437E-01 -0.24123288719E-01  0.13141929303E+00  0.12936753533E-01 0.  0.
         14    1    1    2    0    0 -0.28962863080E-02 -0.15770966078E-01  0.17442296125E-01  0.23692731787E-01  0.00000000000E+00 0. -1.
     999901    1    3    3    0    0 -0.12471024822E+00  0.33366464088E-03  0.66809925940E-02  0.88881797518E+00  0.88000000000E+00 0.  1.
        -11    1    4    4    0    0  0.64621534174E-01  0.28099816339E-02 -0.16280521623E-01  0.66701987835E-01  0.51100000000E-03 0. -1.
         11    1    4    4    0    0  0.62985000356E-01  0.12627319803E-01 -0.78427670955E-02  0.64717305197E-01  0.51100000000E-03 0.  1.
</event>
<event>
 8    1  0.1131349E+005  0.1043930E+01  0.7957747E-01            NaN
         13   -1    0    0    0    0  0.00000000000E+00  0.00000000000E+00  0.74505805969E-08  0.10566000000E+00  0.10566000000E+00 0.  1.
     999900   -1    0    0    0    0 -0.00000000000E+00 -0.00000000000E+00 -0.74505805969E-08  0.93827000000E+00  0.93827000000E+00 0.  1.
     999902    2    1    2    0    0  0.15091174765E-02  0.72125929813E-02 -0.21610637861E-01  0.10210975975E+01  0.10208422920E+01 0.  0.
     999903    2    3    3    0    0 -0.10863579327E+00 -0.67341104160E-01  0.13541113256E-01  0.13040921167E+00  0.22059937745E-01 0.  0.
         14    1    1    2    0    0 -0.15091174765E-02 -0.72125929813E-02  0.21610637861E-01  0.22832402454E-01  0.00000000000E+00 0.  1.
     999901    1    3    3    0    0  0.11014491074E+00  0.74553697141E-01 -0.35151751117E-01  0.89068838587E+00  0.88000000000E+00 0.  1.
        -11    1    4    4    0    0 -0.21447286575E-01 -0.10831992045E-01  0.11118457450E-01  0.26480169376E-01  0.51100000000E-03 0.  1.
         11    1    4    4    0    0 -0.87188506691E-01 -0.56509112115E-01  0.24226558063E-02  0.10392904230E+00  0.51100000000E-03 0. -1.
</event>
<event>
 8    1  0.1131349E+005  0.1043930E+01  0.7957747E-01            NaN
         13   -1    0    0    0    0  0.00000000000E+00  0.00000000000E+00  0.74505805969E-08  0.10566000000E+00  0.10566000000E+00 0. -1.
     999900   -1    0    0    0    0 -0.00000000000E+00 -0.00000000000E+00 -0.74505805969E-08  0.93827000000E+00  0.93827000000E+00 0. -1.
     999902    2    1    2    0    0 -0.13123827120E-01 -0.13586823856E-01  0.14545368683E-01  0.10200887674E+01  0.10198101240E+01 0.  0.
     999903    2    3    3    0    0  0.36530574870E-01 -0.12474073911E+00  0.23579152946E-02  0.13162420058E+00  0.20606686271E-01 0.  0.
         14    1    1    2    0    0  0.13123827120E-01  0.13586823856E-01 -0.14545368683E-01  0.23841232579E-01  0.00000000000E+00 0.  1.
     999901    1    3    3    0    0 -0.49654401990E-01  0.11115391526E+00  0.12187453389E-01  0.88846456684E+00  0.88000000000E+00 0. -1.
        -11    1    4    4    0    0  0.26620631322E-01 -0.91638009963E-01 -0.74021531163E-02  0.95714345182E-01  0.51100000000E-03 0. -1.
         11    1    4    4    0    0  0.99099435486E-02 -0.33102729149E-01  0.97600684109E-02  0.35909855397E-01  0.51100000000E-03 0.  1.
</event>
<event>
 8    1  0.1131349E+005  0.1043930E+01  0.7957747E-01            NaN
         13   -1    0    0    0    0  0.00000000000E+00  0.00000000000E+00  0.74505805969E-08  0.10566000000E+00  0.10566000000E+00 0.  1.
     999900   -1    0    0    0    0 -0.00000000000E+00 -0.00000000000E+00 -0.74505805969E-08  0.93827000000E+00  0.93827000000E+00 0.  1.
     999902    2    1    2    0    0  0.21049994722E-01 -0.60558587530E-03  0.98003397984E-02  0.10207025233E+01  0.10204382027E+01 0.  0.
     999903    2    3    3    0    0  0.63253640944E-01  0.19881764139E-01 -0.11136568594E+00  0.13116214479E+00  0.20121744047E-01 0.  0.
         14    1    1    2    0    0 -0.21049994722E-01  0.60558587530E-03 -0.98003397984E-02  0.23227476665E-01  0.00000000000E+00 0. -1.
     999901    1    3    3    0    0 -0.42203646222E-01 -0.20487350014E-01  0.12116602574E+00  0.88954037854E+00  0.88000000000E+00 0. -1.
        -11    1    4    4    0    0  0.37330269911E-01  0.10259396881E-01 -0.45612644819E-01  0.59829581014E-01  0.51100000000E-03 0.  1.
         11    1    4    4    0    0  0.25923371033E-01  0.96223672579E-02 -0.65753041122E-01  0.71332563778E-01  0.51100000000E-03 0. -1.
</event>
<event>
 8    1  0.1131349E+005  0.1043930E+01  0.7957747E-01            NaN
         13   -1    0    0    0    0  0.00000000000E+00  0.00000000000E+00  0.74505805969E-08  0.10566000000E+00  0.10566000000E+00 0.  1.
     999900   -1    0    0    0    0 -0.00000000000E+00 -0.00000000000E+00 -0.74505805969E-08  0.93827000000E+00  0.93827000000E+00 0. -1.
     999902    2    1    2    0    0  0.19785931750E-01  0.10126218801E-01 -0.86036233134E-02  0.10200962899E+01  0.10198178244E+01 0.  0.
     999903    2    3    3    0    0  0.14162141573E-01  0.30872412723E-01 -0.12604278395E+00  0.13203436187E+00  0.19814570584E-01 0.  0.
         14    1    1    2    0    0 -0.19785931750E-01 -0.10126218801E-01  0.86036233134E-02  0.23833710088E-01  0.00000000000E+00 0. -1.
     999901    1    3    3    0    0  0.56237901768E-02 -0.20746193922E-01  0.11743916064E+00  0.88806192804E+00  0.88000000000E+00 0.  1.
        -11    1    4    4    0    0 -0.31107858465E-02  0.94218120177E-02 -0.53976665960E-01  0.54883413883E-01  0.51100000000E-03 0. -1.
         11    1    4    4    0    0  0.17272927419E-01  0.21450600705E-01 -0.72066117994E-01  0.77150947992E-01  0.51100000000E-03 0.  1.
</event>
<event>
 8    1  0.1131349E+005  0.1043930E+01  0.7957747E-01            NaN
         13   -1    0    0    0    0  0.00000000000E+00  0.00000000000E+00  0.74505805969E-08  0.10566000000E+00  0.10566000000E+00 0.  1.
     999900   -1    0    0    0    0 -0.00000000000E+00 -0.00000000000E+00 -0.74505805969E-08  0.93827000000E+00  0.93827000000E+00 0.  1.
     999902    2    1    2    0    0 -0.70250166832E-02 -0.21995472047E-01 -0.28000210197E-02  0.10206707703E+01  0.10204057181E+01 0.  0.
     999903    2    3    3    0    0 -0.84152314376E-01  0.67658729681E-01  0.69012374290E-01  0.12986017533E+00  0.21015270978E-01 0.  0.
         14    1    1    2    0    0  0.70250166832E-02  0.21995472047E-01  0.28000210197E-02  0.23259229731E-01  0.00000000000E+00 0.  1.
     999901    1    3    3    0    0  0.77127297693E-01 -0.89654201729E-01 -0.71812395310E-01  0.89081059494E+00  0.88000000000E+00 0. -1.
        -11    1    4    4    0    0 -0.49228429119E-01  0.31310706270E-01  0.46704059171E-01  0.74735057535E-01  0.51100000000E-03 0. -1.
         11    1    4    4    0    0 -0.34923885257E-01  0.36348023411E-01  0.22308315119E-01  0.55125117794E-01  0.51100000000E-03 0.  1.
</event>
<event>
 8    1  0.1131349E+005  0.1043930E+01  0.7957747E-01            NaN
         13   -1    0    0    0    0  0.00000000000E+00  0.00000000000E+00  0.74505805969E-08  0.10566000000E+00  0.10566000000E+00 0. -1.
     999900   -1    0    0    0    0 -0.00000000000E+00 -0.00000000000E+00 -0.74505805969E-08  0.93827000000E+00  0.93827000000E+00 0.  1.
     999902    2    1    2    0    0  0.11019370213E-01 -0.17457090574E-01 -0.11668602266E-01  0.10202164425E+01  0.10199408104E+01 0.  0.
     999903    2    3    3    0    0  0.90203012831E-01 -0.93339362769E-01  0.19060134566E-01  0.13287635900E+00  0.21071731901E-01 0.  0.
         14    1    1    2    0    0 -0.11019370213E-01  0.17457090574E-01  0.11668602266E-01  0.23713557516E-01  0.00000000000E+00 0. -1.
     999901    1    3    3    0    0 -0.79183642617E-01  0.75882272195E-01 -0.30728736833E-01  0.88734008348E+00  0.88000000000E+00 0.  1.
        -11    1    4    4    0    0  0.75407163518E-01 -0.69369882446E-01  0.85965742631E-02  0.10282306702E+00  0.51100000000E-03 0. -1.
         11    1    4    4    0    0  0.14795849313E-01 -0.23969480324E-01  0.10463560303E-01  0.30053291984E-01  0.51100000000E-03 0.  1.
</event>
<event>
 8    1  0.1206710E+005  0.1043930E+01  0.7957747E-01            NaN
         13   -1    0    0    0    0  0.00000000000E+00  0.00000000000E+00  0.74505805969E-08  0.10566000000E+00  0.10566000000E+00 0. -1.
     999900   -1    0    0    0    0 -0.00000000000E+00 -0.00000000000E+00 -0.74505805969E-08  0.93827000000E+00  0.93827000000E+00 0. -1.
     999902    2    1    2    0    0 -0.17515705767E-01  0.12509253546E-02  0.22513565735E-01  0.10153778476E+01  0.10149763288E+01 0.  0.
     999903    2    3    3    0    0 -0.33873789139E-01  0.12021745823E+00  0.11003629624E-01  0.12714752758E+00  0.21112627722E-01 0.  0.
         14    1    1    2    0    0  0.17515705767E-01 -0.12509253546E-02 -0.22513565735E-01  0.28552152368E-01  0.00000000000E+00 0.  1.
     999901    1    3    3    0    0  0.16358083372E-01 -0.11896653288E+00  0.11509936111E-01  0.88823032006E+00  0.88000000000E+00 0. -1.
        -11    1    4    4    0    0 -0.28759559975E-01  0.63549434744E-01  0.69948094569E-02  0.70105858718E-01  0.51100000000E-03 0. -1.
         11    1    4    4    0    0 -0.51142291648E-02  0.56668023488E-01  0.40088201669E-02  0.57041668858E-01  0.51100000000E-03 0.  1.
</event>
<event>
 8    1  0.1131349E+005  0.1043930E+01  0.7957747E-01            NaN
         13   -1    0    0    0    0  0.00000000000E+00  0.00000000000E+00  0.74505805969E-08  0.10566000000E+00  0.10566000000E+00 0. -1.
     999900   -1    0    0    0    0 -0.00000000000E+00 -0.00000000000E+00 -0.74505805969E-08  0.93827000000E+00  0.93827000000E+00 0. -1.
     999902    2    1    2    0    0  0.11427787141E-01  0.25601636385E-01 -0.28734257249E-02  0.10157467660E+01  0.10153557002E+01 0.  0.
     999903    2    3    3    0    0 -0.23481547990E-01  0.11827855425E+00  0.41342435342E-01  0.12908859331E+00  0.20333924195E-01 0.  0.
         14    1    1    2    0    0 -0.11427787141E-01 -0.25601636385E-01  0.28734257249E-02  0.28183234021E-01  0.00000000000E+00 0. -1.
     999901    1    3    3    0    0  0.34909335131E-01 -0.92676917862E-01 -0.44215861066E-01  0.88665817266E+00  0.88000000000E+00 0.  1.
        -11    1    4    4    0    0 -0.21345596527E-01  0.63579159223E-01  0.28413653228E-01  0.72839143250E-01  0.51100000000E-03 0. -1.
         11    1    4    4    0    0 -0.21359514632E-02  0.54699395023E-01  0.12928782113E-01  0.56249450064E-01  0.51100000000E-03 0.  1.
</event>
<event>
 8    1  0.1131349E+005  0.1043930E+01  0.7957747E-01            NaN
         13   -1    0    0    0    0  0.00000000000E+00  0.00000000000E+00  0.74505805969E-08  0.10566000000E+00  0.10566000000E+00 0.  1.
     999900   -1    0    0    0    0 -0.00000000000E+00 -0.00000000000E+00 -0.74505805969E-08  0.93827000000E+00  0.93827000000E+00 0.  1.
     999902    2    1    2    0    0 -0.14868506981E-02 -0.14411664042E-01  0.19429416847E-01  0.10196934775E+01  0.10194054046E+01 0.  0.
     999903    2    3    3    0    0 -0.82001708254E-01 -0.54974130849E-01 -0.81282102791E-01  0.12937288005E+00  0.19599148931E-01 0.  0.
         14    1    1    2    0    0  0.14868506981E-02  0.14411664042E-01 -0.19429416847E-01  0.24236522532E-01  0.00000000000E+00 0. -1.
     999901    1    3    3    0    0  0.80514857556E-01  0.40562466808E-01  0.10071151964E+00  0.89032059742E+00  0.88000000000E+00 0. -1.
        -11    1    4    4    0    0 -0.51739385577E-01 -0.35982852708E-01 -0.39427076149E-01  0.74340333357E-01  0.51100000000E-03 0.  1.
         11    1    4    4    0    0 -0.30262322677E-01 -0.18991278141E-01 -0.41855026642E-01  0.55032546692E-01  0.51100000000E-03 0. -1.
</event>
<event>
 8    1  0.1131349E+005  0.1043930E+01  0.7957747E-01            NaN
         13   -1    0    0    0    0  0.00000000000E+00  0.00000000000E+00  0.74505805969E-08  0.10566000000E+00  0.10566000000E+00 0.  1.
     999900   -1    0    0    0    0 -0.00000000000E+00 -0.00000000000E+00 -0.74505805969E-08  0.93827000000E+00  0.93827000000E+00 0.  1.
     999902    2    1    2    0    0 -0.17672179286E-01  0.56720656770E-02 -0.47292144179E-02  0.10247768353E+01  0.10245978325E+01 0.  0.
     999903    2    3    3    0    0  0.17190885400E-01  0.22008420671E-01  0.12937614697E+00  0.13378493985E+00  0.19501938444E-01 0.  0.
         14    1    1    2    0    0  0.17672179286E-01 -0.56720656770E-02  0.47292144179E-02  0.19153164719E-01  0.00000000000E+00 0.  1.
     999901    1    3    3    0    0 -0.34863064685E-01 -0.16336354994E-01 -0.13410536139E+00  0.89099189543E+00  0.88000000000E+00 0.  1.
        -11    1    4    4    0    0  0.13832567480E-01  0.24589566073E-01  0.93759917247E-01  0.97914094419E-01  0.51100000000E-03 0.  1.
         11    1    4    4    0    0  0.33583179200E-02 -0.25811454014E-02  0.35616229727E-01  0.35870845429E-01  0.51100000000E-03 0. -1.
</event>
<event>
 8    1  0.1131349E+005  0.1043930E+01  0.7957747E-01            NaN
         13   -1    0    0    0    0  0.00000000000E+00  0.00000000000E+00  0.74505805969E-08  0.10566000000E+00  0.10566000000E+00 0. -1.
     999900   -1    0    0    0    0 -0.00000000000E+00 -0.00000000000E+00 -0.74505805969E-08  0.93827000000E+00  0.93827000000E+00 0.  1.
     999902    2    1    2    0    0  0.14084211062E-01 -0.18352933618E-01 -0.46990096248E-02  0.10203233089E+01  0.10200501845E+01 0.  0.
     999903    2    3    3    0    0  0.70413276256E-02  0.77561599768E-01 -0.10180118482E+00  0.12977402202E+00  0.20308458987E-01 0.  0.
         14    1    1    2    0    0 -0.14084211062E-01  0.18352933618E-01  0.46990096248E-02  0.23606691108E-01  0.00000000000E+00 0. -1.
     999901    1    3    3    0    0  0.70428834366E-02 -0.95914533386E-01  0.97102175198E-01  0.89054928687E+00  0.88000000000E+00 0. -1.
        -11    1    4    4    0    0 -0.98846181204E-03  0.60944711514E-01 -0.86363354083E-01  0.10570773372E+00  0.51100000000E-03 0.  1.
         11    1    4    4    0    0  0.80297894376E-02  0.16616888254E-01 -0.15437830740E-01  0.24066288301E-01  0.51100000000E-03 0. -1.
</event>
<event>
 8    1  0.1131349E+005  0.1043930E+01  0.7957747E-01            NaN
         13   -1    0    0    0    0  0.00000000000E+00  0.00000000000E+00  0.74505805969E-08  0.10566000000E+00  0.10566000000E+00 0. -1.
     999900   -1    0    0    0    0 -0.00000000000E+00 -0.00000000000E+00 -0.74505805969E-08  0.93827000000E+00  0.93827000000E+00 0. -1.
     999902    2    1    2    0    0 -0.11969889615E-01  0.13108524552E-01 -0.14629077739E-01  0.10209273569E+01  0.10206681863E+01 0.  0.
     999903    2    3    3    0    0  0.47530403654E-01  0.72658840129E-01 -0.98713211012E-01  0.13292022493E+00  0.19622483221E-01 0.  0.
         14    1    1    2    0    0  0.11969889615E-01 -0.13108524552E-01  0.14629077739E-01  0.23002643083E-01  0.00000000000E+00 0. -1.
     999901    1    3    3    0    0 -0.59500293269E-01 -0.59550315576E-01  0.84084133273E-01  0.88800713198E+00  0.88000000000E+00 0.  1.
        -11    1    4    4    0    0  0.30500455854E-01  0.29434419465E-01 -0.43090372559E-01  0.60445878146E-01  0.51100000000E-03 0.  1.
         11    1    4    4    0    0  0.17029947801E-01  0.43224420664E-01 -0.55622838453E-01  0.72474346788E-01  0.51100000000E-03 0. -1.
</event>
<event>
 8    1  0.1131349E+005  0.1043930E+01  0.7957747E-01            NaN
         13   -1    0    0    0    0  0.00000000000E+00  0.00000000000E+00  0.74505805969E-08  0.10566000000E+00  0.10566000000E+00 0. -1.
     999900   -1    0    0    0    0 -0.00000000000E+00 -0.00000000000E+00 -0.74505805969E-08  0.93827000000E+00  0.93827000000E+00 0. -1.
     999902    2    1    2    0    0 -0.22039239892E-01 -0.42291530002E-02 -0.72057869182E-02  0.10203601634E+01  0.10200879011E+01 0.  0.
     999903    2    3    3    0    0 -0.64002452458E-01 -0.21592833753E-01  0.11088552923E+00  0.13131125165E+00  0.19608157118E-01 0.  0.
         14    1    1    2    0    0  0.22039239892E-01  0.42291530002E-02  0.72057869182E-02  0.23569836555E-01  0.00000000000E+00 0. -1.
     999901    1    3    3    0    0  0.41963212566E-01  0.17363680753E-01 -0.11809131615E+00  0.88904891180E+00  0.88000000000E+00 0. -1.
        -11    1    4    4    0    0 -0.51807413023E-01 -0.13055981666E-01  0.97988972929E-01  0.11160898995E+00  0.51100000000E-03 0.  1.
         11    1    4    4    0    0 -0.12195039436E-01 -0.85368520875E-02  0.12896556305E-01  0.19702261696E-01  0.51100000000E-03 0. -1.
</event>
<event>
 8    1  0.1131349E+005  0.1043930E+01  0.7957747E-01            NaN
         13   -1    0    0    0    0  0.00000000000E+00  0.00000000000E+00  0.74505805969E-08  0.10566000000E+00  0.10566000000E+00 0. -1.
     999900   -1    0    0    0    0 -0.00000000000E+00 -0.00000000000E+00 -0.74505805969E-08  0.93827000000E+00  0.93827000000E+00 0.  1.
     999902    2    1    2    0    0  0.98750411581E-02  0.16480398759E-02  0.21750536035E-01  0.10199859341E+01  0.10197048531E+01 0.  0.
     999903    2    3    3    0    0 -0.75834421197E-01  0.49167126326E-01  0.93961575586E-01  0.13160616749E+00  0.17976092053E-01 0.  0.
         14    1    1    2    0    0 -0.98750411581E-02 -0.16480398759E-02 -0.21750536035E-01  0.23944065885E-01  0.00000000000E+00 0.  1.
     999901    1    3    3    0    0  0.85709462355E-01 -0.47519086450E-01 -0.72211039552E-01  0.88837976662E+00  0.88000000000E+00 0.  1.
        -11    1    4    4    0    0 -0.18699738446E-01  0.61358783198E-02  0.13095823297E-01  0.23645103712E-01  0.51100000000E-03 0. -1.
         11    1    4    4    0    0 -0.57134682752E-01  0.43031248006E-01  0.80865752289E-01  0.10796106378E+00  0.51100000000E-03 0.  1.
</event>
<event>
 8    1  0.1131349E+005  0.1043930E+01  0.7957747E-01            NaN
         13   -1    0    0    0    0  0.00000000000E+00  0.00000000000E+00  0.74505805969E-08  0.10566000000E+00  0.10566000000E+00 0.  1.
     999900   -1    0    0    0    0 -0.00000000000E+00 -0.00000000000E+00 -0.74505805969E-08  0.93827000000E+00  0.93827000000E+00 0. -1.
     999902    2    1    2    0    0  0.80524598351E-02  0.19737084783E-01 -0.10641160258E-01  0.10201050358E+01  0.10198267771E+01 0.  0.
     999903    2    3    3    0    0  0.74499974894E-01 -0.85951932825E-01 -0.59552840807E-01  0.12994898594E+00  0.20055350473E-01 0.  0.
         14    1    1    2    0    0 -0.80524598351E-02 -0.19737084783E-01  0.10641160258E-01  0.23824964150E-01  0.00000000000E+00 0. -1.
     999901    1    3    3    0    0 -0.66447515059E-01  0.10568901761E+00  0.48911680549E-01  0.89015604991E+00  0.88000000000E+00 0. -1.
        -11    1    4    4    0    0  0.22400101788E-01 -0.19026231289E-01 -0.71526257429E-02  0.30251995194E-01  0.51100000000E-03 0.  1.
         11    1    4    4    0    0  0.52099873106E-01 -0.66925701535E-01 -0.52400215064E-01  0.99696990744E-01  0.51100000000E-03 0. -1.
</event>
<event>
 8    1  0.1131349E+005  0.1043930E+01  0.7957747E-01            NaN
         13   -1    0    0    0    0  0.00000000000E+00  0.00000000000E+00  0.74505805969E-08  0.10566000000E+00  0.10566000000E+00 0. -1.
     999900   -1    0    0    0    0 -0.00000000000E+00 -0.00000000000E+00 -0.74505805969E-08  0.93827000000E+00  0.93827000000E+00 0.  1.
     999902    2    1    2    0    0  0.48522262517E-04  0.21408905949E-01 -0.91012473868E-02  0.10206668035E+01  0.10204016598E+01 0.  0.
     999903    2    3    3    0    0 -0.10644153909E+00  0.75945842456E-01  0.62679548247E-02  0.13243787860E+00  0.20073171196E-01 0.  0.
         14    1    1    2    0    0 -0.48522262517E-04 -0.21408905949E-01  0.91012473868E-02  0.23263196520E-01  0.00000000000E+00 0. -1.
     999901    1    3    3    0    0  0.10649006135E+00 -0.54536936507E-01 -0.15369202212E-01  0.88822892488E+00  0.88000000000E+00 0. -1.
        -11    1    4    4    0    0 -0.37530535412E-01  0.29545510572E-01 -0.70959648328E-02  0.48291739679E-01  0.51100000000E-03 0.  1.
         11    1    4    4    0    0 -0.68911003674E-01  0.46400331884E-01  0.13363919658E-01  0.84146138925E-01  0.51100000000E-03 0. -1.
</event>
<event>
 8    1  0.1131349E+005  0.1043930E+01  0.7957747E-01            NaN
         13   -1    0    0    0    0  0.00000000000E+00  0.00000000000E+00  0.74505805969E-08  0.10566000000E+00  0.10566000000E+00 0. -1.
     999900   -1    0    0    0    0 -0.00000000000E+00 -0.00000000000E+00 -0.74505805969E-08  0.93827000000E+00  0.93827000000E+00 0. -1.
     999902    2    1    2    0    0  0.15700269710E-02 -0.17281447851E-01 -0.25902292333E-01  0.10127524091E+01  0.10122723942E+01 0.  0.
     999903    2    3    3    0    0  0.78968592891E-01 -0.34781554401E-01  0.84360244100E-01  0.12232856697E+00  0.20045755741E-01 0.  0.
         14    1    1    2    0    0 -0.15700269710E-02  0.17281447851E-01  0.25902292333E-01  0.31177590873E-01  0.00000000000E+00 0. -1.
     999901    1    3    3    0    0 -0.77398565920E-01  0.17500106550E-01 -0.11026253643E+00  0.89042384215E+00  0.88000000000E+00 0. -1.
        -11    1    4    4    0    0  0.44849071755E-01 -0.30399029147E-01  0.51716855628E-01  0.74902833641E-01  0.51100000000E-03 0. -1.
         11    1    4    4    0    0  0.34119521136E-01 -0.43825252545E-02  0.32643388471E-01  0.47425733331E-01  0.51100000000E-03 0.  1.
</event>
<event>
 8    1  0.1131349E+005  0.1043930E+01  0.7957747E-01            NaN
         13   -1    0    0    0    0  0.00000000000E+00  0.00000000000E+00  0.74505805969E-08  0.10566000000E+00  0.10566000000E+00 0.  1.
     999900   -1    0    0    0    0 -0.00000000000E+00 -0.00000000000E+00 -0.74505805969E-08  0.93827000000E+00  0.93827000000E+00 0. -1.
     999902    2    1    2    0    0 -0.24122606527E-01 -0.92765729207E-03 -0.20881518728E-02  0.10196994187E+01  0.10194114887E+01 0.  0.
     999903    2    3    3    0    0  0.33537083965E-01 -0.11797850715E+00 -0.34591944861E-01  0.12948481649E+00  0.22935799604E-01 0.  0.
         14    1    1    2    0    0  0.24122606527E-01  0.92765729207E-03  0.20881518728E-02  0.24230581338E-01  0.00000000000E+00 0. -1.
     999901    1    3    3    0    0 -0.57659690493E-01  0.11705084985E+00  0.32503792988E-01  0.89021460217E+00  0.88000000000E+00 0. -1.
        -11    1    4    4    0    0  0.52929250636E-02 -0.40262932941E-01 -0.21863106883E-02  0.40671364622E-01  0.51100000000E-03 0.  1.
         11    1    4    4    0    0  0.28244158902E-01 -0.77715574204E-01 -0.32405634173E-01  0.88813451870E-01  0.51100000000E-03 0. -1.
</event>
<event>
 8    1  0.1131349E+005  0.1043930E+01  0.7957747E-01            NaN
         13   -1    0    0    0    0  0.00000000000E+00  0.00000000000E+00  0.74505805969E-08  0.10566000000E+00  0.10566000000E+00 0. -1.
     999900   -1    0    0    0    0 -0.00000000000E+00 -0.00000000000E+00 -0.74505805969E-08  0.93827000000E+00  0.93827000000E+00 0.  1.
     999902    2    1    2    0    0 -0.81172930879E-02  0.17744519729E-01 -0.89505159916E-02  0.10224621132E+01  0.10222367156E+01 0.  0.
     999903    2    3    3    0    0 -0.68458017951E-02 -0.33634591455E-01 -0.12685179970E+00  0.13311283284E+00  0.21201330995E-01 0.  0.
         14    1    1    2    0    0  0.81172930879E-02 -0.17744519729E-01  0.89505159916E-02  0.21467886808E-01  0.00000000000E+00 0. -1.
     999901    1    3    3    0    0 -0.12714912928E-02  0.51379111183E-01  0.11790128371E+00  0.88934928035E+00  0.88000000000E+00 0. -1.
        -11    1    4    4    0    0 -0.13765874055E-01 -0.17002829979E-01 -0.59671508558E-01  0.63557419475E-01  0.51100000000E-03 0. -1.
         11    1    4    4    0    0  0.69200722600E-02 -0.16631761475E-01 -0.67180291143E-01  0.69555413369E-01  0.51100000000E-03 0.  1.
</event>
<event>
 8    1  0.1131349E+005  0.1043930E+01  0.7957747E-01            NaN
         13   -1    0    0    0    0  0.00000000000E+00  0.00000000000E+00  0.74505805969E-08  0.10566000000E+00  0.10566000000E+00 0. -1.
     999900   -1    0    0    0    0 -0.00000000000E+00 -0.00000000000E+00 -0.74505805969E-08  0.93827000000E+00  0.93827000000E+00 0. -1.
     999902    2    1    2    0    0  0.19535965136E-01 -0.61833596947E-02 -0.50455701528E-02  0.10228267858E+01  0.10226090593E+01 0.  0.
     999903    2    3    3    0    0 -0.12512083965E+00 -0.26489227737E-02 -0.31680473986E-01  0.13061184449E+00  0.19838351282E-01 0.  0.
         14    1    1    2    0    0 -0.19535965136E-01  0.61833596947E-02  0.50455701528E-02  0.21103214189E-01  0.00000000000E+00 0.  1.
     999901    1    3    3    0    0  0.14465680479E+00 -0.35344369210E-02  0.26634903833E-01  0.89221494132E+00  0.88000000000E+00 0.  1.
        -11    1    4    4    0    0 -0.84283297138E-01 -0.77122686077E-02 -0.28619370571E-01  0.89344741068E-01  0.51100000000E-03 0.  1.
         11    1    4    4    0    0 -0.40837542515E-01  0.50633458340E-02 -0.30611034143E-02  0.41267103422E-01  0.51100000000E-03 0. -1.
</event>
<event>
 8    1  0.1131349E+005  0.1043930E+01  0.7957747E-01            NaN
         13   -1    0    0    0    0  0.00000000000E+00  0.00000000000E+00  0.74505805969E-08  0.10566000000E+00  0.10566000000E+00 0.  1.
     999900   -1    0    0    0    0 -0.00000000000E+00 -0.00000000000E+00 -0.74505805969E-08  0.93827000000E+00  0.93827000000E+00 0. -1.
     999902    2    1    2    0    0  0.18033444877E-01  0.38111384823E-03 -0.14731431283E-01  0.10206412592E+01  0.10203755262E+01 0.  0.
     999903    2    3    3    0    0  0.23090776377E-02  0.12660020871E+00 -0.28810735771E-01  0.13138497302E+00  0.19975183483E-01 0.  0.
         14    1    1    2    0    0 -0.18033444877E-01 -0.38111384823E-03  0.14731431283E-01  0.23288740832E-01  0.00000000000E+00 0. -1.
     999901    1    3    3    0    0  0.15724367239E-01 -0.12621909486E+00  0.14079304488E-01  0.88925628614E+00  0.88000000000E+00 0.  1.
        -11    1    4    4    0    0  0.44418078305E-02  0.49250112879E-01 -0.20591847298E-01  0.53568540875E-01  0.51100000000E-03 0.  1.
         11    1    4    4    0    0 -0.21327301928E-02  0.77350095833E-01 -0.82188884732E-02  0.77816432148E-01  0.51100000000E-03 0. -1.
</event>
<event>
 8    1  0.1131349E+005  0.1043930E+01  0.7957747E-01            NaN
         13   -1    0    0    0    0  0.00000000000E+00  0.00000000000E+00  0.74505805969E-08  0.10566000000E+00  0.10566000000E+00 0. -1.
     999900   -1    0    0    0    0 -0.00000000000E+00 -0.00000000000E+00 -0.74505805969E-08  0.93827000000E+00  0.93827000000E+00 0.  1.
     999902    2    1    2    0    0 -0.14019202525E-01 -0.81486917005E-02 -0.19152797203E-01  0.10188348041E+01  0.10185256939E+01 0.  0.
     999903    2    3    3    0    0 -0.91320309988E-01 -0.75045980064E-01  0.50982523005E-01  0.13014494171E+00  0.19162203937E-01 0.  0.
         14    1    1    2    0    0  0.14019202525E-01  0.81486917005E-02  0.19152797203E-01  0.25095195886E-01  0.00000000000E+00 0. -1.
     999901    1    3    3    0    0  0.77301107463E-01  0.66897288363E-01 -0.70135320207E-01  0.88868986241E+00  0.88000000000E+00 0.  1.
        -11    1    4    4    0    0 -0.15655868721E-01 -0.22636846366E-01  0.88442904040E-02  0.28913934920E-01  0.51100000000E-03 0.  1.
         11    1    4    4    0    0 -0.75664441267E-01 -0.52409133698E-01  0.42138232601E-01  0.10123100679E+00  0.51100000000E-03 0. -1.
</event>
<event>
 8    1  0.1131349E+005  0.1043930E+01  0.7957747E-01            NaN
         13   -1    0    0    0    0  0.00000000000E+00  0.00000000000E+00  0.74505805969E-08  0.10566000000E+00  0.10566000000E+00 0.  1.
     999900   -1    0    0    0    0 -0.00000000000E+00 -0.00000000000E+00 -0.74505805969E-08  0.93827000000E+00  0.93827000000E+00 0.  1.
     999902    2    1    2    0    0 -0.66557612959E-02 -0.39242186449E-02 -0.23280140292E-01  0.10194011683E+01  0.10191060192E+01 0.  0.
     999903    2    3    3    0    0  0.87704125727E-01 -0.85129010339E-01  0.35041475176E-01  0.12872759329E+00  0.20097915817E-01 0.  0.
         14    1    1    2    0    0  0.66557612959E-02  0.39242186449E-02  0.23280140292E-01  0.24528831656E-01  0.00000000000E+00 0.  1.
     999901    1    3    3    0    0 -0.94359887023E-01  0.81204791694E-01 -0.58321615468E-01  0.89067357506E+00  0.88000000000E+00 0. -1.
        -11    1    4    4    0    0  0.50475534687E-01 -0.35237764162E-01  0.15538401455E-01  0.63491595238E-01  0.51100000000E-03 0.  1.
         11    1    4    4    0    0  0.37228591040E-01 -0.49891246177E-01  0.19503073720E-01  0.65235998049E-01  0.51100000000E-03 0. -1.
</event>
<event>
 8    1  0.1131349E+005  0.1043930E+01  0.7957747E-01            NaN
         13   -1    0    0    0    0  0.00000000000E+00  0.00000000000E+00  0.74505805969E-08  0.10566000000E+00  0.10566000000E+00 0. -1.
     999900   -1    0    0    0    0 -0.00000000000E+00 -0.00000000000E+00 -0.74505805969E-08  0.93827000000E+00  0.93827000000E+00 0.  1.
     999902    2    1    2    0    0 -0.15864967106E-01  0.36298790673E-03  0.17595191286E-01  0.10202357033E+01  0.10199605240E+01 0.  0.
     999903    2    3    3    0    0  0.65438001770E-01  0.28687648736E-01  0.10839351518E+00  0.13138431254E+00  0.20188367542E-01 0.  0.
         14    1    1    2    0    0  0.15864967106E-01 -0.36298790673E-03 -0.17595191286E-01  0.23694296738E-01  0.00000000000E+00 0. -1.
     999901    1    3    3    0    0 -0.81302968877E-01 -0.28324660829E-01 -0.90798323893E-01  0.88885139072E+00  0.88000000000E+00 0.  1.
        -11    1    4    4    0    0  0.43498451177E-01  0.12618738649E-01  0.53329838425E-01  0.69969140393E-01  0.51100000000E-03 0.  1.
         11    1    4    4    0    0  0.21939550593E-01  0.16068910088E-01  0.55063676754E-01  0.61415172151E-01  0.51100000000E-03 0. -1.
</event>
<event>
 8    1  0.1131349E+005  0.1043930E+01  0.7957747E-01            NaN
         13   -1    0    0    0    0  0.00000000000E+00  0.00000000000E+00  0.74505805969E-08  0.10566000000E+00  0.10566000000E+00 0.  1.
     999900   -1    0    0    0    0 -0.00000000000E+00 -0.00000000000E+00 -0.74505805969E-08  0.93827000000E+00  0.93827000000E+00 0. -1.
     999902    2    1    2    0    0 -0.17313892973E-02 -0.30441445174E-02 -0.24500250374E-01  0.10191807214E+01  0.10188801775E+01 0.  0.
     999903    2    3    3    0    0  0.12123337569E+00 -0.36522751515E-01  0.15215376120E-01  0.12911416119E+00  0.20187030222E-01 0.  0.
         14    1    1    2    0    0  0.17313892973E-02  0.30441445174E-02  0.24500250374E-01  0.24749278639E-01  0.00000000000E+00 0.  1.
     999901    1    3    3    0    0 -0.12296476499E+00  0.33478606997E-01 -0.39715626494E-01  0.89006656018E+00  0.88000000000E+00 0. -1.
        -11    1    4    4    0    0  0.32545683450E-01 -0.92060014732E-02 -0.48401342452E-02  0.34171040295E-01  0.51100000000E-03 0. -1.
         11    1    4    4    0    0  0.88687692238E-01 -0.27316750042E-01  0.20055510365E-01  0.94943120890E-01  0.51100000000E-03 0.  1.
</event>
<event>
 8    1  0.1131349E+005  0.1043930E+01  0.7957747E-01            NaN
         13   -1    0    0    0    0  0.00000000000E+00  0.00000000000E+00  0.74505805969E-08  0.10566000000E+00  0.10566000000E+00 0.  1.
     999900   -1    0    0    0    0 -0.00000000000E+00 -0.00000000000E+00 -0.74505805969E-08  0.93827000000E+00  0.93827000000E+00 0.  1.
     999902    2    1    2    0    0 -0.65140357667E-02  0.21450914250E-01  0.10540501186E-01  0.10191575042E+01  0.10188563892E+01 0.  0.
     999903    2    3    3    0    0  0.75841417902E-01 -0.33335312512E-02  0.10332031361E+00  0.13011038333E+00  0.22149301241E-01 0.  0.
         14    1    1    2    0    0  0.65140357667E-02 -0.21450914250E-01 -0.10540501186E-01  0.24772495825E-01  0.00000000000E+00 0. -1.
     999901    1    3    3    0    0 -0.82355453668E-01  0.24784445501E-01 -0.92779812427E-01  0.88904712084E+00  0.88000000000E+00 0.  1.
        -11    1    4    4    0    0  0.31587947545E-01  0.91398409430E-02  0.47820432218E-01  0.58037832326E-01  0.51100000000E-03 0. -1.
         11    1    4    4    0    0  0.44253470357E-01 -0.12473372194E-01  0.55499881395E-01  0.72072551005E-01  0.51100000000E-03 0.  1.
</event>
<event>
 8    1  0.1131349E+005  0.1043930E+01  0.7957747E-01            NaN
         13   -1    0    0    0    0  0.00000000000E+00  0.00000000000E+00  0.74505805969E-08  0.10566000000E+00  0.10566000000E+00 0. -1.
     999900   -1    0    0    0    0 -0.00000000000E+00 -0.00000000000E+00 -0.74505805969E-08  0.93827000000E+00  0.93827000000E+00 0.  1.
     999902    2    1    2    0    0 -0.13823733363E-01 -0.15814779245E-01 -0.11626664982E-01  0.10199220391E+01  0.10196394381E+01 0.  0.
     999903    2    3    3    0    0  0.40645278418E-01 -0.12066005037E+00 -0.27760265094E-01  0.13187941787E+00  0.20264800202E-01 0.  0.
         14    1    1    2    0    0  0.13823733363E-01  0.15814779245E-01  0.11626664982E-01  0.24007960873E-01  0.00000000000E+00 0. -1.
     999901    1    3    3    0    0 -0.54469011781E-01  0.10484527112E+00  0.16133600112E-01  0.88804262126E+00  0.88000000000E+00 0.  1.
        -11    1    4    4    0    0  0.29245714189E-01 -0.57066510704E-01 -0.17399753320E-01  0.66444796477E-01  0.51100000000E-03 0. -1.
         11    1    4    4    0    0  0.11399564230E-01 -0.63593539662E-01 -0.10360511773E-01  0.65434621391E-01  0.51100000000E-03 0.  1.
</event>
<event>
 8    1  0.1131349E+005  0.1043930E+01  0.7957747E-01            NaN
         13   -1    0    0    0    0  0.00000000000E+00  0.00000000000E+00  0.74505805969E-08  0.10566000000E+00  0.10566000000E+00 0.  1.
     999900   -1    0    0    0    0 -0.00000000000E+00 -0.00000000000E+00 -0.74505805969E-08  0.93827000000E+00  0.93827000000E+00 0.  1.
     999902    2    1    2    0    0 -0.14007083700E-01  0.23866208323E-02 -0.18769745570E-01  0.10203885960E+01  0.10201169978E+01 0.  0.
     999903    2    3    3    0    0 -0.12871198413E+00 -0.97160112583E-03 -0.15826605232E-01  0.13293315831E+00  0.29206579345E-01 0.  0.
         14    1    1    2    0    0  0.14007083700E-01 -0.23866208323E-02  0.18769745570E-01  0.23541403984E-01  0.00000000000E+00 0.  1.
     999901    1    3    3    0    0  0.11470490043E+00  0.33582219582E-02 -0.29431403380E-02  0.88745543771E+00  0.88000000000E+00 0. -1.
        -11    1    4    4    0    0 -0.12730497053E+00  0.34143209685E-02 -0.15152217468E-01  0.12825000555E+00  0.51100000000E-03 0. -1.
         11    1    4    4    0    0 -0.14070136045E-02 -0.43859220943E-02 -0.67438776401E-03  0.46831527582E-02  0.51100000000E-03 0.  1.
</event>
<event>
 8    1  0.1131349E+005  0.1043930E+01  0.7957747E-01            NaN
         13   -1    0    0    0    0  0.00000000000E+00  0.00000000000E+00  0.74505805969E-08  0.10566000000E+00  0.10566000000E+00 0. -1.
     999900   -1    0    0    0    0 -0.00000000000E+00 -0.00000000000E+00 -0.74505805969E-08  0.93827000000E+00  0.93827000000E+00 0.  1.
     999902    2    1    2    0    0 -0.73035134499E-02 -0.31908814646E-01 -0.12717408651E-01  0.10088123941E+01  0.10082009722E+01 0.  0.
     999903    2    3    3    0    0 -0.33213336953E-01 -0.95425082830E-01  0.66420194124E-01  0.12260226358E+00  0.20263283605E-01 0.  0.
         14    1    1    2    0    0  0.73035134499E-02  0.31908814646E-01  0.12717408651E-01  0.35117605893E-01  0.00000000000E+00 0. -1.
     999901    1    3    3    0    0  0.25909823503E-01  0.63516268184E-01 -0.79137602775E-01  0.88621013053E+00  0.88000000000E+00 0.  1.
        -11    1    4    4    0    0 -0.19944239139E-01 -0.79526764263E-01  0.48854008294E-01  0.95442412775E-01  0.51100000000E-03 0. -1.
         11    1    4    4    0    0 -0.13269097814E-01 -0.15898318567E-01  0.17566185830E-01  0.27159850804E-01  0.51100000000E-03 0.  1.
</event>
<event>
 8    1  0.1131349E+005  0.1043930E+01  0.7957747E-01            NaN
         13   -1    0    0    0    0  0.00000000000E+00  0.00000000000E+00  0.74505805969E-08  0.10566000000E+00  0.10566000000E+00 0. -1.
     999900   -1    0    0    0    0 -0.00000000000E+00 -0.00000000000E+00 -0.74505805969E-08  0.93827000000E+00  0.93827000000E+00 0.  1.
     999902    2    1    2    0    0  0.45532159238E-02 -0.17301831821E-01  0.15104805760E-01  0.10205154678E+01  0.10202468230E+01 0.  0.
     999903    2    3    3    0    0 -0.63772731233E-01  0.13807346138E-01  0.11285232151E+00  0.13192625293E+00  0.20280179617E-01 0.  0.
         14    1    1    2    0    0 -0.45532159238E-02  0.17301831821E-01 -0.15104805760E-01  0.23414532168E-01  0.00000000000E+00 0. -1.
     999901    1    3    3    0    0  0.68325947156E-01 -0.31109177960E-01 -0.97747515750E-01  0.88858921490E+00  0.88000000000E+00 0.  1.
        -11    1    4    4    0    0 -0.26669496475E-01  0.16054951416E-01  0.53074417219E-01  0.61531929852E-01  0.51100000000E-03 0. -1.
         11    1    4    4    0    0 -0.37103234757E-01 -0.22476052771E-02  0.59777904291E-01  0.70394323076E-01  0.51100000000E-03 0.  1.
</event>
<event>
 8    1  0.1131349E+005  0.1043930E+01  0.7957747E-01            NaN
         13   -1    0    0    0    0  0.00000000000E+00  0.00000000000E+00  0.74505805969E-08  0.10566000000E+00  0.10566000000E+00 0. -1.
     999900   -1    0    0    0    0 -0.00000000000E+00 -0.00000000000E+00 -0.74505805969E-08  0.93827000000E+00  0.93827000000E+00 0. -1.
     999902    2    1    2    0    0  0.10202619161E-01  0.16542680960E-01  0.14312364665E-01  0.10197929431E+01  0.10195072581E+01 0.  0.
     999903    2    3    3    0    0 -0.12705984934E+00 -0.60586896514E-02 -0.70555400958E-03  0.12873887908E+00  0.19806265327E-01 0.  0.
         14    1    1    2    0    0 -0.10202619161E-01 -0.16542680960E-01 -0.14312364665E-01  0.24137056850E-01  0.00000000000E+00 0.  1.
     999901    1    3    3    0    0  0.13726246850E+00  0.22601370612E-01  0.15017918675E-01  0.89105406407E+00  0.88000000000E+00 0. -1.
        -11    1    4    4    0    0 -0.29098956544E-01  0.68899996020E-02 -0.98685807640E-03  0.29924177121E-01  0.51100000000E-03 0.  1.
         11    1    4    4    0    0 -0.97960892795E-01 -0.12948689253E-01  0.28130406683E-03  0.98814701960E-01  0.51100000000E-03 0. -1.
</event>
<event>
 8    1  0.1131349E+005  0.1043930E+01  0.7957747E-01            NaN
         13   -1    0    0    0    0  0.00000000000E+00  0.00000000000E+00  0.74505805969E-08  0.10566000000E+00  0.10566000000E+00 0. -1.
     999900   -1    0    0    0    0 -0.00000000000E+00 -0.00000000000E+00 -0.74505805969E-08  0.93827000000E+00  0.93827000000E+00 0.  1.
     999902    2    1    2    0    0  0.18506516672E-01  0.93509768520E-02 -0.11696961299E-01  0.10201234708E+01  0.10198456476E+01 0.  0.
     999903    2    3    3    0    0  0.79327034745E-02  0.11793607566E+00  0.52908233250E-01  0.13103609584E+00  0.19983281517E-01 0.  0.
         14    1    1    2    0    0 -0.18506516672E-01 -0.93509768520E-02  0.11696961299E-01  0.23806529169E-01  0.00000000000E+00 0.  1.
     999901    1    3    3    0    0  0.10573813198E-01 -0.10858509881E+00 -0.64605194549E-01  0.88908737499E+00  0.88000000000E+00 0. -1.
        -11    1    4    4    0    0 -0.62865076371E-02  0.34367662792E-01  0.18619568866E-01  0.39593003041E-01  0.51100000000E-03 0. -1.
         11    1    4    4    0    0  0.14219211112E-01  0.83568412869E-01  0.34288664384E-01  0.91443092798E-01  0.51100000000E-03 0.  1.
</event>
<event>
 8    1  0.1131349E+005  0.1043930E+01  0.7957747E-01            NaN
         13   -1    0    0    0    0  0.00000000000E+00  0.00000000000E+00  0.74505805969E-08  0.10566000000E+00  0.10566000000E+00 0. -1.
     999900   -1    0    0    0    0 -0.00000000000E+00 -0.00000000000E+00 -0.74505805969E-08  0.93827000000E+00  0.93827000000E+00 0.  1.
     999902    2    1    2    0    0 -0.67407298046E-02  0.35709081637E-02  0.22265738354E-01  0.10203938166E+01  0.10201223403E+01 0.  0.
     999903    2    3    3    0    0 -0.10674589768E+00  0.74427509936E-01  0.11040651918E-01  0.13182885323E+00  0.17966904063E-01 0.  0.
         14    1    1    2    0    0  0.67407298046E-02 -0.35709081637E-02 -0.22265738354E-01  0.23536183375E-01  0.00000000000E+00 0.  1.
     999901    1    3    3    0    0  0.10000516787E+00 -0.70856601772E-01  0.11225086435E-01  0.88856496340E+00  0.88000000000E+00 0.  1.
        -11    1    4    4    0    0 -0.83553983527E-01  0.60831076674E-01  0.17105973455E-02  0.10336767056E+00  0.51100000000E-03 0. -1.
         11    1    4    4    0    0 -0.23191914152E-01  0.13596433262E-01  0.93300545727E-02  0.28461182667E-01  0.51100000000E-03 0.  1.
</event>
<event>
 8    1  0.1131349E+005  0.1043930E+01  0.7957747E-01            NaN
         13   -1    0    0    0    0  0.00000000000E+00  0.00000000000E+00  0.74505805969E-08  0.10566000000E+00  0.10566000000E+00 0. -1.
     999900   -1    0    0    0    0 -0.00000000000E+00 -0.00000000000E+00 -0.74505805969E-08  0.93827000000E+00  0.93827000000E+00 0.  1.
     999902    2    1    2    0    0  0.23379525731E-01 -0.55174855956E-03  0.39454577568E-02  0.10202134807E+01  0.10199377790E+01 0.  0.
     999903    2    3    3    0    0  0.59102357184E-01 -0.87415817191E-01 -0.75955495800E-01  0.13161590618E+00  0.20466941546E-01 0.  0.
         14    1    1    2    0    0 -0.23379525731E-01  0.55174855956E-03 -0.39454577568E-02  0.23716519280E-01  0.00000000000E+00 0.  1.
     999901    1    3    3    0    0 -0.35722831453E-01  0.86864068632E-01  0.79900953557E-01  0.88859757454E+00  0.88000000000E+00 0. -1.
        -11    1    4    4    0    0  0.50473308914E-01 -0.73011353820E-01 -0.53731905287E-01  0.10375736825E+00  0.51100000000E-03 0.  1.
         11    1    4    4    0    0  0.86290482703E-02 -0.14404463371E-01 -0.22223590514E-01  0.27858537926E-01  0.51100000000E-03 0. -1.
</event>
<event>
 8    1  0.1131349E+005  0.1043930E+01  0.7957747E-01            NaN
         13   -1    0    0    0    0  0.00000000000E+00  0.00000000000E+00  0.74505805969E-08  0.10566000000E+00  0.10566000000E+00 0.  1.
     999900   -1    0    0    0    0 -0.00000000000E+00 -0.00000000000E+00 -0.74505805969E-08  0.93827000000E+00  0.93827000000E+00 0.  1.
     999902    2    1    2    0    0 -0.14748955861E-01  0.19214636739E-01  0.59368112986E-02  0.10189904793E+01  0.10186852395E+01 0.  0.
     999903    2    3    3    0    0 -0.26878795619E-01 -0.12272892565E+00  0.89508149412E-02  0.12752865055E+00  0.19964487937E-01 0.  0.
         14    1    1    2    0    0  0.14748955861E-01 -0.19214636739E-01 -0.59368112986E-02  0.24939520693E-01  0.00000000000E+00 0. -1.
     999901    1    3    3    0    0  0.12129839758E-01  0.14194356238E+00 -0.30140036426E-02  0.89146182876E+00  0.88000000000E+00 0. -1.
        -11    1    4    4    0    0 -0.17510961477E-01 -0.43834090352E-01  0.91186986064E-02  0.48077781085E-01  0.51100000000E-03 0.  1.
         11    1    4    4    0    0 -0.93678341425E-02 -0.78894835294E-01 -0.16788366513E-03  0.79450869463E-01  0.51100000000E-03 0. -1.
</event>
<event>
 8    1  0.1131349E+005  0.1043930E+01  0.7957747E-01            NaN
         13   -1    0    0    0    0  0.00000000000E+00  0.00000000000E+00  0.74505805969E-08  0.10566000000E+00  0.10566000000E+00 0. -1.
     999900   -1    0    0    0    0 -0.00000000000E+00 -0.00000000000E+00 -0.74505805969E-08  0.93827000000E+00  0.93827000000E+00 0. -1.
     999902    2    1    2    0    0 -0.26134200947E-02  0.21242174779E-01 -0.10872978483E-01  0.10199241337E+01  0.10196415826E+01 0.  0.
     999903    2    3    3    0    0  0.54015132824E-01  0.84461952336E-01  0.81407146355E-01  0.13103766477E+00  0.22187612381E-01 0.  0.
         14    1    1    2    0    0  0.26134200947E-02 -0.21242174779E-01  0.10872978483E-01  0.24005866263E-01  0.00000000000E+00 0. -1.
     999901    1    3    3    0    0 -0.56628552919E-01 -0.63219777557E-01 -0.92280124838E-01  0.88888646897E+00  0.88000000000E+00 0. -1.
        -11    1    4    4    0    0  0.39637192753E-01  0.46074027178E-01  0.57005885439E-01  0.83329797344E-01  0.51100000000E-03 0. -1.
         11    1    4    4    0    0  0.14377940070E-01  0.38387925158E-01  0.24401260916E-01  0.47707867422E-01  0.51100000000E-03 0.  1.
</event>
<event>
 8    1  0.1131349E+005  0.1043930E+01  0.7957747E-01            NaN
         13   -1    0    0    0    0  0.00000000000E+00  0.00000000000E+00  0.74505805969E-08  0.10566000000E+00  0.10566000000E+00 0. -1.
     999900   -1    0    0    0    0 -0.00000000000E+00 -0.00000000000E+00 -0.74505805969E-08  0.93827000000E+00  0.93827000000E+00 0. -1.
     999902    2    1    2    0    0  0.12647119364E-01 -0.17705789943E-01  0.74182725901E-02  0.10209414073E+01  0.10206825568E+01 0.  0.
     999903    2    3    3    0    0 -0.11724973768E-01 -0.38771217728E-01 -0.12270622623E+00  0.13078965824E+00  0.20209760345E-01 0.  0.
         14    1    1    2    0    0 -0.12647119364E-01  0.17705789943E-01 -0.74182725901E-02  0.22988592692E-01  0.00000000000E+00 0.  1.
     999901    1    3    3    0    0  0.24372093133E-01  0.21065427785E-01  0.13012449882E+00  0.89015174907E+00  0.88000000000E+00 0.  1.
        -11    1    4    4    0    0 -0.10086582547E-01 -0.27253869037E-01 -0.56192157515E-01  0.63263988272E-01  0.51100000000E-03 0.  1.
         11    1    4    4    0    0 -0.16383912216E-02 -0.11517348691E-01 -0.66514068717E-01  0.67525669970E-01  0.51100000000E-03 0. -1.
</event>
<event>
 8    1  0.1131349E+005  0.1043930E+01  0.7957747E-01            NaN
         13   -1    0    0    0    0  0.00000000000E+00  0.00000000000E+00  0.74505805969E-08  0.10566000000E+00  0.10566000000E+00 0.  1.
     999900   -1    0    0    0    0 -0.00000000000E+00 -0.00000000000E+00 -0.74505805969E-08  0.93827000000E+00  0.93827000000E+00 0. -1.
     999902    2    1    2    0    0  0.18848852689E-01 -0.27164500458E-02  0.13829958520E-01  0.10203943653E+01  0.10201229017E+01 0.  0.
     999903    2    3    3    0    0  0.79360720229E-01  0.94363591364E-01 -0.40519885549E-01  0.13132736776E+00  0.20060037547E-01 0.  0.
         14    1    1    2    0    0 -0.18848852689E-01  0.27164500458E-02 -0.13829958520E-01  0.23535634711E-01  0.00000000000E+00 0. -1.
     999901    1    3    3    0    0 -0.60511867539E-01 -0.97080041410E-01  0.54349844069E-01  0.88906699753E+00  0.88000000000E+00 0.  1.
        -11    1    4    4    0    0  0.17426102108E-01  0.32314944169E-01 -0.65069698116E-02  0.37289763051E-01  0.51100000000E-03 0.  1.
         11    1    4    4    0    0  0.61934618121E-01  0.62048647196E-01 -0.34012915737E-01  0.94037604704E-01  0.51100000000E-03 0. -1.
</event>
<event>
 8    1  0.1131349E+005  0.1043930E+01  0.7957747E-01            NaN
         13   -1    0    0    0    0  0.00000000000E+00  0.00000000000E+00  0.74505805969E-08  0.10566000000E+00  0.10566000000E+00 0.  1.
     999900   -1    0    0    0    0 -0.00000000000E+00 -0.00000000000E+00 -0.74505805969E-08  0.93827000000E+00  0.93827000000E+00 0.  1.
     999902    2    1    2    0    0  0.10758597200E-01 -0.59656999181E-02  0.19482607537E-01  0.10208885377E+01  0.10206284816E+01 0.  0.
     999903    2    3    3    0    0  0.55909246455E-01 -0.31698831455E-01  0.11613882469E+00  0.13407220974E+00  0.18880441468E-01 0.  0.
         14    1    1    2    0    0 -0.10758597200E-01  0.59656999181E-02 -0.19482607537E-01  0.23041462316E-01  0.00000000000E+00 0. -1.
     999901    1    3    3    0    0 -0.45150649255E-01  0.25733131537E-01 -0.96656217155E-01  0.88681632794E+00  0.88000000000E+00 0.  1.
        -11    1    4    4    0    0  0.11376073240E-01 -0.75878551542E-03  0.11420230056E-01  0.16145388610E-01  0.51100000000E-03 0.  1.
         11    1    4    4    0    0  0.44533173215E-01 -0.30940045939E-01  0.10471859464E+00  0.11792682113E+00  0.51100000000E-03 0. -1.
</event>
<event>
 8    1  0.1131349E+005  0.1043930E+01  0.7957747E-01            NaN
         13   -1    0    0    0    0  0.00000000000E+00  0.00000000000E+00  0.74505805969E-08  0.10566000000E+00  0.10566000000E+00 0.  1.
     999900   -1    0    0    0    0 -0.00000000000E+00 -0.00000000000E+00 -0.74505805969E-08  0.93827000000E+00  0.93827000000E+00 0.  1.
     999902    2    1    2    0    0 -0.10821683436E-01 -0.73184793304E-02 -0.18755049310E-01  0.10210734726E+01  0.10208176211E+01 0.  0.
     999903    2    3    3    0    0  0.33810312695E-01  0.11606982354E+00  0.41448569530E-01  0.12931051970E+00  0.19694806652E-01 0.  0.
         14    1    1    2    0    0  0.10821683436E-01  0.73184793304E-02  0.18755049310E-01  0.22856527442E-01  0.00000000000E+00 0.  1.
     999901    1    3    3    0    0 -0.44631996130E-01 -0.12338830287E+00 -0.60203618840E-01  0.89176295286E+00  0.88000000000E+00 0. -1.
        -11    1    4    4    0    0  0.19634946384E-02  0.38905857619E-01  0.14912909015E-01  0.41715429335E-01  0.51100000000E-03 0.  1.
         11    1    4    4    0    0  0.31846818057E-01  0.77163965918E-01  0.26535660515E-01  0.87595090368E-01  0.51100000000E-03 0. -1.
</event>
<event>
 8    1  0.1131349E+005  0.1043930E+01  0.7957747E-01            NaN
         13   -1    0    0    0    0  0.00000000000E+00  0.00000000000E+00  0.74505805969E-08  0.10566000000E+00  0.10566000000E+00 0. -1.
     999900   -1    0    0    0    0 -0.00000000000E+00 -0.00000000000E+00 -0.74505805969E-08  0.93827000000E+00  0.93827000000E+00 0. -1.
     999902    2    1    2    0    0 -0.10597933499E-01 -0.13282070651E-01  0.16912062801E-01  0.10199561087E+01  0.10196743187E+01 0.  0.
     999903    2    3    3    0    0  0.94765558990E-02  0.12246168794E+00  0.34136246578E-01  0.12915533097E+00  0.20715840896E-01 0.  0.
         14    1    1    2    0    0  0.10597933499E-01  0.13282070651E-01 -0.16912062801E-01  0.23973891286E-01  0.00000000000E+00 0.  1.
     999901    1    3    3    0    0 -0.20074489398E-01 -0.13574375859E+00 -0.17224183777E-01  0.89080077774E+00  0.88000000000E+00 0.  1.
        -11    1    4    4    0    0  0.21430574351E-02  0.25681945702E-01 -0.13535865377E-02  0.25811786992E-01  0.51100000000E-03 0. -1.
         11    1    4    4    0    0  0.73334984639E-02  0.96779742234E-01  0.35489833115E-01  0.10334354398E+00  0.51100000000E-03 0.  1.
</event>
<event>
 8    1  0.1131349E+005  0.1043930E+01  0.7957747E-01            NaN
         13   -1    0    0    0    0  0.00000000000E+00  0.00000000000E+00  0.74505805969E-08  0.10566000000E+00  0.10566000000E+00 0.  1.
     999900   -1    0    0    0    0 -0.00000000000E+00 -0.00000000000E+00 -0.74505805969E-08  0.93827000000E+00  0.93827000000E+00 0.  1.
     999902    2    1    2    0    0  0.14920342341E-01 -0.17140318597E-01 -0.58341823952E-02  0.10204684395E+01  0.10201987018E+01 0.  0.
     999903    2    3    3    0    0 -0.11617500872E-01  0.74923137757E-01  0.10195216470E+00  0.12872978174E+00  0.20704345491E-01 0.  0.
         14    1    1    2    0    0 -0.14920342341E-01  0.17140318597E-01  0.58341823952E-02  0.23461560506E-01  0.00000000000E+00 0.  1.
     999901    1    3    3    0    0  0.26537843212E-01 -0.92063456354E-01 -0.10778634709E+00  0.89173865776E+00  0.88000000000E+00 0.  1.
        -11    1    4    4    0    0 -0.25978460054E-02  0.53632054299E-01  0.82865962035E-01  0.98742973609E-01  0.51100000000E-03 0. -1.
         11    1    4    4    0    0 -0.90196548663E-02  0.21291083458E-01  0.19086202661E-01  0.29986808128E-01  0.51100000000E-03 0.  1.
</event>
<event>
 8    1  0.1131349E+005  0.1043930E+01  0.7957747E-01            NaN
         13   -1    0    0    0    0  0.00000000000E+00  0.00000000000E+00  0.74505805969E-08  0.10566000000E+00  0.10566000000E+00 0.  1.
     999900   -1    0    0    0    0 -0.00000000000E+00 -0.00000000000E+00 -0.74505805969E-08  0.93827000000E+00  0.93827000000E+00 0.  1.
     999902    2    1    2    0    0 -0.19185854273E-01  0.13167074122E-01 -0.26373204745E-03  0.10206590224E+01  0.10203936993E+01 0.  0.
     999903    2    3    3    0    0 -0.72272334168E-02  0.33819989387E-01 -0.12626728300E+00  0.13136354483E+00  0.10813397686E-01 0.  0.
         14    1    1    2    0    0  0.19185854273E-01 -0.13167074122E-01  0.26373204745E-03  0.23270977627E-01  0.00000000000E+00 0.  1.
     999901    1    3    3    0    0 -0.11958620856E-01 -0.20652915265E-01  0.12600355095E+00  0.88929547754E+00  0.88000000000E+00 0. -1.
        -11    1    4    4    0    0  0.50290751042E-03 -0.44450001582E-03 -0.63771477243E-02  0.64327000805E-02  0.51100000000E-03 0.  1.
         11    1    4    4    0    0 -0.77301409272E-02  0.34264489402E-01 -0.11989013528E+00  0.12493084475E+00  0.51100000000E-03 0. -1.
</event>
<event>
 8    1  0.1131349E+005  0.1043930E+01  0.7957747E-01            NaN
         13   -1    0    0    0    0  0.00000000000E+00  0.00000000000E+00  0.74505805969E-08  0.10566000000E+00  0.10566000000E+00 0. -1.
     999900   -1    0    0    0    0 -0.00000000000E+00 -0.00000000000E+00 -0.74505805969E-08  0.93827000000E+00  0.93827000000E+00 0. -1.
     999902    2    1    2    0    0 -0.19906580121E-01  0.88910732772E-02 -0.12161492087E-01  0.10189655251E+01  0.10186596666E+01 0.  0.
     999903    2    3    3    0    0 -0.61676292960E-01  0.46923002679E-01  0.10243022922E+00  0.12973979497E+00  0.18295607359E-01 0.  0.
         14    1    1    2    0    0  0.19906580121E-01 -0.88910732772E-02  0.12161492087E-01  0.24964474878E-01  0.00000000000E+00 0. -1.
     999901    1    3    3    0    0  0.41769712839E-01 -0.38031929401E-01 -0.11459172131E+00  0.88922573015E+00  0.88000000000E+00 0. -1.
        -11    1    4    4    0    0 -0.53918881488E-02  0.11339865202E-01  0.11506435274E-01  0.17038901793E-01  0.51100000000E-03 0. -1.
         11    1    4    4    0    0 -0.56284404811E-01  0.35583137477E-01  0.90923793945E-01  0.11270089318E+00  0.51100000000E-03 0.  1.
</event>
<event>
 8    1  0.1131349E+005  0.1043930E+01  0.7957747E-01            NaN
         13   -1    0    0    0    0  0.00000000000E+00  0.00000000000E+00  0.74505805969E-08  0.10566000000E+00  0.10566000000E+00 0.  1.
     999900   -1    0    0    0    0 -0.00000000000E+00 -0.00000000000E+00 -0.74505805969E-08  0.93827000000E+00  0.93827000000E+00 0. -1.
     999902    2    1    2    0    0 -0.68617786431E-02  0.61553186875E-02 -0.22214127250E-01  0.10198792328E+01  0.10195956110E+01 0.  0.
     999903    2    3    3    0    0 -0.28547936184E-01  0.40297904004E-01  0.11710168031E+00  0.12800205525E+00  0.15258338396E-01 0.  0.
         14    1    1    2    0    0  0.68617786431E-02 -0.61553186875E-02  0.22214127250E-01  0.24050767218E-01  0.00000000000E+00 0. -1.
     999901    1    3    3    0    0  0.21686157541E-01 -0.34142585316E-01 -0.13931580756E+00  0.89187717753E+00  0.88000000000E+00 0. -1.
        -11    1    4    4    0    0 -0.12139006538E-01  0.16236478440E-01  0.67495020387E-01  0.70475652603E-01  0.51100000000E-03 0. -1.
         11    1    4    4    0    0 -0.16408929646E-01  0.24061425564E-01  0.49606659921E-01  0.57526402650E-01  0.51100000000E-03 0.  1.
</event>
<event>
 8    1  0.1131349E+005  0.1043930E+01  0.7957747E-01            NaN
         13   -1    0    0    0    0  0.00000000000E+00  0.00000000000E+00  0.74505805969E-08  0.10566000000E+00  0.10566000000E+00 0.  1.
     999900   -1    0    0    0    0 -0.00000000000E+00 -0.00000000000E+00 -0.74505805969E-08  0.93827000000E+00  0.93827000000E+00 0.  1.
     999902    2    1    2    0    0  0.43830343292E-02 -0.18293797155E-01  0.11856544378E-01  0.10216937312E+01  0.10214517261E+01 0.  0.
     999903    2    3    3    0    0 -0.43238820794E-01 -0.54824179870E-01  0.11257362096E+00  0.13391772375E+00  0.19643071967E-01 0.  0.
         14    1    1    2    0    0 -0.43830343292E-02  0.18293797155E-01 -0.11856544378E-01  0.22236268771E-01  0.00000000000E+00 0. -1.
     999901    1    3    3    0    0  0.47621855123E-01  0.36530382715E-01 -0.10071707658E+00  0.88777600748E+00  0.88000000000E+00 0.  1.
        -11    1    4    4    0    0 -0.17035869900E-01 -0.23405200078E-01  0.65085991161E-01  0.71235325649E-01  0.51100000000E-03 0. -1.
         11    1    4    4    0    0 -0.26202950894E-01 -0.31418979792E-01  0.47487629795E-01  0.62682398098E-01  0.51100000000E-03 0.  1.
</event>
<event>
 8    1  0.1131349E+005  0.1043930E+01  0.7957747E-01            NaN
         13   -1    0    0    0    0  0.00000000000E+00  0.00000000000E+00  0.74505805969E-08  0.10566000000E+00  0.10566000000E+00 0.  1.
     999900   -1    0    0    0    0 -0.00000000000E+00 -0.00000000000E+00 -0.74505805969E-08  0.93827000000E+00  0.93827000000E+00 0. -1.
     999902    2    1    2    0    0 -0.18603094291E-01 -0.23772568827E-01 -0.47220185433E-02  0.10133766433E+01  0.10129159460E+01 0.  0.
     999903    2    3    3    0    0  0.25228102883E-02  0.11959897523E+00  0.72434523347E-02  0.12144341936E+00  0.19640699011E-01 0.  0.
         14    1    1    2    0    0  0.18603094291E-01  0.23772568827E-01  0.47220185433E-02  0.30553356689E-01  0.00000000000E+00 0.  1.
     999901    1    3    3    0    0 -0.21125904580E-01 -0.14337154405E+00 -0.11965470878E-01  0.89193322395E+00  0.88000000000E+00 0.  1.
        -11    1    4    4    0    0  0.99941442463E-02  0.85912861262E-01  0.85124737756E-02  0.86911598651E-01  0.51100000000E-03 0. -1.
         11    1    4    4    0    0 -0.74713339579E-02  0.33686113966E-01 -0.12690214408E-02  0.34531820711E-01  0.51100000000E-03 0.  1.
</event>
<event>
 8    1  0.1131349E+005  0.1043930E+01  0.7957747E-01            NaN
         13   -1    0    0    0    0  0.00000000000E+00  0.00000000000E+00  0.74505805969E-08  0.10566000000E+00  0.10566000000E+00 0.  1.
     999900   -1    0    0    0    0 -0.00000000000E+00 -0.00000000000E+00 -0.74505805969E-08  0.93827000000E+00  0.93827000000E+00 0. -1.
     999902    2    1    2    0    0 -0.17541901829E-01  0.81964216128E-02 -0.12502219036E-01  0.10208821123E+01  0.10206219095E+01 0.  0.
     999903    2    3    3    0    0  0.10665827144E+00 -0.60810618290E-01 -0.33307915612E-01  0.12924287381E+00  0.22811949122E-01 0.  0.
         14    1    1    2    0    0  0.17541901829E-01 -0.81964216128E-02  0.12502219036E-01  0.23047887709E-01  0.00000000000E+00 0.  1.
     999901    1    3    3    0    0 -0.12420017327E+00  0.69007039903E-01  0.20805696576E-01  0.89163923849E+00  0.88000000000E+00 0.  1.
        -11    1    4    4    0    0  0.67778670924E-01 -0.25901030672E-01 -0.21362109602E-01  0.75640018970E-01  0.51100000000E-03 0. -1.
         11    1    4    4    0    0  0.38879600520E-01 -0.34909587618E-01 -0.11945806011E-01  0.53602854835E-01  0.51100000000E-03 0.  1.
</event>
<event>
 8    1  0.1131349E+005  0.1043930E+01  0.7957747E-01            NaN
         13   -1    0    0    0    0  0.00000000000E+00  0.00000000000E+00  0.74505805969E-08  0.10566000000E+00  0.10566000000E+00 0.  1.
     999900   -1    0    0    0    0 -0.00000000000E+00 -0.00000000000E+00 -0.74505805969E-08  0.93827000000E+00  0.93827000000E+00 0.  1.
     999902    2    1    2    0    0 -0.21874464873E-01  0.55730318744E-02 -0.57453415251E-02  0.10206370859E+01  0.10203712566E+01 0.  0.
     999903    2    3    3    0    0  0.22909399674E-01  0.12731142561E+00 -0.81044692002E-02  0.13112519924E+00  0.19877016114E-01 0.  0.
         14    1    1    2    0    0  0.21874464873E-01 -0.55730318744E-02  0.57453415251E-02  0.23292914094E-01  0.00000000000E+00 0.  1.
     999901    1    3    3    0    0 -0.44783864547E-01 -0.12173839374E+00  0.23591276752E-02  0.88951188666E+00  0.88000000000E+00 0. -1.
        -11    1    4    4    0    0  0.23743753451E-01  0.77868565965E-01 -0.59116919845E-02  0.81624068855E-01  0.51100000000E-03 0. -1.
         11    1    4    4    0    0 -0.83435377733E-03  0.49442859650E-01 -0.21927772158E-02  0.49501130386E-01  0.51100000000E-03 0.  1.
</event>
<event>
 8    1  0.1131349E+005  0.1043930E+01  0.7957747E-01            NaN
         13   -1    0    0    0    0  0.00000000000E+00  0.00000000000E+00  0.74505805969E-08  0.10566000000E+00  0.10566000000E+00 0. -1.
     999900   -1    0    0    0    0 -0.00000000000E+00 -0.00000000000E+00 -0.74505805969E-08  0.93827000000E+00  0.93827000000E+00 0. -1.
     999902    2    1    2    0    0 -0.16245075834E-02 -0.96018382221E-02  0.22668080229E-01  0.10192586364E+01  0.10189600049E+01 0.  0.
     999903    2    3    3    0    0 -0.80909238256E-01  0.83659588785E-01 -0.48841170687E-01  0.12791283633E+00  0.20760590372E-01 0.  0.
         14    1    1    2    0    0  0.16245075834E-02  0.96018382221E-02 -0.22668080229E-01  0.24671363631E-01  0.00000000000E+00 0.  1.
     999901    1    3    3    0    0  0.79284730672E-01 -0.93261427007E-01  0.71509250916E-01  0.89134580004E+00  0.88000000000E+00 0.  1.
        -11    1    4    4    0    0 -0.34102123956E-01  0.50162259412E-01 -0.24710912240E-01  0.65498835352E-01  0.51100000000E-03 0. -1.
         11    1    4    4    0    0 -0.46807114300E-01  0.33497329372E-01 -0.24130258447E-01  0.62414000976E-01  0.51100000000E-03 0.  1.
</event>
<event>
 8    1  0.1131349E+005  0.1043930E+01  0.7957747E-01            NaN
         13   -1    0    0    0    0  0.00000000000E+00  0.00000000000E+00  0.74505805969E-08  0.10566000000E+00  0.10566000000E+00 0. -1.
     999900   -1    0    0    0    0 -0.00000000000E+00 -0.00000000000E+00 -0.74505805969E-08  0.93827000000E+00  0.93827000000E+00 0. -1.
     999902    2    1    2    0    0 -0.19825197196E-01 -0.14117432928E-01  0.41075789200E-03  0.10195884906E+01  0.10192978864E+01 0.  0.
     999903    2    3    3    0    0  0.72182883181E-01  0.10217655667E+00  0.11437937540E-01  0.12711362961E+00  0.19406984820E-01 0.  0.
         14    1    1    2    0    0  0.19825197196E-01  0.14117432928E-01 -0.41075789200E-03  0.24341509370E-01  0.00000000000E+00 0. -1.
     999901    1    3    3    0    0 -0.92008080377E-01 -0.11629398959E+00 -0.11027179648E-01  0.89247486102E+00  0.88000000000E+00 0. -1.
        -11    1    4    4    0    0  0.42455802531E-01  0.50184600178E-01  0.13821812294E-01  0.67173602551E-01  0.51100000000E-03 0. -1.
         11    1    4    4    0    0  0.29727080649E-01  0.51991956488E-01 -0.23838747539E-02  0.59940027054E-01  0.51100000000E-03 0.  1.
</event>
<event>
 8    1  0.1131349E+005  0.1043930E+01  0.7957747E-01            NaN
         13   -1    0    0    0    0  0.00000000000E+00  0.00000000000E+00  0.74505805969E-08  0.10566000000E+00  0.10566000000E+00 0.  1.
     999900   -1    0    0    0    0 -0.00000000000E+00 -0.00000000000E+00 -0.74505805969E-08  0.93827000000E+00  0.93827000000E+00 0. -1.
     999902    2    1    2    0    0  0.18376401980E-01 -0.13993430574E-01 -0.40435794425E-02  0.10204809321E+01  0.10202114850E+01 0.  0.
     999903    2    3    3    0    0 -0.40165885288E-03  0.99012342300E-01  0.80266552891E-01  0.12906008950E+00  0.20252948706E-01 0.  0.
         14    1    1    2    0    0 -0.18376401980E-01  0.13993430574E-01  0.40435794425E-02  0.23449067863E-01  0.00000000000E+00 0. -1.
     999901    1    3    3    0    0  0.18778060833E-01 -0.11300577287E+00 -0.84310132334E-01  0.89142084264E+00  0.88000000000E+00 0.  1.
        -11    1    4    4    0    0 -0.19154441548E-02  0.81150159007E-02  0.14922233012E-01  0.17101361596E-01  0.51100000000E-03 0.  1.
         11    1    4    4    0    0  0.15137853019E-02  0.90897326400E-01  0.65344319879E-01  0.11195872790E+00  0.51100000000E-03 0. -1.
</event>
<event>
 8    1  0.1131349E+005  0.1043930E+01  0.7957747E-01            NaN
         13   -1    0    0    0    0  0.00000000000E+00  0.00000000000E+00  0.74505805969E-08  0.10566000000E+00  0.10566000000E+00 0. -1.
     999900   -1    0    0    0    0 -0.00000000000E+00 -0.00000000000E+00 -0.74505805969E-08  0.93827000000E+00  0.93827000000E+00 0. -1.
     999902    2    1    2    0    0 -0.24150463880E-02 -0.52845751301E-02 -0.23479229705E-01  0.10197425361E+01  0.10194556422E+01 0.  0.
     999903    2    3    3    0    0 -0.80141644967E-02 -0.12150927227E+00  0.40834157136E-01  0.12975616423E+00  0.18452741999E-01 0.  0.
         14    1    1    2    0    0  0.24150463880E-02  0.52845751301E-02  0.23479229705E-01  0.24187463920E-01  0.00000000000E+00 0. -1.
     999901    1    3    3    0    0  0.55991181087E-02  0.11622469714E+00 -0.64313386841E-01  0.88998637185E+00  0.88000000000E+00 0. -1.
        -11    1    4    4    0    0 -0.22795124197E-02 -0.45263604649E-01  0.59532330982E-02  0.45713151149E-01  0.51100000000E-03 0.  1.
         11    1    4    4    0    0 -0.57346520770E-02 -0.76245667619E-01  0.34880924038E-01  0.84043013082E-01  0.51100000000E-03 0. -1.
</event>
<event>
 8    1  0.1131349E+005  0.1043930E+01  0.7957747E-01            NaN
         13   -1    0    0    0    0  0.00000000000E+00  0.00000000000E+00  0.74505805969E-08  0.10566000000E+00  0.10566000000E+00 0. -1.
     999900   -1    0    0    0    0 -0.00000000000E+00 -0.00000000000E+00 -0.74505805969E-08  0.93827000000E+00  0.93827000000E+00 0. -1.
     999902    2    1    2    0    0 -0.12481282861E-01 -0.16843505175E-01  0.13107469146E-01  0.10192056833E+01  0.10189057528E+01 0.  0.
     999903    2    3    3    0    0  0.52873456218E-01  0.50761054827E-01  0.10468917743E+00  0.12947042620E+00  0.20748019883E-01 0.  0.
         14    1    1    2    0    0  0.12481282861E-01  0.16843505175E-01 -0.13107469146E-01  0.24724316692E-01  0.00000000000E+00 0.  1.
     999901    1    3    3    0    0 -0.65354739078E-01 -0.67604560003E-01 -0.91581708285E-01  0.88973525711E+00  0.88000000000E+00 0. -1.
        -11    1    4    4    0    0  0.36931016151E-01  0.45892805743E-01  0.87830006203E-01  0.10575642148E+00  0.51100000000E-03 0. -1.
         11    1    4    4    0    0  0.15942440067E-01  0.48682490846E-02  0.16859171228E-01  0.23714004721E-01  0.51100000000E-03 0.  1.
</event>
<event>
 8    1  0.1131349E+005  0.1043930E+01  0.7957747E-01            NaN
         13   -1    0    0    0    0  0.00000000000E+00  0.00000000000E+00  0.74505805969E-08  0.10566000000E+00  0.10566000000E+00 0. -1.
     999900   -1    0    0    0    0 -0.00000000000E+00 -0.00000000000E+00 -0.74505805969E-08  0.93827000000E+00  0.93827000000E+00 0.  1.
     999902    2    1    2    0    0 -0.25302199007E-01 -0.27703507495E-02  0.56462054147E-03  0.10184703277E+01  0.10181520581E+01 0.  0.
     999903    2    3    3    0    0  0.25219300320E-01 -0.11232940080E+00 -0.53785947103E-01  0.12857730516E+00  0.19628751959E-01 0.  0.
         14    1    1    2    0    0  0.25302199007E-01  0.27703507495E-02 -0.56462054147E-03  0.25459672311E-01  0.00000000000E+00 0. -1.
     999901    1    3    3    0    0 -0.50521499327E-01  0.10955905005E+00  0.54350567645E-01  0.88989302253E+00  0.88000000000E+00 0. -1.
        -11    1    4    4    0    0  0.23311154021E-01 -0.97525959841E-01 -0.39089345871E-01  0.10762416469E+00  0.51100000000E-03 0.  1.
         11    1    4    4    0    0  0.19081462992E-02 -0.14803440960E-01 -0.14696601233E-01  0.20953140465E-01  0.51100000000E-03 0. -1.
</event>
<event>
 8    1  0.1131349E+005  0.1043930E+01  0.7957747E-01            NaN
         13   -1    0    0    0    0  0.00000000000E+00  0.00000000000E+00  0.74505805969E-08  0.10566000000E+00  0.10566000000E+00 0.  1.
     999900   -1    0    0    0    0 -0.00000000000E+00 -0.00000000000E+00 -0.74505805969E-08  0.93827000000E+00  0.93827000000E+00 0. -1.
     999902    2    1    2    0    0  0.11155477468E-01 -0.20336578343E-01  0.45156695912E-02  0.10202992495E+01  0.10200255615E+01 0.  0.
     999903    2    3    3    0    0  0.84771961749E-01 -0.85006786686E-01 -0.50862852611E-01  0.13313049256E+00  0.26912060362E-01 0.  0.
         14    1    1    2    0    0 -0.11155477468E-01  0.20336578343E-01 -0.45156695912E-02  0.23630750477E-01  0.00000000000E+00 0. -1.
     999901    1    3    3    0    0 -0.73616484281E-01  0.64670208343E-01  0.55378522202E-01  0.88716875696E+00  0.88000000000E+00 0. -1.
        -11    1    4    4    0    0  0.19282105369E-01 -0.23700713854E-01 -0.11749194470E-02  0.30580467317E-01  0.51100000000E-03 0.  1.
         11    1    4    4    0    0  0.65489856381E-01 -0.61306072831E-01 -0.49687933164E-01  0.10255002525E+00  0.51100000000E-03 0. -1.
</event>
<event>
 8    1  0.1131349E+005  0.1043930E+01  0.7957747E-01            NaN
         13   -1    0    0    0    0  0.00000000000E+00  0.00000000000E+00  0.74505805969E-08  0.10566000000E+00  0.10566000000E+00 0. -1.
     999900   -1    0    0    0    0 -0.00000000000E+00 -0.00000000000E+00 -0.74505805969E-08  0.93827000000E+00  0.93827000000E+00 0.  1.
     999902    2    1    2    0    0  0.18425950714E-01  0.14758477846E-02  0.13416767239E-01  0.10210891719E+01  0.10208336757E+01 0.  0.
     999903    2    3    3    0    0 -0.91364477169E-01 -0.47789182940E-01 -0.74195183724E-01  0.12858884400E+00  0.19972276233E-01 0.  0.
         14    1    1    2    0    0 -0.18425950714E-01 -0.14758477846E-02 -0.13416767239E-01  0.22840828128E-01  0.00000000000E+00 0.  1.
     999901    1    3    3    0    0  0.10979042788E+00  0.49265030725E-01  0.87611950964E-01  0.89250032788E+00  0.88000000000E+00 0. -1.
        -11    1    4    4    0    0 -0.38989734074E-01 -0.23765962576E-01 -0.21377207966E-01  0.50420893306E-01  0.51100000000E-03 0. -1.
         11    1    4    4    0    0 -0.52374743095E-01 -0.24023220364E-01 -0.52817975758E-01  0.78167950691E-01  0.51100000000E-03 0.  1.
</event>
<event>
 8    1  0.1131349E+005  0.1043930E+01  0.7957747E-01            NaN
         13   -1    0    0    0    0  0.00000000000E+00  0.00000000000E+00  0.74505805969E-08  0.10566000000E+00  0.10566000000E+00 0.  1.
     999900   -1    0    0    0    0 -0.00000000000E+00 -0.00000000000E+00 -0.74505805969E-08  0.93827000000E+00  0.93827000000E+00 0.  1.
     999902    2    1    2    0    0 -0.18574959981E-01 -0.14947372388E-01  0.74278753623E-02  0.10189574869E+01  0.10186514289E+01 0.  0.
     999903    2    3    3    0    0 -0.10767170062E+00 -0.73819370160E-01  0.63957261080E-02  0.13250094160E+00  0.21750854876E-01 0.  0.
         14    1    1    2    0    0  0.18574959981E-01  0.14947372388E-01 -0.74278753623E-02  0.24972513130E-01  0.00000000000E+00 0.  1.
     999901    1    3    3    0    0  0.89096740640E-01  0.58871997772E-01  0.10321492543E-02  0.88645654527E+00  0.88000000000E+00 0. -1.
        -11    1    4    4    0    0 -0.12215006460E-01 -0.15428943569E-01 -0.41050848062E-02  0.20108991142E-01  0.51100000000E-03 0.  1.
         11    1    4    4    0    0 -0.95456694161E-01 -0.58390426590E-01  0.10500810914E-01  0.11239195046E+00  0.51100000000E-03 0. -1.
</event>
<event>
 8    1  0.1131349E+005  0.1043930E+01  0.7957747E-01            NaN
         13   -1    0    0    0    0  0.00000000000E+00  0.00000000000E+00  0.74505805969E-08  0.10566000000E+00  0.10566000000E+00 0. -1.
     999900   -1    0    0    0    0 -0.00000000000E+00 -0.00000000000E+00 -0.74505805969E-08  0.93827000000E+00  0.93827000000E+00 0.  1.
     999902    2    1    2    0    0 -0.20086507269E-02 -0.23045203932E-01 -0.81136772734E-02  0.10194157621E+01  0.10191209683E+01 0.  0.
     999903    2    3    3    0    0 -0.71775520760E-01  0.52032646238E-02 -0.10715060819E+00  0.13066736921E+00  0.20344758491E-01 0.  0.
         14    1    1    2    0    0  0.20086507269E-02  0.23045203932E-01  0.81136772734E-02  0.24514237922E-01  0.00000000000E+00 0. -1.
     999901    1    3    3    0    0  0.69766870034E-01 -0.28248468556E-01  0.99036930920E-01  0.88874839286E+00  0.88000000000E+00 0.  1.
        -11    1    4    4    0    0 -0.27918323930E-01  0.11549811189E-01 -0.48750526705E-01  0.57355958056E-01  0.51100000000E-03 0.  1.
         11    1    4    4    0    0 -0.43857196831E-01 -0.63465465656E-02 -0.58400081489E-01  0.73311411159E-01  0.51100000000E-03 0. -1.
</event>
<event>
 8    1  0.1131349E+005  0.1043930E+01  0.7957747E-01            NaN
         13   -1    0    0    0    0  0.00000000000E+00  0.00000000000E+00  0.74505805969E-08  0.10566000000E+00  0.10566000000E+00 0. -1.
     999900   -1    0    0    0    0 -0.00000000000E+00 -0.00000000000E+00 -0.74505805969E-08  0.93827000000E+00  0.93827000000E+00 0.  1.
     999902    2    1    2    0    0 -0.83622228486E-02 -0.16259986874E-01  0.14869318549E-01  0.10203628496E+01  0.10200906500E+01 0.  0.
     999903    2    3    3    0    0 -0.30226020127E-01 -0.44936457187E-01  0.12025503842E+00  0.13334170242E+00  0.19642755955E-01 0.  0.
         14    1    1    2    0    0  0.83622228486E-02  0.16259986874E-01 -0.14869318549E-01  0.23567150405E-01  0.00000000000E+00 0.  1.
     999901    1    3    3    0    0  0.21863797278E-01  0.28676470314E-01 -0.10538571987E+00  0.88702114717E+00  0.88000000000E+00 0.  1.
        -11    1    4    4    0    0 -0.40238240916E-02 -0.99799104662E-03  0.23747597131E-01  0.24112167819E-01  0.51100000000E-03 0. -1.
         11    1    4    4    0    0 -0.26202196035E-01 -0.43938466141E-01  0.96507441291E-01  0.10922953460E+00  0.51100000000E-03 0.  1.
</event>
<event>
 8    1  0.1131349E+005  0.1043930E+01  0.7957747E-01            NaN
         13   -1    0    0    0    0  0.00000000000E+00  0.00000000000E+00  0.74505805969E-08  0.10566000000E+00  0.10566000000E+00 0. -1.
     999900   -1    0    0    0    0 -0.00000000000E+00 -0.00000000000E+00 -0.74505805969E-08  0.93827000000E+00  0.93827000000E+00 0.  1.
     999902    2    1    2    0    0  0.66672583511E-02  0.12922541710E-01 -0.18659314414E-01  0.10202738289E+01  0.10199995448E+01 0.  0.
     999903    2    3    3    0    0 -0.54012139817E-01 -0.66898618154E-01  0.92207120805E-01  0.12766821978E+00  0.20106836043E-01 0.  0.
         14    1    1    2    0    0 -0.66672583511E-02 -0.12922541710E-01  0.18659314414E-01  0.23656171130E-01  0.00000000000E+00 0. -1.
     999901    1    3    3    0    0  0.60679398168E-01  0.79821159863E-01 -0.11086643522E+00  0.89260560909E+00  0.88000000000E+00 0.  1.
        -11    1    4    4    0    0 -0.37058036130E-01 -0.33839933394E-01  0.62107782992E-01  0.79850341033E-01  0.51100000000E-03 0.  1.
         11    1    4    4    0    0 -0.16954103687E-01 -0.33058684760E-01  0.30099337813E-01  0.47817878745E-01  0.51100000000E-03 0. -1.
</event>
<event>
 8    1  0.1131349E+005  0.1043930E+01  0.7957747E-01            NaN
         13   -1    0    0    0    0  0.00000000000E+00  0.00000000000E+00  0.74505805969E-08  0.10566000000E+00  0.10566000000E+00 0.  1.
     999900   -1    0    0    0    0 -0.00000000000E+00 -0.00000000000E+00 -0.74505805969E-08  0.93827000000E+00  0.93827000000E+00 0. -1.
     999902    2    1    2    0    0  0.83237807354E-03  0.86776566900E-02 -0.20806536727E-01  0.10213710428E+01  0.10211218833E+01 0.  0.
     999903    2    3    3    0    0  0.88927974861E-01  0.52431875290E-01 -0.82548466911E-01  0.13374086545E+00  0.20373596709E-01 0.  0.
         14    1    1    2    0    0 -0.83237807354E-03 -0.86776566900E-02  0.20806536727E-01  0.22558957189E-01  0.00000000000E+00 0.  1.
     999901    1    3    3    0    0 -0.88095596787E-01 -0.43754218600E-01  0.61741930185E-01  0.88763017736E+00  0.88000000000E+00 0. -1.
        -11    1    4    4    0    0  0.50803523296E-01  0.18457544254E-01 -0.39503943511E-01  0.66951486863E-01  0.51100000000E-03 0.  1.
         11    1    4    4    0    0  0.38124451564E-01  0.33974331035E-01 -0.43044523400E-01  0.66789378588E-01  0.51100000000E-03 0. -1.
</event>
<event>
 8    1  0.1131349E+005  0.1043930E+01  0.7957747E-01            NaN
         13   -1    0    0    0    0  0.00000000000E+00  0.00000000000E+00  0.74505805969E-08  0.10566000000E+00  0.10566000000E+00 0. -1.
     999900   -1    0    0    0    0 -0.00000000000E+00 -0.00000000000E+00 -0.74505805969E-08  0.93827000000E+00  0.93827000000E+00 0.  1.
     999902    2    1    2    0    0  0.21458552767E-01  0.11389352912E-02 -0.11429739693E-01  0.10195906161E+01  0.10193000632E+01 0.  0.
     999903    2    3    3    0    0  0.56425517322E-02  0.76528034645E-01 -0.10295689236E+00  0.13149665603E+00  0.28334967569E-01 0.  0.
         14    1    1    2    0    0 -0.21458552767E-01 -0.11389352912E-02  0.11429739693E-01  0.24339383926E-01  0.00000000000E+00 0. -1.
     999901    1    3    3    0    0  0.15816001035E-01 -0.75389099353E-01  0.91527152663E-01  0.88809396004E+00  0.88000000000E+00 0. -1.
        -11    1    4    4    0    0  0.41301425250E-02  0.39262191111E-01 -0.75432925156E-01  0.85140854158E-01  0.51100000000E-03 0.  1.
         11    1    4    4    0    0  0.15124092072E-02  0.37265843534E-01 -0.27523967199E-01  0.46355801873E-01  0.51100000000E-03 0. -1.
</event>
<event>
 8    1  0.1131349E+005  0.1043930E+01  0.7957747E-01            NaN
         13   -1    0    0    0    0  0.00000000000E+00  0.00000000000E+00  0.74505805969E-08  0.10566000000E+00  0.10566000000E+00 0.  1.
     999900   -1    0    0    0    0 -0.00000000000E+00 -0.00000000000E+00 -0.74505805969E-08  0.93827000000E+00  0.93827000000E+00 0. -1.
     999902    2    1    2    0    0 -0.13785518402E-01  0.16609542490E-01  0.64762531878E-02  0.10213942667E+01  0.10211456257E+01 0.  0.
     999903    2    3    3    0    0 -0.39243963571E-01 -0.63620762179E-01  0.10658984183E+00  0.13172704531E+00  0.20073117044E-01 0.  0.
         14    1    1    2    0    0  0.13785518402E-01 -0.16609542490E-01 -0.64762531878E-02  0.22535733285E-01  0.00000000000E+00 0. -1.
     999901    1    3    3    0    0  0.25458445169E-01  0.80230304669E-01 -0.10011358864E+00  0.88966722141E+00  0.88000000000E+00 0. -1.
        -11    1    4    4    0    0 -0.88016963933E-02 -0.30819882566E-01  0.36616205058E-01  0.48665620459E-01  0.51100000000E-03 0.  1.
         11    1    4    4    0    0 -0.30442267178E-01 -0.32800879613E-01  0.69973636768E-01  0.83061424849E-01  0.51100000000E-03 0. -1.
</event>
<event>
 8    1  0.1131349E+005  0.1043930E+01  0.7957747E-01            NaN
         13   -1    0    0    0    0  0.00000000000E+00  0.00000000000E+00  0.74505805969E-08  0.10566000000E+00  0.10566000000E+00 0.  1.
     999900   -1    0    0    0    0 -0.00000000000E+00 -0.00000000000E+00 -0.74505805969E-08  0.93827000000E+00  0.93827000000E+00 0.  1.
     999902    2    1    2    0    0  0.14530121284E-01  0.19075012638E-02  0.16678086073E-01  0.10217281636E+01  0.10214869156E+01 0.  0.
     999903    2    3    3    0    0 -0.15080214873E-01 -0.93374493363E-01  0.90268407956E-01  0.13303757288E+00  0.24584577130E-01 0.  0.
         14    1    1    2    0    0 -0.14530121284E-01 -0.19075012638E-02 -0.16678086073E-01  0.22201836425E-01  0.00000000000E+00 0. -1.
     999901    1    3    3    0    0  0.29610336157E-01  0.95281994627E-01 -0.73590321882E-01  0.88869059069E+00  0.88000000000E+00 0.  1.
        -11    1    4    4    0    0 -0.13338969904E-01 -0.33523262532E-01  0.46550226841E-01  0.58897555033E-01  0.51100000000E-03 0. -1.
         11    1    4    4    0    0 -0.17412449694E-02 -0.59851230831E-01  0.43718181114E-01  0.74140017852E-01  0.51100000000E-03 0.  1.
</event>
<event>
 8    1  0.1403315E+005  0.1043930E+01  0.7957747E-01            NaN
         13   -1    0    0    0    0  0.00000000000E+00  0.00000000000E+00  0.74505805969E-08  0.10566000000E+00  0.10566000000E+00 0. -1.
     999900   -1    0    0    0    0 -0.00000000000E+00 -0.00000000000E+00 -0.74505805969E-08  0.93827000000E+00  0.93827000000E+00 0.  1.
     999902    2    1    2    0    0 -0.21561049739E-01  0.30113943076E-01  0.15737136290E-03  0.10068928133E+01  0.10062114014E+01 0.  0.
     999903    2    3    3    0    0  0.36692983907E-01  0.62700030130E-02  0.10998697678E+00  0.11783454291E+00  0.20053838432E-01 0.  0.
         14    1    1    2    0    0  0.21561049739E-01 -0.30113943076E-01 -0.15737136290E-03  0.37037186707E-01  0.00000000000E+00 0.  1.
     999901    1    3    3    0    0 -0.58254033646E-01  0.23843940063E-01 -0.10982960542E+00  0.88905827038E+00  0.88000000000E+00 0.  1.
        -11    1    4    4    0    0  0.27625506566E-01  0.19055182804E-02  0.51394489073E-01  0.58381968458E-01  0.51100000000E-03 0. -1.
         11    1    4    4    0    0  0.90674773407E-02  0.43644847326E-02  0.58592487705E-01  0.59452574451E-01  0.51100000000E-03 0.  1.
</event>
<event>
 8    1  0.1131349E+005  0.1043930E+01  0.7957747E-01            NaN
         13   -1    0    0    0    0  0.00000000000E+00  0.00000000000E+00  0.74505805969E-08  0.10566000000E+00  0.10566000000E+00 0.  1.
     999900   -1    0    0    0    0 -0.00000000000E+00 -0.00000000000E+00 -0.74505805969E-08  0.93827000000E+00  0.93827000000E+00 0.  1.
     999902    2    1    2    0    0  0.10198846410E-01  0.30479377467E-02  0.21182081535E-01  0.10202237356E+01  0.10199482750E+01 0.  0.
     999903    2    3    3    0    0  0.10312896185E+00  0.79862096220E-01  0.17547457255E-02  0.13179037139E+00  0.18763946128E-01 0.  0.
         14    1    1    2    0    0 -0.10198846410E-01 -0.30479377467E-02 -0.21182081535E-01  0.23706264378E-01  0.00000000000E+00 0. -1.
     999901    1    3    3    0    0 -0.92930115442E-01 -0.76814158473E-01  0.19427335809E-01  0.88843336423E+00  0.88000000000E+00 0. -1.
        -11    1    4    4    0    0  0.59173890449E-01  0.56944729871E-01  0.33238004807E-02  0.82192215821E-01  0.51100000000E-03 0. -1.
         11    1    4    4    0    0  0.43955071402E-01  0.22917366349E-01 -0.15690547551E-02  0.49598155572E-01  0.51100000000E-03 0.  1.
</event>
<event>
 8    1  0.1131349E+005  0.1043930E+01  0.7957747E-01            NaN
         13   -1    0    0    0    0  0.00000000000E+00  0.00000000000E+00  0.74505805969E-08  0.10566000000E+00  0.10566000000E+00 0.  1.
     999900   -1    0    0    0    0 -0.00000000000E+00 -0.00000000000E+00 -0.74505805969E-08  0.93827000000E+00  0.93827000000E+00 0.  1.
     999902    2    1    2    0    0 -0.17034928204E-01  0.16227740269E-01  0.47680320569E-03  0.10203979862E+01  0.10201266071E+01 0.  0.
     999903    2    3    3    0    0 -0.63880804227E-01  0.26190981334E-01 -0.11088718456E+00  0.13208737606E+00  0.19605676831E-01 0.  0.
         14    1    1    2    0    0  0.17034928204E-01 -0.16227740269E-01 -0.47680320569E-03  0.23532013820E-01  0.00000000000E+00 0. -1.
     999901    1    3    3    0    0  0.46845876023E-01 -0.99632410654E-02  0.11136398777E+00  0.88831061012E+00  0.88000000000E+00 0. -1.
        -11    1    4    4    0    0 -0.39844857544E-01  0.26272277770E-01 -0.73600549451E-01  0.87721988421E-01  0.51100000000E-03 0. -1.
         11    1    4    4    0    0 -0.24035946682E-01 -0.81296435717E-04 -0.37286635109E-01  0.44365387643E-01  0.51100000000E-03 0.  1.
</event>
<event>
 8    1  0.1131349E+005  0.1043930E+01  0.7957747E-01            NaN
         13   -1    0    0    0    0  0.00000000000E+00  0.00000000000E+00  0.74505805969E-08  0.10566000000E+00  0.10566000000E+00 0. -1.
     999900   -1    0    0    0    0 -0.00000000000E+00 -0.00000000000E+00 -0.74505805969E-08  0.93827000000E+00  0.93827000000E+00 0.  1.
     999902    2    1    2    0    0 -0.54416873303E-02  0.18598190311E-01 -0.14813169212E-01  0.10195387182E+01  0.10192469099E+01 0.  0.
     999903    2    3    3    0    0  0.10433871195E+00  0.24828437453E-01  0.66642542439E-01  0.12896273327E+00  0.26213355215E-01 0.  0.
         14    1    1    2    0    0  0.54416873303E-02 -0.18598190311E-01  0.14813169212E-01  0.24391281761E-01  0.00000000000E+00 0. -1.
     999901    1    3    3    0    0 -0.10978039928E+00 -0.62302471419E-02 -0.81455711651E-01  0.89057598497E+00  0.88000000000E+00 0. -1.
        -11    1    4    4    0    0  0.47292200171E-01  0.23005753474E-01  0.39411893446E-01  0.65721954900E-01  0.51100000000E-03 0. -1.
         11    1    4    4    0    0  0.57046511779E-01  0.18226839788E-02  0.27230648993E-01  0.63240778368E-01  0.51100000000E-03 0.  1.
</event>
<event>
 8    1  0.1131349E+005  0.1043930E+01  0.7957747E-01            NaN
         13   -1    0    0    0    0  0.00000000000E+00  0.00000000000E+00  0.74505805969E-08  0.10566000000E+00  0.10566000000E+00 0.  1.
     999900   -1    0    0    0    0 -0.00000000000E+00 -0.00000000000E+00 -0.74505805969E-08  0.93827000000E+00  0.93827000000E+00 0. -1.
     999902    2    1    2    0    0 -0.22928392597E-01  0.54411849544E-02  0.21239454545E-02  0.10202692979E+01  0.10199949075E+01 0.  0.
     999903    2    3    3    0    0  0.13202649970E-01  0.12562552620E+00 -0.27299178907E-01  0.13087880525E+00  0.20686558372E-01 0.  0.
         14    1    1    2    0    0  0.22928392597E-01 -0.54411849544E-02 -0.21239454545E-02  0.23660702126E-01  0.00000000000E+00 0.  1.
     999901    1    3    3    0    0 -0.36131042567E-01 -0.12018434124E+00  0.29423124362E-01  0.88939049262E+00  0.88000000000E+00 0.  1.
        -11    1    4    4    0    0  0.54944664435E-02  0.23205945694E-01  0.23660945249E-02  0.23970077208E-01  0.51100000000E-03 0. -1.
         11    1    4    4    0    0  0.77081835270E-02  0.10241958050E+00 -0.29665273432E-01  0.10690872805E+00  0.51100000000E-03 0.  1.
</event>
<event>
 8    1  0.1131349E+005  0.1043930E+01  0.7957747E-01            NaN
         13   -1    0    0    0    0  0.00000000000E+00  0.00000000000E+00  0.74505805969E-08  0.10566000000E+00  0.10566000000E+00 0. -1.
     999900   -1    0    0    0    0 -0.00000000000E+00 -0.00000000000E+00 -0.74505805969E-08  0.93827000000E+00  0.93827000000E+00 0.  1.
     999902    2    1    2    0    0 -0.54935956652E-02 -0.10851898204E-01 -0.21538016061E-01  0.10191948141E+01  0.10188946165E+01 0.  0.
     999903    2    3    3    0    0 -0.66391834322E-01  0.10788442191E+00  0.77488936363E-02  0.12865305071E+00  0.21086439897E-01 0.  0.
         14    1    1    2    0    0  0.54935956652E-02  0.10851898204E-01  0.21538016061E-01  0.24735185946E-01  0.00000000000E+00 0. -1.
     999901    1    3    3    0    0  0.60898238657E-01 -0.11873632012E+00 -0.29286909697E-01  0.89054176335E+00  0.88000000000E+00 0. -1.
        -11    1    4    4    0    0 -0.52232159854E-01  0.87025500450E-01  0.14550056492E-01  0.10253585479E+00  0.51100000000E-03 0. -1.
         11    1    4    4    0    0 -0.14159674469E-01  0.20858921462E-01 -0.68011628557E-02  0.26117195921E-01  0.51100000000E-03 0.  1.
</event>
<event>
 8    1  0.1131349E+005  0.1043930E+01  0.7957747E-01            NaN
         13   -1    0    0    0    0  0.00000000000E+00  0.00000000000E+00  0.74505805969E-08  0.10566000000E+00  0.10566000000E+00 0.  1.
     999900   -1    0    0    0    0 -0.00000000000E+00 -0.00000000000E+00 -0.74505805969E-08  0.93827000000E+00  0.93827000000E+00 0. -1.
     999902    2    1    2    0    0 -0.13558946321E-01  0.16283790231E-01 -0.10629303281E-01  0.10202236941E+01  0.10199482326E+01 0.  0.
     999903    2    3    3    0    0  0.24791464001E-01  0.11692732036E+00  0.51089704128E-01  0.13151164290E+00  0.19963452054E-01 0.  0.
         14    1    1    2    0    0  0.13558946321E-01 -0.16283790231E-01  0.10629303281E-01  0.23706305867E-01  0.00000000000E+00 0. -1.
     999901    1    3    3    0    0 -0.38350410323E-01 -0.10064353013E+00 -0.61719007409E-01  0.88871205123E+00  0.88000000000E+00 0. -1.
        -11    1    4    4    0    0  0.25776388242E-01  0.86844821134E-01  0.43355001872E-01  0.10043088398E+00  0.51100000000E-03 0. -1.
         11    1    4    4    0    0 -0.98492424028E-03  0.30082499222E-01  0.77347022554E-02  0.31080758923E-01  0.51100000000E-03 0.  1.
</event>
<event>
 8    1  0.1131349E+005  0.1043930E+01  0.7957747E-01            NaN
         13   -1    0    0    0    0  0.00000000000E+00  0.00000000000E+00  0.74505805969E-08  0.10566000000E+00  0.10566000000E+00 0. -1.
     999900   -1    0    0    0    0 -0.00000000000E+00 -0.00000000000E+00 -0.74505805969E-08  0.93827000000E+00  0.93827000000E+00 0.  1.
     999902    2    1    2    0    0 -0.35304902080E-02  0.25116109417E-01  0.40235374453E-02  0.10182498098E+01  0.10179259320E+01 0.  0.
     999903    2    3    3    0    0 -0.12244098898E+00  0.33037859441E-01 -0.20278388391E-01  0.12988443205E+00  0.19376705446E-01 0.  0.
         14    1    1    2    0    0  0.35304902080E-02 -0.25116109417E-01 -0.40235374453E-02  0.25680190165E-01  0.00000000000E+00 0. -1.
     999901    1    3    3    0    0  0.11891049878E+00 -0.79217500237E-02  0.24301925837E-01  0.88836537778E+00  0.88000000000E+00 0.  1.
        -11    1    4    4    0    0 -0.46404669705E-01  0.66355329040E-02 -0.62968659811E-05  0.46879471286E-01  0.51100000000E-03 0. -1.
         11    1    4    4    0    0 -0.76036319279E-01  0.26402326537E-01 -0.20272091525E-01  0.83004960767E-01  0.51100000000E-03 0.  1.
</event>
<event>
 8    1  0.1131349E+005  0.1043930E+01  0.7957747E-01            NaN
         13   -1    0    0    0    0  0.00000000000E+00  0.00000000000E+00  0.74505805969E-08  0.10566000000E+00  0.10566000000E+00 0.  1.
     999900   -1    0    0    0    0 -0.00000000000E+00 -0.00000000000E+00 -0.74505805969E-08  0.93827000000E+00  0.93827000000E+00 0.  1.
     999902    2    1    2    0    0 -0.14163725563E-01  0.10044124164E-01  0.18783349921E-01  0.10183505202E+01  0.10180292099E+01 0.  0.
     999903    2    3    3    0    0 -0.10063752765E+00 -0.71669256389E-01  0.35515585041E-01  0.13018681756E+00  0.20563472549E-01 0.  0.
         14    1    1    2    0    0  0.14163725563E-01 -0.10044124164E-01 -0.18783349921E-01  0.25579479789E-01  0.00000000000E+00 0.  1.
     999901    1    3    3    0    0  0.86473802089E-01  0.81713380552E-01 -0.16732235121E-01  0.88816370265E+00  0.88000000000E+00 0. -1.
        -11    1    4    4    0    0 -0.46242224317E-01 -0.24936308294E-01  0.69735669741E-02  0.53000514511E-01  0.51100000000E-03 0. -1.
         11    1    4    4    0    0 -0.54395303335E-01 -0.46732948095E-01  0.28542018067E-01  0.77186303052E-01  0.51100000000E-03 0.  1.
</event>
<event>
 8    1  0.1131349E+005  0.1043930E+01  0.7957747E-01            NaN
         13   -1    0    0    0    0  0.00000000000E+00  0.00000000000E+00  0.74505805969E-08  0.10566000000E+00  0.10566000000E+00 0.  1.
     999900   -1    0    0    0    0 -0.00000000000E+00 -0.00000000000E+00 -0.74505805969E-08  0.93827000000E+00  0.93827000000E+00 0.  1.
     999902    2    1    2    0    0  0.52702109094E-02 -0.17149510939E-01  0.13217350519E-01  0.10216459428E+01  0.10214028849E+01 0.  0.
     999903    2    3    3    0    0  0.43116508096E-01 -0.12511893768E+00  0.13253697756E-01  0.13423975589E+00  0.18189824637E-01 0.  0.
         14    1    1    2    0    0 -0.52702109094E-02  0.17149510939E-01 -0.13217350519E-01  0.22284057154E-01  0.00000000000E+00 0.  1.
     999901    1    3    3    0    0 -0.37846297187E-01  0.10796942674E+00 -0.36347237178E-04  0.88740618695E+00  0.88000000000E+00 0.  1.
        -11    1    4    4    0    0  0.13737619049E-01 -0.67181443045E-01  0.50114319594E-02  0.68756410886E-01  0.51100000000E-03 0.  1.
         11    1    4    4    0    0  0.29378889047E-01 -0.57937494639E-01  0.82422657971E-02  0.65483345006E-01  0.51100000000E-03 0. -1.
</event>
<event>
 8    1  0.1131349E+005  0.1043930E+01  0.7957747E-01            NaN
         13   -1    0    0    0    0  0.00000000000E+00  0.00000000000E+00  0.74505805969E-08  0.10566000000E+00  0.10566000000E+00 0.  1.
     999900   -1    0    0    0    0 -0.00000000000E+00 -0.00000000000E+00 -0.74505805969E-08  0.93827000000E+00  0.93827000000E+00 0. -1.
     999902    2    1    2    0    0  0.15025516009E-01 -0.17188886182E-01  0.54267883870E-02  0.10204635565E+01  0.10201937052E+01 0.  0.
     999903    2    3    3    0    0  0.10059441125E+00  0.80482546404E-01 -0.10862078495E-01  0.13078548450E+00  0.19753034068E-01 0.  0.
         14    1    1    2    0    0 -0.15025516009E-01  0.17188886182E-01 -0.54267883870E-02  0.23466443525E-01  0.00000000000E+00 0. -1.
     999901    1    3    3    0    0 -0.85568895242E-01 -0.97671432586E-01  0.16288866882E-01  0.88967807198E+00  0.88000000000E+00 0. -1.
        -11    1    4    4    0    0  0.66188248394E-01  0.52883272304E-01 -0.16507004091E-01  0.86314929300E-01  0.51100000000E-03 0.  1.
         11    1    4    4    0    0  0.34406162857E-01  0.27599274101E-01  0.56449255962E-02  0.44470555196E-01  0.51100000000E-03 0. -1.
</event>
<event>
 8    1  0.1131349E+005  0.1043930E+01  0.7957747E-01            NaN
         13   -1    0    0    0    0  0.00000000000E+00  0.00000000000E+00  0.74505805969E-08  0.10566000000E+00  0.10566000000E+00 0.  1.
     999900   -1    0    0    0    0 -0.00000000000E+00 -0.00000000000E+00 -0.74505805969E-08  0.93827000000E+00  0.93827000000E+00 0. -1.
     999902    2    1    2    0    0 -0.50835101526E-02  0.11870544973E-01  0.19381696973E-01  0.10206404725E+01  0.10203747214E+01 0.  0.
     999903    2    3    3    0    0  0.93653543905E-01 -0.86860276829E-01  0.82593507312E-02  0.12956220007E+00  0.20061227179E-01 0.  0.
         14    1    1    2    0    0  0.50835101526E-02 -0.11870544973E-01 -0.19381696973E-01  0.23289527495E-01  0.00000000000E+00 0. -1.
     999901    1    3    3    0    0 -0.98737054058E-01  0.98730821801E-01  0.11122346241E-01  0.89107827243E+00  0.88000000000E+00 0. -1.
        -11    1    4    4    0    0  0.78448387869E-01 -0.63369803018E-01  0.10981862249E-01  0.10144330393E+00  0.51100000000E-03 0. -1.
         11    1    4    4    0    0  0.15205156037E-01 -0.23490473810E-01 -0.27225115183E-02  0.28118896136E-01  0.51100000000E-03 0.  1.
</event>
<event>
 8    1  0.1131349E+005  0.1043930E+01  0.7957747E-01            NaN
         13   -1    0    0    0    0  0.00000000000E+00  0.00000000000E+00  0.74505805969E-08  0.10566000000E+00  0.10566000000E+00 0.  1.
     999900   -1    0    0    0    0 -0.00000000000E+00 -0.00000000000E+00 -0.74505805969E-08  0.93827000000E+00  0.93827000000E+00 0.  1.
     999902    2    1    2    0    0  0.17966126614E-01  0.15723782442E-01 -0.82778007930E-03  0.10200405827E+01  0.10197607985E+01 0.  0.
     999903    2    3    3    0    0  0.11292508160E+00 -0.22427027110E-01  0.61416313637E-01  0.13192628002E+00  0.19430238799E-01 0.  0.
         14    1    1    2    0    0 -0.17966126614E-01 -0.15723782442E-01  0.82778007930E-03  0.23889417315E-01  0.00000000000E+00 0. -1.
     999901    1    3    3    0    0 -0.94958954982E-01  0.38150809552E-01 -0.62244093717E-01  0.88811430267E+00  0.88000000000E+00 0.  1.
        -11    1    4    4    0    0  0.88832573330E-01 -0.21663103928E-01  0.55974623374E-01  0.10720977446E+00  0.51100000000E-03 0. -1.
         11    1    4    4    0    0  0.24092508266E-01 -0.76392318240E-03  0.54416902635E-02  0.24716505560E-01  0.51100000000E-03 0.  1.
</event>
<event>
 8    1  0.1131349E+005  0.1043930E+01  0.7957747E-01            NaN
         13   -1    0    0    0    0  0.00000000000E+00  0.00000000000E+00  0.74505805969E-08  0.10566000000E+00  0.10566000000E+00 0.  1.
     999900   -1    0    0    0    0 -0.00000000000E+00 -0.00000000000E+00 -0.74505805969E-08  0.93827000000E+00  0.93827000000E+00 0.  1.
     999902    2    1    2    0    0 -0.15930760155E-01 -0.13856062640E-01  0.10025780147E-01  0.10205570272E+01  0.10202893461E+01 0.  0.
     999903    2    3    3    0    0 -0.31029183210E-01 -0.10628636635E+00  0.71425793953E-01  0.13345991574E+00  0.21220348408E-01 0.  0.
         14    1    1    2    0    0  0.15930760155E-01  0.13856062640E-01 -0.10025780147E-01  0.23372972822E-01  0.00000000000E+00 0. -1.
     999901    1    3    3    0    0  0.15098423055E-01  0.92430303705E-01 -0.61400013807E-01  0.88709711144E+00  0.88000000000E+00 0.  1.
        -11    1    4    4    0    0 -0.21194659533E-01 -0.85363999180E-01  0.46623940334E-01  0.99550383635E-01  0.51100000000E-03 0.  1.
         11    1    4    4    0    0 -0.98345236772E-02 -0.20922367166E-01  0.24801853619E-01  0.33909532107E-01  0.51100000000E-03 0. -1.
</event>
<event>
 8    1  0.1131349E+005  0.1043930E+01  0.7957747E-01            NaN
         13   -1    0    0    0    0  0.00000000000E+00  0.00000000000E+00  0.74505805969E-08  0.10566000000E+00  0.10566000000E+00 0.  1.
     999900   -1    0    0    0    0 -0.00000000000E+00 -0.00000000000E+00 -0.74505805969E-08  0.93827000000E+00  0.93827000000E+00 0. -1.
     999902    2    1    2    0    0  0.97278985258E-02 -0.17329911824E-01  0.14458697756E-01  0.10193533486E+01  0.10190570335E+01 0.  0.
     999903    2    3    3    0    0 -0.71917312875E-02  0.95240770650E-02 -0.12579728914E+00  0.12768123820E+00  0.18306053420E-01 0.  0.
         14    1    1    2    0    0 -0.97278985258E-02  0.17329911824E-01 -0.14458697756E-01  0.24576651406E-01  0.00000000000E+00 0. -1.
     999901    1    3    3    0    0  0.16919629813E-01 -0.26853988889E-01  0.14025598689E+00  0.89167211039E+00  0.88000000000E+00 0.  1.
        -11    1    4    4    0    0 -0.13503701397E-02  0.20619486496E-02 -0.10242133380E+00  0.10245226142E+00  0.51100000000E-03 0. -1.
         11    1    4    4    0    0 -0.58413611477E-02  0.74621284154E-02 -0.23375955335E-01  0.25228976780E-01  0.51100000000E-03 0.  1.
</event>
<event>
 8    1  0.1131349E+005  0.1043930E+01  0.7957747E-01            NaN
         13   -1    0    0    0    0  0.00000000000E+00  0.00000000000E+00  0.74505805969E-08  0.10566000000E+00  0.10566000000E+00 0.  1.
     999900   -1    0    0    0    0 -0.00000000000E+00 -0.00000000000E+00 -0.74505805969E-08  0.93827000000E+00  0.93827000000E+00 0. -1.
     999902    2    1    2    0    0 -0.67847330573E-02 -0.19477452097E-01  0.39739087726E-02  0.10229253411E+01  0.10227096645E+01 0.  0.
     999903    2    3    3    0    0 -0.73871520313E-02  0.56707206840E-01  0.11770947840E+00  0.13234112560E+00  0.19707229575E-01 0.  0.
         14    1    1    2    0    0  0.67847330573E-02  0.19477452097E-01 -0.39739087726E-02  0.21004658859E-01  0.00000000000E+00 0. -1.
     999901    1    3    3    0    0  0.60241897399E-03 -0.76184658937E-01 -0.11373556963E+00  0.89058421554E+00  0.88000000000E+00 0. -1.
        -11    1    4    4    0    0 -0.42067508263E-02  0.44796493504E-01  0.71231495954E-01  0.84253247532E-01  0.51100000000E-03 0. -1.
         11    1    4    4    0    0 -0.31804012050E-02  0.11910713336E-01  0.46477982447E-01  0.48087878071E-01  0.51100000000E-03 0.  1.
</event>
<event>
 8    1  0.1131349E+005  0.1043930E+01  0.7957747E-01            NaN
         13   -1    0    0    0    0  0.00000000000E+00  0.00000000000E+00  0.74505805969E-08  0.10566000000E+00  0.10566000000E+00 0. -1.
     999900   -1    0    0    0    0 -0.00000000000E+00 -0.00000000000E+00 -0.74505805969E-08  0.93827000000E+00  0.93827000000E+00 0. -1.
     999902    2    1    2    0    0 -0.15169671249E-01 -0.10808422495E-01  0.15546389156E-01  0.10196682783E+01  0.10193795989E+01 0.  0.
     999903    2    3    3    0    0 -0.61739692303E-01 -0.10910330536E+00 -0.34790280718E-01  0.13154417034E+00  0.19446960465E-01 0.  0.
         14    1    1    2    0    0  0.15169671249E-01  0.10808422495E-01 -0.15546389156E-01  0.24261721671E-01  0.00000000000E+00 0.  1.
     999901    1    3    3    0    0  0.46570021054E-01  0.98294882867E-01  0.50336669874E-01  0.88812410799E+00  0.88000000000E+00 0.  1.
        -11    1    4    4    0    0 -0.14311642146E-01 -0.11622372355E-01 -0.45069735501E-02  0.18986220573E-01  0.51100000000E-03 0. -1.
         11    1    4    4    0    0 -0.47428050157E-01 -0.97480933007E-01 -0.30283307168E-01  0.11255794977E+00  0.51100000000E-03 0.  1.
</event>
<event>
 8    1  0.1131349E+005  0.1043930E+01  0.7957747E-01            NaN
         13   -1    0    0    0    0  0.00000000000E+00  0.00000000000E+00  0.74505805969E-08  0.10566000000E+00  0.10566000000E+00 0.  1.
     999900   -1    0    0    0    0 -0.00000000000E+00 -0.00000000000E+00 -0.74505805969E-08  0.93827000000E+00  0.93827000000E+00 0. -1.
     999902    2    1    2    0    0  0.21863340731E-01  0.72425601399E-03  0.23451639974E-03  0.10220534095E+01  0.10218192534E+01 0.  0.
     999903    2    3    3    0    0 -0.60100203144E-01 -0.85078420837E-01 -0.76448905290E-01  0.13078438778E+00  0.20242254269E-01 0.  0.
         14    1    1    2    0    0 -0.21863340731E-01 -0.72425601399E-03 -0.23451639974E-03  0.21876590517E-01  0.00000000000E+00 0. -1.
     999901    1    3    3    0    0  0.81963543875E-01  0.85802676851E-01  0.76683421690E-01  0.89126902170E+00  0.88000000000E+00 0.  1.
        -11    1    4    4    0    0 -0.42202582871E-01 -0.73595253414E-01 -0.61593996713E-01  0.10483988210E+00  0.51100000000E-03 0.  1.
         11    1    4    4    0    0 -0.17897620273E-01 -0.11483167423E-01 -0.14854908576E-01  0.25944505687E-01  0.51100000000E-03 0. -1.
</event>
<event>
 8    1  0.1131349E+005  0.1043930E+01  0.7957747E-01            NaN
         13   -1    0    0    0    0  0.00000000000E+00  0.00000000000E+00  0.74505805969E-08  0.10566000000E+00  0.10566000000E+00 0. -1.
     999900   -1    0    0    0    0 -0.00000000000E+00 -0.00000000000E+00 -0.74505805969E-08  0.93827000000E+00  0.93827000000E+00 0.  1.
     999902    2    1    2    0    0 -0.84565314076E-02  0.18829479729E-01  0.10958063159E-01  0.10205603321E+01  0.10202927276E+01 0.  0.
     999903    2    3    3    0    0 -0.71775675452E-02  0.45291641129E-01 -0.12049930059E+00  0.13040140233E+00  0.19534432570E-01 0.  0.
         14    1    1    2    0    0  0.84565314076E-02 -0.18829479729E-01 -0.10958063159E-01  0.23369667916E-01  0.00000000000E+00 0.  1.
     999901    1    3    3    0    0 -0.12789638623E-02 -0.26462161400E-01  0.13145736375E+00  0.89015892975E+00  0.88000000000E+00 0. -1.
        -11    1    4    4    0    0  0.59600037624E-02  0.96603443308E-02 -0.20594465941E-01  0.23520991600E-01  0.51100000000E-03 0.  1.
         11    1    4    4    0    0 -0.13137571308E-01  0.35631296798E-01 -0.99904834647E-01  0.10688041073E+00  0.51100000000E-03 0. -1.
</event>
<event>
 8    1  0.1131349E+005  0.1043930E+01  0.7957747E-01            NaN
         13   -1    0    0    0    0  0.00000000000E+00  0.00000000000E+00  0.74505805969E-08  0.10566000000E+00  0.10566000000E+00 0.  1.
     999900   -1    0    0    0    0 -0.00000000000E+00 -0.00000000000E+00 -0.74505805969E-08  0.93827000000E+00  0.93827000000E+00 0. -1.
     999902    2    1    2    0    0 -0.27092277157E-02 -0.20659262676E-01 -0.11276497353E-01  0.10202381355E+01  0.10199630134E+01 0.  0.
     999903    2    3    3    0    0  0.39511899259E-01  0.91507551708E-01 -0.80331248832E-01  0.12943368084E+00  0.19108793623E-01 0.  0.
         14    1    1    2    0    0  0.27092277157E-02  0.20659262676E-01  0.11276497353E-01  0.23691864462E-01  0.00000000000E+00 0.  1.
     999901    1    3    3    0    0 -0.42221126974E-01 -0.11216681438E+00  0.69054751478E-01  0.89080445470E+00  0.88000000000E+00 0. -1.
        -11    1    4    4    0    0 -0.48183094869E-03  0.12772215820E-01 -0.14154075568E-01  0.19077752336E-01  0.51100000000E-03 0.  1.
         11    1    4    4    0    0  0.39993730207E-01  0.78735335888E-01 -0.66177173264E-01  0.11035592850E+00  0.51100000000E-03 0. -1.
</event>
<event>
 8    1  0.1131349E+005  0.1043930E+01  0.7957747E-01            NaN
         13   -1    0    0    0    0  0.00000000000E+00  0.00000000000E+00  0.74505805969E-08  0.10566000000E+00  0.10566000000E+00 0.  1.
     999900   -1    0    0    0    0 -0.00000000000E+00 -0.00000000000E+00 -0.74505805969E-08  0.93827000000E+00  0.93827000000E+00 0.  1.
     999902    2    1    2    0    0 -0.12395561470E-01  0.96626839729E-02 -0.17188652419E-01  0.10206390752E+01  0.10203732918E+01 0.  0.
     999903    2    3    3    0    0 -0.10391423542E+00  0.56586806892E-01  0.54448533830E-01  0.13175807786E+00  0.19882484928E-01 0.  0.
         14    1    1    2    0    0  0.12395561470E-01 -0.96626839729E-02  0.17188652419E-01  0.23290924793E-01  0.00000000000E+00 0.  1.
     999901    1    3    3    0    0  0.91518673953E-01 -0.46924122919E-01 -0.71637186249E-01  0.88888099735E+00  0.88000000000E+00 0.  1.
        -11    1    4    4    0    0 -0.28699272081E-01  0.25261108839E-01  0.13346198716E-01  0.40498814537E-01  0.51100000000E-03 0.  1.
         11    1    4    4    0    0 -0.75214963343E-01  0.31325698052E-01  0.41102335114E-01  0.91259263321E-01  0.51100000000E-03 0. -1.
</event>
<event>
 8    1  0.1131349E+005  0.1043930E+01  0.7957747E-01            NaN
         13   -1    0    0    0    0  0.00000000000E+00  0.00000000000E+00  0.74505805969E-08  0.10566000000E+00  0.10566000000E+00 0. -1.
     999900   -1    0    0    0    0 -0.00000000000E+00 -0.00000000000E+00 -0.74505805969E-08  0.93827000000E+00  0.93827000000E+00 0. -1.
     999902    2    1    2    0    0  0.15779709291E-01  0.16118601205E-01  0.53621896093E-02  0.10207446251E+01  0.10204812728E+01 0.  0.
     999903    2    3    3    0    0  0.75898002514E-01 -0.80529183032E-01 -0.66488810745E-01  0.13051006637E+00  0.19148351453E-01 0.  0.
         14    1    1    2    0    0 -0.15779709291E-01 -0.16118601205E-01 -0.53621896093E-02  0.23185374863E-01  0.00000000000E+00 0. -1.
     999901    1    3    3    0    0 -0.60118293222E-01  0.96647784237E-01  0.71851000355E-01  0.89023455877E+00  0.88000000000E+00 0.  1.
        -11    1    4    4    0    0  0.57239870320E-01 -0.70641277519E-01 -0.57328834315E-01  0.10748697227E+00  0.51100000000E-03 0.  1.
         11    1    4    4    0    0  0.18658132194E-01 -0.98879055133E-02 -0.91599764306E-02  0.23023094093E-01  0.51100000000E-03 0. -1.
</event>
<event>
 8    1  0.1131349E+005  0.1043930E+01  0.7957747E-01            NaN
         13   -1    0    0    0    0  0.00000000000E+00  0.00000000000E+00  0.74505805969E-08  0.10566000000E+00  0.10566000000E+00 0.  1.
     999900   -1    0    0    0    0 -0.00000000000E+00 -0.00000000000E+00 -0.74505805969E-08  0.93827000000E+00  0.93827000000E+00 0. -1.
     999902    2    1    2    0    0  0.21877001927E-01  0.72539884640E-02  0.22038505288E-03  0.10208806588E+01  0.10206204227E+01 0.  0.
     999903    2    3    3    0    0 -0.12362042547E+00  0.24499131856E-01  0.14374208701E-01  0.12865466325E+00  0.21521789962E-01 0.  0.
         14    1    1    2    0    0 -0.21877001927E-01 -0.72539884640E-02 -0.22038505288E-03  0.23049341239E-01  0.00000000000E+00 0. -1.
     999901    1    3    3    0    0  0.14549742740E+00 -0.17245143392E-01 -0.14153823648E-01  0.89222599552E+00  0.88000000000E+00 0.  1.
        -11    1    4    4    0    0 -0.72397067864E-01  0.17354345922E-01  0.18669227253E-01  0.76754869063E-01  0.51100000000E-03 0. -1.
         11    1    4    4    0    0 -0.51223357609E-01  0.71447859345E-02 -0.42950185525E-02  0.51899794182E-01  0.51100000000E-03 0.  1.
</event>
<event>
 7    1  0.1131349E+005  0.1043930E+01  0.7957747E-01            NaN
         13   -1    0    0    0    0  0.00000000000E+00  0.00000000000E+00  0.74505805969E-08  0.10566000000E+00  0.10566000000E+00 0. -1.
     999900   -1    0    0    0    0 -0.00000000000E+00 -0.00000000000E+00 -0.74505805969E-08  0.93827000000E+00  0.93827000000E+00 0. -1.
     999902    2    1    2    0    0 -0.21716974595E-01 -0.23907022958E-02 -0.11107336564E-01  0.10194205045E+01  0.10191258262E+01 0.  0.
         14    1    1    2    0    0  0.21716974595E-01  0.23907022958E-02  0.11107336564E-01  0.24509495478E-01  0.00000000000E+00 0. -1.
     999901    1    3    3    0    0  0.20995683291E-01  0.53371359789E-01  0.92160332845E-01  0.88666952565E+00  0.88000000000E+00 0.  1.
        -11    1    3    3    0    0 -0.54769964146E-02 -0.42066870445E-01 -0.65043309206E-01  0.77656373030E-01  0.51100000000E-03 0.  1.
         11    1    3    3    0    0 -0.37235661472E-01 -0.13695191640E-01 -0.38224360203E-01  0.55094605845E-01  0.51100000000E-03 0. -1.
</event>
<event>
 8    1  0.1131349E+005  0.1043930E+01  0.7957747E-01            NaN
         13   -1    0    0    0    0  0.00000000000E+00  0.00000000000E+00  0.74505805969E-08  0.10566000000E+00  0.10566000000E+00 0.  1.
     999900   -1    0    0    0    0 -0.00000000000E+00 -0.00000000000E+00 -0.74505805969E-08  0.93827000000E+00  0.93827000000E+00 0. -1.
     999902    2    1    2    0    0  0.16996556904E-01  0.14521835805E-01 -0.73606248323E-02  0.10203939540E+01  0.10201224809E+01 0.  0.
     999903    2    3    3    0    0  0.61158512084E-01  0.11008132822E+00 -0.36910450853E-01  0.13362730655E+00  0.25211371468E-01 0.  0.
         14    1    1    2    0    0 -0.16996556904E-01 -0.14521835805E-01  0.73606248323E-02  0.23536045965E-01  0.00000000000E+00 0.  1.
     999901    1    3    3    0    0 -0.44161955181E-01 -0.95559492411E-01  0.29549826021E-01  0.88676664749E+00  0.88000000000E+00 0.  1.
        -11    1    4    4    0    0  0.80821146865E-02  0.38307131607E-01 -0.11849297567E-01  0.40907504001E-01  0.51100000000E-03 0. -1.
         11    1    4    4    0    0  0.53076397398E-01  0.71774196609E-01 -0.25061153287E-01  0.92719802549E-01  0.51100000000E-03 0.  1.
</event>
<event>
 8    1  0.1131349E+005  0.1043930E+01  0.7957747E-01            NaN
         13   -1    0    0    0    0  0.00000000000E+00  0.00000000000E+00  0.74505805969E-08  0.10566000000E+00  0.10566000000E+00 0.  1.
     999900   -1    0    0    0    0 -0.00000000000E+00 -0.00000000000E+00 -0.74505805969E-08  0.93827000000E+00  0.93827000000E+00 0. -1.
     999902    2    1    2    0    0  0.20427568623E-01  0.10977280518E-01  0.82127813126E-02  0.10193284548E+01  0.10190315318E+01 0.  0.
     999903    2    3    3    0    0  0.10652065227E+00 -0.11239165775E-01  0.75166397078E-01  0.13231753258E+00  0.19620753579E-01 0.  0.
         14    1    1    2    0    0 -0.20427568623E-01 -0.10977280518E-01 -0.82127813126E-02  0.24601545161E-01  0.00000000000E+00 0. -1.
     999901    1    3    3    0    0 -0.86093083650E-01  0.22216446293E-01 -0.66953615765E-01  0.88701092226E+00  0.88000000000E+00 0. -1.
        -11    1    4    4    0    0  0.62831945428E-01 -0.75888852592E-02  0.32531555899E-01  0.71161842275E-01  0.51100000000E-03 0.  1.
         11    1    4    4    0    0  0.43688706845E-01 -0.36502805160E-02  0.42634841178E-01  0.61155690307E-01  0.51100000000E-03 0. -1.
</event>
<event>
 8    1  0.1131349E+005  0.1043930E+01  0.7957747E-01            NaN
         13   -1    0    0    0    0  0.00000000000E+00  0.00000000000E+00  0.74505805969E-08  0.10566000000E+00  0.10566000000E+00 0. -1.
     999900   -1    0    0    0    0 -0.00000000000E+00 -0.00000000000E+00 -0.74505805969E-08  0.93827000000E+00  0.93827000000E+00 0. -1.
     999902    2    1    2    0    0  0.85828047043E-02  0.26893678307E-02 -0.22237068608E-01  0.10199428273E+01  0.10196607212E+01 0.  0.
     999903    2    3    3    0    0 -0.67152698453E-01  0.83789771948E-01  0.67521974951E-01  0.12844418571E+00  0.20210911599E-01 0.  0.
         14    1    1    2    0    0 -0.85828047043E-02 -0.26893678307E-02  0.22237068608E-01  0.23987172743E-01  0.00000000000E+00 0. -1.
     999901    1    3    3    0    0  0.75735503158E-01 -0.81100404118E-01 -0.89759043559E-01  0.89149864155E+00  0.88000000000E+00 0. -1.
        -11    1    4    4    0    0 -0.38455480172E-01  0.60285955206E-01  0.37648757306E-01  0.80814048272E-01  0.51100000000E-03 0. -1.
         11    1    4    4    0    0 -0.28697218281E-01  0.23503816742E-01  0.29873217645E-01  0.47630137434E-01  0.51100000000E-03 0.  1.
</event>
<event>
 8    1  0.1131349E+005  0.1043930E+01  0.7957747E-01            NaN
         13   -1    0    0    0    0  0.00000000000E+00  0.00000000000E+00  0.74505805969E-08  0.10566000000E+00  0.10566000000E+00 0. -1.
     999900   -1    0    0    0    0 -0.00000000000E+00 -0.00000000000E+00 -0.74505805969E-08  0.93827000000E+00  0.93827000000E+00 0.  1.
     999902    2    1    2    0    0 -0.17181431376E-01  0.12880264919E-01 -0.12771128251E-01  0.10189459146E+01  0.10186395694E+01 0.  0.
     999903    2    3    3    0    0  0.99039989040E-01  0.48298421792E-01  0.61055326615E-01  0.12753567800E+00  0.19898223009E-01 0.  0.
         14    1    1    2    0    0  0.17181431376E-01 -0.12880264919E-01  0.12771128251E-01  0.24984085441E-01  0.00000000000E+00 0. -1.
     999901    1    3    3    0    0 -0.11622142042E+00 -0.35418156873E-01 -0.73826454865E-01  0.89141023656E+00  0.88000000000E+00 0. -1.
        -11    1    4    4    0    0  0.90378246319E-01  0.45079306090E-01  0.48776132936E-01  0.11215945573E+00  0.51100000000E-03 0. -1.
         11    1    4    4    0    0  0.86617427210E-02  0.32191157020E-02  0.12279193679E-01  0.15376222269E-01  0.51100000000E-03 0.  1.
</event>
<event>
 8    1  0.1131349E+005  0.1043930E+01  0.7957747E-01            NaN
         13   -1    0    0    0    0  0.00000000000E+00  0.00000000000E+00  0.74505805969E-08  0.10566000000E+00  0.10566000000E+00 0.  1.
     999900   -1    0    0    0    0 -0.00000000000E+00 -0.00000000000E+00 -0.74505805969E-08  0.93827000000E+00  0.93827000000E+00 0.  1.
     999902    2    1    2    0    0 -0.16224465758E-01 -0.29546515480E-02 -0.16746401156E-01  0.10204266980E+01  0.10201559884E+01 0.  0.
     999903    2    3    3    0    0  0.87926187632E-01 -0.85278620604E-01  0.35061696263E-01  0.12896235575E+00  0.19962691494E-01 0.  0.
         14    1    1    2    0    0  0.16224465758E-01  0.29546515480E-02  0.16746401156E-01  0.23503302036E-01  0.00000000000E+00 0.  1.
     999901    1    3    3    0    0 -0.10415065339E+00  0.82323969056E-01 -0.51808097419E-01  0.89146434222E+00  0.88000000000E+00 0. -1.
        -11    1    4    4    0    0  0.93639133320E-02 -0.19211428048E-01  0.43537532629E-02  0.21816922995E-01  0.51100000000E-03 0.  1.
         11    1    4    4    0    0  0.78562274300E-01 -0.66067192557E-01  0.30707943000E-01  0.10714543275E+00  0.51100000000E-03 0. -1.
</event>
<event>
 8    1  0.1131349E+005  0.1043930E+01  0.7957747E-01            NaN
         13   -1    0    0    0    0  0.00000000000E+00  0.00000000000E+00  0.74505805969E-08  0.10566000000E+00  0.10566000000E+00 0. -1.
     999900   -1    0    0    0    0 -0.00000000000E+00 -0.00000000000E+00 -0.74505805969E-08  0.93827000000E+00  0.93827000000E+00 0. -1.
     999902    2    1    2    0    0 -0.49388261989E-02 -0.21196799220E-01 -0.82683258922E-02  0.10206477854E+01  0.10203822031E+01 0.  0.
     999903    2    3    3    0    0  0.69673827549E-01 -0.89307576648E-01  0.65237258077E-01  0.13182317003E+00  0.17063493866E-01 0.  0.
         14    1    1    2    0    0  0.49388261989E-02  0.21196799220E-01  0.82683258922E-02  0.23282214552E-01  0.00000000000E+00 0. -1.
     999901    1    3    3    0    0 -0.74612653748E-01  0.68110777428E-01 -0.73505583969E-01  0.88882461542E+00  0.88000000000E+00 0. -1.
        -11    1    4    4    0    0  0.38037030449E-01 -0.62049771210E-01  0.40933123443E-01  0.83503122747E-01  0.51100000000E-03 0.  1.
         11    1    4    4    0    0  0.31636797100E-01 -0.27257805437E-01  0.24304134634E-01  0.48320047282E-01  0.51100000000E-03 0. -1.
</event>
<event>
 8    1  0.1131349E+005  0.1043930E+01  0.7957747E-01            NaN
         13   -1    0    0    0    0  0.00000000000E+00  0.00000000000E+00  0.74505805969E-08  0.10566000000E+00  0.10566000000E+00 0.  1.
     999900   -1    0    0    0    0 -0.00000000000E+00 -0.00000000000E+00 -0.74505805969E-08  0.93827000000E+00  0.93827000000E+00 0. -1.
     999902    2    1    2    0    0 -0.10915682712E-01 -0.12035378946E-01 -0.17361643925E-01  0.10201512457E+01  0.10198740780E+01 0.  0.
     999903    2    3    3    0    0 -0.69505360076E-02  0.12156254839E+00 -0.40268423231E-01  0.12976433593E+00  0.19785698093E-01 0.  0.
         14    1    1    2    0    0  0.10915682712E-01  0.12035378946E-01  0.17361643925E-01  0.23778754283E-01  0.00000000000E+00 0.  1.
     999901    1    3    3    0    0 -0.39651467048E-02 -0.13359792734E+00  0.22906779306E-01  0.89038690978E+00  0.88000000000E+00 0. -1.
        -11    1    4    4    0    0 -0.12100386358E-01  0.71100990704E-01 -0.29398857606E-01  0.77886611036E-01  0.51100000000E-03 0.  1.
         11    1    4    4    0    0  0.51498503509E-02  0.50461557685E-01 -0.10869565625E-01  0.51877724898E-01  0.51100000000E-03 0. -1.
</event>
<event>
 8    1  0.1131349E+005  0.1043930E+01  0.7957747E-01            NaN
         13   -1    0    0    0    0  0.00000000000E+00  0.00000000000E+00  0.74505805969E-08  0.10566000000E+00  0.10566000000E+00 0. -1.
     999900   -1    0    0    0    0 -0.00000000000E+00 -0.00000000000E+00 -0.74505805969E-08  0.93827000000E+00  0.93827000000E+00 0. -1.
     999902    2    1    2    0    0  0.16930958110E-01  0.72861634589E-02 -0.14668898815E-01  0.10203732151E+01  0.10201012578E+01 0.  0.
     999903    2    3    3    0    0 -0.11773628803E+00  0.30092489651E-01  0.36718832962E-01  0.12835522503E+00  0.18957838664E-01 0.  0.
         14    1    1    2    0    0 -0.16930958110E-01 -0.72861634589E-02  0.14668898815E-01  0.23556784859E-01  0.00000000000E+00 0. -1.
     999901    1    3    3    0    0  0.13466724614E+00 -0.22806326192E-01 -0.51387731777E-01  0.89201799011E+00  0.88000000000E+00 0. -1.
        -11    1    4    4    0    0 -0.68905441903E-01  0.22724033564E-01  0.13581750017E-01  0.73817793788E-01  0.51100000000E-03 0.  1.
         11    1    4    4    0    0 -0.48830846127E-01  0.73684560867E-02  0.23137082945E-01  0.54537431245E-01  0.51100000000E-03 0. -1.
</event>
<event>
 8    1  0.1131349E+005  0.1043930E+01  0.7957747E-01            NaN
         13   -1    0    0    0    0  0.00000000000E+00  0.00000000000E+00  0.74505805969E-08  0.10566000000E+00  0.10566000000E+00 0.  1.
     999900   -1    0    0    0    0 -0.00000000000E+00 -0.00000000000E+00 -0.74505805969E-08  0.93827000000E+00  0.93827000000E+00 0.  1.
     999902    2    1    2    0    0 -0.99366351169E-02  0.78540848521E-02 -0.20977682470E-01  0.10194251734E+01  0.10191306087E+01 0.  0.
     999903    2    3    3    0    0  0.19797338075E-02  0.11716364080E-01 -0.13076325089E+00  0.13251492533E+00  0.17888127857E-01 0.  0.
         14    1    1    2    0    0  0.99366351169E-02 -0.78540848521E-02  0.20977682470E-01  0.24504826629E-01  0.00000000000E+00 0.  1.
     999901    1    3    3    0    0 -0.11916368924E-01 -0.38622792278E-02  0.10978556842E+00  0.88691024804E+00  0.88000000000E+00 0. -1.
        -11    1    4    4    0    0  0.33966752868E-03  0.10127509577E-01 -0.28979938924E-01  0.30704719593E-01  0.51100000000E-03 0. -1.
         11    1    4    4    0    0  0.16400662788E-02  0.15888545029E-02 -0.10178331197E+00  0.10181020574E+00  0.51100000000E-03 0.  1.
</event>
<event>
 8    1  0.1131349E+005  0.1043930E+01  0.7957747E-01            NaN
         13   -1    0    0    0    0  0.00000000000E+00  0.00000000000E+00  0.74505805969E-08  0.10566000000E+00  0.10566000000E+00 0. -1.
     999900   -1    0    0    0    0 -0.00000000000E+00 -0.00000000000E+00 -0.74505805969E-08  0.93827000000E+00  0.93827000000E+00 0.  1.
     999902    2    1    2    0    0  0.28395141338E-02  0.16448569167E-01 -0.19232539848E-01  0.10184641629E+01  0.10181457373E+01 0.  0.
     999903    2    3    3    0    0 -0.35056724237E-01  0.10844956654E+00  0.58068164462E-01  0.12948963727E+00  0.20133853087E-01 0.  0.
         14    1    1    2    0    0 -0.28395141338E-02 -0.16448569167E-01  0.19232539848E-01  0.25465837060E-01  0.00000000000E+00 0. -1.
     999901    1    3    3    0    0  0.37896238371E-01 -0.92000997372E-01 -0.77300704310E-01  0.88897452567E+00  0.88000000000E+00 0. -1.
        -11    1    4    4    0    0  0.10329751480E-02  0.22237310929E-01  0.10514110614E-01  0.24624635592E-01  0.51100000000E-03 0.  1.
         11    1    4    4    0    0 -0.36089699385E-01  0.86212255610E-01  0.47554053848E-01  0.10486500168E+00  0.51100000000E-03 0. -1.
</event>
<event>
 8    1  0.1131349E+005  0.1043930E+01  0.7957747E-01            NaN
         13   -1    0    0    0    0  0.00000000000E+00  0.00000000000E+00  0.74505805969E-08  0.10566000000E+00  0.10566000000E+00 0. -1.
     999900   -1    0    0    0    0 -0.00000000000E+00 -0.00000000000E+00 -0.74505805969E-08  0.93827000000E+00  0.93827000000E+00 0.  1.
     999902    2    1    2    0    0 -0.11320659590E-01  0.12256205910E-01  0.16353463733E-01  0.10205674725E+01  0.10203000334E+01 0.  0.
     999903    2    3    3    0    0 -0.56820236503E-01 -0.10880051484E+00  0.40554778999E-01  0.13078623823E+00  0.19855948835E-01 0.  0.
         14    1    1    2    0    0  0.11320659590E-01 -0.12256205910E-01 -0.16353463733E-01  0.23362527537E-01  0.00000000000E+00 0.  1.
     999901    1    3    3    0    0  0.45499576913E-01  0.12105672075E+00 -0.24201315266E-01  0.88978123424E+00  0.88000000000E+00 0. -1.
        -11    1    4    4    0    0 -0.30608081656E-01 -0.76899420837E-01  0.22897150281E-01  0.85877332281E-01  0.51100000000E-03 0. -1.
         11    1    4    4    0    0 -0.26212154846E-01 -0.31901094003E-01  0.17657628717E-01  0.44908905945E-01  0.51100000000E-03 0.  1.
</event>
<event>
 8    1  0.1131349E+005  0.1043930E+01  0.7957747E-01            NaN
         13   -1    0    0    0    0  0.00000000000E+00  0.00000000000E+00  0.74505805969E-08  0.10566000000E+00  0.10566000000E+00 0. -1.
     999900   -1    0    0    0    0 -0.00000000000E+00 -0.00000000000E+00 -0.74505805969E-08  0.93827000000E+00  0.93827000000E+00 0. -1.
     999902    2    1    2    0    0 -0.23417315410E-01  0.13917865811E-02 -0.88412471215E-02  0.10188605887E+01  0.10185521213E+01 0.  0.
     999903    2    3    3    0    0 -0.26578369388E-01 -0.70687326461E-02  0.12417706982E+00  0.12881820474E+00  0.20440364555E-01 0.  0.
         14    1    1    2    0    0  0.23417315410E-01 -0.13917865811E-02  0.88412471215E-02  0.25069411272E-01  0.00000000000E+00 0. -1.
     999901    1    3    3    0    0  0.31610539785E-02  0.84605192272E-02 -0.13301831694E+00  0.89004238399E+00  0.88000000000E+00 0. -1.
        -11    1    4    4    0    0 -0.40310258537E-02 -0.87934678406E-02  0.59883005666E-01  0.60661435317E-01  0.51100000000E-03 0. -1.
         11    1    4    4    0    0 -0.22547343534E-01  0.17247351945E-02  0.64294064155E-01  0.68156769426E-01  0.51100000000E-03 0.  1.
</event>
<event>
 8    1  0.1131349E+005  0.1043930E+01  0.7957747E-01            NaN
         13   -1    0    0    0    0  0.00000000000E+00  0.00000000000E+00  0.74505805969E-08  0.10566000000E+00  0.10566000000E+00 0. -1.
     999900   -1    0    0    0    0 -0.00000000000E+00 -0.00000000000E+00 -0.74505805969E-08  0.93827000000E+00  0.93827000000E+00 0. -1.
     999902    2    1    2    0    0  0.39921347940E-02 -0.19544944615E-01 -0.13490772908E-01  0.10198479952E+01  0.10195636274E+01 0.  0.
     999903    2    3    3    0    0 -0.13475457844E-01 -0.54852136012E-01 -0.11913346703E+00  0.13265461530E+00  0.14632812622E-01 0.  0.
         14    1    1    2    0    0 -0.39921347940E-02  0.19544944615E-01  0.13490772908E-01  0.24082004773E-01  0.00000000000E+00 0. -1.
     999901    1    3    3    0    0  0.17467592638E-01  0.35307191397E-01  0.10564269412E+00  0.88719337992E+00  0.88000000000E+00 0.  1.
        -11    1    4    4    0    0 -0.45241055268E-02 -0.57906828951E-02 -0.25805636393E-01  0.26836384441E-01  0.51100000000E-03 0. -1.
         11    1    4    4    0    0 -0.89513523169E-02 -0.49061453117E-01 -0.93327830639E-01  0.10581823086E+00  0.51100000000E-03 0.  1.
</event>
<event>
 8    1  0.1131349E+005  0.1043930E+01  0.7957747E-01            NaN
         13   -1    0    0    0    0  0.00000000000E+00  0.00000000000E+00  0.74505805969E-08  0.10566000000E+00  0.10566000000E+00 0. -1.
     999900   -1    0    0    0    0 -0.00000000000E+00 -0.00000000000E+00 -0.74505805969E-08  0.93827000000E+00  0.93827000000E+00 0.  1.
     999902    2    1    2    0    0 -0.52520549571E-02  0.17433227600E-01 -0.18657690629E-01  0.10178606516E+01  0.10175267540E+01 0.  0.
     999903    2    3    3    0    0  0.37627980203E-01  0.10906649163E+00 -0.59251868459E-01  0.13113451589E+00  0.19341997121E-01 0.  0.
         14    1    1    2    0    0  0.52520549571E-02 -0.17433227600E-01  0.18657690629E-01  0.26069348389E-01  0.00000000000E+00 0. -1.
     999901    1    3    3    0    0 -0.42880035161E-01 -0.91633264026E-01  0.40594177830E-01  0.88672613572E+00  0.88000000000E+00 0. -1.
        -11    1    4    4    0    0  0.16355141427E-01  0.34901216879E-01 -0.29088332986E-01  0.48290556299E-01  0.51100000000E-03 0. -1.
         11    1    4    4    0    0  0.21272838776E-01  0.74165274747E-01 -0.30163535473E-01  0.82843959594E-01  0.51100000000E-03 0.  1.
</event>
<event>
 8    1  0.1131349E+005  0.1043930E+01  0.7957747E-01            NaN
         13   -1    0    0    0    0  0.00000000000E+00  0.00000000000E+00  0.74505805969E-08  0.10566000000E+00  0.10566000000E+00 0. -1.
     999900   -1    0    0    0    0 -0.00000000000E+00 -0.00000000000E+00 -0.74505805969E-08  0.93827000000E+00  0.93827000000E+00 0.  1.
     999902    2    1    2    0    0  0.27701122685E-02 -0.27539519102E-01  0.37619039257E-03  0.10162489568E+01  0.10158718925E+01 0.  0.
     999903    2    3    3    0    0  0.80466074205E-01 -0.22637580543E-01  0.94676967788E-01  0.12779337088E+00  0.19497904012E-01 0.  0.
         14    1    1    2    0    0 -0.27701122685E-02  0.27539519102E-01 -0.37619039257E-03  0.27681043217E-01  0.00000000000E+00 0. -1.
     999901    1    3    3    0    0 -0.77695961937E-01 -0.49019385598E-02 -0.94300777395E-01  0.88845558590E+00  0.88000000000E+00 0.  1.
        -11    1    4    4    0    0  0.23467245441E-01  0.14091823141E-02  0.32163126146E-01  0.39842505040E-01  0.51100000000E-03 0.  1.
         11    1    4    4    0    0  0.56998828764E-01 -0.24046762857E-01  0.62513841642E-01  0.87950865841E-01  0.51100000000E-03 0. -1.
</event>
<event>
 8    1  0.1131349E+005  0.1043930E+01  0.7957747E-01            NaN
         13   -1    0    0    0    0  0.00000000000E+00  0.00000000000E+00  0.74505805969E-08  0.10566000000E+00  0.10566000000E+00 0. -1.
     999900   -1    0    0    0    0 -0.00000000000E+00 -0.00000000000E+00 -0.74505805969E-08  0.93827000000E+00  0.93827000000E+00 0.  1.
     999902    2    1    2    0    0  0.14591706636E-01  0.85187083028E-02 -0.20424257390E-01  0.10174227070E+01  0.10170773462E+01 0.  0.
     999903    2    3    3    0    0 -0.20887207232E-01 -0.93592193514E-01 -0.83489819413E-01  0.12856801991E+00  0.19063359763E-01 0.  0.
         14    1    1    2    0    0 -0.14591706636E-01 -0.85187083028E-02  0.20424257390E-01  0.26507293027E-01  0.00000000000E+00 0.  1.
     999901    1    3    3    0    0  0.35478913868E-01  0.10211090182E+00  0.63065562023E-01  0.88885468706E+00  0.88000000000E+00 0.  1.
        -11    1    4    4    0    0 -0.21196396888E-02 -0.51095188676E-01 -0.39956011469E-01  0.64899577439E-01  0.51100000000E-03 0. -1.
         11    1    4    4    0    0 -0.18767567543E-01 -0.42497004839E-01 -0.43533807943E-01  0.63668442472E-01  0.51100000000E-03 0.  1.
</event>
<event>
 8    1  0.1131349E+005  0.1043930E+01  0.7957747E-01            NaN
         13   -1    0    0    0    0  0.00000000000E+00  0.00000000000E+00  0.74505805969E-08  0.10566000000E+00  0.10566000000E+00 0.  1.
     999900   -1    0    0    0    0 -0.00000000000E+00 -0.00000000000E+00 -0.74505805969E-08  0.93827000000E+00  0.93827000000E+00 0.  1.
     999902    2    1    2    0    0  0.78443361687E-02  0.76010616521E-02  0.17228900820E-01  0.10235303732E+01  0.10233270641E+01 0.  0.
     999903    2    3    3    0    0  0.11088972235E+00 -0.27407947362E-01  0.69791462745E-01  0.13526982293E+00  0.19476925398E-01 0.  0.
         14    1    1    2    0    0 -0.78443361687E-02 -0.76010616521E-02 -0.17228900820E-01  0.20399626752E-01  0.00000000000E+00 0. -1.
     999901    1    3    3    0    0 -0.10304538618E+00  0.35009009014E-01 -0.52562561925E-01  0.88826055031E+00  0.88000000000E+00 0.  1.
        -11    1    4    4    0    0  0.76738749151E-01 -0.12976421266E-01  0.38903520105E-01  0.87011310344E-01  0.51100000000E-03 0. -1.
         11    1    4    4    0    0  0.34150973200E-01 -0.14431526097E-01  0.30887942639E-01  0.48258512591E-01  0.51100000000E-03 0.  1.
</event>
<event>
 8    1  0.1131349E+005  0.1043930E+01  0.7957747E-01            NaN
         13   -1    0    0    0    0  0.00000000000E+00  0.00000000000E+00  0.74505805969E-08  0.10566000000E+00  0.10566000000E+00 0. -1.
     999900   -1    0    0    0    0 -0.00000000000E+00 -0.00000000000E+00 -0.74505805969E-08  0.93827000000E+00  0.93827000000E+00 0. -1.
     999902    2    1    2    0    0 -0.16051251709E-01 -0.15432759830E-01 -0.76155182463E-02  0.10203968558E+01  0.10201254504E+01 0.  0.
     999903    2    3    3    0    0 -0.12234936650E-01  0.10150785305E+00  0.75564409552E-01  0.12876432411E+00  0.20414045784E-01 0.  0.
         14    1    1    2    0    0  0.16051251709E-01  0.15432759830E-01  0.76155182463E-02  0.23533144192E-01  0.00000000000E+00 0. -1.
     999901    1    3    3    0    0 -0.38163150589E-02 -0.11694061288E+00 -0.83179927798E-01  0.89163253170E+00  0.88000000000E+00 0. -1.
        -11    1    4    4    0    0 -0.18032251375E-02  0.21221188696E-01  0.26852226620E-01  0.34276721927E-01  0.51100000000E-03 0.  1.
         11    1    4    4    0    0 -0.10431711513E-01  0.80286664356E-01  0.48712182932E-01  0.94487602178E-01  0.51100000000E-03 0. -1.
</event>
<event>
 8    1  0.1131349E+005  0.1043930E+01  0.7957747E-01            NaN
         13   -1    0    0    0    0  0.00000000000E+00  0.00000000000E+00  0.74505805969E-08  0.10566000000E+00  0.10566000000E+00 0. -1.
     999900   -1    0    0    0    0 -0.00000000000E+00 -0.00000000000E+00 -0.74505805969E-08  0.93827000000E+00  0.93827000000E+00 0.  1.
     999902    2    1    2    0    0  0.13788756357E-01 -0.18542990113E-01 -0.67441423170E-02  0.10198581131E+01  0.10195739871E+01 0.  0.
     999903    2    3    3    0    0  0.68968482532E-02  0.92579497834E-01 -0.87605508280E-01  0.12916497500E+00  0.19756916515E-01 0.  0.
         14    1    1    2    0    0 -0.13788756357E-01  0.18542990113E-01  0.67441423170E-02  0.24071886918E-01  0.00000000000E+00 0. -1.
     999901    1    3    3    0    0  0.68919081038E-02 -0.11112248795E+00  0.80861365963E-01  0.89069313808E+00  0.88000000000E+00 0. -1.
        -11    1    4    4    0    0  0.12069419476E-01  0.36425430170E-01 -0.32001760971E-01  0.49968556872E-01  0.51100000000E-03 0.  1.
         11    1    4    4    0    0 -0.51725712228E-02  0.56154067664E-01 -0.55603747309E-01  0.79196418126E-01  0.51100000000E-03 0. -1.
</event>
<event>
 8    1  0.1212613E+005  0.1043930E+01  0.7957747E-01            NaN
         13   -1    0    0    0    0  0.00000000000E+00  0.00000000000E+00  0.74505805969E-08  0.10566000000E+00  0.10566000000E+00 0. -1.
     999900   -1    0    0    0    0 -0.00000000000E+00 -0.00000000000E+00 -0.74505805969E-08  0.93827000000E+00  0.93827000000E+00 0.  1.
     999902    2    1    2    0    0 -0.16808523083E-02  0.21193866270E-01  0.11411525990E-01  0.10198005956E+01  0.10195150939E+01 0.  0.
     999903    2    3    3    0    0  0.29152931391E-01  0.14061699282E-01 -0.12335822345E+00  0.12897823653E+00  0.19248621058E-01 0.  0.
         14    1    1    2    0    0  0.16808523083E-02 -0.21193866270E-01 -0.11411525990E-01  0.24129404414E-01  0.00000000000E+00 0.  1.
     999901    1    3    3    0    0 -0.30833783700E-01  0.71321669885E-02  0.13476974944E+00  0.89082235905E+00  0.88000000000E+00 0. -1.
        -11    1    4    4    0    0  0.60452626474E-02  0.71848242632E-02 -0.67293305837E-01  0.67947163529E-01  0.51100000000E-03 0.  1.
         11    1    4    4    0    0  0.23107668744E-01  0.68768750183E-02 -0.56064917608E-01  0.61031073006E-01  0.51100000000E-03 0. -1.
</event>
<event>
 8    1  0.1131349E+005  0.1043930E+01  0.7957747E-01            NaN
         13   -1    0    0    0    0  0.00000000000E+00  0.00000000000E+00  0.74505805969E-08  0.10566000000E+00  0.10566000000E+00 0.  1.
     999900   -1    0    0    0    0 -0.00000000000E+00 -0.00000000000E+00 -0.74505805969E-08  0.93827000000E+00  0.93827000000E+00 0.  1.
     999902    2    1    2    0    0 -0.66630872497E-02  0.20744234063E-01 -0.53315243960E-02  0.10214991032E+01  0.10212527957E+01 0.  0.
     999903    2    3    3    0    0  0.80336248017E-01  0.94323454100E-01  0.43560441329E-01  0.13280724982E+00  0.19733900220E-01 0.  0.
         14    1    1    2    0    0  0.66630872497E-02 -0.20744234063E-01  0.53315243960E-02  0.22430896794E-01  0.00000000000E+00 0.  1.
     999901    1    3    3    0    0 -0.86999335266E-01 -0.73579220037E-01 -0.48891965725E-01  0.88869185338E+00  0.88000000000E+00 0.  1.
        -11    1    4    4    0    0  0.61709141055E-01  0.71978751562E-01  0.41922113869E-01  0.10366621204E+00  0.51100000000E-03 0.  1.
         11    1    4    4    0    0  0.18627106961E-01  0.22344702538E-01  0.16383274606E-02  0.29141037784E-01  0.51100000000E-03 0. -1.
</event>
<event>
 8    1  0.1131349E+005  0.1043930E+01  0.7957747E-01            NaN
         13   -1    0    0    0    0  0.00000000000E+00  0.00000000000E+00  0.74505805969E-08  0.10566000000E+00  0.10566000000E+00 0.  1.
     999900   -1    0    0    0    0 -0.00000000000E+00 -0.00000000000E+00 -0.74505805969E-08  0.93827000000E+00  0.93827000000E+00 0.  1.
     999902    2    1    2    0    0  0.15076603100E-01  0.12043355231E-01 -0.13019129008E-01  0.10206524553E+01  0.10203869807E+01 0.  0.
     999903    2    3    3    0    0  0.10179774782E+00 -0.76607452465E-01  0.23760087927E-01  0.13119631056E+00  0.20407030463E-01 0.  0.
         14    1    1    2    0    0 -0.15076603100E-01 -0.12043355231E-01  0.13019129008E-01  0.23277544681E-01  0.00000000000E+00 0.  1.
     999901    1    3    3    0    0 -0.86721144720E-01  0.88650807695E-01 -0.36779216935E-01  0.88945614476E+00  0.88000000000E+00 0. -1.
        -11    1    4    4    0    0  0.68222421520E-01 -0.44401072977E-01  0.68381680764E-02  0.81687059827E-01  0.51100000000E-03 0. -1.
         11    1    4    4    0    0  0.33575326300E-01 -0.32206379488E-01  0.16921919851E-01  0.49509250735E-01  0.51100000000E-03 0.  1.
</event>
<event>
 8    1  0.1131349E+005  0.1043930E+01  0.7957747E-01            NaN
         13   -1    0    0    0    0  0.00000000000E+00  0.00000000000E+00  0.74505805969E-08  0.10566000000E+00  0.10566000000E+00 0.  1.
     999900   -1    0    0    0    0 -0.00000000000E+00 -0.00000000000E+00 -0.74505805969E-08  0.93827000000E+00  0.93827000000E+00 0.  1.
     999902    2    1    2    0    0  0.77353324555E-02 -0.79574528845E-02 -0.20749942569E-01  0.10203988177E+01  0.10201274580E+01 0.  0.
     999903    2    3    3    0    0 -0.24308762273E-01 -0.12705678712E+00  0.95910606202E-02  0.13128012375E+00  0.20202459525E-01 0.  0.
         14    1    1    2    0    0 -0.77353324555E-02  0.79574528845E-02  0.20749942569E-01  0.23531182317E-01  0.00000000000E+00 0.  1.
     999901    1    3    3    0    0  0.32044094728E-01  0.11909933424E+00 -0.30341003190E-01  0.88911869393E+00  0.88000000000E+00 0. -1.
        -11    1    4    4    0    0 -0.86768650701E-03 -0.21382206173E-01  0.84955208914E-02  0.23030124118E-01  0.51100000000E-03 0.  1.
         11    1    4    4    0    0 -0.23441075766E-01 -0.10567458095E+00  0.10955397289E-02  0.10824999963E+00  0.51100000000E-03 0. -1.
</event>
<event>
 8    1  0.1131349E+005  0.1043930E+01  0.7957747E-01            NaN
         13   -1    0    0    0    0  0.00000000000E+00  0.00000000000E+00  0.74505805969E-08  0.10566000000E+00  0.10566000000E+00 0.  1.
     999900   -1    0    0    0    0 -0.00000000000E+00 -0.00000000000E+00 -0.74505805969E-08  0.93827000000E+00  0.93827000000E+00 0. -1.
     999902    2    1    2    0    0  0.87959885684E-02 -0.10932564673E-01  0.19943241376E-01  0.10195451018E+01  0.10192534480E+01 0.  0.
     999903    2    3    3    0    0  0.31012475287E-01  0.10954609350E+00 -0.52286404288E-01  0.12812724180E+00  0.26844027162E-01 0.  0.
         14    1    1    2    0    0 -0.87959885684E-02  0.10932564673E-01 -0.19943241376E-01  0.24384898233E-01  0.00000000000E+00 0. -1.
     999901    1    3    3    0    0 -0.22216486718E-01 -0.12047865817E+00  0.72229645664E-01  0.89141785997E+00  0.88000000000E+00 0.  1.
        -11    1    4    4    0    0  0.20065061602E-01  0.96639842427E-01 -0.37296962657E-01  0.10551393456E+00  0.51100000000E-03 0. -1.
         11    1    4    4    0    0  0.10947413685E-01  0.12906251069E-01 -0.14989441631E-01  0.22613307242E-01  0.51100000000E-03 0.  1.
</event>
<event>
 8    1  0.1131349E+005  0.1043930E+01  0.7957747E-01            NaN
         13   -1    0    0    0    0  0.00000000000E+00  0.00000000000E+00  0.74505805969E-08  0.10566000000E+00  0.10566000000E+00 0. -1.
     999900   -1    0    0    0    0 -0.00000000000E+00 -0.00000000000E+00 -0.74505805969E-08  0.93827000000E+00  0.93827000000E+00 0.  1.
     999902    2    1    2    0    0  0.17490374847E-01 -0.36995119318E-02 -0.14006075821E-01  0.10212194350E+01  0.10209668774E+01 0.  0.
     999903    2    3    3    0    0  0.13675522328E-01  0.31187494064E-01 -0.12728308909E+00  0.13326485398E+00  0.19971400638E-01 0.  0.
         14    1    1    2    0    0 -0.17490374847E-01  0.36995119318E-02  0.14006075821E-01  0.22710564958E-01  0.00000000000E+00 0. -1.
     999901    1    3    3    0    0  0.38148525185E-02 -0.34887005995E-01  0.11327701326E+00  0.88795458106E+00  0.88000000000E+00 0. -1.
        -11    1    4    4    0    0  0.88372954904E-02  0.74412497417E-02 -0.71696026514E-01  0.72622664012E-01  0.51100000000E-03 0.  1.
         11    1    4    4    0    0  0.48382268379E-02  0.23746244322E-01 -0.55587062572E-01  0.60642189972E-01  0.51100000000E-03 0. -1.
</event>
<event>
 8    1  0.1131349E+005  0.1043930E+01  0.7957747E-01            NaN
         13   -1    0    0    0    0  0.00000000000E+00  0.00000000000E+00  0.74505805969E-08  0.10566000000E+00  0.10566000000E+00 0.  1.
     999900   -1    0    0    0    0 -0.00000000000E+00 -0.00000000000E+00 -0.74505805969E-08  0.93827000000E+00  0.93827000000E+00 0. -1.
     999902    2    1    2    0    0  0.27228469092E-02  0.13908702152E-01  0.18481428164E-01  0.10206398931E+01  0.10203741286E+01 0.  0.
     999903    2    3    3    0    0  0.89654974063E-01  0.46494666707E-01 -0.79842089275E-01  0.13031042945E+00  0.20156398434E-01 0.  0.
         14    1    1    2    0    0 -0.27228469092E-02 -0.13908702152E-01 -0.18481428164E-01  0.23290106866E-01  0.00000000000E+00 0. -1.
     999901    1    3    3    0    0 -0.86932127154E-01 -0.32585964554E-01  0.98323517440E-01  0.89032946368E+00  0.88000000000E+00 0.  1.
        -11    1    4    4    0    0  0.21362954763E-01  0.19853272324E-02 -0.17252358377E-01  0.27535837576E-01  0.51100000000E-03 0. -1.
         11    1    4    4    0    0  0.68292019300E-01  0.44509339474E-01 -0.62589730898E-01  0.10277459188E+00  0.51100000000E-03 0.  1.
</event>
<event>
 8    1  0.1131349E+005  0.1043930E+01  0.7957747E-01            NaN
         13   -1    0    0    0    0  0.00000000000E+00  0.00000000000E+00  0.74505805969E-08  0.10566000000E+00  0.10566000000E+00 0.  1.
     999900   -1    0    0    0    0 -0.00000000000E+00 -0.00000000000E+00 -0.74505805969E-08  0.93827000000E+00  0.93827000000E+00 0.  1.
     999902    2    1    2    0    0 -0.23732394698E-01 -0.13612263028E-02  0.16391769287E-02  0.10201021508E+01  0.10198238239E+01 0.  0.
     999903    2    3    3    0    0  0.78620600201E-01  0.66865559439E-02 -0.99603146140E-01  0.12836737504E+00  0.18206796757E-01 0.  0.
         14    1    1    2    0    0  0.23732394698E-01  0.13612263028E-02 -0.16391769287E-02  0.23827849172E-01  0.00000000000E+00 0.  1.
     999901    1    3    3    0    0 -0.10235299490E+00 -0.80477822467E-02  0.10124232307E+00  0.89173477578E+00  0.88000000000E+00 0. -1.
        -11    1    4    4    0    0  0.48809665393E-01  0.10091248551E-01 -0.51498312206E-01  0.71669756621E-01  0.51100000000E-03 0. -1.
         11    1    4    4    0    0  0.29810934807E-01 -0.34046926073E-02 -0.48104833935E-01  0.56697618422E-01  0.51100000000E-03 0.  1.
</event>
<event>
 8    1  0.1131349E+005  0.1043930E+01  0.7957747E-01            NaN
         13   -1    0    0    0    0  0.00000000000E+00  0.00000000000E+00  0.74505805969E-08  0.10566000000E+00  0.10566000000E+00 0. -1.
     999900   -1    0    0    0    0 -0.00000000000E+00 -0.00000000000E+00 -0.74505805969E-08  0.93827000000E+00  0.93827000000E+00 0. -1.
     999902    2    1    2    0    0  0.17234822032E-01  0.16686845432E-01  0.14327518887E-02  0.10198978823E+01  0.10196147055E+01 0.  0.
     999903    2    3    3    0    0  0.36830234662E-01  0.12593089265E+00 -0.90773503637E-02  0.13286422780E+00  0.18853350670E-01 0.  0.
         14    1    1    2    0    0 -0.17234822032E-01 -0.16686845432E-01 -0.14327518887E-02  0.24032117654E-01  0.00000000000E+00 0.  1.
     999901    1    3    3    0    0 -0.19595412630E-01 -0.10924404721E+00  0.10510102252E-01  0.88703365455E+00  0.88000000000E+00 0. -1.
        -11    1    4    4    0    0  0.31908253734E-01  0.11900504595E+00 -0.47156706330E-02  0.12329978219E+00  0.51100000000E-03 0.  1.
         11    1    4    4    0    0  0.49219809288E-02  0.69258466921E-02 -0.43616797307E-02  0.95644456054E-02  0.51100000000E-03 0. -1.
</event>
<event>
 8    1  0.1131349E+005  0.1043930E+01  0.7957747E-01            NaN
         13   -1    0    0    0    0  0.00000000000E+00  0.00000000000E+00  0.74505805969E-08  0.10566000000E+00  0.10566000000E+00 0. -1.
     999900   -1    0    0    0    0 -0.00000000000E+00 -0.00000000000E+00 -0.74505805969E-08  0.93827000000E+00  0.93827000000E+00 0.  1.
     999902    2    1    2    0    0 -0.18733299797E-01 -0.13775846938E-02  0.18458503342E-01  0.10175946510E+01  0.10172538145E+01 0.  0.
     999903    2    3    3    0    0  0.59604417865E-01 -0.10910997759E+00  0.21985148413E-01  0.12756346969E+00  0.18204895249E-01 0.  0.
         14    1    1    2    0    0  0.18733299797E-01  0.13775846938E-02 -0.18458503342E-01  0.26335348991E-01  0.00000000000E+00 0.  1.
     999901    1    3    3    0    0 -0.78337717661E-01  0.10773239290E+00 -0.35266450718E-02  0.89003118131E+00  0.88000000000E+00 0.  1.
        -11    1    4    4    0    0  0.26411934585E-01 -0.66386072512E-01  0.15038390766E-01  0.73014486439E-01  0.51100000000E-03 0. -1.
         11    1    4    4    0    0  0.33192483280E-01 -0.42723905078E-01  0.69467576469E-02  0.54548983255E-01  0.51100000000E-03 0.  1.
</event>
<event>
 8    1  0.1131349E+005  0.1043930E+01  0.7957747E-01            NaN
         13   -1    0    0    0    0  0.00000000000E+00  0.00000000000E+00  0.74505805969E-08  0.10566000000E+00  0.10566000000E+00 0. -1.
     999900   -1    0    0    0    0 -0.00000000000E+00 -0.00000000000E+00 -0.74505805969E-08  0.93827000000E+00  0.93827000000E+00 0.  1.
     999902    2    1    2    0    0  0.21243004683E-01 -0.70333551557E-03  0.95908023579E-02  0.10206116935E+01  0.10203452776E+01 0.  0.
     999903    2    3    3    0    0 -0.32966822681E-01 -0.12354190654E+00  0.15683941831E-01  0.13040657877E+00  0.20260199569E-01 0.  0.
         14    1    1    2    0    0 -0.21243004683E-01  0.70333551557E-03 -0.95908023579E-02  0.23318306514E-01  0.00000000000E+00 0.  1.
     999901    1    3    3    0    0  0.54209827364E-01  0.12283857102E+00 -0.60931394731E-02  0.89020511471E+00  0.88000000000E+00 0. -1.
        -11    1    4    4    0    0 -0.10367557999E-01 -0.33495796849E-01 -0.46253308634E-02  0.35371025883E-01  0.51100000000E-03 0.  1.
         11    1    4    4    0    0 -0.22599264682E-01 -0.90046109690E-01  0.20309272694E-01  0.95035552889E-01  0.51100000000E-03 0. -1.
</event>
<event>
 8    1  0.1131349E+005  0.1043930E+01  0.7957747E-01            NaN
         13   -1    0    0    0    0  0.00000000000E+00  0.00000000000E+00  0.74505805969E-08  0.10566000000E+00  0.10566000000E+00 0.  1.
     999900   -1    0    0    0    0 -0.00000000000E+00 -0.00000000000E+00 -0.74505805969E-08  0.93827000000E+00  0.93827000000E+00 0. -1.
     999902    2    1    2    0    0 -0.22389667144E-02  0.80031908951E-02 -0.22015569700E-01  0.10203981207E+01  0.10201267447E+01 0.  0.
     999903    2    3    3    0    0 -0.43246767713E-01  0.63516495686E-01 -0.10781599131E+00  0.13353562900E+00  0.17402531098E-01 0.  0.
         14    1    1    2    0    0  0.22389667144E-02 -0.80031908951E-02  0.22015569700E-01  0.23531879349E-01  0.00000000000E+00 0.  1.
     999901    1    3    3    0    0  0.41007800998E-01 -0.55513304791E-01  0.85800421608E-01  0.88686249165E+00  0.88000000000E+00 0.  1.
        -11    1    4    4    0    0 -0.39542361782E-01  0.45137857712E-01 -0.80795881284E-01  0.10064422550E+00  0.51100000000E-03 0. -1.
         11    1    4    4    0    0 -0.37044059309E-02  0.18378637974E-01 -0.27020110025E-01  0.32891403494E-01  0.51100000000E-03 0.  1.
</event>
<event>
 8    1  0.1131349E+005  0.1043930E+01  0.7957747E-01            NaN
         13   -1    0    0    0    0  0.00000000000E+00  0.00000000000E+00  0.74505805969E-08  0.10566000000E+00  0.10566000000E+00 0. -1.
     999900   -1    0    0    0    0 -0.00000000000E+00 -0.00000000000E+00 -0.74505805969E-08  0.93827000000E+00  0.93827000000E+00 0. -1.
     999902    2    1    2    0    0  0.21924821228E-01  0.10666477378E-01  0.11466247506E-04  0.10195482105E+01  0.10192566320E+01 0.  0.
     999903    2    3    3    0    0 -0.12083228253E+00 -0.11884992546E-02 -0.33790355562E-01  0.12732475518E+00  0.21632201044E-01 0.  0.
         14    1    1    2    0    0 -0.21924821228E-01 -0.10666477378E-01 -0.11466247506E-04  0.24381789454E-01  0.00000000000E+00 0. -1.
     999901    1    3    3    0    0  0.14275710375E+00  0.11854976633E-01  0.33801821810E-01  0.89222345536E+00  0.88000000000E+00 0. -1.
        -11    1    4    4    0    0 -0.59296355588E-01 -0.86336298311E-02 -0.91417796954E-02  0.60617081809E-01  0.51100000000E-03 0. -1.
         11    1    4    4    0    0 -0.61535926939E-01  0.74451305765E-02 -0.24648575867E-01  0.66707673373E-01  0.51100000000E-03 0.  1.
</event>
<event>
 8    1  0.1131349E+005  0.1043930E+01  0.7957747E-01            NaN
         13   -1    0    0    0    0  0.00000000000E+00  0.00000000000E+00  0.74505805969E-08  0.10566000000E+00  0.10566000000E+00 0. -1.
     999900   -1    0    0    0    0 -0.00000000000E+00 -0.00000000000E+00 -0.74505805969E-08  0.93827000000E+00  0.93827000000E+00 0.  1.
     999902    2    1    2    0    0 -0.21971154092E-01 -0.30592797016E-02 -0.85391022962E-02  0.10201601226E+01  0.10198831642E+01 0.  0.
     999903    2    3    3    0    0  0.33416642156E-02 -0.10150894168E+00  0.78776223456E-01  0.13001572934E+00  0.19574588968E-01 0.  0.
         14    1    1    2    0    0  0.21971154092E-01  0.30592797016E-02  0.85391022962E-02  0.23769877418E-01  0.00000000000E+00 0. -1.
     999901    1    3    3    0    0 -0.25312818308E-01  0.98449661975E-01 -0.87315325752E-01  0.89014439324E+00  0.88000000000E+00 0.  1.
        -11    1    4    4    0    0 -0.49594801526E-02 -0.18799379132E-01  0.21921515372E-01  0.29305751251E-01  0.51100000000E-03 0.  1.
         11    1    4    4    0    0  0.83011443681E-02 -0.82709562544E-01  0.56854708083E-01  0.10070997809E+00  0.51100000000E-03 0. -1.
</event>
<event>
 8    1  0.1131349E+005  0.1043930E+01  0.7957747E-01            NaN
         13   -1    0    0    0    0  0.00000000000E+00  0.00000000000E+00  0.74505805969E-08  0.10566000000E+00  0.10566000000E+00 0. -1.
     999900   -1    0    0    0    0 -0.00000000000E+00 -0.00000000000E+00 -0.74505805969E-08  0.93827000000E+00  0.93827000000E+00 0.  1.
     999902    2    1    2    0    0  0.12159836039E-01 -0.55004241159E-02 -0.19882239871E-01  0.10199838157E+01  0.10197026844E+01 0.  0.
     999903    2    3    3    0    0  0.10653533394E+00  0.72077046764E-01  0.14930771380E-01  0.13086237053E+00  0.18898519504E-01 0.  0.
         14    1    1    2    0    0 -0.12159836039E-01  0.55004241159E-02  0.19882239871E-01  0.23946184252E-01  0.00000000000E+00 0. -1.
     999901    1    3    3    0    0 -0.94375497900E-01 -0.77577470880E-01 -0.34813011250E-01  0.88912144522E+00  0.88000000000E+00 0. -1.
        -11    1    4    4    0    0  0.58629026038E-01  0.50811345589E-01  0.95406324273E-02  0.78169305503E-01  0.51100000000E-03 0.  1.
         11    1    4    4    0    0  0.47906307901E-01  0.21265701175E-01  0.53901389523E-02  0.52693065028E-01  0.51100000000E-03 0. -1.
</event>
<event>
 8    1  0.1131349E+005  0.1043930E+01  0.7957747E-01            NaN
         13   -1    0    0    0    0  0.00000000000E+00  0.00000000000E+00  0.74505805969E-08  0.10566000000E+00  0.10566000000E+00 0.  1.
     999900   -1    0    0    0    0 -0.00000000000E+00 -0.00000000000E+00 -0.74505805969E-08  0.93827000000E+00  0.93827000000E+00 0. -1.
     999902    2    1    2    0    0 -0.35402074188E-02  0.81507157660E-02 -0.21928839518E-01  0.10202690356E+01  0.10199946390E+01 0.  0.
     999903    2    3    3    0    0 -0.72189929923E-01  0.63701543926E-02 -0.10997294976E+00  0.13321338896E+00  0.19994811085E-01 0.  0.
         14    1    1    2    0    0  0.35402074188E-02 -0.81507157660E-02  0.21928839518E-01  0.23660964450E-01  0.00000000000E+00 0.  1.
     999901    1    3    3    0    0  0.68649722504E-01  0.17805613733E-02  0.88044110241E-01  0.88705564659E+00  0.88000000000E+00 0.  1.
        -11    1    4    4    0    0 -0.32429610945E-01 -0.45382426404E-02 -0.60637810215E-01  0.68916474526E-01  0.51100000000E-03 0. -1.
         11    1    4    4    0    0 -0.39760318977E-01  0.10908397033E-01 -0.49335139544E-01  0.64296914435E-01  0.51100000000E-03 0.  1.
</event>
<event>
 8    1  0.1131349E+005  0.1043930E+01  0.7957747E-01            NaN
         13   -1    0    0    0    0  0.00000000000E+00  0.00000000000E+00  0.74505805969E-08  0.10566000000E+00  0.10566000000E+00 0.  1.
     999900   -1    0    0    0    0 -0.00000000000E+00 -0.00000000000E+00 -0.74505805969E-08  0.93827000000E+00  0.93827000000E+00 0. -1.
     999902    2    1    2    0    0 -0.51267404764E-02  0.22508796386E-01  0.13293862104E-01  0.10172906278E+01  0.10169417708E+01 0.  0.
     999903    2    3    3    0    0 -0.99309066531E-01  0.81853289086E-01  0.35822855746E-02  0.13022445546E+00  0.19578672079E-01 0.  0.
         14    1    1    2    0    0  0.51267404764E-02 -0.22508796386E-01 -0.13293862104E-01  0.26639372221E-01  0.00000000000E+00 0. -1.
     999901    1    3    3    0    0  0.94182326055E-01 -0.59344492699E-01  0.97115765293E-02  0.88706617232E+00  0.88000000000E+00 0. -1.
        -11    1    4    4    0    0 -0.55668374588E-01  0.56910737175E-01  0.64617958163E-02  0.79873749513E-01  0.51100000000E-03 0. -1.
         11    1    4    4    0    0 -0.43640691943E-01  0.24942551911E-01 -0.28795102416E-02  0.50350705947E-01  0.51100000000E-03 0.  1.
</event>
<event>
 8    1  0.1131349E+005  0.1043930E+01  0.7957747E-01            NaN
         13   -1    0    0    0    0  0.00000000000E+00  0.00000000000E+00  0.74505805969E-08  0.10566000000E+00  0.10566000000E+00 0.  1.
     999900   -1    0    0    0    0 -0.00000000000E+00 -0.00000000000E+00 -0.74505805969E-08  0.93827000000E+00  0.93827000000E+00 0.  1.
     999902    2    1    2    0    0  0.12195282752E-01 -0.93635263403E-02 -0.18045874450E-01  0.10202223191E+01  0.10199468253E+01 0.  0.
     999903    2    3    3    0    0 -0.47758698252E-01 -0.32905653112E-01  0.11247313830E+00  0.12826720578E+00  0.20942635296E-01 0.  0.
         14    1    1    2    0    0 -0.12195282752E-01  0.93635263403E-02  0.18045874450E-01  0.23707680856E-01  0.00000000000E+00 0. -1.
     999901    1    3    3    0    0  0.59953981004E-01  0.23542126772E-01 -0.13051901275E+00  0.89195511337E+00  0.88000000000E+00 0.  1.
        -11    1    4    4    0    0 -0.40265490900E-01 -0.24761433148E-01  0.70686896282E-01  0.85037266865E-01  0.51100000000E-03 0.  1.
         11    1    4    4    0    0 -0.74932073520E-02 -0.81442199643E-02  0.41786242019E-01  0.43229938912E-01  0.51100000000E-03 0. -1.
</event>
<event>
 8    1  0.1131349E+005  0.1043930E+01  0.7957747E-01            NaN
         13   -1    0    0    0    0  0.00000000000E+00  0.00000000000E+00  0.74505805969E-08  0.10566000000E+00  0.10566000000E+00 0. -1.
     999900   -1    0    0    0    0 -0.00000000000E+00 -0.00000000000E+00 -0.74505805969E-08  0.93827000000E+00  0.93827000000E+00 0. -1.
     999902    2    1    2    0    0 -0.12674051220E-01  0.12879215828E-01 -0.14548125349E-01  0.10207318594E+01  0.10204682137E+01 0.  0.
     999903    2    3    3    0    0  0.20988811144E-01 -0.11291091864E+00 -0.57804728413E-01  0.13009866898E+00  0.19871368874E-01 0.  0.
         14    1    1    2    0    0  0.12674051220E-01 -0.12879215828E-01  0.14548125349E-01  0.23198140568E-01  0.00000000000E+00 0. -1.
     999901    1    3    3    0    0 -0.33662862364E-01  0.12579013447E+00  0.43256603065E-01  0.89063319046E+00  0.88000000000E+00 0. -1.
        -11    1    4    4    0    0  0.16700729501E-01 -0.76909129135E-01 -0.29315602937E-01  0.83985678581E-01  0.51100000000E-03 0.  1.
         11    1    4    4    0    0  0.42880816428E-02 -0.36001789506E-01 -0.28489125476E-01  0.46112990395E-01  0.51100000000E-03 0. -1.
</event>
<event>
 8    1  0.1131349E+005  0.1043930E+01  0.7957747E-01            NaN
         13   -1    0    0    0    0  0.00000000000E+00  0.00000000000E+00  0.74505805969E-08  0.10566000000E+00  0.10566000000E+00 0.  1.
     999900   -1    0    0    0    0 -0.00000000000E+00 -0.00000000000E+00 -0.74505805969E-08  0.93827000000E+00  0.93827000000E+00 0. -1.
     999902    2    1    2    0    0 -0.41923790545E-02 -0.22660722237E-01 -0.31382065030E-02  0.10206720398E+01  0.10204070168E+01 0.  0.
     999903    2    3    3    0    0  0.10509773017E+00  0.56265408748E-01 -0.46355723581E-01  0.12935760820E+00  0.19318607161E-01 0.  0.
         14    1    1    2    0    0  0.41923790545E-02  0.22660722237E-01  0.31382065030E-02  0.23257960239E-01  0.00000000000E+00 0.  1.
     999901    1    3    3    0    0 -0.10929010922E+00 -0.78926130985E-01  0.43217517078E-01  0.89131443156E+00  0.88000000000E+00 0. -1.
        -11    1    4    4    0    0  0.17724251775E-01  0.16794891898E-01 -0.49360237237E-02  0.24916720211E-01  0.51100000000E-03 0.  1.
         11    1    4    4    0    0  0.87373478392E-01  0.39470516850E-01 -0.41419699857E-01  0.10444088799E+00  0.51100000000E-03 0. -1.
</event>
<event>
 8    1  0.1131349E+005  0.1043930E+01  0.7957747E-01            NaN
         13   -1    0    0    0    0  0.00000000000E+00  0.00000000000E+00  0.74505805969E-08  0.10566000000E+00  0.10566000000E+00 0. -1.
     999900   -1    0    0    0    0 -0.00000000000E+00 -0.00000000000E+00 -0.74505805969E-08  0.93827000000E+00  0.93827000000E+00 0.  1.
     999902    2    1    2    0    0  0.44457389136E-02  0.22483728573E-01 -0.51285659910E-02  0.10204441567E+01  0.10201738539E+01 0.  0.
     999903    2    3    3    0    0 -0.71499859046E-01 -0.10407788299E+00 -0.10662599589E-01  0.12813468076E+00  0.18983408886E-01 0.  0.
         14    1    1    2    0    0 -0.44457389136E-02 -0.22483728573E-01  0.51285659910E-02  0.23485843271E-01  0.00000000000E+00 0. -1.
     999901    1    3    3    0    0  0.75945597959E-01  0.12656161156E+00  0.55340335982E-02  0.89230947597E+00  0.88000000000E+00 0. -1.
        -11    1    4    4    0    0 -0.53802576509E-01 -0.88257349532E-01 -0.13416750261E-01  0.10423217974E+00  0.51100000000E-03 0.  1.
         11    1    4    4    0    0 -0.17697282537E-01 -0.15820533458E-01  0.27541506718E-02  0.23902501020E-01  0.51100000000E-03 0. -1.
</event>
<event>
 8    1  0.1131349E+005  0.1043930E+01  0.7957747E-01            NaN
         13   -1    0    0    0    0  0.00000000000E+00  0.00000000000E+00  0.74505805969E-08  0.10566000000E+00  0.10566000000E+00 0.  1.
     999900   -1    0    0    0    0 -0.00000000000E+00 -0.00000000000E+00 -0.74505805969E-08  0.93827000000E+00  0.93827000000E+00 0.  1.
     999902    2    1    2    0    0  0.18544782893E-01 -0.99361611402E-02 -0.72689711973E-02  0.10216707499E+01  0.10214282388E+01 0.  0.
     999903    2    3    3    0    0  0.12106623277E+00 -0.20701557170E-01 -0.51100179267E-01  0.13457001371E+00  0.20304508914E-01 0.  0.
         14    1    1    2    0    0 -0.18544782893E-01  0.99361611402E-02  0.72689711973E-02  0.22259250055E-01  0.00000000000E+00 0.  1.
     999901    1    3    3    0    0 -0.10252144987E+00  0.10765396029E-01  0.43831208070E-01  0.88710073624E+00  0.88000000000E+00 0.  1.
        -11    1    4    4    0    0  0.22411068620E-01  0.22622653492E-02 -0.40895525250E-02  0.22898895215E-01  0.51100000000E-03 0. -1.
         11    1    4    4    0    0  0.98655164146E-01 -0.22963822519E-01 -0.47010626742E-01  0.11167111849E+00  0.51100000000E-03 0.  1.
</event>
<event>
 8    1  0.1131349E+005  0.1043930E+01  0.7957747E-01            NaN
         13   -1    0    0    0    0  0.00000000000E+00  0.00000000000E+00  0.74505805969E-08  0.10566000000E+00  0.10566000000E+00 0. -1.
     999900   -1    0    0    0    0 -0.00000000000E+00 -0.00000000000E+00 -0.74505805969E-08  0.93827000000E+00  0.93827000000E+00 0.  1.
     999902    2    1    2    0    0  0.20681514633E-01  0.91976642054E-03 -0.13657903603E-01  0.10191286019E+01  0.10188267752E+01 0.  0.
     999903    2    3    3    0    0  0.74144213633E-01 -0.52808280170E-01 -0.93974193084E-01  0.13222631328E+00  0.19146020147E-01 0.  0.
         14    1    1    2    0    0 -0.20681514633E-01 -0.91976642054E-03  0.13657903603E-01  0.24801398118E-01  0.00000000000E+00 0. -1.
     999901    1    3    3    0    0 -0.53462699000E-01  0.53728046591E-01  0.80316289481E-01  0.88690228860E+00  0.88000000000E+00 0.  1.
        -11    1    4    4    0    0  0.19495466310E-01 -0.44070464799E-02 -0.21419645700E-01  0.29301153702E-01  0.51100000000E-03 0.  1.
         11    1    4    4    0    0  0.54648747323E-01 -0.48401233690E-01 -0.72554547384E-01  0.10292515958E+00  0.51100000000E-03 0. -1.
</event>
<event>
 8    1  0.1131349E+005  0.1043930E+01  0.7957747E-01            NaN
         13   -1    0    0    0    0  0.00000000000E+00  0.00000000000E+00  0.74505805969E-08  0.10566000000E+00  0.10566000000E+00 0.  1.
     999900   -1    0    0    0    0 -0.00000000000E+00 -0.00000000000E+00 -0.74505805969E-08  0.93827000000E+00  0.93827000000E+00 0. -1.
     999902    2    1    2    0    0  0.79248747895E-02 -0.21567610525E-01  0.49906277117E-02  0.10204167733E+01  0.10201458324E+01 0.  0.
     999903    2    3    3    0    0  0.55531382879E-01  0.82518332083E-01 -0.79804459806E-01  0.12896264105E+00  0.19225019321E-01 0.  0.
         14    1    1    2    0    0 -0.79248747895E-02  0.21567610525E-01 -0.49906277117E-02  0.23513226685E-01  0.00000000000E+00 0. -1.
     999901    1    3    3    0    0 -0.47606508090E-01 -0.10408594261E+00  0.84795087517E-01  0.89145413226E+00  0.88000000000E+00 0.  1.
        -11    1    4    4    0    0  0.15154038879E-01  0.16392055781E-01 -0.27755113480E-01  0.35622350180E-01  0.51100000000E-03 0. -1.
         11    1    4    4    0    0  0.40377344000E-01  0.66126276302E-01 -0.52049346326E-01  0.93340290872E-01  0.51100000000E-03 0.  1.
</event>
<event>
 8    1  0.1131349E+005  0.1043930E+01  0.7957747E-01            NaN
         13   -1    0    0    0    0  0.00000000000E+00  0.00000000000E+00  0.74505805969E-08  0.10566000000E+00  0.10566000000E+00 0.  1.
     999900   -1    0    0    0    0 -0.00000000000E+00 -0.00000000000E+00 -0.74505805969E-08  0.93827000000E+00  0.93827000000E+00 0.  1.
     999902    2    1    2    0    0  0.10870467687E-02  0.23569572528E-01 -0.18628303095E-02  0.10202619507E+01  0.10199873879E+01 0.  0.
     999903    2    3    3    0    0 -0.12023209747E+00  0.47940109803E-01  0.11248402832E-01  0.13150767519E+00  0.20340370593E-01 0.  0.
         14    1    1    2    0    0 -0.10870467687E-02 -0.23569572528E-01  0.18628303095E-02  0.23668049278E-01  0.00000000000E+00 0. -1.
     999901    1    3    3    0    0  0.12131914424E+00 -0.24370537275E-01 -0.13111233142E-01  0.88875427553E+00  0.88000000000E+00 0. -1.
        -11    1    4    4    0    0 -0.22693026695E-01  0.18057180824E-01  0.19982111853E-02  0.29073857826E-01  0.51100000000E-03 0.  1.
         11    1    4    4    0    0 -0.97539070779E-01  0.29882928979E-01  0.92501916471E-02  0.10243381736E+00  0.51100000000E-03 0. -1.
</event>
<event>
 8    1  0.1131349E+005  0.1043930E+01  0.7957747E-01            NaN
         13   -1    0    0    0    0  0.00000000000E+00  0.00000000000E+00  0.74505805969E-08  0.10566000000E+00  0.10566000000E+00 0.  1.
     999900   -1    0    0    0    0 -0.00000000000E+00 -0.00000000000E+00 -0.74505805969E-08  0.93827000000E+00  0.93827000000E+00 0. -1.
     999902    2    1    2    0    0 -0.11299705102E-01  0.24444442074E-02  0.19292559452E-01  0.10214386351E+01  0.10211909831E+01 0.  0.
     999903    2    3    3    0    0 -0.10264517892E-01 -0.89863458239E-01  0.96098472425E-01  0.13328269797E+00  0.18669754204E-01 0.  0.
         14    1    1    2    0    0  0.11299705102E-01 -0.24444442074E-02 -0.19292559452E-01  0.22491364856E-01  0.00000000000E+00 0.  1.
     999901    1    3    3    0    0 -0.10351872103E-02  0.92307902446E-01 -0.76805912974E-01  0.88815593717E+00  0.88000000000E+00 0. -1.
        -11    1    4    4    0    0 -0.15550111233E-01 -0.71947959808E-01  0.74714678713E-01  0.10488498089E+00  0.51100000000E-03 0.  1.
         11    1    4    4    0    0  0.52855933417E-02 -0.17915498431E-01  0.21383793712E-01  0.28397717083E-01  0.51100000000E-03 0. -1.
</event>
<event>
 8    1  0.1131349E+005  0.1043930E+01  0.7957747E-01            NaN
         13   -1    0    0    0    0  0.00000000000E+00  0.00000000000E+00  0.74505805969E-08  0.10566000000E+00  0.10566000000E+00 0.  1.
     999900   -1    0    0    0    0 -0.00000000000E+00 -0.00000000000E+00 -0.74505805969E-08  0.93827000000E+00  0.93827000000E+00 0. -1.
     999902    2    1    2    0    0  0.27714045644E-01 -0.89483628889E-02  0.97694364258E-03  0.10147907491E+01  0.10143723027E+01 0.  0.
     999903    2    3    3    0    0  0.25784113755E-01 -0.10716453777E+00  0.58432377293E-01  0.12746258629E+00  0.26140189562E-01 0.  0.
         14    1    1    2    0    0 -0.27714045644E-01  0.89483628889E-02 -0.97694364258E-03  0.29139250904E-01  0.00000000000E+00 0.  1.
     999901    1    3    3    0    0  0.19299318888E-02  0.98216174884E-01 -0.57455433651E-01  0.88732816280E+00  0.88000000000E+00 0.  1.
        -11    1    4    4    0    0  0.19955493415E-01 -0.32223335417E-01  0.23244558677E-01  0.44464994006E-01  0.51100000000E-03 0. -1.
         11    1    4    4    0    0  0.58286203399E-02 -0.74941202356E-01  0.35187818616E-01  0.82997592288E-01  0.51100000000E-03 0.  1.
</event>
<event>
 8    1  0.1131349E+005  0.1043930E+01  0.7957747E-01            NaN
         13   -1    0    0    0    0  0.00000000000E+00  0.00000000000E+00  0.74505805969E-08  0.10566000000E+00  0.10566000000E+00 0. -1.
     999900   -1    0    0    0    0 -0.00000000000E+00 -0.00000000000E+00 -0.74505805969E-08  0.93827000000E+00  0.93827000000E+00 0. -1.
     999902    2    1    2    0    0 -0.20646390270E-01  0.35086011179E-02  0.12001927895E-01  0.10197922705E+01  0.10195065694E+01 0.  0.
     999903    2    3    3    0    0 -0.52730370743E-01  0.11462305613E+00 -0.29639145636E-01  0.13124864020E+00  0.20707235546E-01 0.  0.
         14    1    1    2    0    0  0.20646390270E-01 -0.35086011179E-02 -0.12001927895E-01  0.24137729516E-01  0.00000000000E+00 0.  1.
     999901    1    3    3    0    0  0.32083980473E-01 -0.11111445502E+00  0.41641073531E-01  0.88854363029E+00  0.88000000000E+00 0.  1.
        -11    1    4    4    0    0 -0.46297608567E-01  0.82449553707E-01 -0.26942631734E-01  0.98323771242E-01  0.51100000000E-03 0.  1.
         11    1    4    4    0    0 -0.64327621759E-02  0.32173502426E-01 -0.26965139018E-02  0.32924868957E-01  0.51100000000E-03 0. -1.
</event>
<event>
 8    1  0.1131349E+005  0.1043930E+01  0.7957747E-01            NaN
         13   -1    0    0    0    0  0.00000000000E+00  0.00000000000E+00  0.74505805969E-08  0.10566000000E+00  0.10566000000E+00 0. -1.
     999900   -1    0    0    0    0 -0.00000000000E+00 -0.00000000000E+00 -0.74505805969E-08  0.93827000000E+00  0.93827000000E+00 0. -1.
     999902    2    1    2    0    0 -0.15415831518E-01  0.17289841720E-01  0.10353558599E-02  0.10207425368E+01  0.10204791365E+01 0.  0.
     999903    2    3    3    0    0  0.81804053971E-01 -0.93121522138E-01 -0.25410954312E-01  0.12813860295E+00  0.20254970612E-01 0.  0.
         14    1    1    2    0    0  0.15415831518E-01 -0.17289841720E-01 -0.10353558599E-02  0.23187463204E-01  0.00000000000E+00 0.  1.
     999901    1    3    3    0    0 -0.97219885489E-01  0.11041136386E+00  0.26446310172E-01  0.89260393385E+00  0.88000000000E+00 0.  1.
        -11    1    4    4    0    0  0.95792989269E-02 -0.11592365666E-01 -0.10159441643E-01  0.18155475349E-01  0.51100000000E-03 0.  1.
         11    1    4    4    0    0  0.72224755044E-01 -0.81529156472E-01 -0.15251512669E-01  0.10998312760E+00  0.51100000000E-03 0. -1.
</event>
<event>
 8    1  0.1131349E+005  0.1043930E+01  0.7957747E-01            NaN
         13   -1    0    0    0    0  0.00000000000E+00  0.00000000000E+00  0.74505805969E-08  0.10566000000E+00  0.10566000000E+00 0. -1.
     999900   -1    0    0    0    0 -0.00000000000E+00 -0.00000000000E+00 -0.74505805969E-08  0.93827000000E+00  0.93827000000E+00 0. -1.
     999902    2    1    2    0    0 -0.73732963622E-02 -0.14880898197E-01  0.26352891485E-01  0.10127806578E+01  0.10123015259E+01 0.  0.
     999903    2    3    3    0    0  0.69833718331E-01 -0.15201545515E-01  0.10211038316E+00  0.12615772583E+00  0.19529624585E-01 0.  0.
         14    1    1    2    0    0  0.73732963622E-02  0.14880898197E-01 -0.26352891485E-01  0.31149342209E-01  0.00000000000E+00 0.  1.
     999901    1    3    3    0    0 -0.77207014693E-01  0.32064731758E-03 -0.75757491672E-01  0.88662293196E+00  0.88000000000E+00 0. -1.
        -11    1    4    4    0    0  0.40675493678E-01 -0.10534279140E-01  0.75490726057E-01  0.86397787382E-01  0.51100000000E-03 0. -1.
         11    1    4    4    0    0  0.29158224653E-01 -0.46672663746E-02  0.26619657101E-01  0.39759938449E-01  0.51100000000E-03 0.  1.
</event>
<event>
 8    1  0.1131349E+005  0.1043930E+01  0.7957747E-01            NaN
         13   -1    0    0    0    0  0.00000000000E+00  0.00000000000E+00  0.74505805969E-08  0.10566000000E+00  0.10566000000E+00 0.  1.
     999900   -1    0    0    0    0 -0.00000000000E+00 -0.00000000000E+00 -0.74505805969E-08  0.93827000000E+00  0.93827000000E+00 0. -1.
     999902    2    1    2    0    0  0.22583251152E-01  0.39126020613E-02  0.57318926192E-02  0.10203044570E+01  0.10200308911E+01 0.  0.
     999903    2    3    3    0    0  0.86951633261E-01  0.70819239326E-01  0.70658292443E-01  0.13304168642E+00  0.11469300268E-01 0.  0.
         14    1    1    2    0    0 -0.22583251152E-01 -0.39126020613E-02 -0.57318926192E-02  0.23625542967E-01  0.00000000000E+00 0.  1.
     999901    1    3    3    0    0 -0.64368382109E-01 -0.66906637265E-01 -0.64926399824E-01  0.88726277062E+00  0.88000000000E+00 0. -1.
        -11    1    4    4    0    0  0.22131424912E-01  0.24647679990E-01  0.19844448906E-01  0.38618277679E-01  0.51100000000E-03 0.  1.
         11    1    4    4    0    0  0.64820208349E-01  0.46171559336E-01  0.50813843537E-01  0.94423408739E-01  0.51100000000E-03 0. -1.
</event>
<event>
 8    1  0.1131349E+005  0.1043930E+01  0.7957747E-01            NaN
         13   -1    0    0    0    0  0.00000000000E+00  0.00000000000E+00  0.74505805969E-08  0.10566000000E+00  0.10566000000E+00 0. -1.
     999900   -1    0    0    0    0 -0.00000000000E+00 -0.00000000000E+00 -0.74505805969E-08  0.93827000000E+00  0.93827000000E+00 0.  1.
     999902    2    1    2    0    0  0.21682952440E-01 -0.48417876439E-02  0.93349072266E-02  0.10198315804E+01  0.10195468202E+01 0.  0.
     999903    2    3    3    0    0  0.53939252851E-01  0.10763988599E+00  0.47434939908E-01  0.13126857852E+00  0.22035837391E-01 0.  0.
         14    1    1    2    0    0 -0.21682952440E-01  0.48417876439E-02 -0.93349072266E-02  0.24098419596E-01  0.00000000000E+00 0.  1.
     999901    1    3    3    0    0 -0.32256300411E-01 -0.11248167363E+00 -0.38100032681E-01  0.88856300188E+00  0.88000000000E+00 0. -1.
        -11    1    4    4    0    0  0.29109525481E-01  0.34458958979E-01  0.16819633675E-01  0.48145046740E-01  0.51100000000E-03 0.  1.
         11    1    4    4    0    0  0.24829727370E-01  0.73180927012E-01  0.30615306233E-01  0.83123531784E-01  0.51100000000E-03 0. -1.
</event>
<event>
 8    1  0.1131349E+005  0.1043930E+01  0.7957747E-01            NaN
         13   -1    0    0    0    0  0.00000000000E+00  0.00000000000E+00  0.74505805969E-08  0.10566000000E+00  0.10566000000E+00 0.  1.
     999900   -1    0    0    0    0 -0.00000000000E+00 -0.00000000000E+00 -0.74505805969E-08  0.93827000000E+00  0.93827000000E+00 0. -1.
     999902    2    1    2    0    0  0.21376561858E-01 -0.13013448030E-01 -0.23922373417E-02  0.10187897926E+01  0.10184795587E+01 0.  0.
     999903    2    3    3    0    0  0.82337702462E-01 -0.53195624061E-01 -0.85606057960E-01  0.13185382659E+00  0.21160405505E-01 0.  0.
         14    1    1    2    0    0 -0.21376561858E-01  0.13013448030E-01  0.23922373417E-02  0.25140207358E-01  0.00000000000E+00 0.  1.
     999901    1    3    3    0    0 -0.60961140604E-01  0.40182176031E-01  0.83213820618E-01  0.88693596605E+00  0.88000000000E+00 0.  1.
        -11    1    4    4    0    0  0.52100931879E-01 -0.25599403103E-01 -0.60407892758E-01  0.83780732692E-01  0.51100000000E-03 0.  1.
         11    1    4    4    0    0  0.30236770582E-01 -0.27596220959E-01 -0.25198165202E-01  0.48073093899E-01  0.51100000000E-03 0. -1.
</event>
<event>
 8    1  0.1131349E+005  0.1043930E+01  0.7957747E-01            NaN
         13   -1    0    0    0    0  0.00000000000E+00  0.00000000000E+00  0.74505805969E-08  0.10566000000E+00  0.10566000000E+00 0. -1.
     999900   -1    0    0    0    0 -0.00000000000E+00 -0.00000000000E+00 -0.74505805969E-08  0.93827000000E+00  0.93827000000E+00 0. -1.
     999902    2    1    2    0    0  0.23415728460E-01  0.60021503832E-03 -0.32198601040E-02  0.10202863096E+01  0.10200123183E+01 0.  0.
     999903    2    3    3    0    0  0.10984275663E-01 -0.27776477845E-01  0.12524911634E+00  0.13041887247E+00  0.20725687440E-01 0.  0.
         14    1    1    2    0    0 -0.23415728460E-01 -0.60021503832E-03  0.32198601040E-02  0.23643690416E-01  0.00000000000E+00 0.  1.
     999901    1    3    3    0    0  0.12431452797E-01  0.28376692884E-01 -0.12846897645E+00  0.88986743711E+00  0.88000000000E+00 0. -1.
        -11    1    4    4    0    0  0.14738364471E-01 -0.24431391360E-01  0.80959127143E-01  0.85841444885E-01  0.51100000000E-03 0. -1.
         11    1    4    4    0    0 -0.37540888077E-02 -0.33450864859E-02  0.44289989198E-01  0.44577427590E-01  0.51100000000E-03 0.  1.
</event>
<event>
 8    1  0.1131349E+005  0.1043930E+01  0.7957747E-01            NaN
         13   -1    0    0    0    0  0.00000000000E+00  0.00000000000E+00  0.74505805969E-08  0.10566000000E+00  0.10566000000E+00 0.  1.
     999900   -1    0    0    0    0 -0.00000000000E+00 -0.00000000000E+00 -0.74505805969E-08  0.93827000000E+00  0.93827000000E+00 0. -1.
     999902    2    1    2    0    0 -0.17478036649E-01  0.54768828489E-02  0.13923284003E-01  0.10209227001E+01  0.10206634233E+01 0.  0.
     999903    2    3    3    0    0  0.96095521358E-01  0.57988724697E-01 -0.60280119312E-01  0.12897954515E+00  0.20124335176E-01 0.  0.
         14    1    1    2    0    0  0.17478036649E-01 -0.54768828489E-02 -0.13923284003E-01  0.23007299891E-01  0.00000000000E+00 0.  1.
     999901    1    3    3    0    0 -0.11357355801E+00 -0.52511841848E-01  0.74203403314E-01  0.89194315496E+00  0.88000000000E+00 0.  1.
        -11    1    4    4    0    0  0.25947322851E-01  0.24681761068E-01 -0.25051005542E-01  0.43706600099E-01  0.51100000000E-03 0. -1.
         11    1    4    4    0    0  0.70148198507E-01  0.33306963628E-01 -0.35229113770E-01  0.85272945052E-01  0.51100000000E-03 0.  1.
</event>
<event>
 8    1  0.1131349E+005  0.1043930E+01  0.7957747E-01            NaN
         13   -1    0    0    0    0  0.00000000000E+00  0.00000000000E+00  0.74505805969E-08  0.10566000000E+00  0.10566000000E+00 0.  1.
     999900   -1    0    0    0    0 -0.00000000000E+00 -0.00000000000E+00 -0.74505805969E-08  0.93827000000E+00  0.93827000000E+00 0. -1.
     999902    2    1    2    0    0 -0.35378481348E-03  0.15723695023E-01  0.18462796689E-01  0.10196764516E+01  0.10193879690E+01 0.  0.
     999903    2    3    3    0    0 -0.10499555011E+00 -0.64498725390E-02 -0.72811244103E-01  0.12851287701E+00  0.12182606012E-01 0.  0.
         14    1    1    2    0    0  0.35378481348E-03 -0.15723695023E-01 -0.18462796689E-01  0.24253548410E-01  0.00000000000E+00 0. -1.
     999901    1    3    3    0    0  0.10464176530E+00  0.22173567562E-01  0.91274040792E-01  0.89116357458E+00  0.88000000000E+00 0.  1.
        -11    1    4    4    0    0 -0.22725574656E-01  0.33854954413E-02 -0.17573389223E-01  0.28930925540E-01  0.51100000000E-03 0.  1.
         11    1    4    4    0    0 -0.82269975457E-01 -0.98353679803E-02 -0.55237854881E-01  0.99581951466E-01  0.51100000000E-03 0. -1.
</event>
<event>
 7    1  0.1131349E+005  0.1043930E+01  0.7957747E-01            NaN
         13   -1    0    0    0    0  0.00000000000E+00  0.00000000000E+00  0.74505805969E-08  0.10566000000E+00  0.10566000000E+00 0.  1.
     999900   -1    0    0    0    0 -0.00000000000E+00 -0.00000000000E+00 -0.74505805969E-08  0.93827000000E+00  0.93827000000E+00 0. -1.
     999902    2    1    2    0    0 -0.19391693115E-02 -0.23280896210E-01  0.88577463281E-02  0.10189456013E+01  0.10186392484E+01 0.  0.
         14    1    1    2    0    0  0.19391693115E-02  0.23280896210E-01 -0.88577463281E-02  0.24984398651E-01  0.00000000000E+00 0. -1.
     999901    1    3    3    0    0 -0.19348303145E-01  0.67695988192E-01  0.94555230571E-01  0.88786136039E+00  0.88000000000E+00 0.  1.
        -11    1    3    3    0    0  0.14051078568E-01 -0.26371706406E-01 -0.47007370176E-01  0.55703264533E-01  0.51100000000E-03 0. -1.
         11    1    3    3    0    0  0.33580552654E-02 -0.64605177995E-01 -0.38690114066E-01  0.75380976423E-01  0.51100000000E-03 0.  1.
</event>
<event>
 7    1  0.1131349E+005  0.1043930E+01  0.7957747E-01            NaN
         13   -1    0    0    0    0  0.00000000000E+00  0.00000000000E+00  0.74505805969E-08  0.10566000000E+00  0.10566000000E+00 0. -1.
     999900   -1    0    0    0    0 -0.00000000000E+00 -0.00000000000E+00 -0.74505805969E-08  0.93827000000E+00  0.93827000000E+00 0. -1.
     999903    2    1    2    0    0  0.28945107843E-02  0.55845060549E-01  0.86015625880E-01  0.10446885663E+00  0.19697845837E-01 0.  0.
         14    1    1    2    0    0 -0.49505373831E-01  0.12075700853E-01 -0.13085366279E-01  0.52610183424E-01  0.00000000000E+00 0.  1.
     999901    1    1    2    0    0  0.46610863047E-01 -0.67920761402E-01 -0.72930259601E-01  0.88685095994E+00  0.88000000000E+00 0. -1.
        -11    1    3    3    0    0  0.10073159117E-01  0.23046409006E-01  0.29915471613E-01  0.39087108687E-01  0.51100000000E-03 0. -1.
         11    1    3    3    0    0 -0.71786483329E-02  0.32798651543E-01  0.56100154267E-01  0.65381747948E-01  0.51100000000E-03 0.  1.
</event>
<event>
 8    1  0.1131349E+005  0.1043930E+01  0.7957747E-01            NaN
         13   -1    0    0    0    0  0.00000000000E+00  0.00000000000E+00  0.74505805969E-08  0.10566000000E+00  0.10566000000E+00 0.  1.
     999900   -1    0    0    0    0 -0.00000000000E+00 -0.00000000000E+00 -0.74505805969E-08  0.93827000000E+00  0.93827000000E+00 0.  1.
     999902    2    1    2    0    0 -0.21873289239E-01 -0.96088710652E-02  0.48109599232E-02  0.10195595974E+01  0.10192682945E+01 0.  0.
     999903    2    3    3    0    0  0.10509381182E-01 -0.84446110335E-01  0.94206320806E-01  0.13127992287E+00  0.33436426604E-01 0.  0.
         14    1    1    2    0    0  0.21873289239E-01  0.96088710652E-02 -0.48109599232E-02  0.24370402555E-01  0.00000000000E+00 0. -1.
     999901    1    3    3    0    0 -0.32382670421E-01  0.74837239270E-01 -0.89395360883E-01  0.88827967458E+00  0.88000000000E+00 0.  1.
        -11    1    4    4    0    0  0.59177591150E-02 -0.28112223724E-01  0.56344610741E-01  0.63247871713E-01  0.51100000000E-03 0. -1.
         11    1    4    4    0    0  0.45916220670E-02 -0.56333886611E-01  0.37861710065E-01  0.68032051152E-01  0.51100000000E-03 0.  1.
</event>
<event>
 8    1  0.1131349E+005  0.1043930E+01  0.7957747E-01            NaN
         13   -1    0    0    0    0  0.00000000000E+00  0.00000000000E+00  0.74505805969E-08  0.10566000000E+00  0.10566000000E+00 0.  1.
     999900   -1    0    0    0    0 -0.00000000000E+00 -0.00000000000E+00 -0.74505805969E-08  0.93827000000E+00  0.93827000000E+00 0.  1.
     999902    2    1    2    0    0 -0.82868610707E-02 -0.23061740689E-01 -0.12705556861E-02  0.10193916573E+01  0.10190962765E+01 0.  0.
     999903    2    3    3    0    0 -0.12272302710E+00  0.50425079968E-02  0.39506697697E-01  0.13060131686E+00  0.20237503194E-01 0.  0.
         14    1    1    2    0    0  0.82868610707E-02  0.23061740689E-01  0.12705556861E-02  0.24538342686E-01  0.00000000000E+00 0.  1.
     999901    1    3    3    0    0  0.11443616603E+00 -0.28104248686E-01 -0.40777253384E-01  0.88879034045E+00  0.88000000000E+00 0.  1.
        -11    1    4    4    0    0 -0.20577166860E-01  0.16891595369E-02  0.14934505245E-01  0.25486734272E-01  0.51100000000E-03 0.  1.
         11    1    4    4    0    0 -0.10214586024E+00  0.33533484599E-02  0.24572192452E-01  0.10511458259E+00  0.51100000000E-03 0. -1.
</event>
<event>
 8    1  0.1131349E+005  0.1043930E+01  0.7957747E-01            NaN
         13   -1    0    0    0    0  0.00000000000E+00  0.00000000000E+00  0.74505805969E-08  0.10566000000E+00  0.10566000000E+00 0.  1.
     999900   -1    0    0    0    0 -0.00000000000E+00 -0.00000000000E+00 -0.74505805969E-08  0.93827000000E+00  0.93827000000E+00 0. -1.
     999902    2    1    2    0    0 -0.93776981360E-02  0.18497544424E-01  0.85181413646E-02  0.10215099397E+01  0.10212638727E+01 0.  0.
     999903    2    3    3    0    0 -0.40095113012E-02  0.13247636627E+00  0.43765739359E-02  0.13413338949E+00  0.20163034904E-01 0.  0.
         14    1    1    2    0    0  0.93776981360E-02 -0.18497544424E-01 -0.85181413646E-02  0.22420060311E-01  0.00000000000E+00 0. -1.
     999901    1    3    3    0    0 -0.53681868348E-02 -0.11397882184E+00  0.41415674287E-02  0.88737655020E+00  0.88000000000E+00 0.  1.
        -11    1    4    4    0    0  0.30589835865E-02  0.35222453727E-01 -0.67220527132E-02  0.35992023294E-01  0.51100000000E-03 0.  1.
         11    1    4    4    0    0 -0.70684948877E-02  0.97253912541E-01  0.11098626649E-01  0.98141366197E-01  0.51100000000E-03 0. -1.
</event>
<event>
 8    1  0.1131349E+005  0.1043930E+01  0.7957747E-01            NaN
         13   -1    0    0    0    0  0.00000000000E+00  0.00000000000E+00  0.74505805969E-08  0.10566000000E+00  0.10566000000E+00 0. -1.
     999900   -1    0    0    0    0 -0.00000000000E+00 -0.00000000000E+00 -0.74505805969E-08  0.93827000000E+00  0.93827000000E+00 0.  1.
     999902    2    1    2    0    0 -0.75542013115E-03 -0.22613596088E-01 -0.42995682454E-02  0.10208988977E+01  0.10206390780E+01 0.  0.
     999903    2    3    3    0    0 -0.14600943115E-01 -0.12311416016E+00 -0.46969711639E-01  0.13404332711E+00  0.19778163734E-01 0.  0.
         14    1    1    2    0    0  0.75542013115E-03  0.22613596088E-01  0.42995682454E-02  0.23031102334E-01  0.00000000000E+00 0.  1.
     999901    1    3    3    0    0  0.13845522984E-01  0.10050056407E+00  0.42670143393E-01  0.88685557055E+00  0.88000000000E+00 0.  1.
        -11    1    4    4    0    0 -0.58072737338E-02 -0.29264370924E-01 -0.20268876250E-01  0.36072375847E-01  0.51100000000E-03 0.  1.
         11    1    4    4    0    0 -0.87936693816E-02 -0.93849789234E-01 -0.26700835389E-01  0.97970951266E-01  0.51100000000E-03 0. -1.
</event>
<event>
 8    1  0.1131349E+005  0.1043930E+01  0.7957747E-01            NaN
         13   -1    0    0    0    0  0.00000000000E+00  0.00000000000E+00  0.74505805969E-08  0.10566000000E+00  0.10566000000E+00 0.  1.
     999900   -1    0    0    0    0 -0.00000000000E+00 -0.00000000000E+00 -0.74505805969E-08  0.93827000000E+00  0.93827000000E+00 0. -1.
     999902    2    1    2    0    0 -0.59173321269E-03  0.23193137841E-01  0.59898015620E-02  0.10199685828E+01  0.10196870895E+01 0.  0.
     999903    2    3    3    0    0  0.89794916968E-01 -0.76171506080E-02  0.92597668300E-01  0.13057556339E+00  0.18828209788E-01 0.  0.
         14    1    1    2    0    0  0.59173321269E-03 -0.23193137841E-01 -0.59898015620E-02  0.23961417192E-01  0.00000000000E+00 0. -1.
     999901    1    3    3    0    0 -0.90386650180E-01  0.30810288449E-01 -0.86607866738E-01  0.88939301942E+00  0.88000000000E+00 0.  1.
        -11    1    4    4    0    0  0.60657487241E-01 -0.13168540178E-01  0.67667188194E-01  0.91825109245E-01  0.51100000000E-03 0. -1.
         11    1    4    4    0    0  0.29137429727E-01  0.55513895700E-02  0.24930480106E-01  0.38750454146E-01  0.51100000000E-03 0.  1.
</event>
<event>
 8    1  0.1131349E+005  0.1043930E+01  0.7957747E-01            NaN
         13   -1    0    0    0    0  0.00000000000E+00  0.00000000000E+00  0.74505805969E-08  0.10566000000E+00  0.10566000000E+00 0.  1.
     999900   -1    0    0    0    0 -0.00000000000E+00 -0.00000000000E+00 -0.74505805969E-08  0.93827000000E+00  0.93827000000E+00 0. -1.
     999902    2    1    2    0    0 -0.14155587006E-01  0.44635446298E-02 -0.19915134055E-01  0.10190921974E+01  0.10187894730E+01 0.  0.
     999903    2    3    3    0    0  0.79132961697E-01  0.80682492961E-01 -0.60712748484E-01  0.12994849317E+00  0.20709484588E-01 0.  0.
         14    1    1    2    0    0  0.14155587006E-01 -0.44635446298E-02  0.19915134055E-01  0.24837802612E-01  0.00000000000E+00 0.  1.
     999901    1    3    3    0    0 -0.93288548703E-01 -0.76218948331E-01  0.40797614428E-01  0.88914370422E+00  0.88000000000E+00 0. -1.
        -11    1    4    4    0    0  0.56350731136E-02  0.10857871027E-01 -0.98478245961E-03  0.12283254036E-01  0.51100000000E-03 0.  1.
         11    1    4    4    0    0  0.73497888583E-01  0.69824621935E-01 -0.59727966024E-01  0.11766523914E+00  0.51100000000E-03 0. -1.
</event>
<event>
 8    1  0.1131349E+005  0.1043930E+01  0.7957747E-01            NaN
         13   -1    0    0    0    0  0.00000000000E+00  0.00000000000E+00  0.74505805969E-08  0.10566000000E+00  0.10566000000E+00 0. -1.
     999900   -1    0    0    0    0 -0.00000000000E+00 -0.00000000000E+00 -0.74505805969E-08  0.93827000000E+00  0.93827000000E+00 0. -1.
     999902    2    1    2    0    0 -0.20575015138E-01 -0.92318043441E-02 -0.83161064221E-02  0.10198942956E+01  0.10196110333E+01 0.  0.
     999903    2    3    3    0    0  0.89818450556E-01 -0.15601619557E-01  0.87306981579E-01  0.12783428262E+00  0.20207181604E-01 0.  0.
         14    1    1    2    0    0  0.20575015138E-01  0.92318043441E-02  0.83161064221E-02  0.24035704388E-01  0.00000000000E+00 0.  1.
     999901    1    3    3    0    0 -0.11039346569E+00  0.63698152127E-02 -0.95623088001E-01  0.89206001299E+00  0.88000000000E+00 0. -1.
        -11    1    4    4    0    0  0.66358288824E-01 -0.12869596429E-01  0.51691604165E-01  0.85096016770E-01  0.51100000000E-03 0. -1.
         11    1    4    4    0    0  0.23460161732E-01 -0.27320231275E-02  0.35615377414E-01  0.42738265854E-01  0.51100000000E-03 0.  1.
</event>
<event>
 8    1  0.1131349E+005  0.1043930E+01  0.7957747E-01            NaN
         13   -1    0    0    0    0  0.00000000000E+00  0.00000000000E+00  0.74505805969E-08  0.10566000000E+00  0.10566000000E+00 0.  1.
     999900   -1    0    0    0    0 -0.00000000000E+00 -0.00000000000E+00 -0.74505805969E-08  0.93827000000E+00  0.93827000000E+00 0.  1.
     999902    2    1    2    0    0  0.20079146453E-01  0.87315853142E-02  0.91341692425E-02  0.10202056296E+01  0.10199297431E+01 0.  0.
     999903    2    3    3    0    0  0.56947653635E-01 -0.53386824962E-01  0.10440594070E+00  0.13212078332E+00  0.21496804332E-01 0.  0.
         14    1    1    2    0    0 -0.20079146453E-01 -0.87315853142E-02 -0.91341692425E-02  0.23724370426E-01  0.00000000000E+00 0.  1.
     999901    1    3    3    0    0 -0.36868507183E-01  0.62118410276E-01 -0.95271771457E-01  0.88808484626E+00  0.88000000000E+00 0.  1.
        -11    1    4    4    0    0  0.91982782647E-02 -0.15703240144E-01  0.13189754451E-01  0.22481788575E-01  0.51100000000E-03 0. -1.
         11    1    4    4    0    0  0.47749375371E-01 -0.37683584818E-01  0.91216186249E-01  0.10963899474E+00  0.51100000000E-03 0.  1.
</event>
<event>
 8    1  0.1131349E+005  0.1043930E+01  0.7957747E-01            NaN
         13   -1    0    0    0    0  0.00000000000E+00  0.00000000000E+00  0.74505805969E-08  0.10566000000E+00  0.10566000000E+00 0.  1.
     999900   -1    0    0    0    0 -0.00000000000E+00 -0.00000000000E+00 -0.74505805969E-08  0.93827000000E+00  0.93827000000E+00 0. -1.
     999902    2    1    2    0    0 -0.11732329208E-02 -0.14135451373E-01  0.19100269883E-01  0.10201390822E+01  0.10198616275E+01 0.  0.
     999903    2    3    3    0    0 -0.50719166007E-01 -0.11542892950E+00  0.36525541585E-01  0.13277286224E+00  0.19956106669E-01 0.  0.
         14    1    1    2    0    0  0.11732329208E-02  0.14135451373E-01 -0.19100269883E-01  0.23790917817E-01  0.00000000000E+00 0.  1.
     999901    1    3    3    0    0  0.49545933086E-01  0.10129347813E+00 -0.17425271702E-01  0.88736621994E+00  0.88000000000E+00 0.  1.
        -11    1    4    4    0    0 -0.23655947178E-01 -0.49076445262E-01  0.57588414381E-02  0.54786190707E-01  0.51100000000E-03 0. -1.
         11    1    4    4    0    0 -0.27063218829E-01 -0.66352484241E-01  0.30766700146E-01  0.77986671536E-01  0.51100000000E-03 0.  1.
</event>
<event>
 8    1  0.1131349E+005  0.1043930E+01  0.7957747E-01            NaN
         13   -1    0    0    0    0  0.00000000000E+00  0.00000000000E+00  0.74505805969E-08  0.10566000000E+00  0.10566000000E+00 0. -1.
     999900   -1    0    0    0    0 -0.00000000000E+00 -0.00000000000E+00 -0.74505805969E-08  0.93827000000E+00  0.93827000000E+00 0. -1.
     999902    2    1    2    0    0  0.84877609863E-02 -0.32937102299E-02  0.22176347473E-01  0.10199574949E+01  0.10196757379E+01 0.  0.
     999903    2    3    3    0    0 -0.10876275916E+00 -0.39641156540E-01  0.57320152771E-01  0.13074216193E+00  0.20178055426E-01 0.  0.
         14    1    1    2    0    0 -0.84877609863E-02  0.32937102299E-02 -0.22176347473E-01  0.23972505102E-01  0.00000000000E+00 0.  1.
     999901    1    3    3    0    0  0.11725052015E+00  0.36347446311E-01 -0.35143805299E-01  0.88921533296E+00  0.88000000000E+00 0. -1.
        -11    1    4    4    0    0 -0.62342281129E-01 -0.12378231184E-01  0.28223518933E-01  0.69545731469E-01  0.51100000000E-03 0.  1.
         11    1    4    4    0    0 -0.46420478033E-01 -0.27262925356E-01  0.29096633839E-01  0.61196430464E-01  0.51100000000E-03 0. -1.
</event>
<event>
 8    1  0.1131349E+005  0.1043930E+01  0.7957747E-01            NaN
         13   -1    0    0    0    0  0.00000000000E+00  0.00000000000E+00  0.74505805969E-08  0.10566000000E+00  0.10566000000E+00 0. -1.
     999900   -1    0    0    0    0 -0.00000000000E+00 -0.00000000000E+00 -0.74505805969E-08  0.93827000000E+00  0.93827000000E+00 0. -1.
     999902    2    1    2    0    0 -0.79905394965E-02  0.21201001410E-01 -0.48704923426E-02  0.10207555987E+01  0.10204924984E+01 0.  0.
     999903    2    3    3    0    0 -0.83157561873E-01 -0.84415002004E-01  0.48731311531E-01  0.12964506970E+00  0.19799765495E-01 0.  0.
         14    1    1    2    0    0  0.79905394965E-02 -0.21201001410E-01  0.48704923426E-02  0.23174401349E-01  0.00000000000E+00 0. -1.
     999901    1    3    3    0    0  0.75167022377E-01  0.10561600341E+00 -0.53601803874E-01  0.89111052895E+00  0.88000000000E+00 0. -1.
        -11    1    4    4    0    0 -0.33051340126E-01 -0.45400015991E-01  0.17147881101E-01  0.58718510568E-01  0.51100000000E-03 0. -1.
         11    1    4    4    0    0 -0.50106221747E-01 -0.39014986013E-01  0.31583430430E-01  0.70926559131E-01  0.51100000000E-03 0.  1.
</event>
<event>
 8    1  0.1131349E+005  0.1043930E+01  0.7957747E-01            NaN
         13   -1    0    0    0    0  0.00000000000E+00  0.00000000000E+00  0.74505805969E-08  0.10566000000E+00  0.10566000000E+00 0.  1.
     999900   -1    0    0    0    0 -0.00000000000E+00 -0.00000000000E+00 -0.74505805969E-08  0.93827000000E+00  0.93827000000E+00 0.  1.
     999902    2    1    2    0    0  0.96341450352E-02 -0.14901002669E-01  0.10818783551E-01  0.10231477309E+01  0.10229366435E+01 0.  0.
     999903    2    3    3    0    0 -0.17038921850E-02 -0.20797888234E-01  0.13172474540E+00  0.13478880797E+00  0.19523288688E-01 0.  0.
         14    1    1    2    0    0 -0.96341450352E-02  0.14901002669E-01 -0.10818783551E-01  0.20782269092E-01  0.00000000000E+00 0. -1.
     999901    1    3    3    0    0  0.11338037220E-01  0.58968855658E-02 -0.12090596185E+00  0.88835892293E+00  0.88000000000E+00 0.  1.
        -11    1    4    4    0    0 -0.77507178234E-03 -0.11431318289E-01  0.23448832424E-01  0.26103345325E-01  0.51100000000E-03 0. -1.
         11    1    4    4    0    0 -0.92882040265E-03 -0.93665699458E-02  0.10827591297E+00  0.10868546265E+00  0.51100000000E-03 0.  1.
</event>
<event>
 8    1  0.1131349E+005  0.1043930E+01  0.7957747E-01            NaN
         13   -1    0    0    0    0  0.00000000000E+00  0.00000000000E+00  0.74505805969E-08  0.10566000000E+00  0.10566000000E+00 0.  1.
     999900   -1    0    0    0    0 -0.00000000000E+00 -0.00000000000E+00 -0.74505805969E-08  0.93827000000E+00  0.93827000000E+00 0.  1.
     999902    2    1    2    0    0 -0.14870191612E-01  0.17370806475E-01  0.39580234128E-02  0.10207236762E+01  0.10204598422E+01 0.  0.
     999903    2    3    3    0    0 -0.99620995886E-01  0.46916600313E-01 -0.71669444293E-01  0.13293137691E+00  0.20217109494E-01 0.  0.
         14    1    1    2    0    0  0.14870191612E-01 -0.17370806475E-01 -0.39580234128E-02  0.23206323826E-01  0.00000000000E+00 0. -1.
     999901    1    3    3    0    0  0.84750804274E-01 -0.29545793838E-01  0.75627467705E-01  0.88779229926E+00  0.88000000000E+00 0.  1.
        -11    1    4    4    0    0 -0.41316605175E-01  0.86654965761E-02 -0.27568090777E-01  0.50422350641E-01  0.51100000000E-03 0. -1.
         11    1    4    4    0    0 -0.58304390711E-01  0.38251103736E-01 -0.44101353515E-01  0.82509026271E-01  0.51100000000E-03 0.  1.
</event>
<event>
 8    1  0.1131349E+005  0.1043930E+01  0.7957747E-01            NaN
         13   -1    0    0    0    0  0.00000000000E+00  0.00000000000E+00  0.74505805969E-08  0.10566000000E+00  0.10566000000E+00 0.  1.
     999900   -1    0    0    0    0 -0.00000000000E+00 -0.00000000000E+00 -0.74505805969E-08  0.93827000000E+00  0.93827000000E+00 0. -1.
     999902    2    1    2    0    0  0.18145400078E-01  0.78267966371E-02 -0.13140791336E-01  0.10201982768E+01  0.10199222173E+01 0.  0.
     999903    2    3    3    0    0  0.11591792240E+00  0.51989531246E-01 -0.38486443039E-01  0.13332048627E+00  0.12380212879E-01 0.  0.
         14    1    1    2    0    0 -0.18145400078E-01 -0.78267966371E-02  0.13140791336E-01  0.23731723211E-01  0.00000000000E+00 0.  1.
     999901    1    3    3    0    0 -0.97772522318E-01 -0.44162734609E-01  0.25345651702E-01  0.88687779051E+00  0.88000000000E+00 0. -1.
        -11    1    4    4    0    0  0.42329248047E-01  0.12559736663E-01 -0.13444029664E-01  0.46157505130E-01  0.51100000000E-03 0. -1.
         11    1    4    4    0    0  0.73588674349E-01  0.39429794582E-01 -0.25042413374E-01  0.87162981144E-01  0.51100000000E-03 0.  1.
</event>
<event>
 8    1  0.1131349E+005  0.1043930E+01  0.7957747E-01            NaN
         13   -1    0    0    0    0  0.00000000000E+00  0.00000000000E+00  0.74505805969E-08  0.10566000000E+00  0.10566000000E+00 0. -1.
     999900   -1    0    0    0    0 -0.00000000000E+00 -0.00000000000E+00 -0.74505805969E-08  0.93827000000E+00  0.93827000000E+00 0. -1.
     999902    2    1    2    0    0  0.28067729649E-02 -0.76779950729E-02  0.22008731572E-01  0.10204520561E+01  0.10201819372E+01 0.  0.
     999903    2    3    3    0    0  0.12836412438E+00  0.19162699995E-01  0.51714114257E-02  0.13097548716E+00  0.16830841963E-01 0.  0.
         14    1    1    2    0    0 -0.28067729649E-02  0.76779950729E-02 -0.22008731572E-01  0.23477943867E-01  0.00000000000E+00 0.  1.
     999901    1    3    3    0    0 -0.12555735141E+00 -0.26840695068E-01  0.16837320147E-01  0.88947656898E+00  0.88000000000E+00 0. -1.
        -11    1    4    4    0    0  0.37926557502E-01 -0.40711795303E-03  0.62122580430E-02  0.38437517869E-01  0.51100000000E-03 0. -1.
         11    1    4    4    0    0  0.90437566878E-01  0.19569817948E-01 -0.10408466173E-02  0.92537969288E-01  0.51100000000E-03 0.  1.
</event>
<event>
 8    1  0.1131349E+005  0.1043930E+01  0.7957747E-01            NaN
         13   -1    0    0    0    0  0.00000000000E+00  0.00000000000E+00  0.74505805969E-08  0.10566000000E+00  0.10566000000E+00 0.  1.
     999900   -1    0    0    0    0 -0.00000000000E+00 -0.00000000000E+00 -0.74505805969E-08  0.93827000000E+00  0.93827000000E+00 0. -1.
     999902    2    1    2    0    0  0.80257244146E-02 -0.19243597586E-01  0.11625133698E-01  0.10200580073E+01  0.10197786359E+01 0.  0.
     999903    2    3    3    0    0 -0.24537617119E-01 -0.12034962711E+00  0.46391431830E-01  0.13298895934E+00  0.21160599223E-01 0.  0.
         14    1    1    2    0    0 -0.80257244146E-02  0.19243597586E-01 -0.11625133698E-01  0.23871992667E-01  0.00000000000E+00 0. -1.
     999901    1    3    3    0    0  0.32563341534E-01  0.10110602953E+00 -0.34766298132E-01  0.88706904799E+00  0.88000000000E+00 0. -1.
        -11    1    4    4    0    0 -0.13491279414E-01 -0.86614269343E-01  0.23529661926E-01  0.90763166458E-01  0.51100000000E-03 0.  1.
         11    1    4    4    0    0 -0.11046337705E-01 -0.33735357769E-01  0.22861769904E-01  0.42225792883E-01  0.51100000000E-03 0. -1.
</event>
<event>
 8    1  0.1131349E+005  0.1043930E+01  0.7957747E-01            NaN
         13   -1    0    0    0    0  0.00000000000E+00  0.00000000000E+00  0.74505805969E-08  0.10566000000E+00  0.10566000000E+00 0.  1.
     999900   -1    0    0    0    0 -0.00000000000E+00 -0.00000000000E+00 -0.74505805969E-08  0.93827000000E+00  0.93827000000E+00 0. -1.
     999902    2    1    2    0    0  0.11045511830E-01 -0.17955807291E-01 -0.13461539707E-01  0.10189174552E+01  0.10186104030E+01 0.  0.
     999903    2    3    3    0    0  0.42406916716E-01  0.93214220920E-01 -0.76256936072E-01  0.12915030885E+00  0.19427928589E-01 0.  0.
         14    1    1    2    0    0 -0.11045511830E-01  0.17955807291E-01  0.13461539707E-01  0.25012544819E-01  0.00000000000E+00 0.  1.
     999901    1    3    3    0    0 -0.31361404887E-01 -0.11117002821E+00  0.62795396365E-01  0.88976714633E+00  0.88000000000E+00 0.  1.
        -11    1    4    4    0    0  0.20299681540E-01  0.31210214134E-01 -0.37063890973E-01  0.52537107571E-01  0.51100000000E-03 0. -1.
         11    1    4    4    0    0  0.22107235176E-01  0.62004006786E-01 -0.39193045099E-01  0.76613201277E-01  0.51100000000E-03 0.  1.
</event>
<event>
 8    1  0.1131349E+005  0.1043930E+01  0.7957747E-01            NaN
         13   -1    0    0    0    0  0.00000000000E+00  0.00000000000E+00  0.74505805969E-08  0.10566000000E+00  0.10566000000E+00 0. -1.
     999900   -1    0    0    0    0 -0.00000000000E+00 -0.00000000000E+00 -0.74505805969E-08  0.93827000000E+00  0.93827000000E+00 0. -1.
     999902    2    1    2    0    0  0.98233317673E-02 -0.20076650691E-01 -0.70383171270E-02  0.10204969537E+01  0.10202278789E+01 0.  0.
     999903    2    3    3    0    0 -0.93049836293E-03  0.28599109377E-02 -0.13000785890E+00  0.13158568766E+00  0.20092409143E-01 0.  0.
         14    1    1    2    0    0 -0.98233317673E-02  0.20076650691E-01  0.70383171270E-02  0.23433046280E-01  0.00000000000E+00 0.  1.
     999901    1    3    3    0    0  0.10753830130E-01 -0.22936561629E-01  0.12296954177E+00  0.88891126606E+00  0.88000000000E+00 0.  1.
        -11    1    4    4    0    0 -0.12127409886E-02  0.86666421382E-02 -0.26475401263E-01  0.27888876271E-01  0.51100000000E-03 0.  1.
         11    1    4    4    0    0  0.28224262571E-03 -0.58067312005E-02 -0.10353245763E+00  0.10369681139E+00  0.51100000000E-03 0. -1.
</event>
<event>
 8    1  0.1131349E+005  0.1043930E+01  0.7957747E-01            NaN
         13   -1    0    0    0    0  0.00000000000E+00  0.00000000000E+00  0.74505805969E-08  0.10566000000E+00  0.10566000000E+00 0.  1.
     999900   -1    0    0    0    0 -0.00000000000E+00 -0.00000000000E+00 -0.74505805969E-08  0.93827000000E+00  0.93827000000E+00 0.  1.
     999902    2    1    2    0    0  0.27547462474E-02  0.19111800223E-01  0.14772439802E-01  0.10196179760E+01  0.10193280838E+01 0.  0.
     999903    2    3    3    0    0 -0.71799476747E-01  0.10676183966E+00 -0.18919416972E-01  0.13148735338E+00  0.19435135461E-01 0.  0.
         14    1    1    2    0    0 -0.27547462474E-02 -0.19111800223E-01 -0.14772439802E-01  0.24312024028E-01  0.00000000000E+00 0. -1.
     999901    1    3    3    0    0  0.74554222994E-01 -0.87650039437E-01  0.33691856774E-01  0.88813062260E+00  0.88000000000E+00 0. -1.
        -11    1    4    4    0    0 -0.41496706897E-01  0.69396966615E-01 -0.33815049193E-02  0.80929669190E-01  0.51100000000E-03 0.  1.
         11    1    4    4    0    0 -0.30302769850E-01  0.37364873046E-01 -0.15537912053E-01  0.50557684186E-01  0.51100000000E-03 0. -1.
</event>
<event>
 8    1  0.1131349E+005  0.1043930E+01  0.7957747E-01            NaN
         13   -1    0    0    0    0  0.00000000000E+00  0.00000000000E+00  0.74505805969E-08  0.10566000000E+00  0.10566000000E+00 0. -1.
     999900   -1    0    0    0    0 -0.00000000000E+00 -0.00000000000E+00 -0.74505805969E-08  0.93827000000E+00  0.93827000000E+00 0. -1.
     999902    2    1    2    0    0 -0.90236418213E-02  0.16701115642E-01  0.13476832650E-01  0.10206495706E+01  0.10203840294E+01 0.  0.
     999903    2    3    3    0    0  0.60398466540E-01  0.41087468415E-01  0.10869227022E+00  0.13246034363E+00  0.19889147960E-01 0.  0.
         14    1    1    2    0    0  0.90236418213E-02 -0.16701115642E-01 -0.13476832650E-01  0.23280429414E-01  0.00000000000E+00 0.  1.
     999901    1    3    3    0    0 -0.69422108362E-01 -0.24386352773E-01 -0.95215437575E-01  0.88818922696E+00  0.88000000000E+00 0. -1.
        -11    1    4    4    0    0  0.15501062556E-01  0.10556195121E-01  0.14392980642E-01  0.23646040018E-01  0.51100000000E-03 0.  1.
         11    1    4    4    0    0  0.44897403985E-01  0.30531273294E-01  0.94299289582E-01  0.10881430361E+00  0.51100000000E-03 0. -1.
</event>
<event>
 8    1  0.1131349E+005  0.1043930E+01  0.7957747E-01            NaN
         13   -1    0    0    0    0  0.00000000000E+00  0.00000000000E+00  0.74505805969E-08  0.10566000000E+00  0.10566000000E+00 0. -1.
     999900   -1    0    0    0    0 -0.00000000000E+00 -0.00000000000E+00 -0.74505805969E-08  0.93827000000E+00  0.93827000000E+00 0. -1.
     999902    2    1    2    0    0  0.18659083235E-01 -0.60075697213E-02  0.12155801727E-01  0.10208645324E+01  0.10206039279E+01 0.  0.
     999903    2    3    3    0    0 -0.91765312042E-01 -0.78482085317E-01  0.45228100704E-01  0.13039281500E+00  0.19400899483E-01 0.  0.
         14    1    1    2    0    0 -0.18659083235E-01  0.60075697213E-02 -0.12155801727E-01  0.23065467625E-01  0.00000000000E+00 0.  1.
     999901    1    3    3    0    0  0.11042439528E+00  0.72474515596E-01 -0.33072298977E-01  0.89047171737E+00  0.88000000000E+00 0. -1.
        -11    1    4    4    0    0 -0.59506352283E-01 -0.46306704478E-01  0.18772277401E-01  0.77704416615E-01  0.51100000000E-03 0. -1.
         11    1    4    4    0    0 -0.32258959759E-01 -0.32175380839E-01  0.26455823303E-01  0.52688398386E-01  0.51100000000E-03 0.  1.
</event>
<event>
 8    1  0.1131349E+005  0.1043930E+01  0.7957747E-01            NaN
         13   -1    0    0    0    0  0.00000000000E+00  0.00000000000E+00  0.74505805969E-08  0.10566000000E+00  0.10566000000E+00 0.  1.
     999900   -1    0    0    0    0 -0.00000000000E+00 -0.00000000000E+00 -0.74505805969E-08  0.93827000000E+00  0.93827000000E+00 0.  1.
     999902    2    1    2    0    0 -0.51730647570E-02 -0.21905552255E-01  0.31323064986E-02  0.10212050102E+01  0.10209521280E+01 0.  0.
     999903    2    3    3    0    0  0.64373223148E-02 -0.12634711046E+00 -0.38867566735E-01  0.13395824094E+00  0.20714515000E-01 0.  0.
         14    1    1    2    0    0  0.51730647570E-02  0.21905552255E-01 -0.31323064986E-02  0.22724989826E-01  0.00000000000E+00 0.  1.
     999901    1    3    3    0    0 -0.11610387072E-01  0.10444155820E+00  0.41999873234E-01  0.88724676924E+00  0.88000000000E+00 0.  1.
        -11    1    4    4    0    0 -0.31979434742E-02 -0.85848005843E-01 -0.32452443954E-01  0.91834248455E-01  0.51100000000E-03 0. -1.
         11    1    4    4    0    0  0.96352657890E-02 -0.40499104615E-01 -0.64151227814E-02  0.42123992484E-01  0.51100000000E-03 0.  1.
</event>
<event>
 8    1  0.1131349E+005  0.1043930E+01  0.7957747E-01            NaN
         13   -1    0    0    0    0  0.00000000000E+00  0.00000000000E+00  0.74505805969E-08  0.10566000000E+00  0.10566000000E+00 0.  1.
     999900   -1    0    0    0    0 -0.00000000000E+00 -0.00000000000E+00 -0.74505805969E-08  0.93827000000E+00  0.93827000000E+00 0.  1.
     999902    2    1    2    0    0  0.20195816193E-01 -0.11320700433E-01 -0.61658686019E-02  0.10199707182E+01  0.10196892756E+01 0.  0.
     999903    2    3    3    0    0 -0.33739656791E-01 -0.11654462698E+00 -0.45802164637E-01  0.13117819687E+00  0.19719699010E-01 0.  0.
         14    1    1    2    0    0 -0.20195816193E-01  0.11320700433E-01  0.61658686019E-02  0.23959281826E-01  0.00000000000E+00 0.  1.
     999901    1    3    3    0    0  0.53935472984E-01  0.10522392655E+00  0.39636296035E-01  0.88879252131E+00  0.88000000000E+00 0. -1.
        -11    1    4    4    0    0 -0.23510984515E-01 -0.47341028659E-01 -0.22399380968E-01  0.57410214911E-01  0.51100000000E-03 0.  1.
         11    1    4    4    0    0 -0.10228672276E-01 -0.69203598325E-01 -0.23402783669E-01  0.73767981958E-01  0.51100000000E-03 0. -1.
</event>
<event>
 8    1  0.1131349E+005  0.1043930E+01  0.7957747E-01            NaN
         13   -1    0    0    0    0  0.00000000000E+00  0.00000000000E+00  0.74505805969E-08  0.10566000000E+00  0.10566000000E+00 0.  1.
     999900   -1    0    0    0    0 -0.00000000000E+00 -0.00000000000E+00 -0.74505805969E-08  0.93827000000E+00  0.93827000000E+00 0.  1.
     999902    2    1    2    0    0 -0.23288537243E-02  0.22925691855E-01  0.70541297980E-02  0.10198307956E+01  0.10195460166E+01 0.  0.
     999903    2    3    3    0    0  0.84161368410E-01  0.49461586181E-01 -0.84159390258E-01  0.13050261180E+00  0.20458354732E-01 0.  0.
         14    1    1    2    0    0  0.23288537243E-02 -0.22925691855E-01 -0.70541297980E-02  0.24099204425E-01  0.00000000000E+00 0.  1.
     999901    1    3    3    0    0 -0.86490222134E-01 -0.26535894326E-01  0.91213520056E-01  0.88932818377E+00  0.88000000000E+00 0. -1.
        -11    1    4    4    0    0  0.50934107319E-01  0.40872250348E-01 -0.58041443585E-01  0.87372160505E-01  0.51100000000E-03 0. -1.
         11    1    4    4    0    0  0.33227261091E-01  0.85893358329E-02 -0.26117946673E-01  0.43130451297E-01  0.51100000000E-03 0.  1.
</event>
<event>
 8    1  0.1131349E+005  0.1043930E+01  0.7957747E-01            NaN
         13   -1    0    0    0    0  0.00000000000E+00  0.00000000000E+00  0.74505805969E-08  0.10566000000E+00  0.10566000000E+00 0.  1.
     999900   -1    0    0    0    0 -0.00000000000E+00 -0.00000000000E+00 -0.74505805969E-08  0.93827000000E+00  0.93827000000E+00 0.  1.
     999902    2    1    2    0    0 -0.83805097133E-02 -0.77469616420E-02  0.19218831102E-01  0.10215780017E+01  0.10213334430E+01 0.  0.
     999903    2    3    3    0    0  0.94294971912E-01 -0.79557973659E-01 -0.38312838338E-01  0.13084292947E+00  0.20760195303E-01 0.  0.
         14    1    1    2    0    0  0.83805097133E-02  0.77469616420E-02 -0.19218831102E-01  0.22351998270E-01  0.00000000000E+00 0. -1.
     999901    1    3    3    0    0 -0.10267548163E+00  0.71811012017E-01  0.57531669439E-01  0.89073507226E+00  0.88000000000E+00 0. -1.
        -11    1    4    4    0    0  0.11961686495E-01 -0.17149950964E-01 -0.12451058569E-01  0.24341173808E-01  0.51100000000E-03 0. -1.
         11    1    4    4    0    0  0.82333285418E-01 -0.62408022695E-01 -0.25861779769E-01  0.10650175566E+00  0.51100000000E-03 0.  1.
</event>
<event>
 8    1  0.1131349E+005  0.1043930E+01  0.7957747E-01            NaN
         13   -1    0    0    0    0  0.00000000000E+00  0.00000000000E+00  0.74505805969E-08  0.10566000000E+00  0.10566000000E+00 0.  1.
     999900   -1    0    0    0    0 -0.00000000000E+00 -0.00000000000E+00 -0.74505805969E-08  0.93827000000E+00  0.93827000000E+00 0. -1.
     999902    2    1    2    0    0  0.21231743282E-01  0.66668016437E-02 -0.70995836044E-02  0.10205711204E+01  0.10203037659E+01 0.  0.
     999903    2    3    3    0    0 -0.85956479237E-01 -0.91725397892E-01  0.15286066470E-01  0.12834275432E+00  0.20883817117E-01 0.  0.
         14    1    1    2    0    0 -0.21231743282E-01 -0.66668016437E-02  0.70995836044E-02  0.23358879560E-01  0.00000000000E+00 0. -1.
     999901    1    3    3    0    0  0.10718822252E+00  0.98392199536E-01 -0.22385650075E-01  0.89222836612E+00  0.88000000000E+00 0. -1.
        -11    1    4    4    0    0 -0.48417707363E-01 -0.55886349635E-01  0.18877327916E-01  0.76316270166E-01  0.51100000000E-03 0. -1.
         11    1    4    4    0    0 -0.37538771874E-01 -0.35839048257E-01 -0.35912614456E-02  0.52026484155E-01  0.51100000000E-03 0.  1.
</event>
<event>
 8    1  0.1131349E+005  0.1043930E+01  0.7957747E-01            NaN
         13   -1    0    0    0    0  0.00000000000E+00  0.00000000000E+00  0.74505805969E-08  0.10566000000E+00  0.10566000000E+00 0. -1.
     999900   -1    0    0    0    0 -0.00000000000E+00 -0.00000000000E+00 -0.74505805969E-08  0.93827000000E+00  0.93827000000E+00 0.  1.
     999902    2    1    2    0    0 -0.21644329399E-01 -0.93913987924E-02  0.31427943509E-02  0.10201276362E+01  0.10198499113E+01 0.  0.
     999903    2    3    3    0    0 -0.18380423165E-01 -0.80304428792E-01  0.10101935534E+00  0.13186014715E+00  0.19888363748E-01 0.  0.
         14    1    1    2    0    0  0.21644329399E-01  0.93913987924E-02 -0.31427943509E-02  0.23802363806E-01  0.00000000000E+00 0. -1.
     999901    1    3    3    0    0 -0.32639062344E-02  0.70913029999E-01 -0.97876560990E-01  0.88826748905E+00  0.88000000000E+00 0.  1.
        -11    1    4    4    0    0 -0.10712166582E-01 -0.48592420734E-01  0.75555489525E-01  0.90470254692E-01  0.51100000000E-03 0. -1.
         11    1    4    4    0    0 -0.76682565831E-02 -0.31712008057E-01  0.25463865816E-01  0.41389892454E-01  0.51100000000E-03 0.  1.
</event>
<event>
 8    1  0.1131349E+005  0.1043930E+01  0.7957747E-01            NaN
         13   -1    0    0    0    0  0.00000000000E+00  0.00000000000E+00  0.74505805969E-08  0.10566000000E+00  0.10566000000E+00 0.  1.
     999900   -1    0    0    0    0 -0.00000000000E+00 -0.00000000000E+00 -0.74505805969E-08  0.93827000000E+00  0.93827000000E+00 0. -1.
     999902    2    1    2    0    0  0.13278465268E-01 -0.16842252313E-01  0.82215979041E-02  0.10209610258E+01  0.10207026220E+01 0.  0.
     999903    2    3    3    0    0 -0.54690629150E-01 -0.11358976367E+00  0.36038016398E-01  0.13261783094E+00  0.19875893203E-01 0.  0.
         14    1    1    2    0    0 -0.13278465268E-01  0.16842252313E-01 -0.82215979041E-02  0.22968974181E-01  0.00000000000E+00 0. -1.
     999901    1    3    3    0    0  0.67969094419E-01  0.96747511354E-01 -0.27816418494E-01  0.88834319488E+00  0.88000000000E+00 0. -1.
        -11    1    4    4    0    0 -0.36185993830E-01 -0.92887283964E-01  0.25354761046E-01  0.10286203722E+00  0.51100000000E-03 0.  1.
         11    1    4    4    0    0 -0.18504635321E-01 -0.20702479702E-01  0.10683255352E-01  0.29755793723E-01  0.51100000000E-03 0. -1.
</event>
<event>
 8    1  0.1131349E+005  0.1043930E+01  0.7957747E-01            NaN
         13   -1    0    0    0    0  0.00000000000E+00  0.00000000000E+00  0.74505805969E-08  0.10566000000E+00  0.10566000000E+00 0. -1.
     999900   -1    0    0    0    0 -0.00000000000E+00 -0.00000000000E+00 -0.74505805969E-08  0.93827000000E+00  0.93827000000E+00 0.  1.
     999902    2    1    2    0    0 -0.17515251485E-01  0.10612207010E-01 -0.12221876597E-01  0.10200809489E+01  0.10198021205E+01 0.  0.
     999903    2    3    3    0    0 -0.91102861666E-01  0.53314104137E-01  0.75469300373E-01  0.13163943087E+00  0.22163017783E-01 0.  0.
         14    1    1    2    0    0  0.17515251485E-01 -0.10612207010E-01  0.12221876597E-01  0.23849051129E-01  0.00000000000E+00 0. -1.
     999901    1    3    3    0    0  0.73587610181E-01 -0.42701897127E-01 -0.87691176969E-01  0.88844151800E+00  0.88000000000E+00 0.  1.
        -11    1    4    4    0    0 -0.13000572879E-01  0.10779251787E-01  0.22457373228E-01  0.28103414340E-01  0.51100000000E-03 0.  1.
         11    1    4    4    0    0 -0.78102288787E-01  0.42534852350E-01  0.53011927145E-01  0.10353601653E+00  0.51100000000E-03 0. -1.
</event>
<event>
 7    1  0.1131349E+005  0.1043930E+01  0.7957747E-01            NaN
         13   -1    0    0    0    0  0.00000000000E+00  0.00000000000E+00  0.74505805969E-08  0.10566000000E+00  0.10566000000E+00 0.  1.
     999900   -1    0    0    0    0 -0.00000000000E+00 -0.00000000000E+00 -0.74505805969E-08  0.93827000000E+00  0.93827000000E+00 0. -1.
     999903    2    1    2    0    0 -0.61047777754E-01  0.77862332320E-01 -0.44892228678E-02  0.10177102559E+00  0.23405438801E-01 0.  0.
         14    1    1    2    0    0 -0.10391512129E-01  0.38224271281E-01 -0.31993053957E-01  0.50917913752E-01  0.00000000000E+00 0. -1.
     999901    1    1    2    0    0  0.71439289883E-01 -0.11608660360E+00  0.36482276825E-01  0.89124106065E+00  0.88000000000E+00 0.  1.
        -11    1    3    3    0    0 -0.42564625053E-01  0.35897502154E-01  0.10711512685E-03  0.55683485536E-01  0.51100000000E-03 0. -1.
         11    1    3    3    0    0 -0.18483152701E-01  0.41964830166E-01 -0.45963379947E-02  0.46087540058E-01  0.51100000000E-03 0.  1.
</event>
<event>
 8    1  0.1131349E+005  0.1043930E+01  0.7957747E-01            NaN
         13   -1    0    0    0    0  0.00000000000E+00  0.00000000000E+00  0.74505805969E-08  0.10566000000E+00  0.10566000000E+00 0. -1.
     999900   -1    0    0    0    0 -0.00000000000E+00 -0.00000000000E+00 -0.74505805969E-08  0.93827000000E+00  0.93827000000E+00 0.  1.
     999902    2    1    2    0    0 -0.21861587979E-01 -0.12668043189E-01  0.26584084478E-02  0.10185237905E+01  0.10182068730E+01 0.  0.
     999903    2    3    3    0    0 -0.33952376367E-01 -0.11705468013E+00 -0.44590819930E-01  0.13101308816E+00  0.17931147383E-01 0.  0.
         14    1    1    2    0    0  0.21861587979E-01  0.12668043189E-01 -0.26584084478E-02  0.25406209530E-01  0.00000000000E+00 0.  1.
     999901    1    3    3    0    0  0.12090788388E-01  0.10438663694E+00  0.47249228378E-01  0.88751070231E+00  0.88000000000E+00 0. -1.
        -11    1    4    4    0    0 -0.28601278328E-01 -0.72510566822E-01 -0.33182771210E-01  0.84718196682E-01  0.51100000000E-03 0.  1.
         11    1    4    4    0    0 -0.53510980392E-02 -0.44544113304E-01 -0.11408048720E-01  0.46294891477E-01  0.51100000000E-03 0. -1.
</event>
<event>
 8    1  0.1131349E+005  0.1043930E+01  0.7957747E-01            NaN
         13   -1    0    0    0    0  0.00000000000E+00  0.00000000000E+00  0.74505805969E-08  0.10566000000E+00  0.10566000000E+00 0. -1.
     999900   -1    0    0    0    0 -0.00000000000E+00 -0.00000000000E+00 -0.74505805969E-08  0.93827000000E+00  0.93827000000E+00 0.  1.
     999902    2    1    2    0    0  0.54260290416E-03  0.43227726802E-02  0.22600049181E-01  0.10209138534E+01  0.10206543749E+01 0.  0.
     999903    2    3    3    0    0  0.95922410174E-01 -0.48160877790E-01  0.75390750290E-01  0.13263535015E+00  0.19692434014E-01 0.  0.
         14    1    1    2    0    0 -0.54260290416E-03 -0.43227726802E-02 -0.22600049181E-01  0.23016146605E-01  0.00000000000E+00 0.  1.
     999901    1    3    3    0    0 -0.95379807270E-01  0.52483650471E-01 -0.52790701109E-01  0.88827850324E+00  0.88000000000E+00 0.  1.
        -11    1    4    4    0    0  0.73144259410E-02 -0.33754068088E-02  0.16948087079E-03  0.80736635263E-02  0.51100000000E-03 0.  1.
         11    1    4    4    0    0  0.88607984233E-01 -0.44785470982E-01  0.75221269419E-01  0.12456168663E+00  0.51100000000E-03 0. -1.
</event>
<event>
 8    1  0.1131349E+005  0.1043930E+01  0.7957747E-01            NaN
         13   -1    0    0    0    0  0.00000000000E+00  0.00000000000E+00  0.74505805969E-08  0.10566000000E+00  0.10566000000E+00 0. -1.
     999900   -1    0    0    0    0 -0.00000000000E+00 -0.00000000000E+00 -0.74505805969E-08  0.93827000000E+00  0.93827000000E+00 0. -1.
     999902    2    1    2    0    0 -0.12613758442E-01  0.90196563051E-03  0.20413191375E-01  0.10199171112E+01  0.10196343928E+01 0.  0.
     999903    2    3    3    0    0  0.71645111445E-01 -0.64708875874E-01 -0.81291454834E-01  0.12764575413E+00  0.19101761888E-01 0.  0.
         14    1    1    2    0    0  0.12613758442E-01 -0.90196563051E-03 -0.20413191375E-01  0.24012888750E-01  0.00000000000E+00 0.  1.
     999901    1    3    3    0    0 -0.84258869887E-01  0.65610841505E-01  0.10170464621E+00  0.89227135712E+00  0.88000000000E+00 0. -1.
        -11    1    4    4    0    0  0.55879121893E-01 -0.59906695735E-01 -0.67650260740E-01  0.10624550511E+00  0.51100000000E-03 0.  1.
         11    1    4    4    0    0  0.15765989553E-01 -0.48021801393E-02 -0.13641194094E-01  0.21400249017E-01  0.51100000000E-03 0. -1.
</event>
<event>
 8    1  0.1131349E+005  0.1043930E+01  0.7957747E-01            NaN
         13   -1    0    0    0    0  0.00000000000E+00  0.00000000000E+00  0.74505805969E-08  0.10566000000E+00  0.10566000000E+00 0. -1.
     999900   -1    0    0    0    0 -0.00000000000E+00 -0.00000000000E+00 -0.74505805969E-08  0.93827000000E+00  0.93827000000E+00 0. -1.
     999902    2    1    2    0    0  0.19291223582E-01 -0.95879209351E-02  0.96999277829E-02  0.10203044178E+01  0.10200308509E+01 0.  0.
     999903    2    3    3    0    0  0.47328815747E-01 -0.59566934395E-01 -0.10475082219E+00  0.13104462307E+00  0.20290934275E-01 0.  0.
         14    1    1    2    0    0 -0.19291223582E-01  0.95879209351E-02 -0.96999277829E-02  0.23625582197E-01  0.00000000000E+00 0.  1.
     999901    1    3    3    0    0 -0.28037592165E-01  0.49979013460E-01  0.11445074997E+00  0.88925979473E+00  0.88000000000E+00 0.  1.
        -11    1    4    4    0    0  0.18901986620E-01 -0.37390742147E-01 -0.47034409396E-01  0.62990868265E-01  0.51100000000E-03 0. -1.
         11    1    4    4    0    0  0.28426829127E-01 -0.22176192248E-01 -0.57716412789E-01  0.68053754805E-01  0.51100000000E-03 0.  1.
</event>
<event>
 8    1  0.1131349E+005  0.1043930E+01  0.7957747E-01            NaN
         13   -1    0    0    0    0  0.00000000000E+00  0.00000000000E+00  0.74505805969E-08  0.10566000000E+00  0.10566000000E+00 0.  1.
     999900   -1    0    0    0    0 -0.00000000000E+00 -0.00000000000E+00 -0.74505805969E-08  0.93827000000E+00  0.93827000000E+00 0. -1.
     999902    2    1    2    0    0 -0.95673615196E-04 -0.19127574259E-01  0.13554852772E-01  0.10204862954E+01  0.10202169729E+01 0.  0.
     999903    2    3    3    0    0  0.64185707992E-01 -0.92234276118E-01 -0.65515860607E-01  0.13159436522E+00  0.19944477032E-01 0.  0.
         14    1    1    2    0    0  0.95673615196E-04  0.19127574259E-01 -0.13554852772E-01  0.23443704574E-01  0.00000000000E+00 0.  1.
     999901    1    3    3    0    0 -0.64281381607E-01  0.73106701860E-01  0.79070713380E-01  0.88889193021E+00  0.88000000000E+00 0.  1.
        -11    1    4    4    0    0  0.53338611696E-01 -0.61396018781E-01 -0.44206666816E-01  0.92568726532E-01  0.51100000000E-03 0. -1.
         11    1    4    4    0    0  0.10847096295E-01 -0.30838257338E-01 -0.21309193791E-01  0.39025638684E-01  0.51100000000E-03 0.  1.
</event>
<event>
 8    1  0.1131349E+005  0.1043930E+01  0.7957747E-01            NaN
         13   -1    0    0    0    0  0.00000000000E+00  0.00000000000E+00  0.74505805969E-08  0.10566000000E+00  0.10566000000E+00 0.  1.
     999900   -1    0    0    0    0 -0.00000000000E+00 -0.00000000000E+00 -0.74505805969E-08  0.93827000000E+00  0.93827000000E+00 0.  1.
     999902    2    1    2    0    0  0.82075558279E-03  0.15781441327E-01  0.17741280836E-01  0.10201712000E+01  0.10198945028E+01 0.  0.
     999903    2    3    3    0    0  0.83866576038E-01 -0.70561748311E-02  0.10017539383E+00  0.13213204099E+00  0.18449242485E-01 0.  0.
         14    1    1    2    0    0 -0.82075558279E-03 -0.15781441327E-01 -0.17741280836E-01  0.23758799965E-01  0.00000000000E+00 0. -1.
     999901    1    3    3    0    0 -0.83045820455E-01  0.22837616158E-01 -0.82434112994E-01  0.88803915904E+00  0.88000000000E+00 0.  1.
        -11    1    4    4    0    0  0.46791704353E-01  0.37980702649E-02  0.47281471578E-01  0.66630980855E-01  0.51100000000E-03 0. -1.
         11    1    4    4    0    0  0.37074871685E-01 -0.10854245096E-01  0.52893922252E-01  0.65501060138E-01  0.51100000000E-03 0.  1.
</event>
<event>
 8    1  0.1131349E+005  0.1043930E+01  0.7957747E-01            NaN
         13   -1    0    0    0    0  0.00000000000E+00  0.00000000000E+00  0.74505805969E-08  0.10566000000E+00  0.10566000000E+00 0. -1.
     999900   -1    0    0    0    0 -0.00000000000E+00 -0.00000000000E+00 -0.74505805969E-08  0.93827000000E+00  0.93827000000E+00 0. -1.
     999902    2    1    2    0    0 -0.20769749255E-01 -0.75498366206E-02  0.54800451241E-02  0.10211613063E+01  0.10209074395E+01 0.  0.
     999903    2    3    3    0    0 -0.10331814624E+00  0.16282628827E-01 -0.79518774501E-01  0.13290063310E+00  0.19989483138E-01 0.  0.
         14    1    1    2    0    0  0.20769749255E-01  0.75498366206E-02 -0.54800451241E-02  0.22768693675E-01  0.00000000000E+00 0. -1.
     999901    1    3    3    0    0  0.82548396990E-01 -0.23832465447E-01  0.84998819625E-01  0.88826067322E+00  0.88000000000E+00 0. -1.
        -11    1    4    4    0    0 -0.51988034080E-01  0.16858261152E-01 -0.34596301816E-01  0.64684788605E-01  0.51100000000E-03 0.  1.
         11    1    4    4    0    0 -0.51330112165E-01 -0.57563232529E-03 -0.44922472685E-01  0.68215844498E-01  0.51100000000E-03 0. -1.
</event>
<event>
 8    1  0.1131349E+005  0.1043930E+01  0.7957747E-01            NaN
         13   -1    0    0    0    0  0.00000000000E+00  0.00000000000E+00  0.74505805969E-08  0.10566000000E+00  0.10566000000E+00 0.  1.
     999900   -1    0    0    0    0 -0.00000000000E+00 -0.00000000000E+00 -0.74505805969E-08  0.93827000000E+00  0.93827000000E+00 0. -1.
     999902    2    1    2    0    0  0.10283267202E-02 -0.17470568688E-02 -0.25957138445E-01  0.10178938194E+01  0.10175607819E+01 0.  0.
     999903    2    3    3    0    0 -0.41328566629E-01  0.80827919118E-01 -0.91544924394E-01  0.13058638073E+00  0.20763591229E-01 0.  0.
         14    1    1    2    0    0 -0.10283267202E-02  0.17470568688E-02  0.25957138445E-01  0.26036180591E-01  0.00000000000E+00 0.  1.
     999901    1    3    3    0    0  0.42356893349E-01 -0.82574975986E-01  0.65587785949E-01  0.88730743868E+00  0.88000000000E+00 0.  1.
        -11    1    4    4    0    0 -0.24621292406E-01  0.66958962210E-01 -0.68136848868E-01  0.98653950527E-01  0.51100000000E-03 0.  1.
         11    1    4    4    0    0 -0.16707274222E-01  0.13868956907E-01 -0.23408075526E-01  0.31932430200E-01  0.51100000000E-03 0. -1.
</event>
<event>
 8    1  0.1131349E+005  0.1043930E+01  0.7957747E-01            NaN
         13   -1    0    0    0    0  0.00000000000E+00  0.00000000000E+00  0.74505805969E-08  0.10566000000E+00  0.10566000000E+00 0. -1.
     999900   -1    0    0    0    0 -0.00000000000E+00 -0.00000000000E+00 -0.74505805969E-08  0.93827000000E+00  0.93827000000E+00 0. -1.
     999902    2    1    2    0    0 -0.19785055155E-01  0.29301647750E-02 -0.12457873781E-01  0.10203666197E+01  0.10200945082E+01 0.  0.
     999903    2    3    3    0    0  0.88489363456E-01 -0.88772441669E-01 -0.22270728639E-01  0.12894695988E+00  0.20504127955E-01 0.  0.
         14    1    1    2    0    0  0.19785055155E-01 -0.29301647750E-02  0.12457873781E-01  0.23563380323E-01  0.00000000000E+00 0. -1.
     999901    1    3    3    0    0 -0.10827441861E+00  0.91702606444E-01  0.98128548585E-02  0.89141965980E+00  0.88000000000E+00 0. -1.
        -11    1    4    4    0    0  0.76370203032E-01 -0.72795040006E-01 -0.25708589829E-01  0.10859428379E+00  0.51100000000E-03 0.  1.
         11    1    4    4    0    0  0.12119160424E-01 -0.15977401663E-01  0.34378611897E-02  0.20352676085E-01  0.51100000000E-03 0. -1.
</event>
<event>
 8    1  0.1131349E+005  0.1043930E+01  0.7957747E-01            NaN
         13   -1    0    0    0    0  0.00000000000E+00  0.00000000000E+00  0.74505805969E-08  0.10566000000E+00  0.10566000000E+00 0.  1.
     999900   -1    0    0    0    0 -0.00000000000E+00 -0.00000000000E+00 -0.74505805969E-08  0.93827000000E+00  0.93827000000E+00 0. -1.
     999902    2    1    2    0    0  0.10504544638E-01  0.10911427165E-01  0.16484654333E-01  0.10215436531E+01  0.10212983338E+01 0.  0.
     999903    2    3    3    0    0  0.57918571552E-02 -0.12118603030E-01 -0.12727584477E+00  0.12956850048E+00  0.20210133789E-01 0.  0.
         14    1    1    2    0    0 -0.10504544638E-01 -0.10911427165E-01 -0.16484654333E-01  0.22386346940E-01  0.00000000000E+00 0. -1.
     999901    1    3    3    0    0  0.47126874824E-02  0.23030030195E-01  0.14376049910E+00  0.89197515258E+00  0.88000000000E+00 0.  1.
        -11    1    4    4    0    0  0.87958384640E-02 -0.31920532329E-02 -0.22562553458E-01  0.24431248795E-01  0.51100000000E-03 0. -1.
         11    1    4    4    0    0 -0.30039813088E-02 -0.89265497971E-02 -0.10471329131E+00  0.10513725169E+00  0.51100000000E-03 0.  1.
</event>
<event>
 8    1  0.1131349E+005  0.1043930E+01  0.7957747E-01            NaN
         13   -1    0    0    0    0  0.00000000000E+00  0.00000000000E+00  0.74505805969E-08  0.10566000000E+00  0.10566000000E+00 0.  1.
     999900   -1    0    0    0    0 -0.00000000000E+00 -0.00000000000E+00 -0.74505805969E-08  0.93827000000E+00  0.93827000000E+00 0.  1.
     999902    2    1    2    0    0 -0.70713712608E-02 -0.11887832625E-01 -0.18530429520E-01  0.10208063828E+01  0.10205444475E+01 0.  0.
     999903    2    3    3    0    0  0.66837443978E-01 -0.44805165908E-01 -0.10392879362E+00  0.13297816492E+00  0.20180470557E-01 0.  0.
         14    1    1    2    0    0  0.70713712608E-02  0.11887832625E-01  0.18530429520E-01  0.23123617240E-01  0.00000000000E+00 0.  1.
     999901    1    3    3    0    0 -0.73908815239E-01  0.32917333282E-01  0.85398364105E-01  0.88782821784E+00  0.88000000000E+00 0. -1.
        -11    1    4    4    0    0  0.12844381283E-01 -0.17579998308E-01 -0.20263596150E-01  0.29747418728E-01  0.51100000000E-03 0.  1.
         11    1    4    4    0    0  0.53993062695E-01 -0.27225167599E-01 -0.83665197475E-01  0.10323074619E+00  0.51100000000E-03 0. -1.
</event>
<event>
 8    1  0.1131349E+005  0.1043930E+01  0.7957747E-01            NaN
         13   -1    0    0    0    0  0.00000000000E+00  0.00000000000E+00  0.74505805969E-08  0.10566000000E+00  0.10566000000E+00 0. -1.
     999900   -1    0    0    0    0 -0.00000000000E+00 -0.00000000000E+00 -0.74505805969E-08  0.93827000000E+00  0.93827000000E+00 0. -1.
     999902    2    1    2    0    0  0.10858428603E-01 -0.16150184306E-01  0.13474864610E-01  0.10202592184E+01  0.10199845915E+01 0.  0.
     999903    2    3    3    0    0 -0.88390735335E-01  0.11346859676E-01  0.93544538346E-01  0.13064265122E+00  0.19371327917E-01 0.  0.
         14    1    1    2    0    0 -0.10858428603E-01  0.16150184306E-01 -0.13474864610E-01  0.23670781590E-01  0.00000000000E+00 0.  1.
     999901    1    3    3    0    0  0.99249163938E-01 -0.27497043982E-01 -0.80069673736E-01  0.88961656719E+00  0.88000000000E+00 0.  1.
        -11    1    4    4    0    0 -0.62895153224E-01  0.89666616092E-02  0.53250959998E-01  0.82898294200E-01  0.51100000000E-03 0. -1.
         11    1    4    4    0    0 -0.25495582111E-01  0.23801980669E-02  0.40293578347E-01  0.47744357018E-01  0.51100000000E-03 0.  1.
</event>
<event>
 8    1  0.1131349E+005  0.1043930E+01  0.7957747E-01            NaN
         13   -1    0    0    0    0  0.00000000000E+00  0.00000000000E+00  0.74505805969E-08  0.10566000000E+00  0.10566000000E+00 0. -1.
     999900   -1    0    0    0    0 -0.00000000000E+00 -0.00000000000E+00 -0.74505805969E-08  0.93827000000E+00  0.93827000000E+00 0.  1.
     999902    2    1    2    0    0 -0.17309760535E-01  0.48415775251E-02  0.17130663723E-01  0.10191000116E+01  0.10187974801E+01 0.  0.
     999903    2    3    3    0    0  0.10543660987E+00  0.15738829047E-01 -0.65225325640E-01  0.12670551898E+00  0.20865186154E-01 0.  0.
         14    1    1    2    0    0  0.17309760535E-01 -0.48415775251E-02 -0.17130663723E-01  0.24829988367E-01  0.00000000000E+00 0.  1.
     999901    1    3    3    0    0 -0.12274637041E+00 -0.10897251522E-01  0.82355989364E-01  0.89239449266E+00  0.88000000000E+00 0. -1.
        -11    1    4    4    0    0  0.25180100021E-01 -0.43675239695E-02 -0.19681544706E-01  0.32260456068E-01  0.51100000000E-03 0. -1.
         11    1    4    4    0    0  0.80256509851E-01  0.20106353017E-01 -0.45543780934E-01  0.94445062909E-01  0.51100000000E-03 0.  1.
</event>
<event>
 8    1  0.1131349E+005  0.1043930E+01  0.7957747E-01            NaN
         13   -1    0    0    0    0  0.00000000000E+00  0.00000000000E+00  0.74505805969E-08  0.10566000000E+00  0.10566000000E+00 0.  1.
     999900   -1    0    0    0    0 -0.00000000000E+00 -0.00000000000E+00 -0.74505805969E-08  0.93827000000E+00  0.93827000000E+00 0. -1.
     999902    2    1    2    0    0  0.10453363603E-01 -0.19065021008E-01  0.44391036275E-02  0.10217387072E+01  0.10214976908E+01 0.  0.
     999903    2    3    3    0    0 -0.81383419333E-01 -0.10186068720E+00 -0.16247207053E-01  0.13285342745E+00  0.19677421315E-01 0.  0.
         14    1    1    2    0    0 -0.10453363603E-01  0.19065021008E-01 -0.44391036275E-02  0.22191292834E-01  0.00000000000E+00 0. -1.
     999901    1    3    3    0    0  0.91836782936E-01  0.82795666193E-01  0.20686310680E-01  0.88888527971E+00  0.88000000000E+00 0. -1.
        -11    1    4    4    0    0 -0.46734024905E-01 -0.72028736662E-01 -0.14623683365E-01  0.87099490384E-01  0.51100000000E-03 0. -1.
         11    1    4    4    0    0 -0.34649394428E-01 -0.29831950539E-01 -0.16235236880E-02  0.45753937070E-01  0.51100000000E-03 0.  1.
</event>
<event>
 8    1  0.1131349E+005  0.1043930E+01  0.7957747E-01            NaN
         13   -1    0    0    0    0  0.00000000000E+00  0.00000000000E+00  0.74505805969E-08  0.10566000000E+00  0.10566000000E+00 0.  1.
     999900   -1    0    0    0    0 -0.00000000000E+00 -0.00000000000E+00 -0.74505805969E-08  0.93827000000E+00  0.93827000000E+00 0.  1.
     999902    2    1    2    0    0 -0.11022032084E-02  0.12538623692E-01  0.21216339604E-01  0.10192608897E+01  0.10189623135E+01 0.  0.
     999903    2    3    3    0    0 -0.28151906102E-01  0.86065739285E-01 -0.89516285384E-01  0.12886792176E+00  0.19847786100E-01 0.  0.
         14    1    1    2    0    0  0.11022032084E-02 -0.12538623692E-01 -0.21216339604E-01  0.24669110284E-01  0.00000000000E+00 0. -1.
     999901    1    3    3    0    0  0.27049702893E-01 -0.73527115593E-01  0.11073262499E+00  0.89039296796E+00  0.88000000000E+00 0. -1.
        -11    1    4    4    0    0 -0.22321327771E-01  0.78907326267E-01 -0.72301243581E-01  0.10932675224E+00  0.51100000000E-03 0. -1.
         11    1    4    4    0    0 -0.58305783302E-02  0.71584130185E-02 -0.17215041804E-01  0.19541169513E-01  0.51100000000E-03 0.  1.
</event>
<event>
 8    1  0.1131349E+005  0.1043930E+01  0.7957747E-01            NaN
         13   -1    0    0    0    0  0.00000000000E+00  0.00000000000E+00  0.74505805969E-08  0.10566000000E+00  0.10566000000E+00 0. -1.
     999900   -1    0    0    0    0 -0.00000000000E+00 -0.00000000000E+00 -0.74505805969E-08  0.93827000000E+00  0.93827000000E+00 0. -1.
     999902    2    1    2    0    0  0.12435742533E-01  0.14079884434E-01 -0.11820274538E-01  0.10217351869E+01  0.10214940932E+01 0.  0.
     999903    2    3    3    0    0 -0.84190936783E-02 -0.12767484085E+00  0.99048442086E-02  0.12988244844E+00  0.19989956225E-01 0.  0.
         14    1    1    2    0    0 -0.12435742533E-01 -0.14079884434E-01  0.11820274538E-01  0.22194813092E-01  0.00000000000E+00 0. -1.
     999901    1    3    3    0    0  0.20854836211E-01  0.14175472528E+00 -0.21725118746E-01  0.89185273847E+00  0.88000000000E+00 0. -1.
        -11    1    4    4    0    0 -0.26305018310E-02 -0.35092960946E-01  0.11736088588E-01  0.37100301133E-01  0.51100000000E-03 0. -1.
         11    1    4    4    0    0 -0.57885918473E-02 -0.92581879901E-01 -0.18312443792E-02  0.92782147305E-01  0.51100000000E-03 0.  1.
</event>
<event>
 8    1  0.1131349E+005  0.1043930E+01  0.7957747E-01            NaN
         13   -1    0    0    0    0  0.00000000000E+00  0.00000000000E+00  0.74505805969E-08  0.10566000000E+00  0.10566000000E+00 0.  1.
     999900   -1    0    0    0    0 -0.00000000000E+00 -0.00000000000E+00 -0.74505805969E-08  0.93827000000E+00  0.93827000000E+00 0. -1.
     999902    2    1    2    0    0 -0.23721316470E-01 -0.23462930151E-03  0.32781408686E-02  0.10199820958E+01  0.10197009237E+01 0.  0.
     999903    2    3    3    0    0 -0.39199416768E-01  0.12038813816E+00  0.27992466209E-01  0.13127504541E+00  0.20485636386E-01 0.  0.
         14    1    1    2    0    0  0.23721316470E-01  0.23462930151E-03 -0.32781408686E-02  0.23947904158E-01  0.00000000000E+00 0.  1.
     999901    1    3    3    0    0  0.15478100298E-01 -0.12062276746E+00 -0.24714325340E-01  0.88870705044E+00  0.88000000000E+00 0.  1.
        -11    1    4    4    0    0 -0.36335092456E-01  0.88768855876E-01  0.26384864334E-01  0.99481510364E-01  0.51100000000E-03 0. -1.
         11    1    4    4    0    0 -0.28643243119E-02  0.31619282280E-01  0.16076018749E-02  0.31793535042E-01  0.51100000000E-03 0.  1.
</event>
<event>
 8    1  0.1131349E+005  0.1043930E+01  0.7957747E-01            NaN
         13   -1    0    0    0    0  0.00000000000E+00  0.00000000000E+00  0.74505805969E-08  0.10566000000E+00  0.10566000000E+00 0.  1.
     999900   -1    0    0    0    0 -0.00000000000E+00 -0.00000000000E+00 -0.74505805969E-08  0.93827000000E+00  0.93827000000E+00 0. -1.
     999902    2    1    2    0    0 -0.71480169820E-02 -0.13843489298E-01 -0.18479467360E-01  0.10197592107E+01  0.10194727170E+01 0.  0.
     999903    2    3    3    0    0 -0.32539047449E-01  0.10090079760E+00 -0.72864780270E-01  0.13028255665E+00  0.20603587013E-01 0.  0.
         14    1    1    2    0    0  0.71480169820E-02  0.13843489298E-01  0.18479467360E-01  0.24170789326E-01  0.00000000000E+00 0.  1.
     999901    1    3    3    0    0  0.25391030467E-01 -0.11474428689E+00  0.54385312910E-01  0.88947665403E+00  0.88000000000E+00 0. -1.
        -11    1    4    4    0    0 -0.11960183611E-01  0.68115469069E-01 -0.43628789794E-01  0.81770994481E-01  0.51100000000E-03 0. -1.
         11    1    4    4    0    0 -0.20578863838E-01  0.32785328527E-01 -0.29235990476E-01  0.48511562164E-01  0.51100000000E-03 0.  1.
</event>
<event>
 8    1  0.1131349E+005  0.1043930E+01  0.7957747E-01            NaN
         13   -1    0    0    0    0  0.00000000000E+00  0.00000000000E+00  0.74505805969E-08  0.10566000000E+00  0.10566000000E+00 0.  1.
     999900   -1    0    0    0    0 -0.00000000000E+00 -0.00000000000E+00 -0.74505805969E-08  0.93827000000E+00  0.93827000000E+00 0.  1.
     999902    2    1    2    0    0  0.18911768464E-01 -0.14680369027E-02 -0.14637476885E-01  0.10199703287E+01  0.10196888769E+01 0.  0.
     999903    2    3    3    0    0 -0.12090402903E+00  0.35761114302E-01  0.63697308148E-02  0.12790767973E+00  0.20570841807E-01 0.  0.
         14    1    1    2    0    0 -0.18911768464E-01  0.14680369027E-02  0.14637476885E-01  0.23959671290E-01  0.00000000000E+00 0.  1.
     999901    1    3    3    0    0  0.13981579749E+00 -0.37229151204E-01 -0.21007207700E-01  0.89206264898E+00  0.88000000000E+00 0.  1.
        -11    1    4    4    0    0 -0.18454407796E-01  0.50428042742E-02  0.84739531139E-02  0.20929979561E-01  0.51100000000E-03 0.  1.
         11    1    4    4    0    0 -0.10244962123E+00  0.30718310027E-01 -0.21042222991E-02  0.10697770017E+00  0.51100000000E-03 0. -1.
</event>
<event>
 8    1  0.1131349E+005  0.1043930E+01  0.7957747E-01            NaN
         13   -1    0    0    0    0  0.00000000000E+00  0.00000000000E+00  0.74505805969E-08  0.10566000000E+00  0.10566000000E+00 0.  1.
     999900   -1    0    0    0    0 -0.00000000000E+00 -0.00000000000E+00 -0.74505805969E-08  0.93827000000E+00  0.93827000000E+00 0.  1.
     999902    2    1    2    0    0  0.11966733728E-02 -0.23782748577E-01 -0.17917533608E-02  0.10200498506E+01  0.10197702859E+01 0.  0.
     999903    2    3    3    0    0 -0.23582083455E-01  0.11699634785E+00 -0.39002774729E-01  0.12773970219E+00  0.23493722725E-01 0.  0.
         14    1    1    2    0    0 -0.11966733728E-02  0.23782748577E-01  0.17917533608E-02  0.23880149437E-01  0.00000000000E+00 0.  1.
     999901    1    3    3    0    0  0.24778756828E-01 -0.14077909643E+00  0.37211021368E-01  0.89231014837E+00  0.88000000000E+00 0.  1.
        -11    1    4    4    0    0 -0.20485337321E-01  0.67556631481E-01 -0.32698173891E-01  0.77800894590E-01  0.51100000000E-03 0. -1.
         11    1    4    4    0    0 -0.30967461343E-02  0.49439716372E-01 -0.63046008381E-02  0.49938807598E-01  0.51100000000E-03 0.  1.
</event>
<event>
 8    1  0.1131349E+005  0.1043930E+01  0.7957747E-01            NaN
         13   -1    0    0    0    0  0.00000000000E+00  0.00000000000E+00  0.74505805969E-08  0.10566000000E+00  0.10566000000E+00 0. -1.
     999900   -1    0    0    0    0 -0.00000000000E+00 -0.00000000000E+00 -0.74505805969E-08  0.93827000000E+00  0.93827000000E+00 0.  1.
     999902    2    1    2    0    0  0.14306899386E-02 -0.17206406055E-01  0.15768247372E-01  0.10205474230E+01  0.10202795194E+01 0.  0.
     999903    2    3    3    0    0  0.98489164508E-01 -0.81701627456E-01 -0.25051272241E-01  0.13192702357E+00  0.20047489904E-01 0.  0.
         14    1    1    2    0    0 -0.14306899386E-02  0.17206406055E-01 -0.15768247372E-01  0.23382577023E-01  0.00000000000E+00 0.  1.
     999901    1    3    3    0    0 -0.97058474569E-01  0.64495221401E-01  0.40819519613E-01  0.88862039941E+00  0.88000000000E+00 0. -1.
        -11    1    4    4    0    0  0.36522885657E-01 -0.42229240161E-01 -0.14631182859E-01  0.57719689311E-01  0.51100000000E-03 0.  1.
         11    1    4    4    0    0  0.61966278851E-01 -0.39472387295E-01 -0.10420089382E-01  0.74207334255E-01  0.51100000000E-03 0. -1.
</event>
<event>
 8    1  0.1131349E+005  0.1043930E+01  0.7957747E-01            NaN
         13   -1    0    0    0    0  0.00000000000E+00  0.00000000000E+00  0.74505805969E-08  0.10566000000E+00  0.10566000000E+00 0. -1.
     999900   -1    0    0    0    0 -0.00000000000E+00 -0.00000000000E+00 -0.74505805969E-08  0.93827000000E+00  0.93827000000E+00 0.  1.
     999902    2    1    2    0    0  0.14586044880E-01  0.11085296840E-02  0.17097431492E-01  0.10214288065E+01  0.10211809356E+01 0.  0.
     999903    2    3    3    0    0 -0.43711564540E-01  0.56652927270E-01 -0.10521424865E+00  0.12932794988E+00  0.23139262256E-01 0.  0.
         14    1    1    2    0    0 -0.14586044880E-01 -0.11085296840E-02 -0.17097431492E-01  0.22501193456E-01  0.00000000000E+00 0.  1.
     999901    1    3    3    0    0  0.58297609421E-01 -0.55544397586E-01  0.12231168014E+00  0.89210085667E+00  0.88000000000E+00 0.  1.
        -11    1    4    4    0    0 -0.18905435067E-01  0.24113450309E-01 -0.65453462246E-01  0.72272337736E-01  0.51100000000E-03 0. -1.
         11    1    4    4    0    0 -0.24806129474E-01  0.32539476961E-01 -0.39760786403E-01  0.57055612141E-01  0.51100000000E-03 0.  1.
</event>
<event>
 8    1  0.1131349E+005  0.1043930E+01  0.7957747E-01            NaN
         13   -1    0    0    0    0  0.00000000000E+00  0.00000000000E+00  0.74505805969E-08  0.10566000000E+00  0.10566000000E+00 0.  1.
     999900   -1    0    0    0    0 -0.00000000000E+00 -0.00000000000E+00 -0.74505805969E-08  0.93827000000E+00  0.93827000000E+00 0. -1.
     999902    2    1    2    0    0  0.11337895325E-01 -0.21759579366E-01  0.54796092488E-02  0.10187893301E+01  0.10184790847E+01 0.  0.
     999903    2    3    3    0    0 -0.99324734805E-01  0.53946630603E-01 -0.53848682782E-01  0.12665845734E+00  0.19158347529E-01 0.  0.
         14    1    1    2    0    0 -0.11337895325E-01  0.21759579366E-01 -0.54796092488E-02  0.25140669882E-01  0.00000000000E+00 0. -1.
     999901    1    3    3    0    0  0.11066263013E+00 -0.75706209969E-01  0.59328292030E-01  0.89213087278E+00  0.88000000000E+00 0.  1.
        -11    1    4    4    0    0 -0.62671172775E-01  0.41011664028E-01 -0.42713960985E-01  0.86222827994E-01  0.51100000000E-03 0.  1.
         11    1    4    4    0    0 -0.36653562030E-01  0.12934966575E-01 -0.11134721797E-01  0.40435629342E-01  0.51100000000E-03 0. -1.
</event>
<event>
 8    1  0.1131349E+005  0.1043930E+01  0.7957747E-01            NaN
         13   -1    0    0    0    0  0.00000000000E+00  0.00000000000E+00  0.74505805969E-08  0.10566000000E+00  0.10566000000E+00 0.  1.
     999900   -1    0    0    0    0 -0.00000000000E+00 -0.00000000000E+00 -0.74505805969E-08  0.93827000000E+00  0.93827000000E+00 0.  1.
     999902    2    1    2    0    0  0.88110172413E-04 -0.12339066319E-01 -0.21214006709E-01  0.10193883130E+01  0.10190928506E+01 0.  0.
     999903    2    3    3    0    0 -0.82800202145E-01 -0.91582025910E-01  0.36369589198E-01  0.13008195998E+00  0.18852807483E-01 0.  0.
         14    1    1    2    0    0 -0.88110172413E-04  0.12339066319E-01  0.21214006709E-01  0.24541687018E-01  0.00000000000E+00 0.  1.
     999901    1    3    3    0    0  0.82888312318E-01  0.79242959591E-01 -0.57583595907E-01  0.88930635300E+00  0.88000000000E+00 0.  1.
        -11    1    4    4    0    0 -0.65233948067E-01 -0.59437384296E-01  0.26314481088E-01  0.92092256289E-01  0.51100000000E-03 0.  1.
         11    1    4    4    0    0 -0.17566254078E-01 -0.32144641614E-01  0.10055108109E-01  0.37989703696E-01  0.51100000000E-03 0. -1.
</event>
<event>
 8    1  0.1131349E+005  0.1043930E+01  0.7957747E-01            NaN
         13   -1    0    0    0    0  0.00000000000E+00  0.00000000000E+00  0.74505805969E-08  0.10566000000E+00  0.10566000000E+00 0. -1.
     999900   -1    0    0    0    0 -0.00000000000E+00 -0.00000000000E+00 -0.74505805969E-08  0.93827000000E+00  0.93827000000E+00 0. -1.
     999902    2    1    2    0    0 -0.21699368213E-01 -0.67997931789E-02 -0.32419192478E-02  0.10209602414E+01  0.10207018197E+01 0.  0.
     999903    2    3    3    0    0  0.10049284953E+00  0.26425594989E-01  0.73253593611E-01  0.12861141503E+00  0.19434048048E-01 0.  0.
         14    1    1    2    0    0  0.21699368213E-01  0.67997931789E-02  0.32419192478E-02  0.22969758565E-01  0.00000000000E+00 0. -1.
     999901    1    3    3    0    0 -0.12219221774E+00 -0.33225388168E-01 -0.76495512859E-01  0.89234882640E+00  0.88000000000E+00 0. -1.
        -11    1    4    4    0    0  0.86830947982E-01  0.19395174678E-01  0.69193566827E-01  0.11271112252E+00  0.51100000000E-03 0.  1.
         11    1    4    4    0    0  0.13661901544E-01  0.70304203112E-02  0.40600267836E-02  0.15900292514E-01  0.51100000000E-03 0. -1.
</event>
<event>
 8    1  0.1131349E+005  0.1043930E+01  0.7957747E-01            NaN
         13   -1    0    0    0    0  0.00000000000E+00  0.00000000000E+00  0.74505805969E-08  0.10566000000E+00  0.10566000000E+00 0.  1.
     999900   -1    0    0    0    0 -0.00000000000E+00 -0.00000000000E+00 -0.74505805969E-08  0.93827000000E+00  0.93827000000E+00 0.  1.
     999902    2    1    2    0    0 -0.19731793495E-01 -0.18763017433E-02  0.13342174333E-01  0.10200369508E+01  0.10197570805E+01 0.  0.
     999903    2    3    3    0    0 -0.10998151859E-01 -0.12525395182E+00  0.31219123680E-01  0.13120743604E+00  0.20766458525E-01 0.  0.
         14    1    1    2    0    0  0.19731793495E-01  0.18763017433E-02 -0.13342174333E-01  0.23893049171E-01  0.00000000000E+00 0.  1.
     999901    1    3    3    0    0 -0.87336416357E-02  0.12337765007E+00 -0.17876949347E-01  0.88882951478E+00  0.88000000000E+00 0.  1.
        -11    1    4    4    0    0 -0.46019012760E-02 -0.57636363874E-01  0.37557823545E-02  0.57943894916E-01  0.51100000000E-03 0.  1.
         11    1    4    4    0    0 -0.63962505831E-02 -0.67617587944E-01  0.27463341325E-01  0.73263541129E-01  0.51100000000E-03 0. -1.
</event>
<event>
 8    1  0.1131349E+005  0.1043930E+01  0.7957747E-01            NaN
         13   -1    0    0    0    0  0.00000000000E+00  0.00000000000E+00  0.74505805969E-08  0.10566000000E+00  0.10566000000E+00 0. -1.
     999900   -1    0    0    0    0 -0.00000000000E+00 -0.00000000000E+00 -0.74505805969E-08  0.93827000000E+00  0.93827000000E+00 0. -1.
     999902    2    1    2    0    0 -0.17824102490E-01 -0.14930205048E-01  0.23306180164E-02  0.10205624705E+01  0.10202949156E+01 0.  0.
     999903    2    3    3    0    0 -0.10090452520E+00  0.77739981947E-01 -0.24983812137E-01  0.13138521134E+00  0.20313908794E-01 0.  0.
         14    1    1    2    0    0  0.17824102490E-01  0.14930205048E-01 -0.23306180164E-02  0.23367529452E-01  0.00000000000E+00 0.  1.
     999901    1    3    3    0    0  0.83080422714E-01 -0.92670186994E-01  0.27314430154E-01  0.88917725921E+00  0.88000000000E+00 0. -1.
        -11    1    4    4    0    0 -0.67575608669E-01  0.51621440302E-01 -0.26317202137E-01  0.89017370413E-01  0.51100000000E-03 0. -1.
         11    1    4    4    0    0 -0.33328916535E-01  0.26118541644E-01  0.13333900001E-02  0.42367840928E-01  0.51100000000E-03 0.  1.
</event>
<event>
 8    1  0.1131349E+005  0.1043930E+01  0.7957747E-01            NaN
         13   -1    0    0    0    0  0.00000000000E+00  0.00000000000E+00  0.74505805969E-08  0.10566000000E+00  0.10566000000E+00 0.  1.
     999900   -1    0    0    0    0 -0.00000000000E+00 -0.00000000000E+00 -0.74505805969E-08  0.93827000000E+00  0.93827000000E+00 0.  1.
     999902    2    1    2    0    0  0.17004674931E-01 -0.27759998800E-02  0.17272271922E-01  0.10195333502E+01  0.10192414118E+01 0.  0.
     999903    2    3    3    0    0 -0.79920876765E-01 -0.31050050778E-01 -0.91670373384E-01  0.12708588143E+00  0.19897530147E-01 0.  0.
         14    1    1    2    0    0 -0.17004674931E-01  0.27759998800E-02 -0.17272271922E-01  0.24396649814E-01  0.00000000000E+00 0.  1.
     999901    1    3    3    0    0  0.96925551695E-01  0.28274050898E-01  0.10894264531E+00  0.89244746876E+00  0.88000000000E+00 0.  1.
        -11    1    4    4    0    0 -0.77349492879E-01 -0.25140828837E-01 -0.82363801872E-01  0.11575431872E+00  0.51100000000E-03 0.  1.
         11    1    4    4    0    0 -0.25713838853E-02 -0.59092219412E-02 -0.93065715114E-02  0.11331562705E-01  0.51100000000E-03 0. -1.
</event>
<event>
 8    1  0.1131349E+005  0.1043930E+01  0.7957747E-01            NaN
         13   -1    0    0    0    0  0.00000000000E+00  0.00000000000E+00  0.74505805969E-08  0.10566000000E+00  0.10566000000E+00 0. -1.
     999900   -1    0    0    0    0 -0.00000000000E+00 -0.00000000000E+00 -0.74505805969E-08  0.93827000000E+00  0.93827000000E+00 0. -1.
     999902    2    1    2    0    0 -0.20862859828E-01 -0.11463089916E-01 -0.43504396751E-02  0.10197310811E+01  0.10194439122E+01 0.  0.
     999903    2    3    3    0    0  0.67106156989E-01  0.93806724695E-01  0.51133256315E-01  0.12737536598E+00  0.17519590545E-01 0.  0.
         14    1    1    2    0    0  0.20862859828E-01  0.11463089916E-01  0.43504396751E-02  0.24198918901E-01  0.00000000000E+00 0. -1.
     999901    1    3    3    0    0 -0.87969016817E-01 -0.10526981461E+00 -0.55483695990E-01  0.89235571512E+00  0.88000000000E+00 0. -1.
        -11    1    4    4    0    0  0.43666433518E-01  0.70204584937E-01  0.42707768988E-01  0.93057271695E-01  0.51100000000E-03 0.  1.
         11    1    4    4    0    0  0.23439723471E-01  0.23602139759E-01  0.84254873272E-02  0.34318094284E-01  0.51100000000E-03 0. -1.
</event>
<event>
 8    1  0.1131349E+005  0.1043930E+01  0.7957747E-01            NaN
         13   -1    0    0    0    0  0.00000000000E+00  0.00000000000E+00  0.74505805969E-08  0.10566000000E+00  0.10566000000E+00 0. -1.
     999900   -1    0    0    0    0 -0.00000000000E+00 -0.00000000000E+00 -0.74505805969E-08  0.93827000000E+00  0.93827000000E+00 0. -1.
     999902    2    1    2    0    0 -0.21506436642E-01 -0.10309762557E-01 -0.65569624652E-03  0.10200710822E+01  0.10197920204E+01 0.  0.
     999903    2    3    3    0    0  0.88384002797E-01  0.72887812034E-01  0.52519148149E-01  0.12775650248E+00  0.20954663227E-01 0.  0.
         14    1    1    2    0    0  0.21506436642E-01  0.10309762557E-01  0.65569624652E-03  0.23858917800E-01  0.00000000000E+00 0. -1.
     999901    1    3    3    0    0 -0.10989043944E+00 -0.83197574591E-01 -0.53174844396E-01  0.89231457972E+00  0.88000000000E+00 0. -1.
        -11    1    4    4    0    0  0.54271857611E-01  0.53849528092E-01  0.26958786571E-01  0.81069374604E-01  0.51100000000E-03 0. -1.
         11    1    4    4    0    0  0.34112145186E-01  0.19038283943E-01  0.25560361578E-01  0.46687127879E-01  0.51100000000E-03 0.  1.
</event>
<event>
 8    1  0.1131349E+005  0.1043930E+01  0.7957747E-01            NaN
         13   -1    0    0    0    0  0.00000000000E+00  0.00000000000E+00  0.74505805969E-08  0.10566000000E+00  0.10566000000E+00 0.  1.
     999900   -1    0    0    0    0 -0.00000000000E+00 -0.00000000000E+00 -0.74505805969E-08  0.93827000000E+00  0.93827000000E+00 0. -1.
     999902    2    1    2    0    0 -0.22077073464E-01  0.87667993221E-02  0.12254763512E-01  0.10172011173E+01  0.10168498807E+01 0.  0.
     999903    2    3    3    0    0  0.75141643563E-01  0.96643597722E-01 -0.25907422635E-01  0.12667870706E+00  0.19749650556E-01 0.  0.
         14    1    1    2    0    0  0.22077073464E-01 -0.87667993221E-02 -0.12254763512E-01  0.26728882727E-01  0.00000000000E+00 0. -1.
     999901    1    3    3    0    0 -0.97218717027E-01 -0.87876798400E-01  0.38162186147E-01  0.89052241021E+00  0.88000000000E+00 0.  1.
        -11    1    4    4    0    0  0.30224278440E-01  0.48437158511E-01 -0.20105351322E-01  0.60532236079E-01  0.51100000000E-03 0. -1.
         11    1    4    4    0    0  0.44917365123E-01  0.48206439211E-01 -0.58020713134E-02  0.66146470983E-01  0.51100000000E-03 0.  1.
</event>
<event>
 8    1  0.1131349E+005  0.1043930E+01  0.7957747E-01            NaN
         13   -1    0    0    0    0  0.00000000000E+00  0.00000000000E+00  0.74505805969E-08  0.10566000000E+00  0.10566000000E+00 0. -1.
     999900   -1    0    0    0    0 -0.00000000000E+00 -0.00000000000E+00 -0.74505805969E-08  0.93827000000E+00  0.93827000000E+00 0. -1.
     999902    2    1    2    0    0 -0.12135036160E-02  0.24140446736E-01 -0.29523278301E-02  0.10195794353E+01  0.10192886122E+01 0.  0.
     999903    2    3    3    0    0  0.12002981157E+00  0.48227128995E-01 -0.13453596003E-02  0.13093851118E+00  0.20250236588E-01 0.  0.
         14    1    1    2    0    0  0.12135036160E-02 -0.24140446736E-01  0.29523278301E-02  0.24350564660E-01  0.00000000000E+00 0. -1.
     999901    1    3    3    0    0 -0.12124331519E+00 -0.24086682259E-01 -0.16069682297E-02  0.88864092416E+00  0.88000000000E+00 0. -1.
        -11    1    4    4    0    0  0.38549899288E-01  0.55804921037E-02 -0.11133635999E-02  0.38970980572E-01  0.51100000000E-03 0.  1.
         11    1    4    4    0    0  0.81479912282E-01  0.42646636892E-01 -0.23199600047E-03  0.91967530611E-01  0.51100000000E-03 0. -1.
</event>
<event>
 7    1  0.1131349E+005  0.1043930E+01  0.7957747E-01            NaN
         13   -1    0    0    0    0  0.00000000000E+00  0.00000000000E+00  0.74505805969E-08  0.10566000000E+00  0.10566000000E+00 0. -1.
     999900   -1    0    0    0    0 -0.00000000000E+00 -0.00000000000E+00 -0.74505805969E-08  0.93827000000E+00  0.93827000000E+00 0.  1.
     999903    2    1    2    0    0  0.64810367730E-01  0.17416546454E-01 -0.93899176079E-01  0.11703289765E+00  0.19388759867E-01 0.  0.
         14    1    1    2    0    0 -0.36304606852E-01 -0.15441689715E-01 -0.89264318530E-02  0.40449368914E-01  0.00000000000E+00 0.  1.
     999901    1    1    2    0    0 -0.28505760878E-01 -0.19748567383E-02  0.10282560793E+00  0.88644773343E+00  0.88000000000E+00 0. -1.
        -11    1    3    3    0    0  0.34269377294E-01  0.91542033880E-02 -0.33229490527E-01  0.48607096410E-01  0.51100000000E-03 0. -1.
         11    1    3    3    0    0  0.30540990436E-01  0.82623430656E-02 -0.60669685552E-01  0.68425801242E-01  0.51100000000E-03 0.  1.
</event>
<event>
 8    1  0.1131349E+005  0.1043930E+01  0.7957747E-01            NaN
         13   -1    0    0    0    0  0.00000000000E+00  0.00000000000E+00  0.74505805969E-08  0.10566000000E+00  0.10566000000E+00 0.  1.
     999900   -1    0    0    0    0 -0.00000000000E+00 -0.00000000000E+00 -0.74505805969E-08  0.93827000000E+00  0.93827000000E+00 0. -1.
     999902    2    1    2    0    0 -0.87986190346E-02 -0.17918549143E-01 -0.22218228890E-01  0.10140612907E+01  0.10136213107E+01 0.  0.
     999903    2    3    3    0    0 -0.49346306526E-01 -0.95206472073E-01  0.62273125626E-01  0.12571657890E+00  0.20673309915E-01 0.  0.
         14    1    1    2    0    0  0.87986190346E-02  0.17918549143E-01  0.22218228890E-01  0.29868709301E-01  0.00000000000E+00 0. -1.
     999901    1    3    3    0    0  0.40547687492E-01  0.77287922930E-01 -0.84491354516E-01  0.88834471180E+00  0.88000000000E+00 0. -1.
        -11    1    4    4    0    0 -0.23919257684E-01 -0.28194997358E-01  0.15284568087E-01  0.40012097006E-01  0.51100000000E-03 0. -1.
         11    1    4    4    0    0 -0.25427048842E-01 -0.67011474715E-01  0.46988557538E-01  0.85704481895E-01  0.51100000000E-03 0.  1.
</event>
<event>
 8    1  0.1131349E+005  0.1043930E+01  0.7957747E-01            NaN
         13   -1    0    0    0    0  0.00000000000E+00  0.00000000000E+00  0.74505805969E-08  0.10566000000E+00  0.10566000000E+00 0.  1.
     999900   -1    0    0    0    0 -0.00000000000E+00 -0.00000000000E+00 -0.74505805969E-08  0.93827000000E+00  0.93827000000E+00 0. -1.
     999902    2    1    2    0    0  0.11639419147E-02 -0.94603168520E-02  0.20873683049E-01  0.10209830394E+01  0.10207251363E+01 0.  0.
     999903    2    3    3    0    0 -0.58376670452E-01 -0.10395896976E+00  0.58912036848E-01  0.13310805031E+00  0.56410925603E-02 0.  0.
         14    1    1    2    0    0 -0.11639419147E-02  0.94603168520E-02 -0.20873683049E-01  0.22946960578E-01  0.00000000000E+00 0. -1.
     999901    1    3    3    0    0  0.59540612366E-01  0.94498652913E-01 -0.38038353799E-01  0.88787498911E+00  0.88000000000E+00 0. -1.
        -11    1    4    4    0    0 -0.47751258650E-01 -0.89049494836E-01  0.49800472304E-01  0.11265142430E+00  0.51100000000E-03 0.  1.
         11    1    4    4    0    0 -0.10625411802E-01 -0.14909474929E-01  0.91115645439E-02  0.20456626018E-01  0.51100000000E-03 0. -1.
</event>
<event>
 8    1  0.1131349E+005  0.1043930E+01  0.7957747E-01            NaN
         13   -1    0    0    0    0  0.00000000000E+00  0.00000000000E+00  0.74505805969E-08  0.10566000000E+00  0.10566000000E+00 0. -1.
     999900   -1    0    0    0    0 -0.00000000000E+00 -0.00000000000E+00 -0.74505805969E-08  0.93827000000E+00  0.93827000000E+00 0.  1.
     999902    2    1    2    0    0  0.19137517408E-01 -0.13018372496E-01  0.66802101944E-02  0.10198395911E+01  0.10195550224E+01 0.  0.
     999903    2    3    3    0    0 -0.92802039055E-01  0.63890060653E-01  0.56987941637E-01  0.12800090652E+00  0.21034454457E-01 0.  0.
         14    1    1    2    0    0 -0.19137517408E-01  0.13018372496E-01 -0.66802101944E-02  0.24090408947E-01  0.00000000000E+00 0. -1.
     999901    1    3    3    0    0  0.11193955646E+00 -0.76908433149E-01 -0.50307731442E-01  0.89183868454E+00  0.88000000000E+00 0.  1.
        -11    1    4    4    0    0 -0.43169704079E-01  0.26212316384E-01  0.14390376227E-01  0.52517167950E-01  0.51100000000E-03 0. -1.
         11    1    4    4    0    0 -0.49632334976E-01  0.37677744269E-01  0.42597565410E-01  0.75483738568E-01  0.51100000000E-03 0.  1.
</event>
<event>
 8    1  0.1131349E+005  0.1043930E+01  0.7957747E-01            NaN
         13   -1    0    0    0    0  0.00000000000E+00  0.00000000000E+00  0.74505805969E-08  0.10566000000E+00  0.10566000000E+00 0.  1.
     999900   -1    0    0    0    0 -0.00000000000E+00 -0.00000000000E+00 -0.74505805969E-08  0.93827000000E+00  0.93827000000E+00 0.  1.
     999902    2    1    2    0    0  0.38127634109E-03  0.51781841866E-02 -0.19869202423E-01  0.10233935892E+01  0.10231875167E+01 0.  0.
     999903    2    3    3    0    0 -0.86321434419E-01  0.94734632343E-01 -0.35180442617E-01  0.13447730995E+00  0.20504700528E-01 0.  0.
         14    1    1    2    0    0 -0.38127634109E-03 -0.51781841866E-02  0.19869202423E-01  0.20536410787E-01  0.00000000000E+00 0.  1.
     999901    1    3    3    0    0  0.86702710760E-01 -0.89556448156E-01  0.15311240195E-01  0.88891627926E+00  0.88000000000E+00 0.  1.
        -11    1    4    4    0    0 -0.32801322450E-01  0.30298429398E-01 -0.30483226906E-02  0.44760194042E-01  0.51100000000E-03 0. -1.
         11    1    4    4    0    0 -0.53520111969E-01  0.64436202944E-01 -0.32132119927E-01  0.89717115909E-01  0.51100000000E-03 0.  1.
</event>
<event>
 8    1  0.1131349E+005  0.1043930E+01  0.7957747E-01            NaN
         13   -1    0    0    0    0  0.00000000000E+00  0.00000000000E+00  0.74505805969E-08  0.10566000000E+00  0.10566000000E+00 0. -1.
     999900   -1    0    0    0    0 -0.00000000000E+00 -0.00000000000E+00 -0.74505805969E-08  0.93827000000E+00  0.93827000000E+00 0. -1.
     999902    2    1    2    0    0 -0.15506238774E-01  0.70915787537E-03 -0.18201611845E-01  0.10200083567E+01  0.10197278081E+01 0.  0.
     999903    2    3    3    0    0  0.97818455947E-01 -0.77519562749E-01 -0.27586478649E-01  0.12925008706E+00  0.19153022400E-01 0.  0.
         14    1    1    2    0    0  0.15506238774E-01 -0.70915787537E-03  0.18201611845E-01  0.23921643329E-01  0.00000000000E+00 0. -1.
     999901    1    3    3    0    0 -0.11332469472E+00  0.78228720624E-01  0.93848668034E-02  0.89075826962E+00  0.88000000000E+00 0.  1.
        -11    1    4    4    0    0  0.59860133613E-01 -0.42821464888E-01 -0.72961951606E-02  0.73962213569E-01  0.51100000000E-03 0. -1.
         11    1    4    4    0    0  0.37958322334E-01 -0.34698097861E-01 -0.20290283488E-01  0.55287873486E-01  0.51100000000E-03 0.  1.
</event>
<event>
 8    1  0.1131349E+005  0.1043930E+01  0.7957747E-01            NaN
         13   -1    0    0    0    0  0.00000000000E+00  0.00000000000E+00  0.74505805969E-08  0.10566000000E+00  0.10566000000E+00 0. -1.
     999900   -1    0    0    0    0 -0.00000000000E+00 -0.00000000000E+00 -0.74505805969E-08  0.93827000000E+00  0.93827000000E+00 0. -1.
     999902    2    1    2    0    0  0.35795164406E-02  0.15897095836E-01  0.19139303232E-01  0.10187935022E+01  0.10184833610E+01 0.  0.
     999903    2    3    3    0    0 -0.68262580964E-01  0.40485299215E-01  0.10297883044E+00  0.13155343714E+00  0.20070572821E-01 0.  0.
         14    1    1    2    0    0 -0.35795164406E-02 -0.15897095836E-01 -0.19139303232E-01  0.25136497811E-01  0.00000000000E+00 0.  1.
     999901    1    3    3    0    0  0.71842097405E-01 -0.24588203379E-01 -0.83839527203E-01  0.88724006505E+00  0.88000000000E+00 0. -1.
        -11    1    4    4    0    0 -0.39214418625E-01  0.26845031834E-01  0.75945347007E-01  0.89590084358E-01  0.51100000000E-03 0.  1.
         11    1    4    4    0    0 -0.29048162339E-01  0.13640267381E-01  0.27033483428E-01  0.41963352783E-01  0.51100000000E-03 0. -1.
</event>
<event>
 8    1  0.1131349E+005  0.1043930E+01  0.7957747E-01            NaN
         13   -1    0    0    0    0  0.00000000000E+00  0.00000000000E+00  0.74505805969E-08  0.10566000000E+00  0.10566000000E+00 0.  1.
     999900   -1    0    0    0    0 -0.00000000000E+00 -0.00000000000E+00 -0.74505805969E-08  0.93827000000E+00  0.93827000000E+00 0.  1.
     999902    2    1    2    0    0  0.18345776343E-01 -0.10431636911E-01 -0.85332233947E-02  0.10211659393E+01  0.10209121770E+01 0.  0.
     999903    2    3    3    0    0 -0.48663488779E-01  0.62524283573E-01  0.98843614124E-01  0.12912188591E+00  0.24999603822E-01 0.  0.
         14    1    1    2    0    0 -0.18345776343E-01  0.10431636911E-01  0.85332233947E-02  0.22764060705E-01  0.00000000000E+00 0. -1.
     999901    1    3    3    0    0  0.67009265122E-01 -0.72955920484E-01 -0.10737683752E+00  0.89204405339E+00  0.88000000000E+00 0.  1.
        -11    1    4    4    0    0 -0.44361487032E-01  0.47452364096E-01  0.65377786432E-01  0.92163900035E-01  0.51100000000E-03 0. -1.
         11    1    4    4    0    0 -0.43020017472E-02  0.15071919477E-01  0.33465827692E-01  0.36957985874E-01  0.51100000000E-03 0.  1.
</event>
<event>
 8    1  0.1131349E+005  0.1043930E+01  0.7957747E-01            NaN
         13   -1    0    0    0    0  0.00000000000E+00  0.00000000000E+00  0.74505805969E-08  0.10566000000E+00  0.10566000000E+00 0. -1.
     999900   -1    0    0    0    0 -0.00000000000E+00 -0.00000000000E+00 -0.74505805969E-08  0.93827000000E+00  0.93827000000E+00 0. -1.
     999902    2    1    2    0    0  0.22987233904E-01  0.22725447743E-02 -0.41175360318E-02  0.10204665926E+01  0.10201968120E+01 0.  0.
     999903    2    3    3    0    0 -0.70897933867E-01 -0.75425793106E-01 -0.74851666614E-01  0.12925686778E+00  0.19723046982E-01 0.  0.
         14    1    1    2    0    0 -0.22987233904E-01 -0.22725447743E-02  0.41175360318E-02  0.23463407367E-01  0.00000000000E+00 0. -1.
     999901    1    3    3    0    0  0.93885167771E-01  0.77698337880E-01  0.70734130582E-01  0.89120972485E+00  0.88000000000E+00 0.  1.
        -11    1    4    4    0    0 -0.23248448469E-01 -0.37531183127E-01 -0.26352077748E-01  0.51417634969E-01  0.51100000000E-03 0.  1.
         11    1    4    4    0    0 -0.47649485398E-01 -0.37894609978E-01 -0.48499588865E-01  0.77839232815E-01  0.51100000000E-03 0. -1.
</event>
<event>
 8    1  0.1131349E+005  0.1043930E+01  0.7957747E-01            NaN
         13   -1    0    0    0    0  0.00000000000E+00  0.00000000000E+00  0.74505805969E-08  0.10566000000E+00  0.10566000000E+00 0. -1.
     999900   -1    0    0    0    0 -0.00000000000E+00 -0.00000000000E+00 -0.74505805969E-08  0.93827000000E+00  0.93827000000E+00 0.  1.
     999902    2    1    2    0    0  0.50325861025E-02  0.19643443364E-01 -0.11064154161E-01  0.10208300585E+01  0.10205686655E+01 0.  0.
     999903    2    3    3    0    0  0.81356431646E-01 -0.91327408601E-01  0.37061356588E-01  0.12928313087E+00  0.19519714206E-01 0.  0.
         14    1    1    2    0    0 -0.50325861025E-02 -0.19643443364E-01  0.11064154161E-01  0.23099941502E-01  0.00000000000E+00 0. -1.
     999901    1    3    3    0    0 -0.76323845544E-01  0.11097085196E+00 -0.48125510749E-01  0.89154692763E+00  0.88000000000E+00 0.  1.
        -11    1    4    4    0    0  0.47680404478E-01 -0.67314188735E-01  0.24381798119E-01  0.86019498817E-01  0.51100000000E-03 0. -1.
         11    1    4    4    0    0  0.33676027168E-01 -0.24013219865E-01  0.12679558469E-01  0.43263632050E-01  0.51100000000E-03 0.  1.
</event>
<event>
 8    1  0.1131349E+005  0.1043930E+01  0.7957747E-01            NaN
         13   -1    0    0    0    0  0.00000000000E+00  0.00000000000E+00  0.74505805969E-08  0.10566000000E+00  0.10566000000E+00 0. -1.
     999900   -1    0    0    0    0 -0.00000000000E+00 -0.00000000000E+00 -0.74505805969E-08  0.93827000000E+00  0.93827000000E+00 0. -1.
     999902    2    1    2    0    0 -0.20325773218E-01  0.12450332976E-01  0.54229888484E-02  0.10194850280E+01  0.10191919180E+01 0.  0.
     999903    2    3    3    0    0  0.61133413190E-01 -0.19008784375E-01  0.11016538965E+00  0.12898166156E+00  0.20030672753E-01 0.  0.
         14    1    1    2    0    0  0.20325773218E-01 -0.12450332976E-01 -0.54229888484E-02  0.24444972002E-01  0.00000000000E+00 0.  1.
     999901    1    3    3    0    0 -0.81459186408E-01  0.31459117351E-01 -0.10474240080E+00  0.89050336644E+00  0.88000000000E+00 0. -1.
        -11    1    4    4    0    0  0.16335882259E-01 -0.81329241242E-03  0.44650102235E-01  0.47554339911E-01  0.51100000000E-03 0.  1.
         11    1    4    4    0    0  0.44797530930E-01 -0.18195491963E-01  0.65515287411E-01  0.81427321648E-01  0.51100000000E-03 0. -1.
</event>
<event>
 8    1  0.1131349E+005  0.1043930E+01  0.7957747E-01            NaN
         13   -1    0    0    0    0  0.00000000000E+00  0.00000000000E+00  0.74505805969E-08  0.10566000000E+00  0.10566000000E+00 0. -1.
     999900   -1    0    0    0    0 -0.00000000000E+00 -0.00000000000E+00 -0.74505805969E-08  0.93827000000E+00  0.93827000000E+00 0.  1.
     999902    2    1    2    0    0 -0.10601414042E-01  0.95388867607E-02  0.19303019683E-01  0.10199302727E+01  0.10196478678E+01 0.  0.
     999903    2    3    3    0    0  0.80583189783E-01  0.50085288854E-01 -0.84020257672E-01  0.12828328970E+00  0.19874910866E-01 0.  0.
         14    1    1    2    0    0  0.10601414042E-01 -0.95388867607E-02 -0.19303019683E-01  0.23999727273E-01  0.00000000000E+00 0.  1.
     999901    1    3    3    0    0 -0.91184603825E-01 -0.40546402093E-01  0.10332327735E+00  0.89164698303E+00  0.88000000000E+00 0. -1.
        -11    1    4    4    0    0  0.52073553924E-01  0.40529858832E-01 -0.49437810597E-01  0.82454124899E-01  0.51100000000E-03 0. -1.
         11    1    4    4    0    0  0.28509635859E-01  0.95554300217E-02 -0.34582447074E-01  0.45829164801E-01  0.51100000000E-03 0.  1.
</event>
<event>
 8    1  0.1131349E+005  0.1043930E+01  0.7957747E-01            NaN
         13   -1    0    0    0    0  0.00000000000E+00  0.00000000000E+00  0.74505805969E-08  0.10566000000E+00  0.10566000000E+00 0.  1.
     999900   -1    0    0    0    0 -0.00000000000E+00 -0.00000000000E+00 -0.74505805969E-08  0.93827000000E+00  0.93827000000E+00 0. -1.
     999902    2    1    2    0    0 -0.45382353666E-03  0.19394048049E-01 -0.32540755225E-02  0.10242596146E+01  0.10240707173E+01 0.  0.
     999903    2    3    3    0    0  0.11442483460E+00  0.11016210294E-02  0.66243099958E-01  0.13388802002E+00  0.21061748961E-01 0.  0.
         14    1    1    2    0    0  0.45382353666E-03 -0.19394048049E-01  0.32540755225E-02  0.19670385432E-01  0.00000000000E+00 0.  1.
     999901    1    3    3    0    0 -0.11487865814E+00  0.18292427020E-01 -0.69497175480E-01  0.89037159455E+00  0.88000000000E+00 0. -1.
        -11    1    4    4    0    0  0.31246941574E-01  0.96848885656E-02  0.19557120319E-01  0.38117063114E-01  0.51100000000E-03 0.  1.
         11    1    4    4    0    0  0.83177893029E-01 -0.85832675362E-02  0.46685979639E-01  0.95770956903E-01  0.51100000000E-03 0. -1.
</event>
<event>
 8    1  0.1131349E+005  0.1043930E+01  0.7957747E-01            NaN
         13   -1    0    0    0    0  0.00000000000E+00  0.00000000000E+00  0.74505805969E-08  0.10566000000E+00  0.10566000000E+00 0. -1.
     999900   -1    0    0    0    0 -0.00000000000E+00 -0.00000000000E+00 -0.74505805969E-08  0.93827000000E+00  0.93827000000E+00 0. -1.
     999902    2    1    2    0    0  0.21071575998E-01  0.94909293804E-02  0.56318390257E-02  0.10201433090E+01  0.10198659541E+01 0.  0.
     999903    2    3    3    0    0 -0.22459014102E-01 -0.10377668483E+00 -0.69848258437E-01  0.12861556982E+00  0.19727594019E-01 0.  0.
         14    1    1    2    0    0 -0.21071575998E-01 -0.94909293804E-02 -0.56318390257E-02  0.23786690950E-01  0.00000000000E+00 0.  1.
     999901    1    3    3    0    0  0.43530590100E-01  0.11326761421E+00  0.75480097463E-01  0.89152773923E+00  0.88000000000E+00 0.  1.
        -11    1    4    4    0    0 -0.17909339590E-01 -0.39562766916E-01 -0.31889980163E-01  0.53881248374E-01  0.51100000000E-03 0. -1.
         11    1    4    4    0    0 -0.45496745117E-02 -0.64213917910E-01 -0.37958278274E-01  0.74734321446E-01  0.51100000000E-03 0.  1.
</event>
<event>
 8    1  0.1131349E+005  0.1043930E+01  0.7957747E-01            NaN
         13   -1    0    0    0    0  0.00000000000E+00  0.00000000000E+00  0.74505805969E-08  0.10566000000E+00  0.10566000000E+00 0. -1.
     999900   -1    0    0    0    0 -0.00000000000E+00 -0.00000000000E+00 -0.74505805969E-08  0.93827000000E+00  0.93827000000E+00 0. -1.
     999902    2    1    2    0    0 -0.14568570281E-01 -0.96544919033E-02  0.16259711155E-01  0.10200588739E+01  0.10197795230E+01 0.  0.
     999903    2    3    3    0    0 -0.83164106008E-01  0.63640653322E-01 -0.74018371207E-01  0.12976248619E+00  0.19828824031E-01 0.  0.
         14    1    1    2    0    0  0.14568570281E-01  0.96544919033E-02 -0.16259711155E-01  0.23871126090E-01  0.00000000000E+00 0.  1.
     999901    1    3    3    0    0  0.68595535726E-01 -0.73295145225E-01  0.90278082362E-01  0.89029638772E+00  0.88000000000E+00 0.  1.
        -11    1    4    4    0    0 -0.49347763536E-01  0.28808687719E-01 -0.31638104074E-01  0.65317478553E-01  0.51100000000E-03 0.  1.
         11    1    4    4    0    0 -0.33816342471E-01  0.34831965602E-01 -0.42380267133E-01  0.64445007635E-01  0.51100000000E-03 0. -1.
</event>
<event>
 8    1  0.1131349E+005  0.1043930E+01  0.7957747E-01            NaN
         13   -1    0    0    0    0  0.00000000000E+00  0.00000000000E+00  0.74505805969E-08  0.10566000000E+00  0.10566000000E+00 0. -1.
     999900   -1    0    0    0    0 -0.00000000000E+00 -0.00000000000E+00 -0.74505805969E-08  0.93827000000E+00  0.93827000000E+00 0.  1.
     999902    2    1    2    0    0 -0.15014319158E-01  0.38153970484E-02  0.12813131555E-01  0.10238261851E+01  0.10236287871E+01 0.  0.
     999903    2    3    3    0    0 -0.78572392066E-01 -0.43860600606E-01 -0.96242453664E-01  0.13354210117E+00  0.21760280711E-01 0.  0.
         14    1    1    2    0    0  0.15014319158E-01 -0.38153970484E-02 -0.12813131555E-01  0.20103814928E-01  0.00000000000E+00 0. -1.
     999901    1    3    3    0    0  0.63558072908E-01  0.47675997654E-01  0.10905558522E+00  0.89028408390E+00  0.88000000000E+00 0. -1.
        -11    1    4    4    0    0 -0.34766521486E-01 -0.26499033952E-01 -0.33513476790E-01  0.55084699002E-01  0.51100000000E-03 0.  1.
         11    1    4    4    0    0 -0.43805870580E-01 -0.17361566654E-01 -0.62728976874E-01  0.78457402166E-01  0.51100000000E-03 0. -1.
</event>
<event>
 8    1  0.1131349E+005  0.1043930E+01  0.7957747E-01            NaN
         13   -1    0    0    0    0  0.00000000000E+00  0.00000000000E+00  0.74505805969E-08  0.10566000000E+00  0.10566000000E+00 0.  1.
     999900   -1    0    0    0    0 -0.00000000000E+00 -0.00000000000E+00 -0.74505805969E-08  0.93827000000E+00  0.93827000000E+00 0.  1.
     999902    2    1    2    0    0  0.17552711057E-01 -0.15877533774E-01  0.28637004316E-02  0.10200889739E+01  0.10198103354E+01 0.  0.
     999903    2    3    3    0    0  0.33501005403E-01  0.97576069817E-01  0.75563595387E-01  0.12968943271E+00  0.21589007529E-01 0.  0.
         14    1    1    2    0    0 -0.17552711057E-01  0.15877533774E-01 -0.28637004316E-02  0.23841026076E-01  0.00000000000E+00 0.  1.
     999901    1    3    3    0    0 -0.15948294346E-01 -0.11345360359E+00 -0.72699894955E-01  0.89039954121E+00  0.88000000000E+00 0.  1.
        -11    1    4    4    0    0  0.35601033595E-01  0.78599133498E-01  0.61032456435E-01  0.10569048793E+00  0.51100000000E-03 0. -1.
         11    1    4    4    0    0 -0.21000281925E-02  0.18976936318E-01  0.14531138952E-01  0.23998944783E-01  0.51100000000E-03 0.  1.
</event>
<event>
 8    1  0.1131349E+005  0.1043930E+01  0.7957747E-01            NaN
         13   -1    0    0    0    0  0.00000000000E+00  0.00000000000E+00  0.74505805969E-08  0.10566000000E+00  0.10566000000E+00 0. -1.
     999900   -1    0    0    0    0 -0.00000000000E+00 -0.00000000000E+00 -0.74505805969E-08  0.93827000000E+00  0.93827000000E+00 0.  1.
     999902    2    1    2    0    0  0.19277323265E-01 -0.14105655550E-01 -0.14003975736E-02  0.10200020702E+01  0.10197213724E+01 0.  0.
     999903    2    3    3    0    0  0.11640052956E+00  0.32015120661E-01 -0.49925072480E-01  0.13213119712E+00  0.19801241318E-01 0.  0.
         14    1    1    2    0    0 -0.19277323265E-01  0.14105655550E-01  0.14003975736E-02  0.23927929792E-01  0.00000000000E+00 0. -1.
     999901    1    3    3    0    0 -0.97123206297E-01 -0.46120776210E-01  0.48524674906E-01  0.88787087309E+00  0.88000000000E+00 0. -1.
        -11    1    4    4    0    0  0.45342189566E-01  0.40950154433E-02 -0.13169438640E-01  0.47395976002E-01  0.51100000000E-03 0.  1.
         11    1    4    4    0    0  0.71058339996E-01  0.27920105217E-01 -0.36755633840E-01  0.84735221120E-01  0.51100000000E-03 0. -1.
</event>
<event>
 8    1  0.1131349E+005  0.1043930E+01  0.7957747E-01            NaN
         13   -1    0    0    0    0  0.00000000000E+00  0.00000000000E+00  0.74505805969E-08  0.10566000000E+00  0.10566000000E+00 0.  1.
     999900   -1    0    0    0    0 -0.00000000000E+00 -0.00000000000E+00 -0.74505805969E-08  0.93827000000E+00  0.93827000000E+00 0.  1.
     999902    2    1    2    0    0  0.12608466891E-01 -0.18076912041E-01 -0.77743485096E-02  0.10205593201E+01  0.10202916922E+01 0.  0.
     999903    2    3    3    0    0  0.92899221085E-01 -0.93524056774E-01  0.62353674684E-02  0.13357840200E+00  0.20671119933E-01 0.  0.
         14    1    1    2    0    0 -0.12608466891E-01  0.18076912041E-01  0.77743485096E-02  0.23370679944E-01  0.00000000000E+00 0.  1.
     999901    1    3    3    0    0 -0.80290754194E-01  0.75447144733E-01 -0.14009715978E-01  0.88698091806E+00  0.88000000000E+00 0. -1.
        -11    1    4    4    0    0  0.23222535086E-01 -0.35515640004E-01 -0.23902651500E-02  0.42504368119E-01  0.51100000000E-03 0. -1.
         11    1    4    4    0    0  0.69676685999E-01 -0.58008416770E-01  0.86256326183E-02  0.91074033880E-01  0.51100000000E-03 0.  1.
</event>
<event>
 8    1  0.1131349E+005  0.1043930E+01  0.7957747E-01            NaN
         13   -1    0    0    0    0  0.00000000000E+00  0.00000000000E+00  0.74505805969E-08  0.10566000000E+00  0.10566000000E+00 0.  1.
     999900   -1    0    0    0    0 -0.00000000000E+00 -0.00000000000E+00 -0.74505805969E-08  0.93827000000E+00  0.93827000000E+00 0.  1.
     999902    2    1    2    0    0  0.69791635079E-03  0.19542377903E-01  0.13442354659E-01  0.10202005137E+01  0.10199245068E+01 0.  0.
     999903    2    3    3    0    0 -0.51175178683E-01 -0.11482699549E+00  0.16610553654E-01  0.12848532151E+00  0.20698539640E-01 0.  0.
         14    1    1    2    0    0 -0.69791635079E-03 -0.19542377903E-01 -0.13442354659E-01  0.23729486301E-01  0.00000000000E+00 0. -1.
     999901    1    3    3    0    0  0.51873095034E-01  0.13436937340E+00 -0.31681989955E-02  0.89171519219E+00  0.88000000000E+00 0.  1.
        -11    1    4    4    0    0 -0.11316705337E-01 -0.42614859158E-01 -0.11558485898E-02  0.44109989206E-01  0.51100000000E-03 0.  1.
         11    1    4    4    0    0 -0.39858473346E-01 -0.72212136336E-01  0.17766402244E-01  0.84375332304E-01  0.51100000000E-03 0. -1.
</event>
<event>
 8    1  0.1131349E+005  0.1043930E+01  0.7957747E-01            NaN
         13   -1    0    0    0    0  0.00000000000E+00  0.00000000000E+00  0.74505805969E-08  0.10566000000E+00  0.10566000000E+00 0.  1.
     999900   -1    0    0    0    0 -0.00000000000E+00 -0.00000000000E+00 -0.74505805969E-08  0.93827000000E+00  0.93827000000E+00 0.  1.
     999902    2    1    2    0    0 -0.17695239538E-01 -0.53531246817E-02  0.15244155667E-01  0.10199683279E+01  0.10196868285E+01 0.  0.
     999903    2    3    3    0    0  0.10651872337E+00 -0.16796161177E-01  0.68916345813E-01  0.12955227032E+00  0.20148909808E-01 0.  0.
         14    1    1    2    0    0  0.17695239538E-01  0.53531246817E-02 -0.15244155667E-01  0.23961672065E-01  0.00000000000E+00 0. -1.
     999901    1    3    3    0    0 -0.12421396291E+00  0.11443036496E-01 -0.53672190146E-01  0.89041605762E+00  0.88000000000E+00 0. -1.
        -11    1    4    4    0    0  0.93565675963E-01 -0.20675759243E-01  0.56828241623E-01  0.11140795710E+00  0.51100000000E-03 0.  1.
         11    1    4    4    0    0  0.12953047405E-01  0.38795980654E-02  0.12088104190E-01  0.18144313218E-01  0.51100000000E-03 0. -1.
</event>
<event>
 8    1  0.1131349E+005  0.1043930E+01  0.7957747E-01            NaN
         13   -1    0    0    0    0  0.00000000000E+00  0.00000000000E+00  0.74505805969E-08  0.10566000000E+00  0.10566000000E+00 0. -1.
     999900   -1    0    0    0    0 -0.00000000000E+00 -0.00000000000E+00 -0.74505805969E-08  0.93827000000E+00  0.93827000000E+00 0. -1.
     999902    2    1    2    0    0  0.18353243579E-01  0.82455834495E-02  0.11695273675E-01  0.10206574706E+01  0.10203921118E+01 0.  0.
     999903    2    3    3    0    0  0.26431190018E-01  0.10967904621E+00  0.67849959491E-01  0.13301601751E+00  0.19014282175E-01 0.  0.
         14    1    1    2    0    0 -0.18353243579E-01 -0.82455834495E-02 -0.11695273675E-01  0.23272529356E-01  0.00000000000E+00 0. -1.
     999901    1    3    3    0    0 -0.80779464392E-02 -0.10143346276E+00 -0.56154685816E-01  0.88764145314E+00  0.88000000000E+00 0. -1.
        -11    1    4    4    0    0  0.17335509568E-01  0.74070028182E-01  0.35075748392E-01  0.83770270462E-01  0.51100000000E-03 0. -1.
         11    1    4    4    0    0  0.90956804500E-02  0.35609018031E-01  0.32774211099E-01  0.49245747046E-01  0.51100000000E-03 0.  1.
</event>
<event>
 8    1  0.1131349E+005  0.1043930E+01  0.7957747E-01            NaN
         13   -1    0    0    0    0  0.00000000000E+00  0.00000000000E+00  0.74505805969E-08  0.10566000000E+00  0.10566000000E+00 0. -1.
     999900   -1    0    0    0    0 -0.00000000000E+00 -0.00000000000E+00 -0.74505805969E-08  0.93827000000E+00  0.93827000000E+00 0. -1.
     999902    2    1    2    0    0 -0.14568124894E-01  0.27789253552E-03 -0.19035440722E-01  0.10199580270E+01  0.10196762826E+01 0.  0.
     999903    2    3    3    0    0 -0.10114788607E+00 -0.76104823940E-01  0.27896724786E-01  0.13117627504E+00  0.20153133646E-01 0.  0.
         14    1    1    2    0    0  0.14568124894E-01 -0.27789253552E-03  0.19035440722E-01  0.23971973024E-01  0.00000000000E+00 0. -1.
     999901    1    3    3    0    0  0.86579761173E-01  0.76382716476E-01 -0.46932165509E-01  0.88878175194E+00  0.88000000000E+00 0. -1.
        -11    1    4    4    0    0 -0.82206973256E-01 -0.51899563604E-01  0.17918706738E-01  0.98857940128E-01  0.51100000000E-03 0.  1.
         11    1    4    4    0    0 -0.18940912811E-01 -0.24205260337E-01  0.99780180480E-02  0.32318334909E-01  0.51100000000E-03 0. -1.
</event>
<event>
 8    1  0.1131349E+005  0.1043930E+01  0.7957747E-01            NaN
         13   -1    0    0    0    0  0.00000000000E+00  0.00000000000E+00  0.74505805969E-08  0.10566000000E+00  0.10566000000E+00 0. -1.
     999900   -1    0    0    0    0 -0.00000000000E+00 -0.00000000000E+00 -0.74505805969E-08  0.93827000000E+00  0.93827000000E+00 0.  1.
     999902    2    1    2    0    0  0.80032115214E-02  0.24877597073E-03  0.21093656194E-01  0.10213677391E+01  0.10211185058E+01 0.  0.
     999903    2    3    3    0    0  0.70266330372E-02 -0.63147886673E-01  0.11627834971E+00  0.13396691852E+00  0.19734525141E-01 0.  0.
         14    1    1    2    0    0 -0.80032115214E-02 -0.24877597073E-03 -0.21093656194E-01  0.22562260874E-01  0.00000000000E+00 0.  1.
     999901    1    3    3    0    0  0.97657848423E-03  0.63396662644E-01 -0.95184693515E-01  0.88740082061E+00  0.88000000000E+00 0.  1.
        -11    1    4    4    0    0  0.55003317490E-02 -0.44641588050E-01  0.98357986353E-01  0.10815581183E+00  0.51100000000E-03 0. -1.
         11    1    4    4    0    0  0.15263012882E-02 -0.18506298624E-01  0.17920363356E-01  0.25811106683E-01  0.51100000000E-03 0.  1.
</event>
<event>
 8    1  0.1131349E+005  0.1043930E+01  0.7957747E-01            NaN
         13   -1    0    0    0    0  0.00000000000E+00  0.00000000000E+00  0.74505805969E-08  0.10566000000E+00  0.10566000000E+00 0.  1.
     999900   -1    0    0    0    0 -0.00000000000E+00 -0.00000000000E+00 -0.74505805969E-08  0.93827000000E+00  0.93827000000E+00 0.  1.
     999902    2    1    2    0    0  0.11906527286E-01 -0.52795164954E-02  0.22849394902E-01  0.10176291724E+01  0.10172892405E+01 0.  0.
     999903    2    3    3    0    0  0.39505072222E-01 -0.31559395241E-01 -0.11386643100E+00  0.12625746048E+00  0.20463041302E-01 0.  0.
         14    1    1    2    0    0 -0.11906527286E-01  0.52795164954E-02 -0.22849394902E-01  0.26300827627E-01  0.00000000000E+00 0. -1.
     999901    1    3    3    0    0 -0.27598544936E-01  0.26279878746E-01  0.13671582590E+00  0.89137171189E+00  0.88000000000E+00 0. -1.
        -11    1    4    4    0    0  0.15713628264E-01 -0.52751830150E-02 -0.55891318266E-01  0.58299624763E-01  0.51100000000E-03 0. -1.
         11    1    4    4    0    0  0.23791443958E-01 -0.26284212226E-01 -0.57975112734E-01  0.67957835718E-01  0.51100000000E-03 0.  1.
</event>
<event>
 8    1  0.1131349E+005  0.1043930E+01  0.7957747E-01            NaN
         13   -1    0    0    0    0  0.00000000000E+00  0.00000000000E+00  0.74505805969E-08  0.10566000000E+00  0.10566000000E+00 0.  1.
     999900   -1    0    0    0    0 -0.00000000000E+00 -0.00000000000E+00 -0.74505805969E-08  0.93827000000E+00  0.93827000000E+00 0. -1.
     999902    2    1    2    0    0 -0.31532656755E-02  0.19196231001E-01 -0.10240773361E-01  0.10219456463E+01  0.10217091524E+01 0.  0.
     999903    2    3    3    0    0  0.71585225640E-01 -0.42686135905E-01  0.97974424460E-01  0.13002311689E+00  0.18986109346E-01 0.  0.
         14    1    1    2    0    0  0.31532656755E-02 -0.19196231001E-01  0.10240773361E-01  0.21984353711E-01  0.00000000000E+00 0.  1.
     999901    1    3    3    0    0 -0.74738491316E-01  0.61882366905E-01 -0.10821519782E+00  0.89192252940E+00  0.88000000000E+00 0. -1.
        -11    1    4    4    0    0  0.28329480339E-01 -0.22096564316E-01  0.29703660772E-01  0.46619590250E-01  0.51100000000E-03 0. -1.
         11    1    4    4    0    0  0.43255745301E-01 -0.20589571589E-01  0.68270763688E-01  0.83403526636E-01  0.51100000000E-03 0.  1.
</event>
<event>
 8    1  0.1131349E+005  0.1043930E+01  0.7957747E-01            NaN
         13   -1    0    0    0    0  0.00000000000E+00  0.00000000000E+00  0.74505805969E-08  0.10566000000E+00  0.10566000000E+00 0. -1.
     999900   -1    0    0    0    0 -0.00000000000E+00 -0.00000000000E+00 -0.74505805969E-08  0.93827000000E+00  0.93827000000E+00 0. -1.
     999902    2    1    2    0    0  0.80430689035E-02 -0.18344612428E-01 -0.11753110576E-01  0.10207060604E+01  0.10204418212E+01 0.  0.
     999903    2    3    3    0    0  0.50258922316E-01  0.31764808006E-01 -0.11625109597E+00  0.13210437165E+00  0.20057053480E-01 0.  0.
         14    1    1    2    0    0 -0.80430689035E-02  0.18344612428E-01  0.11753110576E-01  0.23223939604E-01  0.00000000000E+00 0.  1.
     999901    1    3    3    0    0 -0.42215853413E-01 -0.50109420433E-01  0.10449798539E+00  0.88860168875E+00  0.88000000000E+00 0.  1.
        -11    1    4    4    0    0  0.14932007533E-01  0.41106553877E-04 -0.22407754170E-01  0.26932046091E-01  0.51100000000E-03 0.  1.
         11    1    4    4    0    0  0.35326914784E-01  0.31723701452E-01 -0.93843341799E-01  0.10517232556E+00  0.51100000000E-03 0. -1.
</event>
<event>
 8    1  0.1131349E+005  0.1043930E+01  0.7957747E-01            NaN
         13   -1    0    0    0    0  0.00000000000E+00  0.00000000000E+00  0.74505805969E-08  0.10566000000E+00  0.10566000000E+00 0. -1.
     999900   -1    0    0    0    0 -0.00000000000E+00 -0.00000000000E+00 -0.74505805969E-08  0.93827000000E+00  0.93827000000E+00 0. -1.
     999902    2    1    2    0    0  0.16870205837E-01 -0.27266435514E-01 -0.20508368697E-02  0.10118010678E+01  0.10112908249E+01 0.  0.
     999903    2    3    3    0    0 -0.35711695595E-02  0.10927351356E+00  0.44418226380E-01  0.11982551807E+00  0.20777919241E-01 0.  0.
         14    1    1    2    0    0 -0.16870205837E-01  0.27266435514E-01  0.20508368697E-02  0.32128932172E-01  0.00000000000E+00 0. -1.
     999901    1    3    3    0    0  0.20441375397E-01 -0.13653994908E+00 -0.46469063250E-01  0.89197554976E+00  0.88000000000E+00 0. -1.
        -11    1    4    4    0    0  0.82959792052E-02  0.30858948502E-01  0.13811982871E-01  0.34815656901E-01  0.51100000000E-03 0.  1.
         11    1    4    4    0    0 -0.11867148765E-01  0.78414565062E-01  0.30606243509E-01  0.85009861172E-01  0.51100000000E-03 0. -1.
</event>
<event>
 8    1  0.1131349E+005  0.1043930E+01  0.7957747E-01            NaN
         13   -1    0    0    0    0  0.00000000000E+00  0.00000000000E+00  0.74505805969E-08  0.10566000000E+00  0.10566000000E+00 0. -1.
     999900   -1    0    0    0    0 -0.00000000000E+00 -0.00000000000E+00 -0.74505805969E-08  0.93827000000E+00  0.93827000000E+00 0. -1.
     999902    2    1    2    0    0 -0.22948379434E-01  0.38173515951E-02 -0.45844088777E-02  0.10202188824E+01  0.10199433077E+01 0.  0.
     999903    2    3    3    0    0 -0.70413279749E-01 -0.65941634485E-01  0.87363567134E-01  0.13141425643E+00  0.18192987852E-01 0.  0.
         14    1    1    2    0    0  0.22948379434E-01 -0.38173515951E-02  0.45844088777E-02  0.23711117574E-01  0.00000000000E+00 0.  1.
     999901    1    3    3    0    0  0.47464900315E-01  0.69758986080E-01 -0.91947976012E-01  0.88880462600E+00  0.88000000000E+00 0. -1.
        -11    1    4    4    0    0 -0.38630312735E-01 -0.25967615962E-01  0.34754180505E-01  0.58092446362E-01  0.51100000000E-03 0. -1.
         11    1    4    4    0    0 -0.31782967014E-01 -0.39974018523E-01  0.52609386629E-01  0.73321810068E-01  0.51100000000E-03 0.  1.
</event>
<event>
 8    1  0.1131349E+005  0.1043930E+01  0.7957747E-01            NaN
         13   -1    0    0    0    0  0.00000000000E+00  0.00000000000E+00  0.74505805969E-08  0.10566000000E+00  0.10566000000E+00 0. -1.
     999900   -1    0    0    0    0 -0.00000000000E+00 -0.00000000000E+00 -0.74505805969E-08  0.93827000000E+00  0.93827000000E+00 0. -1.
     999902    2    1    2    0    0 -0.18239786003E-01  0.48500531426E-02 -0.13291582428E-01  0.10208458285E+01  0.10205847964E+01 0.  0.
     999903    2    3    3    0    0  0.10388826611E+00  0.76792575145E-01 -0.70642187567E-02  0.12948183574E+00  0.50765311652E-02 0.  0.
         14    1    1    2    0    0  0.18239786003E-01 -0.48500531426E-02  0.13291582428E-01  0.23084171468E-01  0.00000000000E+00 0.  1.
     999901    1    3    3    0    0 -0.12212805211E+00 -0.71942522003E-01 -0.62273636715E-02  0.89136399279E+00  0.88000000000E+00 0. -1.
        -11    1    4    4    0    0  0.77249410772E-01  0.55353092681E-01 -0.35244404392E-02  0.95100573791E-01  0.51100000000E-03 0. -1.
         11    1    4    4    0    0  0.26638855333E-01  0.21439482464E-01 -0.35397783175E-02  0.34381261951E-01  0.51100000000E-03 0.  1.
</event>
<event>
 8    1  0.1131349E+005  0.1043930E+01  0.7957747E-01            NaN
         13   -1    0    0    0    0  0.00000000000E+00  0.00000000000E+00  0.74505805969E-08  0.10566000000E+00  0.10566000000E+00 0. -1.
     999900   -1    0    0    0    0 -0.00000000000E+00 -0.00000000000E+00 -0.74505805969E-08  0.93827000000E+00  0.93827000000E+00 0. -1.
     999902    2    1    2    0    0  0.29291382156E-02 -0.19924015068E-01  0.12337635595E-01  0.10203129833E+01  0.10200396171E+01 0.  0.
     999903    2    3    3    0    0 -0.15750893695E-01 -0.13040062680E+00 -0.50305663972E-02  0.13303868534E+00  0.20532196052E-01 0.  0.
         14    1    1    2    0    0 -0.29291382156E-02  0.19924015068E-01 -0.12337635595E-01  0.23617016729E-01  0.00000000000E+00 0.  1.
     999901    1    3    3    0    0  0.18680031911E-01  0.11047661174E+00  0.17368201992E-01  0.88727429793E+00  0.88000000000E+00 0. -1.
        -11    1    4    4    0    0  0.29567302795E-02 -0.54204084082E-01 -0.56031286707E-02  0.54575462957E-01  0.51100000000E-03 0. -1.
         11    1    4    4    0    0 -0.18707623975E-01 -0.76196542723E-01  0.57256227343E-03  0.78463222380E-01  0.51100000000E-03 0.  1.
</event>
<event>
 8    1  0.1131349E+005  0.1043930E+01  0.7957747E-01            NaN
         13   -1    0    0    0    0  0.00000000000E+00  0.00000000000E+00  0.74505805969E-08  0.10566000000E+00  0.10566000000E+00 0. -1.
     999900   -1    0    0    0    0 -0.00000000000E+00 -0.00000000000E+00 -0.74505805969E-08  0.93827000000E+00  0.93827000000E+00 0. -1.
     999902    2    1    2    0    0  0.16724607665E-01  0.87141666180E-02  0.58178473643E-03  0.10250623644E+01  0.10248887077E+01 0.  0.
     999903    2    3    3    0    0  0.86481388710E-01  0.33051752063E-01 -0.98289704570E-01  0.13644889497E+00  0.19646526596E-01 0.  0.
         14    1    1    2    0    0 -0.16724607665E-01 -0.87141666180E-02 -0.58178473643E-03  0.18867635646E-01  0.00000000000E+00 0. -1.
     999901    1    3    3    0    0 -0.69756781045E-01 -0.24337585445E-01  0.98871489307E-01  0.88861346938E+00  0.88000000000E+00 0.  1.
        -11    1    4    4    0    0  0.70846399438E-01  0.20507164489E-01 -0.69338276636E-01  0.10123148639E+00  0.51100000000E-03 0.  1.
         11    1    4    4    0    0  0.15634989271E-01  0.12544587575E-01 -0.28951427934E-01  0.35217408584E-01  0.51100000000E-03 0. -1.
</event>
<event>
 8    1  0.1131349E+005  0.1043930E+01  0.7957747E-01            NaN
         13   -1    0    0    0    0  0.00000000000E+00  0.00000000000E+00  0.74505805969E-08  0.10566000000E+00  0.10566000000E+00 0.  1.
     999900   -1    0    0    0    0 -0.00000000000E+00 -0.00000000000E+00 -0.74505805969E-08  0.93827000000E+00  0.93827000000E+00 0. -1.
     999902    2    1    2    0    0  0.22532832948E-01  0.53551600742E-02  0.11927517196E-02  0.10207388604E+01  0.10204753756E+01 0.  0.
     999903    2    3    3    0    0  0.71986368877E-01  0.75646078499E-01 -0.79597506746E-01  0.13286863828E+00  0.20345649719E-01 0.  0.
         14    1    1    2    0    0 -0.22532832948E-01 -0.53551600742E-02 -0.11927517196E-02  0.23191139618E-01  0.00000000000E+00 0.  1.
     999901    1    3    3    0    0 -0.49453535929E-01 -0.70290918425E-01  0.80790258466E-01  0.88787022210E+00  0.88000000000E+00 0.  1.
        -11    1    4    4    0    0  0.75143973374E-03  0.78259155187E-02 -0.41362805401E-02  0.88982893348E-02  0.51100000000E-03 0. -1.
         11    1    4    4    0    0  0.71234929144E-01  0.67820162980E-01 -0.75461226206E-01  0.12397034895E+00  0.51100000000E-03 0.  1.
</event>
<event>
 8    1  0.1131349E+005  0.1043930E+01  0.7957747E-01            NaN
         13   -1    0    0    0    0  0.00000000000E+00  0.00000000000E+00  0.74505805969E-08  0.10566000000E+00  0.10566000000E+00 0.  1.
     999900   -1    0    0    0    0 -0.00000000000E+00 -0.00000000000E+00 -0.74505805969E-08  0.93827000000E+00  0.93827000000E+00 0.  1.
     999902    2    1    2    0    0  0.94538553792E-02 -0.14270001668E-01  0.15747390863E-01  0.10206708373E+01  0.10204057867E+01 0.  0.
     999903    2    3    3    0    0  0.41541214200E-01 -0.10839432598E+00 -0.59478178917E-01  0.13188071960E+00  0.19490204050E-01 0.  0.
         14    1    1    2    0    0 -0.94538553792E-02  0.14270001668E-01 -0.15747390863E-01  0.23259162670E-01  0.00000000000E+00 0. -1.
     999901    1    3    3    0    0 -0.32087358821E-01  0.94124324310E-01  0.75225569780E-01  0.88879011773E+00  0.88000000000E+00 0.  1.
        -11    1    4    4    0    0  0.40398749242E-01 -0.83304079925E-01 -0.46979488212E-01  0.10382178050E+00  0.51100000000E-03 0.  1.
         11    1    4    4    0    0  0.11424649579E-02 -0.25090246053E-01 -0.12498690705E-01  0.28058939102E-01  0.51100000000E-03 0. -1.
</event>
<event>
 8    1  0.1131349E+005  0.1043930E+01  0.7957747E-01            NaN
         13   -1    0    0    0    0  0.00000000000E+00  0.00000000000E+00  0.74505805969E-08  0.10566000000E+00  0.10566000000E+00 0. -1.
     999900   -1    0    0    0    0 -0.00000000000E+00 -0.00000000000E+00 -0.74505805969E-08  0.93827000000E+00  0.93827000000E+00 0. -1.
     999902    2    1    2    0    0  0.36612505163E-02  0.15586864379E-01  0.16487029739E-01  0.10209478929E+01  0.10206891901E+01 0.  0.
     999903    2    3    3    0    0 -0.30068070224E-01  0.42528141976E-01 -0.11726169242E+00  0.12979570603E+00  0.19593087748E-01 0.  0.
         14    1    1    2    0    0 -0.36612505163E-02 -0.15586864379E-01 -0.16487029739E-01  0.22982107087E-01  0.00000000000E+00 0.  1.
     999901    1    3    3    0    0  0.33729320740E-01 -0.26941277598E-01  0.13374872216E+00  0.89115218689E+00  0.88000000000E+00 0.  1.
        -11    1    4    4    0    0 -0.22186737166E-01  0.14678268616E-01 -0.59887869655E-01  0.65532594398E-01  0.51100000000E-03 0.  1.
         11    1    4    4    0    0 -0.78813330575E-02  0.27849873360E-01 -0.57373822761E-01  0.64263111628E-01  0.51100000000E-03 0. -1.
</event>
<event>
 8    1  0.1131349E+005  0.1043930E+01  0.7957747E-01            NaN
         13   -1    0    0    0    0  0.00000000000E+00  0.00000000000E+00  0.74505805969E-08  0.10566000000E+00  0.10566000000E+00 0. -1.
     999900   -1    0    0    0    0 -0.00000000000E+00 -0.00000000000E+00 -0.74505805969E-08  0.93827000000E+00  0.93827000000E+00 0.  1.
     999902    2    1    2    0    0  0.93035849122E-02 -0.21641084683E-01 -0.47537064718E-02  0.10198989583E+01  0.10196158072E+01 0.  0.
     999903    2    3    3    0    0 -0.43867891298E-01  0.38251367028E-01 -0.11473380218E+00  0.12944405599E+00  0.14295429371E-01 0.  0.
         14    1    1    2    0    0 -0.93035849122E-02  0.21641084683E-01  0.47537064718E-02  0.24031041669E-01  0.00000000000E+00 0. -1.
     999901    1    3    3    0    0  0.53171476210E-01 -0.59892451711E-01  0.10998009571E+00  0.89045490234E+00  0.88000000000E+00 0. -1.
        -11    1    4    4    0    0 -0.16445843039E-01  0.18707404719E-01 -0.62634278859E-01  0.67407319735E-01  0.51100000000E-03 0.  1.
         11    1    4    4    0    0 -0.27422048259E-01  0.19543962309E-01 -0.52099523323E-01  0.62036736253E-01  0.51100000000E-03 0. -1.
</event>
<event>
 8    1  0.1131349E+005  0.1043930E+01  0.7957747E-01            NaN
         13   -1    0    0    0    0  0.00000000000E+00  0.00000000000E+00  0.74505805969E-08  0.10566000000E+00  0.10566000000E+00 0.  1.
     999900   -1    0    0    0    0 -0.00000000000E+00 -0.00000000000E+00 -0.74505805969E-08  0.93827000000E+00  0.93827000000E+00 0.  1.
     999902    2    1    2    0    0  0.35340154508E-02  0.23581361284E-01  0.11688262141E-02  0.10200566672E+01  0.10197772640E+01 0.  0.
     999903    2    3    3    0    0  0.78633032027E-01  0.95275706872E-01  0.44799636793E-01  0.13287935169E+00  0.19730702072E-01 0.  0.
         14    1    1    2    0    0 -0.35340154508E-02 -0.23581361284E-01 -0.11688262141E-02  0.23873332820E-01  0.00000000000E+00 0. -1.
     999901    1    3    3    0    0 -0.75099016576E-01 -0.71694345587E-01 -0.43630810579E-01  0.88717731549E+00  0.88000000000E+00 0. -1.
        -11    1    4    4    0    0  0.73229623537E-01  0.79601387168E-01  0.42131213467E-01  0.11607867535E+00  0.51100000000E-03 0. -1.
         11    1    4    4    0    0  0.54034084900E-02  0.15674319704E-01  0.26684233256E-02  0.16800676341E-01  0.51100000000E-03 0.  1.
</event>
<event>
 8    1  0.1188010E+005  0.1043930E+01  0.7957747E-01            NaN
         13   -1    0    0    0    0  0.00000000000E+00  0.00000000000E+00  0.74505805969E-08  0.10566000000E+00  0.10566000000E+00 0.  1.
     999900   -1    0    0    0    0 -0.00000000000E+00 -0.00000000000E+00 -0.74505805969E-08  0.93827000000E+00  0.93827000000E+00 0. -1.
     999902    2    1    2    0    0 -0.11500061407E-01 -0.19693574418E-01  0.54619522882E-02  0.10204796011E+01  0.10202101230E+01 0.  0.
     999903    2    3    3    0    0  0.12655432661E+00  0.54671706249E-02  0.15891787374E-01  0.12930012501E+00  0.20495996772E-01 0.  0.
         14    1    1    2    0    0  0.11500061407E-01  0.19693574418E-01 -0.54619522882E-02  0.23450398899E-01  0.00000000000E+00 0.  1.
     999901    1    3    3    0    0 -0.13805438802E+00 -0.25160745043E-01 -0.10429835086E-01  0.89117947609E+00  0.88000000000E+00 0. -1.
        -11    1    4    4    0    0  0.74953188861E-01 -0.63127320862E-02  0.60636974421E-02  0.75464300530E-01  0.51100000000E-03 0.  1.
         11    1    4    4    0    0  0.51601137750E-01  0.11779902711E-01  0.98280899317E-02  0.53835824482E-01  0.51100000000E-03 0. -1.
</event>
<event>
 8    1  0.1131349E+005  0.1043930E+01  0.7957747E-01            NaN
         13   -1    0    0    0    0  0.00000000000E+00  0.00000000000E+00  0.74505805969E-08  0.10566000000E+00  0.10566000000E+00 0.  1.
     999900   -1    0    0    0    0 -0.00000000000E+00 -0.00000000000E+00 -0.74505805969E-08  0.93827000000E+00  0.93827000000E+00 0. -1.
     999902    2    1    2    0    0  0.16564883287E-01  0.90962044798E-02 -0.13420382482E-01  0.10207514979E+01  0.10204883034E+01 0.  0.
     999903    2    3    3    0    0 -0.39787111534E-01 -0.96561591071E-01  0.72498368634E-01  0.12849528531E+00  0.18651267489E-01 0.  0.
         14    1    1    2    0    0 -0.16564883287E-01 -0.90962044798E-02  0.13420382482E-01  0.23178502114E-01  0.00000000000E+00 0.  1.
     999901    1    3    3    0    0  0.56351994821E-01  0.10565779555E+00 -0.85918751116E-01  0.89225621257E+00  0.88000000000E+00 0. -1.
        -11    1    4    4    0    0 -0.25726979031E-01 -0.39046629626E-01  0.34982230970E-01  0.58399780307E-01  0.51100000000E-03 0. -1.
         11    1    4    4    0    0 -0.14060132503E-01 -0.57514961445E-01  0.37516137664E-01  0.70095505007E-01  0.51100000000E-03 0.  1.
</event>
<event>
 8    1  0.1131349E+005  0.1043930E+01  0.7957747E-01            NaN
         13   -1    0    0    0    0  0.00000000000E+00  0.00000000000E+00  0.74505805969E-08  0.10566000000E+00  0.10566000000E+00 0. -1.
     999900   -1    0    0    0    0 -0.00000000000E+00 -0.00000000000E+00 -0.74505805969E-08  0.93827000000E+00  0.93827000000E+00 0.  1.
     999902    2    1    2    0    0  0.93202293186E-02 -0.27388721521E-03 -0.21090261794E-01  0.10208704937E+01  0.10206100255E+01 0.  0.
     999903    2    3    3    0    0  0.10815776786E+00  0.35132485930E-01 -0.66812201484E-01  0.13345122071E+00  0.20321508938E-01 0.  0.
         14    1    1    2    0    0 -0.93202293186E-02  0.27388721521E-03  0.21090261794E-01  0.23059506311E-01  0.00000000000E+00 0. -1.
     999901    1    3    3    0    0 -0.98837538543E-01 -0.35406373145E-01  0.45721939690E-01  0.88741927298E+00  0.88000000000E+00 0. -1.
        -11    1    4    4    0    0  0.40332975134E-01  0.31052386989E-02 -0.25445382510E-01  0.47792468053E-01  0.51100000000E-03 0. -1.
         11    1    4    4    0    0  0.67824792728E-01  0.32027247231E-01 -0.41366818974E-01  0.85658752657E-01  0.51100000000E-03 0.  1.
</event>
<event>
 8    1  0.1131349E+005  0.1043930E+01  0.7957747E-01            NaN
         13   -1    0    0    0    0  0.00000000000E+00  0.00000000000E+00  0.74505805969E-08  0.10566000000E+00  0.10566000000E+00 0.  1.
     999900   -1    0    0    0    0 -0.00000000000E+00 -0.00000000000E+00 -0.74505805969E-08  0.93827000000E+00  0.93827000000E+00 0.  1.
     999902    2    1    2    0    0 -0.22368950846E-01  0.60285084740E-02  0.12850252530E-02  0.10207273242E+01  0.10204635741E+01 0.  0.
     999903    2    3    3    0    0 -0.27935672346E-02 -0.44658928564E-01 -0.12095015093E+00  0.13061842621E+00  0.20736690596E-01 0.  0.
         14    1    1    2    0    0  0.22368950846E-01 -0.60285084740E-02 -0.12850252530E-02  0.23202675843E-01  0.00000000000E+00 0. -1.
     999901    1    3    3    0    0 -0.19575383611E-01  0.50687437038E-01  0.12223517618E+00  0.89010889795E+00  0.88000000000E+00 0. -1.
        -11    1    4    4    0    0  0.16988829405E-02 -0.16978950543E-01 -0.73872964460E-01  0.75819832259E-01  0.51100000000E-03 0. -1.
         11    1    4    4    0    0 -0.44924501751E-02 -0.27679978022E-01 -0.47077186467E-01  0.54798593946E-01  0.51100000000E-03 0.  1.
</event>
<event>
 8    1  0.1131349E+005  0.1043930E+01  0.7957747E-01            NaN
         13   -1    0    0    0    0  0.00000000000E+00  0.00000000000E+00  0.74505805969E-08  0.10566000000E+00  0.10566000000E+00 0.  1.
     999900   -1    0    0    0    0 -0.00000000000E+00 -0.00000000000E+00 -0.74505805969E-08  0.93827000000E+00  0.93827000000E+00 0. -1.
     999902    2    1    2    0    0 -0.18001530737E-04 -0.21066884034E-01 -0.12686995459E-01  0.10193378512E+01  0.10190411577E+01 0.  0.
     999903    2    3    3    0    0 -0.34948472413E-01  0.15515266913E-01 -0.12480380378E+00  0.13078364902E+00  0.81396672618E-02 0.  0.
         14    1    1    2    0    0  0.18001530737E-04  0.21066884034E-01  0.12686995459E-01  0.24592148762E-01  0.00000000000E+00 0.  1.
     999901    1    3    3    0    0  0.34930470882E-01 -0.36582150947E-01  0.11211680832E+00  0.88855420221E+00  0.88000000000E+00 0.  1.
        -11    1    4    4    0    0 -0.24720302982E-01  0.86058889335E-02 -0.73838240210E-01  0.78342207923E-01  0.51100000000E-03 0. -1.
         11    1    4    4    0    0 -0.10228169431E-01  0.69093779797E-02 -0.50965563568E-01  0.52441441102E-01  0.51100000000E-03 0.  1.
</event>
<event>
 8    1  0.1131349E+005  0.1043930E+01  0.7957747E-01            NaN
         13   -1    0    0    0    0  0.00000000000E+00  0.00000000000E+00  0.74505805969E-08  0.10566000000E+00  0.10566000000E+00 0. -1.
     999900   -1    0    0    0    0 -0.00000000000E+00 -0.00000000000E+00 -0.74505805969E-08  0.93827000000E+00  0.93827000000E+00 0.  1.
     999902    2    1    2    0    0  0.10717070929E-02  0.10868126865E-01 -0.18586807200E-01  0.10223723067E+01  0.10221449992E+01 0.  0.
     999903    2    3    3    0    0  0.10551737930E+00  0.74366112081E-01 -0.28508767626E-01  0.13386831806E+00  0.21065155759E-01 0.  0.
         14    1    1    2    0    0 -0.10717070929E-02 -0.10868126865E-01  0.18586807200E-01  0.21557693280E-01  0.00000000000E+00 0. -1.
     999901    1    3    3    0    0 -0.10444567221E+00 -0.63497985216E-01  0.99219604263E-02  0.88850398866E+00  0.88000000000E+00 0.  1.
        -11    1    4    4    0    0  0.33869528411E-01  0.28260138832E-01 -0.19363398698E-01  0.48176578664E-01  0.51100000000E-03 0. -1.
         11    1    4    4    0    0  0.71647850892E-01  0.46105973249E-01 -0.91453689286E-02  0.85691739394E-01  0.51100000000E-03 0.  1.
</event>
<event>
 8    1  0.1131349E+005  0.1043930E+01  0.7957747E-01            NaN
         13   -1    0    0    0    0  0.00000000000E+00  0.00000000000E+00  0.74505805969E-08  0.10566000000E+00  0.10566000000E+00 0.  1.
     999900   -1    0    0    0    0 -0.00000000000E+00 -0.00000000000E+00 -0.74505805969E-08  0.93827000000E+00  0.93827000000E+00 0.  1.
     999902    2    1    2    0    0 -0.12506729499E-01 -0.13791000820E-01  0.15401052751E-01  0.10197679965E+01  0.10194817136E+01 0.  0.
     999903    2    3    3    0    0 -0.83916786419E-01 -0.88642177537E-01  0.49222289759E-01  0.13306287589E+00  0.19581431214E-01 0.  0.
         14    1    1    2    0    0  0.12506729499E-01  0.13791000820E-01 -0.15401052751E-01  0.24162003481E-01  0.00000000000E+00 0.  1.
     999901    1    3    3    0    0  0.71410056919E-01  0.74851176717E-01 -0.33821237008E-01  0.88670512063E+00  0.88000000000E+00 0.  1.
        -11    1    4    4    0    0 -0.31391884619E-01 -0.47332183015E-01  0.22747082799E-01  0.61183959220E-01  0.51100000000E-03 0. -1.
         11    1    4    4    0    0 -0.52524901800E-01 -0.41309994522E-01  0.26475206959E-01  0.71878916666E-01  0.51100000000E-03 0.  1.
</event>
<event>
 8    1  0.1131349E+005  0.1043930E+01  0.7957747E-01            NaN
         13   -1    0    0    0    0  0.00000000000E+00  0.00000000000E+00  0.74505805969E-08  0.10566000000E+00  0.10566000000E+00 0. -1.
     999900   -1    0    0    0    0 -0.00000000000E+00 -0.00000000000E+00 -0.74505805969E-08  0.93827000000E+00  0.93827000000E+00 0.  1.
     999902    2    1    2    0    0 -0.57177794313E-02  0.22836424956E-01 -0.49705935793E-03  0.10203833999E+01  0.10201116804E+01 0.  0.
     999903    2    3    3    0    0 -0.80317920582E-02  0.49686920088E-01  0.12049058799E+00  0.13169655152E+00  0.17108482623E-01 0.  0.
         14    1    1    2    0    0  0.57177794313E-02 -0.22836424956E-01  0.49705935793E-03  0.23546600061E-01  0.00000000000E+00 0.  1.
     999901    1    3    3    0    0  0.23140126270E-02 -0.26850495132E-01 -0.12098764734E+00  0.88868684842E+00  0.88000000000E+00 0.  1.
        -11    1    4    4    0    0  0.26348719301E-02  0.78707463718E-02  0.95853092929E-02  0.12689778319E-01  0.51100000000E-03 0.  1.
         11    1    4    4    0    0 -0.10666663988E-01  0.41816173716E-01  0.11090527869E+00  0.11900677320E+00  0.51100000000E-03 0. -1.
</event>
<event>
 8    1  0.1131349E+005  0.1043930E+01  0.7957747E-01            NaN
         13   -1    0    0    0    0  0.00000000000E+00  0.00000000000E+00  0.74505805969E-08  0.10566000000E+00  0.10566000000E+00 0. -1.
     999900   -1    0    0    0    0 -0.00000000000E+00 -0.00000000000E+00 -0.74505805969E-08  0.93827000000E+00  0.93827000000E+00 0. -1.
     999902    2    1    2    0    0  0.71975256382E-02  0.21163876527E-01  0.84246308130E-02  0.10200409136E+01  0.10197611372E+01 0.  0.
     999903    2    3    3    0    0  0.18584185584E-01 -0.40303763507E-01  0.12122143850E+00  0.13064165195E+00  0.20070843656E-01 0.  0.
         14    1    1    2    0    0 -0.71975256382E-02 -0.21163876527E-01 -0.84246308130E-02  0.23889086406E-01  0.00000000000E+00 0. -1.
     999901    1    3    3    0    0 -0.11386659946E-01  0.61467640034E-01 -0.11279680769E+00  0.88939926165E+00  0.88000000000E+00 0. -1.
        -11    1    4    4    0    0  0.14263122288E-02 -0.10574725559E-03  0.23981584628E-01  0.24029629030E-01  0.51100000000E-03 0.  1.
         11    1    4    4    0    0  0.17157873355E-01 -0.40198016251E-01  0.97239853871E-01  0.10661202292E+00  0.51100000000E-03 0. -1.
</event>
<event>
 8    1  0.1131349E+005  0.1043930E+01  0.7957747E-01            NaN
         13   -1    0    0    0    0  0.00000000000E+00  0.00000000000E+00  0.74505805969E-08  0.10566000000E+00  0.10566000000E+00 0.  1.
     999900   -1    0    0    0    0 -0.00000000000E+00 -0.00000000000E+00 -0.74505805969E-08  0.93827000000E+00  0.93827000000E+00 0. -1.
     999902    2    1    2    0    0 -0.29788433904E-02  0.12531110250E-01 -0.20162571416E-01  0.10200044589E+01  0.10197238178E+01 0.  0.
     999903    2    3    3    0    0 -0.11534425822E+00  0.73893970053E-02 -0.60630428411E-01  0.13192221543E+00  0.19196900369E-01 0.  0.
         14    1    1    2    0    0  0.29788433904E-02 -0.12531110250E-01  0.20162571416E-01  0.23925541126E-01  0.00000000000E+00 0.  1.
     999901    1    3    3    0    0  0.11236541483E+00  0.51417132446E-02  0.40467856995E-01  0.88808224344E+00  0.88000000000E+00 0. -1.
        -11    1    4    4    0    0 -0.10408779378E+00  0.76540201173E-03 -0.53663085083E-01  0.11711038586E+00  0.51100000000E-03 0.  1.
         11    1    4    4    0    0 -0.11256464434E-01  0.66239949936E-02 -0.69673433281E-02  0.14811829572E-01  0.51100000000E-03 0. -1.
</event>
<event>
 8    1  0.1131349E+005  0.1043930E+01  0.7957747E-01            NaN
         13   -1    0    0    0    0  0.00000000000E+00  0.00000000000E+00  0.74505805969E-08  0.10566000000E+00  0.10566000000E+00 0.  1.
     999900   -1    0    0    0    0 -0.00000000000E+00 -0.00000000000E+00 -0.74505805969E-08  0.93827000000E+00  0.93827000000E+00 0. -1.
     999902    2    1    2    0    0 -0.19558382515E-01 -0.97672326349E-02 -0.61296061122E-02  0.10212253478E+01  0.10209729231E+01 0.  0.
     999903    2    3    3    0    0 -0.10040625103E-01  0.80205734388E-01  0.10014920115E+00  0.13022539979E+00  0.19875066761E-01 0.  0.
         14    1    1    2    0    0  0.19558382515E-01  0.97672326349E-02  0.61296061122E-02  0.22704652189E-01  0.00000000000E+00 0.  1.
     999901    1    3    3    0    0 -0.95177574123E-02 -0.89972967023E-01 -0.10627880726E+00  0.89099994802E+00  0.88000000000E+00 0. -1.
        -11    1    4    4    0    0 -0.16784154476E-02  0.32323783630E-01  0.55347086363E-01  0.64118680246E-01  0.51100000000E-03 0.  1.
         11    1    4    4    0    0 -0.83622096550E-02  0.47881950758E-01  0.44802114784E-01  0.66106719543E-01  0.51100000000E-03 0. -1.
</event>
<event>
 8    1  0.1131349E+005  0.1043930E+01  0.7957747E-01            NaN
         13   -1    0    0    0    0  0.00000000000E+00  0.00000000000E+00  0.74505805969E-08  0.10566000000E+00  0.10566000000E+00 0. -1.
     999900   -1    0    0    0    0 -0.00000000000E+00 -0.00000000000E+00 -0.74505805969E-08  0.93827000000E+00  0.93827000000E+00 0.  1.
     999902    2    1    2    0    0 -0.48298035237E-02  0.16172029956E-01 -0.19989716864E-01  0.10177679983E+01  0.10174316920E+01 0.  0.
     999903    2    3    3    0    0 -0.88700555407E-01  0.16636694953E-01  0.87166804611E-01  0.12730910587E+00  0.21563591133E-01 0.  0.
         14    1    1    2    0    0  0.48298035237E-02 -0.16172029956E-01  0.19989716864E-01  0.26162001745E-01  0.00000000000E+00 0. -1.
     999901    1    3    3    0    0  0.83870751883E-01 -0.46466499707E-03 -0.10715652148E+00  0.89045889239E+00  0.88000000000E+00 0.  1.
        -11    1    4    4    0    0 -0.24326133069E-01 -0.12189140886E-02  0.34521877485E-01  0.42252427714E-01  0.51100000000E-03 0.  1.
         11    1    4    4    0    0 -0.64374422338E-01  0.17855609042E-01  0.52644927126E-01  0.85056678155E-01  0.51100000000E-03 0. -1.
</event>
<event>
 8    1  0.1131349E+005  0.1043930E+01  0.7957747E-01            NaN
         13   -1    0    0    0    0  0.00000000000E+00  0.00000000000E+00  0.74505805969E-08  0.10566000000E+00  0.10566000000E+00 0.  1.
     999900   -1    0    0    0    0 -0.00000000000E+00 -0.00000000000E+00 -0.74505805969E-08  0.93827000000E+00  0.93827000000E+00 0.  1.
     999902    2    1    2    0    0  0.83272250756E-02  0.36119075672E-02 -0.22588681421E-01  0.10195858614E+01  0.10192951936E+01 0.  0.
     999903    2    3    3    0    0 -0.25159760443E-01 -0.10100786405E+00 -0.77024123610E-01  0.13108718830E+00  0.20384630811E-01 0.  0.
         14    1    1    2    0    0 -0.83272250756E-02 -0.36119075672E-02  0.22588681421E-01  0.24344138557E-01  0.00000000000E+00 0.  1.
     999901    1    3    3    0    0  0.33486985518E-01  0.10461977162E+00  0.54435442189E-01  0.88849867314E+00  0.88000000000E+00 0. -1.
        -11    1    4    4    0    0 -0.15555751060E-02 -0.30033285083E-01 -0.13561694836E-01  0.32993919358E-01  0.51100000000E-03 0.  1.
         11    1    4    4    0    0 -0.23604185337E-01 -0.70974578965E-01 -0.63462428775E-01  0.98093268942E-01  0.51100000000E-03 0. -1.
</event>
<event>
 8    1  0.1131349E+005  0.1043930E+01  0.7957747E-01            NaN
         13   -1    0    0    0    0  0.00000000000E+00  0.00000000000E+00  0.74505805969E-08  0.10566000000E+00  0.10566000000E+00 0. -1.
     999900   -1    0    0    0    0 -0.00000000000E+00 -0.00000000000E+00 -0.74505805969E-08  0.93827000000E+00  0.93827000000E+00 0.  1.
     999902    2    1    2    0    0  0.10121138896E-01 -0.21092052433E-01 -0.49280540322E-02  0.10200218875E+01  0.10197416600E+01 0.  0.
     999903    2    3    3    0    0  0.18537257970E-01  0.57485868185E-01  0.11187746492E+00  0.12879304484E+00  0.20562739833E-01 0.  0.
         14    1    1    2    0    0 -0.10121138896E-01  0.21092052433E-01  0.49280540322E-02  0.23908112534E-01  0.00000000000E+00 0. -1.
     999901    1    3    3    0    0 -0.84161190743E-02 -0.78577920619E-01 -0.11680551895E+00  0.89122884262E+00  0.88000000000E+00 0.  1.
        -11    1    4    4    0    0  0.78086683096E-02  0.28428269787E-01  0.34140892646E-01  0.45111013018E-01  0.51100000000E-03 0.  1.
         11    1    4    4    0    0  0.10728589661E-01  0.29057598398E-01  0.77736572270E-01  0.83682031824E-01  0.51100000000E-03 0. -1.
</event>
<event>
 8    1  0.1131349E+005  0.1043930E+01  0.7957747E-01            NaN
         13   -1    0    0    0    0  0.00000000000E+00  0.00000000000E+00  0.74505805969E-08  0.10566000000E+00  0.10566000000E+00 0.  1.
     999900   -1    0    0    0    0 -0.00000000000E+00 -0.00000000000E+00 -0.74505805969E-08  0.93827000000E+00  0.93827000000E+00 0.  1.
     999902    2    1    2    0    0 -0.12888462287E-01 -0.13984841626E-01 -0.13974105745E-01  0.10203299177E+01  0.10200569479E+01 0.  0.
     999903    2    3    3    0    0 -0.43603798619E-01 -0.65939989947E-01 -0.10565460891E+00  0.13351083577E+00  0.20319285321E-01 0.  0.
         14    1    1    2    0    0  0.12888462287E-01  0.13984841626E-01  0.13974105745E-01  0.23600082347E-01  0.00000000000E+00 0.  1.
     999901    1    3    3    0    0  0.30715336332E-01  0.51955148321E-01  0.91680503170E-01  0.88681908188E+00  0.88000000000E+00 0.  1.
        -11    1    4    4    0    0 -0.15435793906E-01 -0.20548704744E-01 -0.50837322268E-01  0.56966722361E-01  0.51100000000E-03 0. -1.
         11    1    4    4    0    0 -0.28168004713E-01 -0.45391285203E-01 -0.54817286647E-01  0.76544113413E-01  0.51100000000E-03 0.  1.
</event>
<event>
 8    1  0.1131349E+005  0.1043930E+01  0.7957747E-01            NaN
         13   -1    0    0    0    0  0.00000000000E+00  0.00000000000E+00  0.74505805969E-08  0.10566000000E+00  0.10566000000E+00 0.  1.
     999900   -1    0    0    0    0 -0.00000000000E+00 -0.00000000000E+00 -0.74505805969E-08  0.93827000000E+00  0.93827000000E+00 0.  1.
     999902    2    1    2    0    0  0.37348208645E-02  0.25773672119E-01 -0.99672349740E-02  0.10160449353E+01  0.10156622144E+01 0.  0.
     999903    2    3    3    0    0  0.41222918421E-01  0.69377226915E-02 -0.11954390524E+00  0.12825712442E+00  0.20289989764E-01 0.  0.
         14    1    1    2    0    0 -0.37348208645E-02 -0.25773672119E-01  0.99672349740E-02  0.27885064720E-01  0.00000000000E+00 0.  1.
     999901    1    3    3    0    0 -0.37488097556E-01  0.18835949428E-01  0.10957667027E+00  0.88778781086E+00  0.88000000000E+00 0. -1.
        -11    1    4    4    0    0  0.14710804241E-01 -0.33925787622E-02 -0.65038775887E-01  0.66769909705E-01  0.51100000000E-03 0. -1.
         11    1    4    4    0    0  0.26512114180E-01  0.10330301454E-01 -0.54505129353E-01  0.61487214713E-01  0.51100000000E-03 0.  1.
</event>
<event>
 8    1  0.1131349E+005  0.1043930E+01  0.7957747E-01            NaN
         13   -1    0    0    0    0  0.00000000000E+00  0.00000000000E+00  0.74505805969E-08  0.10566000000E+00  0.10566000000E+00 0. -1.
     999900   -1    0    0    0    0 -0.00000000000E+00 -0.00000000000E+00 -0.74505805969E-08  0.93827000000E+00  0.93827000000E+00 0. -1.
     999902    2    1    2    0    0  0.18719992923E-01 -0.52719709001E-02  0.99466562068E-02  0.10220858296E+01  0.10218523745E+01 0.  0.
     999903    2    3    3    0    0  0.38277651146E-01 -0.10364760352E+00  0.73460030141E-01  0.13411386168E+00  0.19548595172E-01 0.  0.
         14    1    1    2    0    0 -0.18719992923E-01  0.52719709001E-02 -0.99466562068E-02  0.21844170433E-01  0.00000000000E+00 0. -1.
     999901    1    3    3    0    0 -0.19557658223E-01  0.98375632620E-01 -0.63513373934E-01  0.88797196789E+00  0.88000000000E+00 0. -1.
        -11    1    4    4    0    0  0.13371230093E-01 -0.22758048985E-01  0.26108499666E-01  0.37129953725E-01  0.51100000000E-03 0. -1.
         11    1    4    4    0    0  0.24906421053E-01 -0.80889554535E-01  0.47351530475E-01  0.96983907953E-01  0.51100000000E-03 0.  1.
</event>
<event>
 8    1  0.1131349E+005  0.1043930E+01  0.7957747E-01            NaN
         13   -1    0    0    0    0  0.00000000000E+00  0.00000000000E+00  0.74505805969E-08  0.10566000000E+00  0.10566000000E+00 0. -1.
     999900   -1    0    0    0    0 -0.00000000000E+00 -0.00000000000E+00 -0.74505805969E-08  0.93827000000E+00  0.93827000000E+00 0.  1.
     999902    2    1    2    0    0 -0.91354077471E-02  0.18249750270E-02  0.12784053722E-01  0.10281117119E+01  0.10279900165E+01 0.  0.
     999903    2    3    3    0    0  0.56675960223E-01 -0.39929604589E-01  0.11805077896E+00  0.13841757092E+00  0.20418122739E-01 0.  0.
         14    1    1    2    0    0  0.91354077471E-02 -0.18249750270E-02 -0.12784053722E-01  0.15818288090E-01  0.00000000000E+00 0.  1.
     999901    1    3    3    0    0 -0.65811367970E-01  0.41754579616E-01 -0.10526672524E+00  0.88969414099E+00  0.88000000000E+00 0.  1.
        -11    1    4    4    0    0  0.40092484449E-01 -0.17531549780E-01  0.80841366908E-01  0.91925786761E-01  0.51100000000E-03 0. -1.
         11    1    4    4    0    0  0.16583475774E-01 -0.22398054809E-01  0.37209412051E-01  0.46491784157E-01  0.51100000000E-03 0.  1.
</event>
<event>
 8    1  0.1131349E+005  0.1043930E+01  0.7957747E-01            NaN
         13   -1    0    0    0    0  0.00000000000E+00  0.00000000000E+00  0.74505805969E-08  0.10566000000E+00  0.10566000000E+00 0. -1.
     999900   -1    0    0    0    0 -0.00000000000E+00 -0.00000000000E+00 -0.74505805969E-08  0.93827000000E+00  0.93827000000E+00 0.  1.
     999902    2    1    2    0    0 -0.29612042780E-02  0.21772403118E-01  0.93282778983E-02  0.10200590336E+01  0.10197796865E+01 0.  0.
     999903    2    3    3    0    0 -0.18352552322E-01  0.11891494526E+00  0.54171510760E-01  0.13344497854E+00  0.19885405169E-01 0.  0.
         14    1    1    2    0    0  0.29612042780E-02 -0.21772403118E-01 -0.93282778983E-02  0.23870966400E-01  0.00000000000E+00 0.  1.
     999901    1    3    3    0    0  0.15391348044E-01 -0.97142542138E-01 -0.44843232861E-01  0.88661405506E+00  0.88000000000E+00 0.  1.
        -11    1    4    4    0    0  0.30413679952E-02  0.40732098215E-01  0.19917250064E-01  0.45445700736E-01  0.51100000000E-03 0. -1.
         11    1    4    4    0    0 -0.21393920317E-01  0.78182847041E-01  0.34254260696E-01  0.87999277809E-01  0.51100000000E-03 0.  1.
</event>
<event>
 7    1  0.1131349E+005  0.1043930E+01  0.7957747E-01            NaN
         13   -1    0    0    0    0  0.00000000000E+00  0.00000000000E+00  0.74505805969E-08  0.10566000000E+00  0.10566000000E+00 0.  1.
     999900   -1    0    0    0    0 -0.00000000000E+00 -0.00000000000E+00 -0.74505805969E-08  0.93827000000E+00  0.93827000000E+00 0. -1.
     999903    2    1    2    0    0  0.17934958880E-01 -0.80851233489E-01  0.72369279137E-01  0.11171551927E+00  0.19607650989E-01 0.  0.
         14    1    1    2    0    0 -0.26699839165E-01 -0.12092864792E-01  0.29313602138E-01  0.41453661607E-01  0.00000000000E+00 0.  1.
     999901    1    1    2    0    0  0.87648802850E-02  0.92944098281E-01 -0.10168288128E+00  0.89076081912E+00  0.88000000000E+00 0. -1.
        -11    1    3    3    0    0  0.71039172014E-02 -0.66486849695E-02  0.11915052905E-01  0.15391564513E-01  0.51100000000E-03 0. -1.
         11    1    3    3    0    0  0.10831041679E-01 -0.74202548519E-01  0.60454226232E-01  0.96323954762E-01  0.51100000000E-03 0.  1.
</event>
<event>
 8    1  0.1131349E+005  0.1043930E+01  0.7957747E-01            NaN
         13   -1    0    0    0    0  0.00000000000E+00  0.00000000000E+00  0.74505805969E-08  0.10566000000E+00  0.10566000000E+00 0.  1.
     999900   -1    0    0    0    0 -0.00000000000E+00 -0.00000000000E+00 -0.74505805969E-08  0.93827000000E+00  0.93827000000E+00 0.  1.
     999902    2    1    2    0    0 -0.30814727639E-01  0.17001009853E-03 -0.15164941018E-02  0.10130775107E+01  0.10126076074E+01 0.  0.
     999903    2    3    3    0    0  0.20406345397E-01 -0.77485987002E-01 -0.91774112303E-01  0.12358299701E+00  0.20730951412E-01 0.  0.
         14    1    1    2    0    0  0.30814727639E-01 -0.17001009853E-03  0.15164941018E-02  0.30852489320E-01  0.00000000000E+00 0.  1.
     999901    1    3    3    0    0 -0.51221073035E-01  0.77655997100E-01  0.90257618201E-01  0.88949451367E+00  0.88000000000E+00 0.  1.
        -11    1    4    4    0    0  0.53043366997E-02 -0.14513607782E-01 -0.71807641607E-02  0.17047149134E-01  0.51100000000E-03 0. -1.
         11    1    4    4    0    0  0.15102008697E-01 -0.62972379220E-01 -0.84593348143E-01  0.10653584787E+00  0.51100000000E-03 0.  1.
</event>
<event>
 8    1  0.1131349E+005  0.1043930E+01  0.7957747E-01            NaN
         13   -1    0    0    0    0  0.00000000000E+00  0.00000000000E+00  0.74505805969E-08  0.10566000000E+00  0.10566000000E+00 0. -1.
     999900   -1    0    0    0    0 -0.00000000000E+00 -0.00000000000E+00 -0.74505805969E-08  0.93827000000E+00  0.93827000000E+00 0. -1.
     999902    2    1    2    0    0 -0.20807675934E-01  0.71211672014E-02 -0.85507089369E-02  0.10203337074E+01  0.10200608264E+01 0.  0.
     999903    2    3    3    0    0 -0.11541653736E+00  0.65928887349E-02 -0.63501743034E-01  0.13355823872E+00  0.20997344696E-01 0.  0.
         14    1    1    2    0    0  0.20807675934E-01 -0.71211672014E-02  0.85507089369E-02  0.23596292577E-01  0.00000000000E+00 0. -1.
     999901    1    3    3    0    0  0.94608861427E-01  0.52827846657E-03  0.54951034097E-01  0.88677546870E+00  0.88000000000E+00 0. -1.
        -11    1    4    4    0    0 -0.61307037431E-01  0.13690286286E-01 -0.31206663406E-01  0.70143379867E-01  0.51100000000E-03 0.  1.
         11    1    4    4    0    0 -0.54109499929E-01 -0.70973975509E-02 -0.32295079628E-01  0.63414858856E-01  0.51100000000E-03 0. -1.
</event>
<event>
 8    1  0.1131349E+005  0.1043930E+01  0.7957747E-01            NaN
         13   -1    0    0    0    0  0.00000000000E+00  0.00000000000E+00  0.74505805969E-08  0.10566000000E+00  0.10566000000E+00 0. -1.
     999900   -1    0    0    0    0 -0.00000000000E+00 -0.00000000000E+00 -0.74505805969E-08  0.93827000000E+00  0.93827000000E+00 0. -1.
     999902    2    1    2    0    0 -0.17219112268E-01  0.84210636856E-02  0.13716581850E-01  0.10203597484E+01  0.10200874764E+01 0.  0.
     999903    2    3    3    0    0  0.91329079858E-01  0.55190446207E-01  0.72662152705E-01  0.13050320636E+00  0.19086965580E-01 0.  0.
         14    1    1    2    0    0  0.17219112268E-01 -0.84210636856E-02 -0.13716581850E-01  0.23570251559E-01  0.00000000000E+00 0.  1.
     999901    1    3    3    0    0 -0.10854819213E+00 -0.46769382521E-01 -0.58945570855E-01  0.88985654208E+00  0.88000000000E+00 0. -1.
        -11    1    4    4    0    0  0.65123341427E-01  0.48922034666E-01  0.54558292202E-01  0.98037153383E-01  0.51100000000E-03 0.  1.
         11    1    4    4    0    0  0.26205738432E-01  0.62684115404E-02  0.18103860503E-01  0.32466052980E-01  0.51100000000E-03 0. -1.
</event>
<event>
 8    1  0.1131349E+005  0.1043930E+01  0.7957747E-01            NaN
         13   -1    0    0    0    0  0.00000000000E+00  0.00000000000E+00  0.74505805969E-08  0.10566000000E+00  0.10566000000E+00 0. -1.
     999900   -1    0    0    0    0 -0.00000000000E+00 -0.00000000000E+00 -0.74505805969E-08  0.93827000000E+00  0.93827000000E+00 0.  1.
     999902    2    1    2    0    0  0.11156240881E-01  0.13710616166E-01 -0.17192336337E-01  0.10192719560E+01  0.10189736508E+01 0.  0.
     999903    2    3    3    0    0 -0.44577429958E-01 -0.96552471372E-02  0.11717763315E+00  0.12702339513E+00  0.17999281693E-01 0.  0.
         14    1    1    2    0    0 -0.11156240881E-01 -0.13710616166E-01  0.17192336337E-01  0.24658044021E-01  0.00000000000E+00 0. -1.
     999901    1    3    3    0    0  0.55733670839E-01  0.23365863303E-01 -0.13436996949E+00  0.89224856085E+00  0.88000000000E+00 0.  1.
        -11    1    4    4    0    0 -0.39739514215E-01 -0.33650185216E-02  0.85227545426E-01  0.94098607642E-01  0.51100000000E-03 0. -1.
         11    1    4    4    0    0 -0.48379157424E-02 -0.62902286156E-02  0.31950087723E-01  0.32924787490E-01  0.51100000000E-03 0.  1.
</event>
<event>
 8    1  0.1131349E+005  0.1043930E+01  0.7957747E-01            NaN
         13   -1    0    0    0    0  0.00000000000E+00  0.00000000000E+00  0.74505805969E-08  0.10566000000E+00  0.10566000000E+00 0.  1.
     999900   -1    0    0    0    0 -0.00000000000E+00 -0.00000000000E+00 -0.74505805969E-08  0.93827000000E+00  0.93827000000E+00 0.  1.
     999902    2    1    2    0    0  0.45506589464E-02 -0.21732801843E-01 -0.11330514239E-01  0.10190020293E+01  0.10186970756E+01 0.  0.
     999903    2    3    3    0    0  0.60362906781E-01 -0.55672037825E-01 -0.10145344589E+00  0.13199074321E+00  0.19639203130E-01 0.  0.
         14    1    1    2    0    0 -0.45506589464E-02  0.21732801843E-01  0.11330514239E-01  0.24927970750E-01  0.00000000000E+00 0.  1.
     999901    1    3    3    0    0 -0.55812247834E-01  0.33939235982E-01  0.90122931655E-01  0.88701128604E+00  0.88000000000E+00 0. -1.
        -11    1    4    4    0    0  0.17607318463E-01 -0.29278066346E-01 -0.42275223136E-01  0.54356953967E-01  0.51100000000E-03 0. -1.
         11    1    4    4    0    0  0.42755588318E-01 -0.26393971478E-01 -0.59178222758E-01  0.77633789246E-01  0.51100000000E-03 0.  1.
</event>
<event>
 7    1  0.1131349E+005  0.1043930E+01  0.7957747E-01            NaN
         13   -1    0    0    0    0  0.00000000000E+00  0.00000000000E+00  0.74505805969E-08  0.10566000000E+00  0.10566000000E+00 0.  1.
     999900   -1    0    0    0    0 -0.00000000000E+00 -0.00000000000E+00 -0.74505805969E-08  0.93827000000E+00  0.93827000000E+00 0.  1.
     999903    2    1    2    0    0  0.61842201683E-01  0.57732235699E-01 -0.30884526663E-01  0.92920894752E-01  0.22868531795E-01 0.  0.
         14    1    1    2    0    0 -0.39320334169E-01 -0.19496836996E-01  0.54002216925E-01  0.69587748669E-01  0.00000000000E+00 0. -1.
     999901    1    1    2    0    0 -0.22521867515E-01 -0.38235398703E-01 -0.23117690263E-01  0.88142135658E+00  0.88000000000E+00 0.  1.
        -11    1    3    3    0    0  0.38291718921E-01  0.42135374815E-01 -0.30661165266E-01  0.64668490976E-01  0.51100000000E-03 0.  1.
         11    1    3    3    0    0  0.23550482762E-01  0.15596860884E-01 -0.22336139678E-03  0.28252403776E-01  0.51100000000E-03 0. -1.
</event>
<event>
 8    1  0.1131349E+005  0.1043930E+01  0.7957747E-01            NaN
         13   -1    0    0    0    0  0.00000000000E+00  0.00000000000E+00  0.74505805969E-08  0.10566000000E+00  0.10566000000E+00 0. -1.
     999900   -1    0    0    0    0 -0.00000000000E+00 -0.00000000000E+00 -0.74505805969E-08  0.93827000000E+00  0.93827000000E+00 0.  1.
     999902    2    1    2    0    0  0.18663380909E-01  0.13758371448E-01  0.48875195468E-02  0.10202339577E+01  0.10199587374E+01 0.  0.
     999903    2    3    3    0    0  0.61220092399E-01 -0.31308074549E-01 -0.10930290432E+00  0.13069390178E+00  0.20141395755E-01 0.  0.
         14    1    1    2    0    0 -0.18663380909E-01 -0.13758371448E-01 -0.48875195468E-02  0.23696042269E-01  0.00000000000E+00 0.  1.
     999901    1    3    3    0    0 -0.42556711489E-01  0.45066445997E-01  0.11419042387E+00  0.88954005596E+00  0.88000000000E+00 0. -1.
        -11    1    4    4    0    0  0.62758808749E-01 -0.30823014739E-01 -0.10730502945E+00  0.12807559010E+00  0.51100000000E-03 0. -1.
         11    1    4    4    0    0 -0.15387163505E-02 -0.48505980983E-03 -0.19978748658E-02  0.26183116708E-02  0.51100000000E-03 0.  1.
</event>
<event>
 8    1  0.1131349E+005  0.1043930E+01  0.7957747E-01            NaN
         13   -1    0    0    0    0  0.00000000000E+00  0.00000000000E+00  0.74505805969E-08  0.10566000000E+00  0.10566000000E+00 0. -1.
     999900   -1    0    0    0    0 -0.00000000000E+00 -0.00000000000E+00 -0.74505805969E-08  0.93827000000E+00  0.93827000000E+00 0.  1.
     999902    2    1    2    0    0 -0.10450540837E-01  0.15600394334E-01  0.13918453004E-01  0.10205567366E+01  0.10202890489E+01 0.  0.
     999903    2    3    3    0    0  0.11484250418E+00 -0.40766215574E-01  0.39281115763E-01  0.12953552110E+00  0.19640775739E-01 0.  0.
         14    1    1    2    0    0  0.10450540837E-01 -0.15600394334E-01 -0.13918453004E-01  0.23373263383E-01  0.00000000000E+00 0.  1.
     999901    1    3    3    0    0 -0.12529304502E+00  0.56366609907E-01 -0.25362662759E-01  0.89102121552E+00  0.88000000000E+00 0. -1.
        -11    1    4    4    0    0  0.69729848485E-01 -0.32486504213E-01  0.30927800151E-01  0.82912090004E-01  0.51100000000E-03 0.  1.
         11    1    4    4    0    0  0.45112655697E-01 -0.82797113604E-02  0.83533156122E-02  0.46623431094E-01  0.51100000000E-03 0. -1.
</event>
<event>
 8    1  0.1131349E+005  0.1043930E+01  0.7957747E-01            NaN
         13   -1    0    0    0    0  0.00000000000E+00  0.00000000000E+00  0.74505805969E-08  0.10566000000E+00  0.10566000000E+00 0.  1.
     999900   -1    0    0    0    0 -0.00000000000E+00 -0.00000000000E+00 -0.74505805969E-08  0.93827000000E+00  0.93827000000E+00 0. -1.
     999902    2    1    2    0    0 -0.20424893903E-01  0.10000039700E-01 -0.43321739931E-02  0.10207795180E+01  0.10205169668E+01 0.  0.
     999903    2    3    3    0    0  0.11620543582E+00 -0.42157608584E-01 -0.25077543338E-01  0.12846867664E+00  0.24379303144E-01 0.  0.
         14    1    1    2    0    0  0.20424893903E-01 -0.10000039700E-01  0.43321739931E-02  0.23150481992E-01  0.00000000000E+00 0. -1.
     999901    1    3    3    0    0 -0.13663032972E+00  0.52157648284E-01  0.20745369345E-01  0.89231084137E+00  0.88000000000E+00 0.  1.
        -11    1    4    4    0    0  0.45827499599E-01 -0.29304490756E-01 -0.12716509821E-01  0.55864869471E-01  0.51100000000E-03 0. -1.
         11    1    4    4    0    0  0.70377936222E-01 -0.12853117828E-01 -0.12361033517E-01  0.72603807169E-01  0.51100000000E-03 0.  1.
</event>
<event>
 8    1  0.1131349E+005  0.1043930E+01  0.7957747E-01            NaN
         13   -1    0    0    0    0  0.00000000000E+00  0.00000000000E+00  0.74505805969E-08  0.10566000000E+00  0.10566000000E+00 0.  1.
     999900   -1    0    0    0    0 -0.00000000000E+00 -0.00000000000E+00 -0.74505805969E-08  0.93827000000E+00  0.93827000000E+00 0. -1.
     999902    2    1    2    0    0  0.13753728969E-01 -0.19173255835E-01  0.22681380470E-02  0.10202250796E+01  0.10199496506E+01 0.  0.
     999903    2    3    3    0    0  0.12185959610E+00 -0.49329840233E-01 -0.47278092282E-02  0.13306937662E+00  0.20047755845E-01 0.  0.
         14    1    1    2    0    0 -0.13753728969E-01  0.19173255835E-01 -0.22681380470E-02  0.23704920377E-01  0.00000000000E+00 0. -1.
     999901    1    3    3    0    0 -0.10810586713E+00  0.30156584397E-01  0.69959472752E-02  0.88715570300E+00  0.88000000000E+00 0.  1.
        -11    1    4    4    0    0  0.17851318672E-01 -0.64254123283E-02 -0.77915621284E-02  0.20516458352E-01  0.51100000000E-03 0. -1.
         11    1    4    4    0    0  0.10400827743E+00 -0.42904427905E-01  0.30637529002E-02  0.11255291827E+00  0.51100000000E-03 0.  1.
</event>
<event>
 8    1  0.1131349E+005  0.1043930E+01  0.7957747E-01            NaN
         13   -1    0    0    0    0  0.00000000000E+00  0.00000000000E+00  0.74505805969E-08  0.10566000000E+00  0.10566000000E+00 0.  1.
     999900   -1    0    0    0    0 -0.00000000000E+00 -0.00000000000E+00 -0.74505805969E-08  0.93827000000E+00  0.93827000000E+00 0.  1.
     999902    2    1    2    0    0  0.14709450261E-01 -0.34392240565E-02  0.19658229595E-01  0.10191380219E+01  0.10188364272E+01 0.  0.
     999903    2    3    3    0    0  0.87990954826E-02  0.12256250550E-01 -0.12471532228E+00  0.12721593855E+00  0.20058505711E-01 0.  0.
         14    1    1    2    0    0 -0.14709450261E-01  0.34392240565E-02 -0.19658229595E-01  0.24791978136E-01  0.00000000000E+00 0. -1.
     999901    1    3    3    0    0  0.59103547780E-02 -0.15695474607E-01  0.14437355188E+00  0.89192208331E+00  0.88000000000E+00 0. -1.
        -11    1    4    4    0    0 -0.12108282166E-02 -0.47682984147E-02 -0.17043214787E-01  0.17746409947E-01  0.51100000000E-03 0.  1.
         11    1    4    4    0    0  0.10009923699E-01  0.17024548965E-01 -0.10767210749E+00  0.10946952861E+00  0.51100000000E-03 0. -1.
</event>
<event>
 8    1  0.1131349E+005  0.1043930E+01  0.7957747E-01            NaN
         13   -1    0    0    0    0  0.00000000000E+00  0.00000000000E+00  0.74505805969E-08  0.10566000000E+00  0.10566000000E+00 0.  1.
     999900   -1    0    0    0    0 -0.00000000000E+00 -0.00000000000E+00 -0.74505805969E-08  0.93827000000E+00  0.93827000000E+00 0.  1.
     999902    2    1    2    0    0 -0.15262085649E-01 -0.17477391504E-01  0.14449194083E-02  0.10206818116E+01  0.10204170139E+01 0.  0.
     999903    2    3    3    0    0 -0.96182020636E-01 -0.61653526032E-01  0.66285461443E-01  0.13349307033E+00  0.19351978203E-01 0.  0.
         14    1    1    2    0    0  0.15262085649E-01  0.17477391504E-01 -0.14449194083E-02  0.23248188407E-01  0.00000000000E+00 0. -1.
     999901    1    3    3    0    0  0.80919934987E-01  0.44176134528E-01 -0.64840542035E-01  0.88718874127E+00  0.88000000000E+00 0.  1.
        -11    1    4    4    0    0 -0.46294706186E-01 -0.37930282851E-01  0.26731002600E-01  0.65549323406E-01  0.51100000000E-03 0.  1.
         11    1    4    4    0    0 -0.49887314450E-01 -0.23723243181E-01  0.39554458843E-01  0.67943746919E-01  0.51100000000E-03 0. -1.
</event>
<event>
 7    1  0.1131349E+005  0.1043930E+01  0.7957747E-01            NaN
         13   -1    0    0    0    0  0.00000000000E+00  0.00000000000E+00  0.74505805969E-08  0.10566000000E+00  0.10566000000E+00 0.  1.
     999900   -1    0    0    0    0 -0.00000000000E+00 -0.00000000000E+00 -0.74505805969E-08  0.93827000000E+00  0.93827000000E+00 0.  1.
     999903    2    1    2    0    0 -0.11047545282E+00 -0.73808941931E-01 -0.56214738467E-01  0.14560405012E+00  0.19694085523E-01 0.  0.
         14    1    1    2    0    0  0.21343845352E-02 -0.23257768513E-03 -0.60499872672E-02  0.64196600889E-02  0.00000000000E+00 0. -1.
     999901    1    1    2    0    0  0.10834106829E+00  0.74041519616E-01  0.62264725734E-01  0.89190628979E+00  0.88000000000E+00 0. -1.
        -11    1    3    3    0    0 -0.55788801577E-01 -0.29838795635E-01 -0.18399287675E-01  0.65890356004E-01  0.51100000000E-03 0.  1.
         11    1    3    3    0    0 -0.54686651243E-01 -0.43970146297E-01 -0.37815450792E-01  0.79713694113E-01  0.51100000000E-03 0. -1.
</event>
<event>
 8    1  0.1131349E+005  0.1043930E+01  0.7957747E-01            NaN
         13   -1    0    0    0    0  0.00000000000E+00  0.00000000000E+00  0.74505805969E-08  0.10566000000E+00  0.10566000000E+00 0. -1.
     999900   -1    0    0    0    0 -0.00000000000E+00 -0.00000000000E+00 -0.74505805969E-08  0.93827000000E+00  0.93827000000E+00 0.  1.
     999902    2    1    2    0    0  0.15230058421E-01  0.16262373633E-01  0.76868156028E-02  0.10203608123E+01  0.10200885651E+01 0.  0.
     999903    2    3    3    0    0  0.83260429624E-01 -0.55528225717E-01  0.83194140003E-01  0.13160697820E+00  0.19581848389E-01 0.  0.
         14    1    1    2    0    0 -0.15230058421E-01 -0.16262373633E-01 -0.76868156028E-02  0.23569187721E-01  0.00000000000E+00 0. -1.
     999901    1    3    3    0    0 -0.68030371203E-01  0.71790599350E-01 -0.75507324400E-01  0.88875383408E+00  0.88000000000E+00 0.  1.
        -11    1    4    4    0    0  0.17218287816E-01 -0.52242375116E-02  0.22246858471E-01  0.28617231273E-01  0.51100000000E-03 0. -1.
         11    1    4    4    0    0  0.66042141808E-01 -0.50303988205E-01  0.60947281532E-01  0.10298974692E+00  0.51100000000E-03 0.  1.
</event>
<event>
 8    1  0.1131349E+005  0.1043930E+01  0.7957747E-01            NaN
         13   -1    0    0    0    0  0.00000000000E+00  0.00000000000E+00  0.74505805969E-08  0.10566000000E+00  0.10566000000E+00 0.  1.
     999900   -1    0    0    0    0 -0.00000000000E+00 -0.00000000000E+00 -0.74505805969E-08  0.93827000000E+00  0.93827000000E+00 0.  1.
     999902    2    1    2    0    0  0.21050086191E-01  0.52358860580E-02  0.88034018184E-02  0.10205201620E+01  0.10202516261E+01 0.  0.
     999903    2    3    3    0    0 -0.91438390853E-01  0.88915131522E-01  0.95847090498E-02  0.12942169156E+00  0.19779475800E-01 0.  0.
         14    1    1    2    0    0 -0.21050086191E-01 -0.52358860580E-02 -0.88034018184E-02  0.23409837997E-01  0.00000000000E+00 0. -1.
     999901    1    3    3    0    0  0.11248847704E+00 -0.83679245464E-01 -0.78130723141E-03  0.89109847045E+00  0.88000000000E+00 0.  1.
        -11    1    4    4    0    0 -0.63093375258E-01  0.48616579479E-01  0.88666835053E-02  0.80145024793E-01  0.51100000000E-03 0.  1.
         11    1    4    4    0    0 -0.28345015595E-01  0.40298552042E-01  0.71802554451E-03  0.49276666765E-01  0.51100000000E-03 0. -1.
</event>
<event>
 8    1  0.1131349E+005  0.1043930E+01  0.7957747E-01            NaN
         13   -1    0    0    0    0  0.00000000000E+00  0.00000000000E+00  0.74505805969E-08  0.10566000000E+00  0.10566000000E+00 0. -1.
     999900   -1    0    0    0    0 -0.00000000000E+00 -0.00000000000E+00 -0.74505805969E-08  0.93827000000E+00  0.93827000000E+00 0. -1.
     999902    2    1    2    0    0 -0.13110183635E-01  0.89257977186E-03 -0.19961960489E-01  0.10200311825E+01  0.10197511754E+01 0.  0.
     999903    2    3    3    0    0 -0.34364578020E-01 -0.11467735673E+00 -0.51087167384E-01  0.13167486992E+00  0.19913621678E-01 0.  0.
         14    1    1    2    0    0  0.13110183635E-01 -0.89257977186E-03  0.19961960489E-01  0.23898817547E-01  0.00000000000E+00 0. -1.
     999901    1    3    3    0    0  0.21254394385E-01  0.11556993651E+00  0.31125206895E-01  0.88835631253E+00  0.88000000000E+00 0.  1.
        -11    1    4    4    0    0 -0.28256729565E-01 -0.10582712436E+00 -0.51194622389E-01  0.12090894714E+00  0.51100000000E-03 0. -1.
         11    1    4    4    0    0 -0.61078484549E-02 -0.88502323715E-02  0.10745500433E-03  0.10765922782E-01  0.51100000000E-03 0.  1.
</event>
<event>
 8    1  0.1131349E+005  0.1043930E+01  0.7957747E-01            NaN
         13   -1    0    0    0    0  0.00000000000E+00  0.00000000000E+00  0.74505805969E-08  0.10566000000E+00  0.10566000000E+00 0. -1.
     999900   -1    0    0    0    0 -0.00000000000E+00 -0.00000000000E+00 -0.74505805969E-08  0.93827000000E+00  0.93827000000E+00 0.  1.
     999902    2    1    2    0    0 -0.12900757739E-01  0.13484614063E-01  0.20756912214E-01  0.10160173905E+01  0.10156339025E+01 0.  0.
     999903    2    3    3    0    0 -0.13603858347E-01  0.11305841219E+00  0.58493386756E-01  0.12959792027E+00  0.20171145571E-01 0.  0.
         14    1    1    2    0    0  0.12900757739E-01 -0.13484614063E-01 -0.20756912214E-01  0.27912609541E-01  0.00000000000E+00 0.  1.
     999901    1    3    3    0    0  0.70310060733E-03 -0.99573798131E-01 -0.37736474541E-01  0.88641947019E+00  0.88000000000E+00 0. -1.
        -11    1    4    4    0    0 -0.84834439364E-02  0.44148946683E-01  0.12766560624E-01  0.46736971504E-01  0.51100000000E-03 0. -1.
         11    1    4    4    0    0 -0.51204144103E-02  0.68909465511E-01  0.45726826132E-01  0.82860948763E-01  0.51100000000E-03 0.  1.
</event>
<event>
 8    1  0.1131349E+005  0.1043930E+01  0.7957747E-01            NaN
         13   -1    0    0    0    0  0.00000000000E+00  0.00000000000E+00  0.74505805969E-08  0.10566000000E+00  0.10566000000E+00 0.  1.
     999900   -1    0    0    0    0 -0.00000000000E+00 -0.00000000000E+00 -0.74505805969E-08  0.93827000000E+00  0.93827000000E+00 0. -1.
     999902    2    1    2    0    0 -0.10345001093E-01  0.53598627395E-02 -0.20128554923E-01  0.10206726162E+01  0.10204076066E+01 0.  0.
     999903    2    3    3    0    0  0.10762782552E+00 -0.60941572340E-01 -0.32934665370E-01  0.13023594551E+00  0.24064190299E-01 0.  0.
         14    1    1    2    0    0  0.10345001093E-01 -0.53598627395E-02  0.20128554923E-01  0.23257383763E-01  0.00000000000E+00 0.  1.
     999901    1    3    3    0    0 -0.11797282661E+00  0.66301435079E-01  0.12806110446E-01  0.89043667073E+00  0.88000000000E+00 0. -1.
        -11    1    4    4    0    0  0.68655584693E-01 -0.47369319619E-01 -0.30773052717E-01  0.88908287832E-01  0.51100000000E-03 0. -1.
         11    1    4    4    0    0  0.38972240825E-01 -0.13572252721E-01 -0.21616126527E-02  0.41327657678E-01  0.51100000000E-03 0.  1.
</event>
<event>
 8    1  0.1131349E+005  0.1043930E+01  0.7957747E-01            NaN
         13   -1    0    0    0    0  0.00000000000E+00  0.00000000000E+00  0.74505805969E-08  0.10566000000E+00  0.10566000000E+00 0. -1.
     999900   -1    0    0    0    0 -0.00000000000E+00 -0.00000000000E+00 -0.74505805969E-08  0.93827000000E+00  0.93827000000E+00 0. -1.
     999902    2    1    2    0    0 -0.14009972208E-01  0.16459364627E-01 -0.89983978404E-02  0.10205171580E+01  0.10202485524E+01 0.  0.
     999903    2    3    3    0    0  0.27162085249E-01 -0.79620362487E-01 -0.97103569590E-01  0.12996172822E+00  0.19589961157E-01 0.  0.
         14    1    1    2    0    0  0.14009972208E-01 -0.16459364627E-01  0.89983978404E-02  0.23412841965E-01  0.00000000000E+00 0. -1.
     999901    1    3    3    0    0 -0.41172057457E-01  0.96079727114E-01  0.88105171750E-01  0.89055542981E+00  0.88000000000E+00 0.  1.
        -11    1    4    4    0    0  0.21100537548E-01 -0.53744030235E-01 -0.52507723560E-01  0.78044702736E-01  0.51100000000E-03 0.  1.
         11    1    4    4    0    0  0.60615477005E-02 -0.25876332252E-01 -0.44595846030E-01  0.51917025487E-01  0.51100000000E-03 0. -1.
</event>
<event>
 8    1  0.1131349E+005  0.1043930E+01  0.7957747E-01            NaN
         13   -1    0    0    0    0  0.00000000000E+00  0.00000000000E+00  0.74505805969E-08  0.10566000000E+00  0.10566000000E+00 0. -1.
     999900   -1    0    0    0    0 -0.00000000000E+00 -0.00000000000E+00 -0.74505805969E-08  0.93827000000E+00  0.93827000000E+00 0. -1.
     999902    2    1    2    0    0  0.26150697085E-01 -0.13083534934E-02  0.11929642167E-01  0.10151569725E+01  0.10147491275E+01 0.  0.
     999903    2    3    3    0    0  0.59004420906E-01 -0.40464827707E-01  0.10514012910E+00  0.12875932390E+00  0.20139334063E-01 0.  0.
         14    1    1    2    0    0 -0.26150697085E-01  0.13083534934E-02 -0.11929642167E-01  0.28773027459E-01  0.00000000000E+00 0.  1.
     999901    1    3    3    0    0 -0.32853723821E-01  0.39156474213E-01 -0.93210486932E-01  0.88639764864E+00  0.88000000000E+00 0. -1.
        -11    1    4    4    0    0  0.19958763630E-01 -0.24044289699E-01  0.35991711183E-01  0.47667016979E-01  0.51100000000E-03 0. -1.
         11    1    4    4    0    0  0.39045657276E-01 -0.16420538008E-01  0.69148417916E-01  0.81092306921E-01  0.51100000000E-03 0.  1.
</event>
<event>
 8    1  0.1131349E+005  0.1043930E+01  0.7957747E-01            NaN
         13   -1    0    0    0    0  0.00000000000E+00  0.00000000000E+00  0.74505805969E-08  0.10566000000E+00  0.10566000000E+00 0.  1.
     999900   -1    0    0    0    0 -0.00000000000E+00 -0.00000000000E+00 -0.74505805969E-08  0.93827000000E+00  0.93827000000E+00 0. -1.
     999902    2    1    2    0    0 -0.97818491212E-02  0.20378789697E-01 -0.65318404436E-02  0.10204003468E+01  0.10201290228E+01 0.  0.
     999903    2    3    3    0    0 -0.87101288885E-01  0.15208330156E-01  0.94838805220E-01  0.13119787420E+00  0.20013879862E-01 0.  0.
         14    1    1    2    0    0  0.97818491212E-02 -0.20378789697E-01  0.65318404436E-02  0.23529653234E-01  0.00000000000E+00 0.  1.
     999901    1    3    3    0    0  0.77319439764E-01  0.51704595410E-02 -0.10137064566E+00  0.88920247257E+00  0.88000000000E+00 0. -1.
        -11    1    4    4    0    0 -0.27295556339E-01 -0.44081387116E-02  0.26790625005E-01  0.38502958222E-01  0.51100000000E-03 0. -1.
         11    1    4    4    0    0 -0.59805732547E-01  0.19616468868E-01  0.68048180215E-01  0.92694915976E-01  0.51100000000E-03 0.  1.
</event>
<event>
 8    1  0.1131349E+005  0.1043930E+01  0.7957747E-01            NaN
         13   -1    0    0    0    0  0.00000000000E+00  0.00000000000E+00  0.74505805969E-08  0.10566000000E+00  0.10566000000E+00 0.  1.
     999900   -1    0    0    0    0 -0.00000000000E+00 -0.00000000000E+00 -0.74505805969E-08  0.93827000000E+00  0.93827000000E+00 0. -1.
     999902    2    1    2    0    0 -0.68905222301E-02  0.14668258639E-01  0.19780431660E-01  0.10183584810E+01  0.10180373732E+01 0.  0.
     999903    2    3    3    0    0  0.89741474901E-01  0.26254420128E-01 -0.83641774687E-01  0.12697296687E+00  0.19579605443E-01 0.  0.
         14    1    1    2    0    0  0.68905222301E-02 -0.14668258639E-01 -0.19780431660E-01  0.25571519015E-01  0.00000000000E+00 0. -1.
     999901    1    3    3    0    0 -0.96631997131E-01 -0.11586161489E-01  0.10342220635E+00  0.89138551411E+00  0.88000000000E+00 0.  1.
        -11    1    4    4    0    0  0.35377097171E-01  0.80651080896E-02 -0.45128201524E-01  0.57908554347E-01  0.51100000000E-03 0.  1.
         11    1    4    4    0    0  0.54364377730E-01  0.18189312038E-01 -0.38513573163E-01  0.69064412523E-01  0.51100000000E-03 0. -1.
</event>
<event>
 8    1  0.1131349E+005  0.1043930E+01  0.7957747E-01            NaN
         13   -1    0    0    0    0  0.00000000000E+00  0.00000000000E+00  0.74505805969E-08  0.10566000000E+00  0.10566000000E+00 0. -1.
     999900   -1    0    0    0    0 -0.00000000000E+00 -0.00000000000E+00 -0.74505805969E-08  0.93827000000E+00  0.93827000000E+00 0.  1.
     999902    2    1    2    0    0 -0.42901384420E-02  0.24904606512E-01 -0.17565225856E-02  0.10185976080E+01  0.10182825526E+01 0.  0.
     999903    2    3    3    0    0 -0.67825254064E-01  0.34176106966E-01 -0.10426684839E+00  0.13032341691E+00  0.18556560725E-01 0.  0.
         14    1    1    2    0    0  0.42901384420E-02 -0.24904606512E-01  0.17565225856E-02  0.25332392011E-01  0.00000000000E+00 0.  1.
     999901    1    3    3    0    0  0.63535115622E-01 -0.92715004538E-02  0.10251032581E+00  0.88827419108E+00  0.88000000000E+00 0. -1.
        -11    1    4    4    0    0  0.28196756613E-03  0.31181645529E-02 -0.27928215305E-02  0.42265149932E-02  0.51100000000E-03 0.  1.
         11    1    4    4    0    0 -0.68107221630E-01  0.31057942413E-01 -0.10147402686E+00  0.12609690192E+00  0.51100000000E-03 0. -1.
</event>
<event>
 8    1  0.1131349E+005  0.1043930E+01  0.7957747E-01            NaN
         13   -1    0    0    0    0  0.00000000000E+00  0.00000000000E+00  0.74505805969E-08  0.10566000000E+00  0.10566000000E+00 0. -1.
     999900   -1    0    0    0    0 -0.00000000000E+00 -0.00000000000E+00 -0.74505805969E-08  0.93827000000E+00  0.93827000000E+00 0. -1.
     999902    2    1    2    0    0  0.11997706513E-01 -0.17122948791E-01 -0.12620503464E-01  0.10195083407E+01  0.10192157962E+01 0.  0.
     999903    2    3    3    0    0  0.99606698374E-01  0.79336743593E-01  0.13793761458E-01  0.12952096935E+00  0.19224994193E-01 0.  0.
         14    1    1    2    0    0 -0.11997706513E-01  0.17122948791E-01  0.12620503464E-01  0.24421659333E-01  0.00000000000E+00 0. -1.
     999901    1    3    3    0    0 -0.87608991862E-01 -0.96459692384E-01 -0.26414264923E-01  0.88998737132E+00  0.88000000000E+00 0. -1.
        -11    1    4    4    0    0  0.37833020729E-01  0.39251512873E-01  0.12175644689E-01  0.55861669908E-01  0.51100000000E-03 0. -1.
         11    1    4    4    0    0  0.61773677645E-01  0.40085230720E-01  0.16181167690E-02  0.73659299444E-01  0.51100000000E-03 0.  1.
</event>
<event>
 8    1  0.1131349E+005  0.1043930E+01  0.7957747E-01            NaN
         13   -1    0    0    0    0  0.00000000000E+00  0.00000000000E+00  0.74505805969E-08  0.10566000000E+00  0.10566000000E+00 0. -1.
     999900   -1    0    0    0    0 -0.00000000000E+00 -0.00000000000E+00 -0.74505805969E-08  0.93827000000E+00  0.93827000000E+00 0. -1.
     999902    2    1    2    0    0  0.65497129852E-02 -0.21009022520E-01 -0.92095192373E-02  0.10200743296E+01  0.10197953446E+01 0.  0.
     999903    2    3    3    0    0  0.90753403190E-01  0.54708941316E-02  0.90723167920E-01  0.13003051638E+00  0.20276368470E-01 0.  0.
         14    1    1    2    0    0 -0.65497129852E-02  0.21009022520E-01  0.92095192373E-02  0.23855670437E-01  0.00000000000E+00 0. -1.
     999901    1    3    3    0    0 -0.84203690205E-01 -0.26479916652E-01 -0.99932687157E-01  0.89004381319E+00  0.88000000000E+00 0. -1.
        -11    1    4    4    0    0  0.19992968404E-01 -0.35443278871E-03  0.94847234697E-02  0.22137423258E-01  0.51100000000E-03 0. -1.
         11    1    4    4    0    0  0.70760434787E-01  0.58253269203E-02  0.81238444450E-01  0.10789309312E+00  0.51100000000E-03 0.  1.
</event>
<event>
 8    1  0.1131349E+005  0.1043930E+01  0.7957747E-01            NaN
         13   -1    0    0    0    0  0.00000000000E+00  0.00000000000E+00  0.74505805969E-08  0.10566000000E+00  0.10566000000E+00 0.  1.
     999900   -1    0    0    0    0 -0.00000000000E+00 -0.00000000000E+00 -0.74505805969E-08  0.93827000000E+00  0.93827000000E+00 0. -1.
     999902    2    1    2    0    0  0.10504900432E-01  0.17614284134E-01  0.13600059544E-01  0.10193215145E+01  0.10190244219E+01 0.  0.
     999903    2    3    3    0    0  0.14989277191E-01 -0.64031226641E-01 -0.10702682047E+00  0.12733668098E+00  0.20861773811E-01 0.  0.
         14    1    1    2    0    0 -0.10504900432E-01 -0.17614284134E-01 -0.13600059544E-01  0.24608485492E-01  0.00000000000E+00 0. -1.
     999901    1    3    3    0    0 -0.44843767588E-02  0.81645510775E-01  0.12062688002E+00  0.89198483353E+00  0.88000000000E+00 0. -1.
        -11    1    4    4    0    0  0.12520972948E-01 -0.64018466387E-01 -0.96278994463E-01  0.11629722567E+00  0.51100000000E-03 0.  1.
         11    1    4    4    0    0  0.24683042426E-02 -0.12760253832E-04 -0.10747826008E-01  0.11039455310E-01  0.51100000000E-03 0. -1.
</event>
<event>
 8    1  0.1131349E+005  0.1043930E+01  0.7957747E-01            NaN
         13   -1    0    0    0    0  0.00000000000E+00  0.00000000000E+00  0.74505805969E-08  0.10566000000E+00  0.10566000000E+00 0.  1.
     999900   -1    0    0    0    0 -0.00000000000E+00 -0.00000000000E+00 -0.74505805969E-08  0.93827000000E+00  0.93827000000E+00 0. -1.
     999902    2    1    2    0    0 -0.70223270791E-02 -0.58984309875E-02  0.23985598037E-01  0.10182509525E+01  0.10179271039E+01 0.  0.
     999903    2    3    3    0    0 -0.82322410402E-01  0.20027359801E-01  0.98529685944E-01  0.13151589051E+00  0.20254778430E-01 0.  0.
         14    1    1    2    0    0  0.70223270791E-02  0.58984309875E-02 -0.23985598037E-01  0.25679047469E-01  0.00000000000E+00 0. -1.
     999901    1    3    3    0    0  0.75300083322E-01 -0.25925790788E-01 -0.74544087907E-01  0.88673506202E+00  0.88000000000E+00 0. -1.
        -11    1    4    4    0    0 -0.63708026058E-01  0.14460363251E-01  0.61641113167E-01  0.89820391020E-01  0.51100000000E-03 0. -1.
         11    1    4    4    0    0 -0.18614384343E-01  0.55669965495E-02  0.36888572778E-01  0.41695499489E-01  0.51100000000E-03 0.  1.
</event>
<event>
 8    1  0.1131349E+005  0.1043930E+01  0.7957747E-01            NaN
         13   -1    0    0    0    0  0.00000000000E+00  0.00000000000E+00  0.74505805969E-08  0.10566000000E+00  0.10566000000E+00 0.  1.
     999900   -1    0    0    0    0 -0.00000000000E+00 -0.00000000000E+00 -0.74505805969E-08  0.93827000000E+00  0.93827000000E+00 0. -1.
     999902    2    1    2    0    0 -0.23630839471E-02  0.21275358837E-01  0.98532263089E-02  0.10203649596E+01  0.10200928094E+01 0.  0.
     999903    2    3    3    0    0 -0.78994646102E-01 -0.99287336119E-01 -0.73917970006E-02  0.12867827106E+00  0.20132797938E-01 0.  0.
         14    1    1    2    0    0  0.23630839471E-02 -0.21275358837E-01 -0.98532263089E-02  0.23565040379E-01  0.00000000000E+00 0. -1.
     999901    1    3    3    0    0  0.76631562155E-01  0.12056269496E+00  0.17245023310E-01  0.89168668856E+00  0.88000000000E+00 0.  1.
        -11    1    4    4    0    0 -0.16589845004E-01 -0.10079730238E-01  0.12999329886E-02  0.19462139289E-01  0.51100000000E-03 0.  1.
         11    1    4    4    0    0 -0.62404801098E-01 -0.89207605881E-01 -0.86917299893E-02  0.10921613177E+00  0.51100000000E-03 0. -1.
</event>
<event>
 8    1  0.1131349E+005  0.1043930E+01  0.7957747E-01            NaN
         13   -1    0    0    0    0  0.00000000000E+00  0.00000000000E+00  0.74505805969E-08  0.10566000000E+00  0.10566000000E+00 0. -1.
     999900   -1    0    0    0    0 -0.00000000000E+00 -0.00000000000E+00 -0.74505805969E-08  0.93827000000E+00  0.93827000000E+00 0. -1.
     999902    2    1    2    0    0  0.31351089450E-02  0.12691845474E-01  0.19492474352E-01  0.10204594140E+01  0.10201894664E+01 0.  0.
     999903    2    3    3    0    0  0.56824296220E-01 -0.10989236268E+00 -0.31129914729E-01  0.12890344652E+00  0.18484991664E-01 0.  0.
         14    1    1    2    0    0 -0.31351089450E-02 -0.12691845474E-01 -0.19492474352E-01  0.23470585975E-01  0.00000000000E+00 0.  1.
     999901    1    3    3    0    0 -0.53689187275E-01  0.12258420816E+00  0.50622389081E-01  0.89155596751E+00  0.88000000000E+00 0.  1.
        -11    1    4    4    0    0  0.53829688135E-01 -0.10828667638E+00 -0.32474197747E-01  0.12521371429E+00  0.51100000000E-03 0.  1.
         11    1    4    4    0    0  0.29946080855E-02 -0.16056863014E-02  0.13442830183E-02  0.36897322284E-02  0.51100000000E-03 0. -1.
</event>
<event>
 8    1  0.1131349E+005  0.1043930E+01  0.7957747E-01            NaN
         13   -1    0    0    0    0  0.00000000000E+00  0.00000000000E+00  0.74505805969E-08  0.10566000000E+00  0.10566000000E+00 0.  1.
     999900   -1    0    0    0    0 -0.00000000000E+00 -0.00000000000E+00 -0.74505805969E-08  0.93827000000E+00  0.93827000000E+00 0. -1.
     999902    2    1    2    0    0  0.20598339575E-01 -0.10051657248E-01  0.49256803024E-02  0.10204866698E+01  0.10202173560E+01 0.  0.
     999903    2    3    3    0    0 -0.62835675019E-01  0.11427818372E-01 -0.11108707752E+00  0.12870106623E+00  0.12029487530E-01 0.  0.
         14    1    1    2    0    0 -0.20598339575E-01  0.10051657248E-01 -0.49256803024E-02  0.23443330248E-01  0.00000000000E+00 0. -1.
     999901    1    3    3    0    0  0.83434014594E-01 -0.21479475620E-01  0.11601275782E+00  0.89178560352E+00  0.88000000000E+00 0.  1.
        -11    1    4    4    0    0 -0.11952360039E-01  0.33829128848E-02 -0.31830078604E-01  0.34171889544E-01  0.51100000000E-03 0.  1.
         11    1    4    4    0    0 -0.50883314980E-01  0.80449054872E-02 -0.79256998916E-01  0.94529176691E-01  0.51100000000E-03 0. -1.
</event>
<event>
 8    1  0.1131349E+005  0.1043930E+01  0.7957747E-01            NaN
         13   -1    0    0    0    0  0.00000000000E+00  0.00000000000E+00  0.74505805969E-08  0.10566000000E+00  0.10566000000E+00 0.  1.
     999900   -1    0    0    0    0 -0.00000000000E+00 -0.00000000000E+00 -0.74505805969E-08  0.93827000000E+00  0.93827000000E+00 0. -1.
     999902    2    1    2    0    0  0.51280781600E-02 -0.32283763348E-02  0.21732516776E-01  0.10213684866E+01  0.10211192700E+01 0.  0.
     999903    2    3    3    0    0 -0.79560494134E-01 -0.41444910154E-01  0.96519090178E-01  0.13332249161E+00  0.20282978000E-01 0.  0.
         14    1    1    2    0    0 -0.51280781600E-02  0.32283763348E-02 -0.21732516776E-01  0.22561513354E-01  0.00000000000E+00 0. -1.
     999901    1    3    3    0    0  0.84688572294E-01  0.38216533819E-01 -0.74786573402E-01  0.88804599503E+00  0.88000000000E+00 0. -1.
        -11    1    4    4    0    0 -0.36022159156E-01 -0.75878284014E-02  0.38385389359E-01  0.53187125579E-01  0.51100000000E-03 0.  1.
         11    1    4    4    0    0 -0.43538334978E-01 -0.33857081753E-01  0.58133700819E-01  0.80135366034E-01  0.51100000000E-03 0. -1.
</event>
<event>
 8    1  0.1131349E+005  0.1043930E+01  0.7957747E-01            NaN
         13   -1    0    0    0    0  0.00000000000E+00  0.00000000000E+00  0.74505805969E-08  0.10566000000E+00  0.10566000000E+00 0. -1.
     999900   -1    0    0    0    0 -0.00000000000E+00 -0.00000000000E+00 -0.74505805969E-08  0.93827000000E+00  0.93827000000E+00 0. -1.
     999902    2    1    2    0    0 -0.16268492022E-01 -0.42431837826E-02 -0.15131546617E-01  0.10213107130E+01  0.10210602041E+01 0.  0.
     999903    2    3    3    0    0 -0.27558673776E-01 -0.12791207490E+00 -0.69119731006E-02  0.13255370222E+00  0.20043183243E-01 0.  0.
         14    1    1    2    0    0  0.16268492022E-01  0.42431837826E-02  0.15131546617E-01  0.22619286998E-01  0.00000000000E+00 0. -1.
     999901    1    3    3    0    0  0.11290181754E-01  0.12366889111E+00 -0.82195735163E-02  0.88875701079E+00  0.88000000000E+00 0. -1.
        -11    1    4    4    0    0 -0.24770759222E-01 -0.80567674579E-01  0.19014538535E-02  0.84312616774E-01  0.51100000000E-03 0.  1.
         11    1    4    4    0    0 -0.27879145535E-02 -0.47344400317E-01 -0.88134269541E-02  0.48241085442E-01  0.51100000000E-03 0. -1.
</event>
<event>
 8    1  0.1131349E+005  0.1043930E+01  0.7957747E-01            NaN
         13   -1    0    0    0    0  0.00000000000E+00  0.00000000000E+00  0.74505805969E-08  0.10566000000E+00  0.10566000000E+00 0. -1.
     999900   -1    0    0    0    0 -0.00000000000E+00 -0.00000000000E+00 -0.74505805969E-08  0.93827000000E+00  0.93827000000E+00 0. -1.
     999902    2    1    2    0    0 -0.79182784331E-02  0.21509508599E-01 -0.23106405501E-02  0.10208931349E+01  0.10206331837E+01 0.  0.
     999903    2    3    3    0    0 -0.82374101638E-01 -0.51540925234E-01 -0.85244957449E-01  0.13086047460E+00  0.20391210062E-01 0.  0.
         14    1    1    2    0    0  0.79182784331E-02 -0.21509508599E-01  0.23106405501E-02  0.23036865092E-01  0.00000000000E+00 0. -1.
     999901    1    3    3    0    0  0.74455823205E-01  0.73050433834E-01  0.82934316899E-01  0.89003266031E+00  0.88000000000E+00 0.  1.
        -11    1    4    4    0    0 -0.32702407577E-01 -0.14725525747E-01 -0.42906057736E-01  0.55923872195E-01  0.51100000000E-03 0. -1.
         11    1    4    4    0    0 -0.49671694061E-01 -0.36815399488E-01 -0.42338899713E-01  0.74936602406E-01  0.51100000000E-03 0.  1.
</event>
<event>
 8    1  0.1131349E+005  0.1043930E+01  0.7957747E-01            NaN
         13   -1    0    0    0    0  0.00000000000E+00  0.00000000000E+00  0.74505805969E-08  0.10566000000E+00  0.10566000000E+00 0.  1.
     999900   -1    0    0    0    0 -0.00000000000E+00 -0.00000000000E+00 -0.74505805969E-08  0.93827000000E+00  0.93827000000E+00 0. -1.
     999902    2    1    2    0    0  0.16861845065E-01  0.16041369404E-01 -0.36541218915E-02  0.10203715629E+01  0.10200995669E+01 0.  0.
     999903    2    3    3    0    0 -0.66361664739E-01 -0.10747125608E+00 -0.13114464929E-03  0.12785045246E+00  0.19793422229E-01 0.  0.
         14    1    1    2    0    0 -0.16861845065E-01 -0.16041369404E-01  0.36541218915E-02  0.23558437091E-01  0.00000000000E+00 0.  1.
     999901    1    3    3    0    0  0.83223509804E-01  0.12351262548E+00 -0.35229772422E-02  0.89252111045E+00  0.88000000000E+00 0. -1.
        -11    1    4    4    0    0 -0.51408599919E-01 -0.81717370168E-01  0.82860938766E-02  0.96899397344E-01  0.51100000000E-03 0.  1.
         11    1    4    4    0    0 -0.14953064821E-01 -0.25753885912E-01 -0.84172385259E-02  0.30951055111E-01  0.51100000000E-03 0. -1.
</event>
<event>
 8    1  0.1131349E+005  0.1043930E+01  0.7957747E-01            NaN
         13   -1    0    0    0    0  0.00000000000E+00  0.00000000000E+00  0.74505805969E-08  0.10566000000E+00  0.10566000000E+00 0. -1.
     999900   -1    0    0    0    0 -0.00000000000E+00 -0.00000000000E+00 -0.74505805969E-08  0.93827000000E+00  0.93827000000E+00 0. -1.
     999902    2    1    2    0    0 -0.89206666854E-02 -0.13510639388E-01 -0.16259524255E-01  0.10209846780E+01  0.10207268121E+01 0.  0.
     999903    2    3    3    0    0 -0.10587180929E+00 -0.70367084230E-01 -0.36058970749E-01  0.13361542150E+00  0.19810728071E-01 0.  0.
         14    1    1    2    0    0  0.89206666854E-02  0.13510639388E-01  0.16259524255E-01  0.22945321959E-01  0.00000000000E+00 0. -1.
     999901    1    3    3    0    0  0.96951142601E-01  0.56856444842E-01  0.19799446493E-01  0.88736925654E+00  0.88000000000E+00 0.  1.
        -11    1    4    4    0    0 -0.74967341985E-01 -0.56771913041E-01 -0.33200869671E-01  0.99728187302E-01  0.51100000000E-03 0.  1.
         11    1    4    4    0    0 -0.30904467302E-01 -0.13595171188E-01 -0.28581010775E-02  0.33887234199E-01  0.51100000000E-03 0. -1.
</event>
<event>
 8    1  0.1131349E+005  0.1043930E+01  0.7957747E-01            NaN
         13   -1    0    0    0    0  0.00000000000E+00  0.00000000000E+00  0.74505805969E-08  0.10566000000E+00  0.10566000000E+00 0.  1.
     999900   -1    0    0    0    0 -0.00000000000E+00 -0.00000000000E+00 -0.74505805969E-08  0.93827000000E+00  0.93827000000E+00 0. -1.
     999902    2    1    2    0    0  0.17005428445E-01 -0.16607773180E-01 -0.30663525960E-02  0.10199632471E+01  0.10196816269E+01 0.  0.
     999903    2    3    3    0    0 -0.11965210271E+00  0.18798779463E-02  0.40953146729E-01  0.12813658771E+00  0.20534489539E-01 0.  0.
         14    1    1    2    0    0 -0.17005428445E-01  0.16607773180E-01  0.30663525960E-02  0.23966752905E-01  0.00000000000E+00 0.  1.
     999901    1    3    3    0    0  0.13665753115E+00 -0.18487651126E-01 -0.44019499325E-01  0.89182665938E+00  0.88000000000E+00 0.  1.
        -11    1    4    4    0    0 -0.65343909991E-01  0.91445346675E-02  0.28889848947E-01  0.72030088021E-01  0.51100000000E-03 0. -1.
         11    1    4    4    0    0 -0.54308192715E-01 -0.72646567212E-02  0.12063297782E-01  0.56106499691E-01  0.51100000000E-03 0.  1.
</event>
<event>
 8    1  0.1131349E+005  0.1043930E+01  0.7957747E-01            NaN
         13   -1    0    0    0    0  0.00000000000E+00  0.00000000000E+00  0.74505805969E-08  0.10566000000E+00  0.10566000000E+00 0. -1.
     999900   -1    0    0    0    0 -0.00000000000E+00 -0.00000000000E+00 -0.74505805969E-08  0.93827000000E+00  0.93827000000E+00 0. -1.
     999902    2    1    2    0    0  0.12357694485E-01  0.20183725999E-01  0.54819269993E-02  0.10196370600E+01  0.10193476283E+01 0.  0.
     999903    2    3    3    0    0 -0.34609390449E-01 -0.73712822801E-01  0.97505214323E-01  0.12863158623E+00  0.20184845911E-01 0.  0.
         14    1    1    2    0    0 -0.12357694485E-01 -0.20183725999E-01 -0.54819269993E-02  0.24292939959E-01  0.00000000000E+00 0. -1.
     999901    1    3    3    0    0  0.46967084935E-01  0.93896548800E-01 -0.92023287324E-01  0.89100547381E+00  0.88000000000E+00 0. -1.
        -11    1    4    4    0    0 -0.18829722951E-01 -0.60325173615E-01  0.73497434915E-01  0.96932033396E-01  0.51100000000E-03 0.  1.
         11    1    4    4    0    0 -0.15779667498E-01 -0.13387649186E-01  0.24007779408E-01  0.31699552839E-01  0.51100000000E-03 0. -1.
</event>
<event>
 8    1  0.1131349E+005  0.1043930E+01  0.7957747E-01            NaN
         13   -1    0    0    0    0  0.00000000000E+00  0.00000000000E+00  0.74505805969E-08  0.10566000000E+00  0.10566000000E+00 0. -1.
     999900   -1    0    0    0    0 -0.00000000000E+00 -0.00000000000E+00 -0.74505805969E-08  0.93827000000E+00  0.93827000000E+00 0. -1.
     999902    2    1    2    0    0  0.51762235179E-02 -0.10905906454E-01 -0.20433023364E-01  0.10201973110E+01  0.10199212287E+01 0.  0.
     999903    2    3    3    0    0  0.40388991785E-01 -0.87362627410E-01 -0.90295588157E-01  0.13342431453E+00  0.19627917414E-01 0.  0.
         14    1    1    2    0    0 -0.51762235179E-02  0.10905906454E-01  0.20433023364E-01  0.23732689045E-01  0.00000000000E+00 0. -1.
     999901    1    3    3    0    0 -0.35212768267E-01  0.76456720956E-01  0.69862564793E-01  0.88677299642E+00  0.88000000000E+00 0.  1.
        -11    1    4    4    0    0  0.16289253414E-01 -0.41089644101E-01 -0.28711346595E-01  0.52709592803E-01  0.51100000000E-03 0.  1.
         11    1    4    4    0    0  0.24099738371E-01 -0.46272983309E-01 -0.61584241562E-01  0.80714721728E-01  0.51100000000E-03 0. -1.
</event>
<event>
 8    1  0.1131349E+005  0.1043930E+01  0.7957747E-01            NaN
         13   -1    0    0    0    0  0.00000000000E+00  0.00000000000E+00  0.74505805969E-08  0.10566000000E+00  0.10566000000E+00 0. -1.
     999900   -1    0    0    0    0 -0.00000000000E+00 -0.00000000000E+00 -0.74505805969E-08  0.93827000000E+00  0.93827000000E+00 0. -1.
     999902    2    1    2    0    0 -0.22038813383E-01 -0.74985759115E-02 -0.51422147892E-03  0.10206447609E+01  0.10203791088E+01 0.  0.
     999903    2    3    3    0    0 -0.79743408505E-01  0.20082128209E-01 -0.10194208578E+00  0.13251294231E+00  0.20129281013E-01 0.  0.
         14    1    1    2    0    0  0.22038813383E-01  0.74985759115E-02  0.51422147892E-03  0.23285239096E-01  0.00000000000E+00 0. -1.
     999901    1    3    3    0    0  0.57704595122E-01 -0.27580704121E-01  0.10142786430E+00  0.88813181859E+00  0.88000000000E+00 0.  1.
        -11    1    4    4    0    0 -0.58276781276E-01  0.88788655558E-02 -0.82799876305E-01  0.10164200965E+00  0.51100000000E-03 0. -1.
         11    1    4    4    0    0 -0.21466627229E-01  0.11203262654E-01 -0.19142209473E-01  0.30870932658E-01  0.51100000000E-03 0.  1.
</event>
<event>
 8    1  0.1131349E+005  0.1043930E+01  0.7957747E-01            NaN
         13   -1    0    0    0    0  0.00000000000E+00  0.00000000000E+00  0.74505805969E-08  0.10566000000E+00  0.10566000000E+00 0.  1.
     999900   -1    0    0    0    0 -0.00000000000E+00 -0.00000000000E+00 -0.74505805969E-08  0.93827000000E+00  0.93827000000E+00 0.  1.
     999902    2    1    2    0    0 -0.21075762483E-01  0.65284353019E-02  0.67160312049E-02  0.10208667542E+01  0.10206062005E+01 0.  0.
     999903    2    3    3    0    0 -0.11493772121E-01 -0.12840585719E+00  0.50223653906E-02  0.13052864633E+00  0.19807382445E-01 0.  0.
         14    1    1    2    0    0  0.21075762483E-01 -0.65284353019E-02 -0.67160312049E-02  0.23063245801E-01  0.00000000000E+00 0.  1.
     999901    1    3    3    0    0 -0.95819903612E-02  0.13493429249E+00  0.16936658143E-02  0.89033810787E+00  0.88000000000E+00 0. -1.
        -11    1    4    4    0    0 -0.15766212744E-01 -0.11826918274E+00  0.31473860520E-02  0.11935803371E+00  0.51100000000E-03 0. -1.
         11    1    4    4    0    0  0.42724406226E-02 -0.10136674448E-01  0.18749793386E-02  0.11170612618E-01  0.51100000000E-03 0.  1.
</event>
<event>
 8    1  0.1131349E+005  0.1043930E+01  0.7957747E-01            NaN
         13   -1    0    0    0    0  0.00000000000E+00  0.00000000000E+00  0.74505805969E-08  0.10566000000E+00  0.10566000000E+00 0. -1.
     999900   -1    0    0    0    0 -0.00000000000E+00 -0.00000000000E+00 -0.74505805969E-08  0.93827000000E+00  0.93827000000E+00 0.  1.
     999902    2    1    2    0    0 -0.14676732584E-02  0.39029676680E-02 -0.20420591241E-01  0.10230880287E+01  0.10228757142E+01 0.  0.
     999903    2    3    3    0    0 -0.13154940993E+00  0.55639585096E-02  0.17863951995E-02  0.13324693762E+00  0.20380144561E-01 0.  0.
         14    1    1    2    0    0  0.14676732584E-02 -0.39029676680E-02  0.20420591241E-01  0.20841971309E-01  0.00000000000E+00 0.  1.
     999901    1    3    3    0    0  0.13008173667E+00 -0.16609908416E-02 -0.22206986441E-01  0.88984109107E+00  0.88000000000E+00 0.  1.
        -11    1    4    4    0    0 -0.96033916886E-01 -0.46184777935E-02 -0.14342781955E-02  0.96156964410E-01  0.51100000000E-03 0.  1.
         11    1    4    4    0    0 -0.35515493039E-01  0.10182436303E-01  0.32206733950E-02  0.37089973214E-01  0.51100000000E-03 0. -1.
</event>
<event>
 8    1  0.1131349E+005  0.1043930E+01  0.7957747E-01            NaN
         13   -1    0    0    0    0  0.00000000000E+00  0.00000000000E+00  0.74505805969E-08  0.10566000000E+00  0.10566000000E+00 0. -1.
     999900   -1    0    0    0    0 -0.00000000000E+00 -0.00000000000E+00 -0.74505805969E-08  0.93827000000E+00  0.93827000000E+00 0.  1.
     999902    2    1    2    0    0 -0.95437283131E-02  0.18243281272E-01 -0.12432791430E-01  0.10198785060E+01  0.10195948669E+01 0.  0.
     999903    2    3    3    0    0  0.24393323107E-02  0.12844646689E+00 -0.26603243692E-01  0.13281078727E+00  0.20652540801E-01 0.  0.
         14    1    1    2    0    0  0.95437283131E-02 -0.18243281272E-01  0.12432791430E-01  0.24051494017E-01  0.00000000000E+00 0.  1.
     999901    1    3    3    0    0 -0.11983060624E-01 -0.11020318562E+00  0.14170452262E-01  0.88706771871E+00  0.88000000000E+00 0. -1.
        -11    1    4    4    0    0 -0.53740223549E-02  0.59392817426E-01 -0.41684216693E-02  0.59783139247E-01  0.51100000000E-03 0. -1.
         11    1    4    4    0    0  0.78133546656E-02  0.69053649467E-01 -0.22434822023E-01  0.73027648025E-01  0.51100000000E-03 0.  1.
</event>
<event>
 8    1  0.1131349E+005  0.1043930E+01  0.7957747E-01            NaN
         13   -1    0    0    0    0  0.00000000000E+00  0.00000000000E+00  0.74505805969E-08  0.10566000000E+00  0.10566000000E+00 0.  1.
     999900   -1    0    0    0    0 -0.00000000000E+00 -0.00000000000E+00 -0.74505805969E-08  0.93827000000E+00  0.93827000000E+00 0. -1.
     999902    2    1    2    0    0  0.24595044650E-02  0.22736777994E-01  0.10914738139E-02  0.10210345517E+01  0.10207778183E+01 0.  0.
     999903    2    3    3    0    0 -0.97102588253E-01  0.30752808248E-01  0.81152071111E-01  0.13177274199E+00  0.20093507041E-01 0.  0.
         14    1    1    2    0    0 -0.24595044650E-02 -0.22736777994E-01 -0.10914738139E-02  0.22895448256E-01  0.00000000000E+00 0. -1.
     999901    1    3    3    0    0  0.99562092718E-01 -0.80160302540E-02 -0.80060597297E-01  0.88926180975E+00  0.88000000000E+00 0.  1.
        -11    1    4    4    0    0 -0.63528614448E-01  0.23141326947E-01  0.64819400230E-01  0.93665477278E-01  0.51100000000E-03 0.  1.
         11    1    4    4    0    0 -0.33573973806E-01  0.76114813010E-02  0.16332670881E-01  0.38107264712E-01  0.51100000000E-03 0. -1.
</event>
<event>
 8    1  0.1131349E+005  0.1043930E+01  0.7957747E-01            NaN
         13   -1    0    0    0    0  0.00000000000E+00  0.00000000000E+00  0.74505805969E-08  0.10566000000E+00  0.10566000000E+00 0.  1.
     999900   -1    0    0    0    0 -0.00000000000E+00 -0.00000000000E+00 -0.74505805969E-08  0.93827000000E+00  0.93827000000E+00 0.  1.
     999902    2    1    2    0    0  0.14622401101E-02 -0.12941247650E-01  0.21285553957E-01  0.10189762659E+01  0.10186706738E+01 0.  0.
     999903    2    3    3    0    0  0.11869229650E+00  0.45925693138E-01  0.78136446434E-02  0.12915061156E+00  0.20537694241E-01 0.  0.
         14    1    1    2    0    0 -0.14622401101E-02  0.12941247650E-01 -0.21285553957E-01  0.24953734072E-01  0.00000000000E+00 0. -1.
     999901    1    3    3    0    0 -0.11723005639E+00 -0.58866940788E-01  0.13471909313E-01  0.88982565437E+00  0.88000000000E+00 0. -1.
        -11    1    4    4    0    0  0.33204320221E-01  0.22295432751E-01 -0.10609754214E-02  0.40012497957E-01  0.51100000000E-03 0. -1.
         11    1    4    4    0    0  0.85487976276E-01  0.23630260387E-01  0.88746200648E-02  0.89138113599E-01  0.51100000000E-03 0.  1.
</event>
<event>
 8    1  0.1131349E+005  0.1043930E+01  0.7957747E-01            NaN
         13   -1    0    0    0    0  0.00000000000E+00  0.00000000000E+00  0.74505805969E-08  0.10566000000E+00  0.10566000000E+00 0. -1.
     999900   -1    0    0    0    0 -0.00000000000E+00 -0.00000000000E+00 -0.74505805969E-08  0.93827000000E+00  0.93827000000E+00 0.  1.
     999902    2    1    2    0    0  0.13380749321E-01  0.87107371729E-02  0.17181159184E-01  0.10204754988E+01  0.10202059253E+01 0.  0.
     999903    2    3    3    0    0 -0.85148015803E-01 -0.52949043392E-01 -0.76722998280E-01  0.12787937689E+00  0.20320698276E-01 0.  0.
         14    1    1    2    0    0 -0.13380749321E-01 -0.87107371729E-02 -0.17181159184E-01  0.23454501175E-01  0.00000000000E+00 0. -1.
     999901    1    3    3    0    0  0.98528765124E-01  0.61659780565E-01  0.93904157464E-01  0.89259612193E+00  0.88000000000E+00 0. -1.
        -11    1    4    4    0    0 -0.14762665050E-01 -0.18749411817E-01 -0.14776067326E-01  0.28072584660E-01  0.51100000000E-03 0.  1.
         11    1    4    4    0    0 -0.70385350753E-01 -0.34199631575E-01 -0.61946930954E-01  0.99806792234E-01  0.51100000000E-03 0. -1.
</event>
<event>
 8    1  0.1131349E+005  0.1043930E+01  0.7957747E-01            NaN
         13   -1    0    0    0    0  0.00000000000E+00  0.00000000000E+00  0.74505805969E-08  0.10566000000E+00  0.10566000000E+00 0.  1.
     999900   -1    0    0    0    0 -0.00000000000E+00 -0.00000000000E+00 -0.74505805969E-08  0.93827000000E+00  0.93827000000E+00 0. -1.
     999902    2    1    2    0    0 -0.11514140141E-01 -0.62333348449E-02  0.17718299611E-01  0.10218989304E+01  0.10216614194E+01 0.  0.
     999903    2    3    3    0    0  0.57148700520E-01 -0.18152247472E-01  0.11679699084E+00  0.13360098871E+00  0.24742858666E-01 0.  0.
         14    1    1    2    0    0  0.11514140141E-01  0.62333348449E-02 -0.17718299611E-01  0.22031069597E-01  0.00000000000E+00 0. -1.
     999901    1    3    3    0    0 -0.68662840661E-01  0.11918912627E-01 -0.99078691228E-01  0.88829794170E+00  0.88000000000E+00 0. -1.
        -11    1    4    4    0    0  0.33221138231E-01  0.23818750639E-02  0.58272772400E-01  0.67121490436E-01  0.51100000000E-03 0. -1.
         11    1    4    4    0    0  0.23927562289E-01 -0.20534122536E-01  0.58524218439E-01  0.66479498270E-01  0.51100000000E-03 0.  1.
</event>
<event>
 8    1  0.1131349E+005  0.1043930E+01  0.7957747E-01            NaN
         13   -1    0    0    0    0  0.00000000000E+00  0.00000000000E+00  0.74505805969E-08  0.10566000000E+00  0.10566000000E+00 0.  1.
     999900   -1    0    0    0    0 -0.00000000000E+00 -0.00000000000E+00 -0.74505805969E-08  0.93827000000E+00  0.93827000000E+00 0.  1.
     999902    2    1    2    0    0  0.21473722194E-02  0.24179297274E-01 -0.67815200931E-03  0.10196460647E+01  0.10193568500E+01 0.  0.
     999903    2    3    3    0    0 -0.10715557160E+00  0.62133061717E-01 -0.38659307337E-01  0.13125978050E+00  0.19792777735E-01 0.  0.
         14    1    1    2    0    0 -0.21473722194E-02 -0.24179297274E-01  0.67815200931E-03  0.24283935312E-01  0.00000000000E+00 0.  1.
     999901    1    3    3    0    0  0.10930294382E+00 -0.37953764443E-01  0.37981155328E-01  0.88838628418E+00  0.88000000000E+00 0. -1.
        -11    1    4    4    0    0 -0.19718683089E-01  0.91545238852E-02 -0.14716170645E-01  0.26257543103E-01  0.51100000000E-03 0.  1.
         11    1    4    4    0    0 -0.87436888514E-01  0.52978537832E-01 -0.23943136692E-01  0.10500223740E+00  0.51100000000E-03 0. -1.
</event>
<event>
 8    1  0.1131349E+005  0.1043930E+01  0.7957747E-01            NaN
         13   -1    0    0    0    0  0.00000000000E+00  0.00000000000E+00  0.74505805969E-08  0.10566000000E+00  0.10566000000E+00 0.  1.
     999900   -1    0    0    0    0 -0.00000000000E+00 -0.00000000000E+00 -0.74505805969E-08  0.93827000000E+00  0.93827000000E+00 0. -1.
     999902    2    1    2    0    0 -0.17526101675E-01  0.78565308860E-02  0.13616213242E-01  0.10203866234E+01  0.10201149791E+01 0.  0.
     999903    2    3    3    0    0  0.13395663010E-01  0.12933194755E+00 -0.16340684078E-02  0.13137312326E+00  0.18709112512E-01 0.  0.
         14    1    1    2    0    0  0.17526101675E-01 -0.78565308860E-02 -0.13616213242E-01  0.23543376575E-01  0.00000000000E+00 0. -1.
     999901    1    3    3    0    0 -0.30921764685E-01 -0.12147541666E+00  0.15250281650E-01  0.88901350016E+00  0.88000000000E+00 0. -1.
        -11    1    4    4    0    0  0.17697139906E-01  0.85283039416E-01 -0.11964395848E-02  0.87109575602E-01  0.51100000000E-03 0.  1.
         11    1    4    4    0    0 -0.43014768961E-02  0.44048908135E-01 -0.43762882300E-03  0.44263547659E-01  0.51100000000E-03 0. -1.
</event>
<event>
 7    1  0.1131349E+005  0.1043930E+01  0.7957747E-01            NaN
         13   -1    0    0    0    0  0.00000000000E+00  0.00000000000E+00  0.74505805969E-08  0.10566000000E+00  0.10566000000E+00 0. -1.
     999900   -1    0    0    0    0 -0.00000000000E+00 -0.00000000000E+00 -0.74505805969E-08  0.93827000000E+00  0.93827000000E+00 0. -1.
     999903    2    1    2    0    0 -0.31425313672E-01  0.29719898074E-01 -0.76189439847E-01  0.89813567933E-01  0.19769257951E-01 0.  0.
         14    1    1    2    0    0  0.64455825098E-01 -0.36503100057E-03 -0.20693597005E-01  0.67697205213E-01  0.00000000000E+00 0. -1.
     999901    1    1    2    0    0 -0.33030511426E-01 -0.29354867073E-01  0.96883036852E-01  0.88641922685E+00  0.88000000000E+00 0.  1.
        -11    1    3    3    0    0 -0.20966103606E-01  0.28924721551E-01 -0.66668279143E-01  0.75638201870E-01  0.51100000000E-03 0. -1.
         11    1    3    3    0    0 -0.10459210065E-01  0.79517652262E-03 -0.95211607039E-02  0.14175366064E-01  0.51100000000E-03 0.  1.
</event>
<event>
 8    1  0.1131349E+005  0.1043930E+01  0.7957747E-01            NaN
         13   -1    0    0    0    0  0.00000000000E+00  0.00000000000E+00  0.74505805969E-08  0.10566000000E+00  0.10566000000E+00 0. -1.
     999900   -1    0    0    0    0 -0.00000000000E+00 -0.00000000000E+00 -0.74505805969E-08  0.93827000000E+00  0.93827000000E+00 0.  1.
     999902    2    1    2    0    0 -0.10508860365E-01  0.40475116282E-02 -0.21319622754E-01  0.10198189069E+01  0.10195338435E+01 0.  0.
     999903    2    3    3    0    0 -0.75464020339E-01 -0.79751041696E-01 -0.70676493060E-01  0.13208163101E+00  0.19883248247E-01 0.  0.
         14    1    1    2    0    0  0.10508860365E-01 -0.40475116282E-02  0.21319622754E-01  0.24111093109E-01  0.00000000000E+00 0. -1.
     999901    1    3    3    0    0  0.64955159975E-01  0.83798553324E-01  0.49356870305E-01  0.88773727588E+00  0.88000000000E+00 0.  1.
        -11    1    4    4    0    0 -0.36012499242E-01 -0.25652247647E-01 -0.33671359547E-01  0.55578408449E-01  0.51100000000E-03 0.  1.
         11    1    4    4    0    0 -0.39451521098E-01 -0.54098794049E-01 -0.37005133512E-01  0.76503222558E-01  0.51100000000E-03 0. -1.
</event>
<event>
 8    1  0.1131349E+005  0.1043930E+01  0.7957747E-01            NaN
         13   -1    0    0    0    0  0.00000000000E+00  0.00000000000E+00  0.74505805969E-08  0.10566000000E+00  0.10566000000E+00 0.  1.
     999900   -1    0    0    0    0 -0.00000000000E+00 -0.00000000000E+00 -0.74505805969E-08  0.93827000000E+00  0.93827000000E+00 0. -1.
     999902    2    1    2    0    0 -0.30077419371E-02 -0.12291407976E-02  0.24721341214E-01  0.10189960470E+01  0.10186909452E+01 0.  0.
     999903    2    3    3    0    0  0.11229781723E+00 -0.80862117783E-02 -0.56978099057E-01  0.12769520561E+00  0.19579969060E-01 0.  0.
         14    1    1    2    0    0  0.30077419371E-02  0.12291407976E-02 -0.24721341214E-01  0.24933952957E-01  0.00000000000E+00 0. -1.
     999901    1    3    3    0    0 -0.11530555917E+00  0.68570709807E-02  0.81699440271E-01  0.89130084143E+00  0.88000000000E+00 0. -1.
        -11    1    4    4    0    0  0.99687965900E-01 -0.12208274918E-01 -0.54221457004E-01  0.11413570888E+00  0.51100000000E-03 0. -1.
         11    1    4    4    0    0  0.12609851329E-01  0.41220631401E-02 -0.27566420536E-02  0.13559496727E-01  0.51100000000E-03 0.  1.
</event>
<event>
 8    1  0.1131349E+005  0.1043930E+01  0.7957747E-01            NaN
         13   -1    0    0    0    0  0.00000000000E+00  0.00000000000E+00  0.74505805969E-08  0.10566000000E+00  0.10566000000E+00 0.  1.
     999900   -1    0    0    0    0 -0.00000000000E+00 -0.00000000000E+00 -0.74505805969E-08  0.93827000000E+00  0.93827000000E+00 0. -1.
     999902    2    1    2    0    0  0.94164982940E-02  0.21677493929E-01  0.49359959577E-02  0.10197856789E+01  0.10194998199E+01 0.  0.
     999903    2    3    3    0    0 -0.85909423738E-01  0.90007496937E-01 -0.35620064096E-01  0.13107829475E+00  0.20759378488E-01 0.  0.
         14    1    1    2    0    0 -0.94164982940E-02 -0.21677493929E-01 -0.49359959577E-02  0.24144321056E-01  0.00000000000E+00 0. -1.
     999901    1    3    3    0    0  0.95325922031E-01 -0.68330003008E-01  0.40556060054E-01  0.88870738420E+00  0.88000000000E+00 0.  1.
        -11    1    4    4    0    0 -0.33829554367E-01  0.40692630485E-01 -0.25149982418E-01  0.58592761166E-01  0.51100000000E-03 0.  1.
         11    1    4    4    0    0 -0.52079869370E-01  0.49314866453E-01 -0.10470081678E-01  0.72485533579E-01  0.51100000000E-03 0. -1.
</event>
<event>
 8    1  0.1131349E+005  0.1043930E+01  0.7957747E-01            NaN
         13   -1    0    0    0    0  0.00000000000E+00  0.00000000000E+00  0.74505805969E-08  0.10566000000E+00  0.10566000000E+00 0. -1.
     999900   -1    0    0    0    0 -0.00000000000E+00 -0.00000000000E+00 -0.74505805969E-08  0.93827000000E+00  0.93827000000E+00 0.  1.
     999902    2    1    2    0    0 -0.92073566839E-02 -0.13704160027E-01  0.11667345541E-01  0.10237135124E+01  0.10235138734E+01 0.  0.
     999903    2    3    3    0    0  0.78024052471E-01 -0.86211919904E-01  0.65235781825E-01  0.13481741534E+00  0.19994508049E-01 0.  0.
         14    1    1    2    0    0  0.92073566839E-02  0.13704160027E-01 -0.11667345541E-01  0.20216487606E-01  0.00000000000E+00 0.  1.
     999901    1    3    3    0    0 -0.87231409155E-01  0.72507759877E-01 -0.53568436284E-01  0.88889609705E+00  0.88000000000E+00 0.  1.
        -11    1    4    4    0    0  0.30855014206E-01 -0.45950360327E-01  0.23923411218E-01  0.60299736659E-01  0.51100000000E-03 0.  1.
         11    1    4    4    0    0  0.47169038265E-01 -0.40261559577E-01  0.41312370607E-01  0.74517678685E-01  0.51100000000E-03 0. -1.
</event>
<event>
 8    1  0.1131349E+005  0.1043930E+01  0.7957747E-01            NaN
         13   -1    0    0    0    0  0.00000000000E+00  0.00000000000E+00  0.74505805969E-08  0.10566000000E+00  0.10566000000E+00 0. -1.
     999900   -1    0    0    0    0 -0.00000000000E+00 -0.00000000000E+00 -0.74505805969E-08  0.93827000000E+00  0.93827000000E+00 0. -1.
     999902    2    1    2    0    0 -0.30055968792E-02 -0.20652705536E-01  0.95349065418E-02  0.10209847979E+01  0.10207269347E+01 0.  0.
     999903    2    3    3    0    0  0.97194024737E-01  0.81780354825E-01  0.15255991956E-01  0.12937657288E+00  0.19257399623E-01 0.  0.
         14    1    1    2    0    0  0.30055968792E-02  0.20652705536E-01 -0.95349065418E-02  0.22945202141E-01  0.00000000000E+00 0.  1.
     999901    1    3    3    0    0 -0.10019962162E+00 -0.10243306036E+00 -0.57210854139E-02  0.89160822498E+00  0.88000000000E+00 0.  1.
        -11    1    4    4    0    0  0.67280161408E-01  0.62780497361E-01  0.36956115559E-02  0.92097392111E-01  0.51100000000E-03 0.  1.
         11    1    4    4    0    0  0.29913863330E-01  0.18999857465E-01  0.11560380400E-01  0.37279180771E-01  0.51100000000E-03 0. -1.
</event>
<event>
 8    1  0.1131349E+005  0.1043930E+01  0.7957747E-01            NaN
         13   -1    0    0    0    0  0.00000000000E+00  0.00000000000E+00  0.74505805969E-08  0.10566000000E+00  0.10566000000E+00 0. -1.
     999900   -1    0    0    0    0 -0.00000000000E+00 -0.00000000000E+00 -0.74505805969E-08  0.93827000000E+00  0.93827000000E+00 0.  1.
     999902    2    1    2    0    0  0.23621042681E-01  0.26275240011E-01  0.10146406961E-01  0.10071700834E+01  0.10064990240E+01 0.  0.
     999903    2    3    3    0    0  0.72937262387E-01  0.87904772765E-01 -0.39115564283E-01  0.12226498642E+00  0.19277090435E-01 0.  0.
         14    1    1    2    0    0 -0.23621042681E-01 -0.26275240011E-01 -0.10146406961E-01  0.36759916610E-01  0.00000000000E+00 0.  1.
     999901    1    3    3    0    0 -0.49316219706E-01 -0.61629532754E-01  0.49261971244E-01  0.88490509697E+00  0.88000000000E+00 0.  1.
        -11    1    4    4    0    0  0.66445427272E-03  0.80118720165E-02 -0.36514445581E-02  0.88445328339E-02  0.51100000000E-03 0. -1.
         11    1    4    4    0    0  0.72272808114E-01  0.79892900749E-01 -0.35464119724E-01  0.11342045359E+00  0.51100000000E-03 0.  1.
</event>
<event>
 8    1  0.1131349E+005  0.1043930E+01  0.7957747E-01            NaN
         13   -1    0    0    0    0  0.00000000000E+00  0.00000000000E+00  0.74505805969E-08  0.10566000000E+00  0.10566000000E+00 0.  1.
     999900   -1    0    0    0    0 -0.00000000000E+00 -0.00000000000E+00 -0.74505805969E-08  0.93827000000E+00  0.93827000000E+00 0.  1.
     999902    2    1    2    0    0  0.21173880869E-01 -0.40977365551E-02  0.16628355054E-01  0.10166971730E+01  0.10163323840E+01 0.  0.
     999903    2    3    3    0    0  0.89505591713E-01  0.25731627146E-01 -0.84918830368E-01  0.12772538236E+00  0.20717093525E-01 0.  0.
         14    1    1    2    0    0 -0.21173880869E-01  0.40977365551E-02 -0.16628355054E-01  0.27232827024E-01  0.00000000000E+00 0. -1.
     999901    1    3    3    0    0 -0.68331710844E-01 -0.29829363701E-01  0.10154718542E+00  0.88897179062E+00  0.88000000000E+00 0. -1.
        -11    1    4    4    0    0  0.54298808436E-01  0.25100753519E-01 -0.58790695021E-01  0.83874998462E-01  0.51100000000E-03 0.  1.
         11    1    4    4    0    0  0.35206783277E-01  0.63087362680E-03 -0.26128135346E-01  0.43850383897E-01  0.51100000000E-03 0. -1.
</event>
<event>
 8    1  0.1131349E+005  0.1043930E+01  0.7957747E-01            NaN
         13   -1    0    0    0    0  0.00000000000E+00  0.00000000000E+00  0.74505805969E-08  0.10566000000E+00  0.10566000000E+00 0.  1.
     999900   -1    0    0    0    0 -0.00000000000E+00 -0.00000000000E+00 -0.74505805969E-08  0.93827000000E+00  0.93827000000E+00 0.  1.
     999902    2    1    2    0    0  0.10054070796E-03 -0.11215648767E-01  0.21700006315E-01  0.10195027374E+01  0.10192100570E+01 0.  0.
     999903    2    3    3    0    0 -0.60821585961E-01  0.36282857479E-02  0.11583872470E+00  0.13226322844E+00  0.19040002126E-01 0.  0.
         14    1    1    2    0    0 -0.10054070796E-03  0.11215648767E-01 -0.21700006315E-01  0.24427262633E-01  0.00000000000E+00 0. -1.
     999901    1    3    3    0    0  0.60922126668E-01 -0.14843934515E-01 -0.94138718381E-01  0.88723950893E+00  0.88000000000E+00 0. -1.
        -11    1    4    4    0    0 -0.47696327454E-01 -0.52388610100E-02  0.87460034945E-01  0.99759230906E-01  0.51100000000E-03 0. -1.
         11    1    4    4    0    0 -0.13125258507E-01  0.88671467579E-02  0.28378689750E-01  0.32503997530E-01  0.51100000000E-03 0.  1.
</event>
<event>
 8    1  0.1131349E+005  0.1043930E+01  0.7957747E-01            NaN
         13   -1    0    0    0    0  0.00000000000E+00  0.00000000000E+00  0.74505805969E-08  0.10566000000E+00  0.10566000000E+00 0.  1.
     999900   -1    0    0    0    0 -0.00000000000E+00 -0.00000000000E+00 -0.74505805969E-08  0.93827000000E+00  0.93827000000E+00 0.  1.
     999902    2    1    2    0    0 -0.13491796344E-01  0.16616939715E-01  0.10453979957E-01  0.10201090649E+01  0.10198309013E+01 0.  0.
     999903    2    3    3    0    0  0.92681636391E-01  0.65014077041E-01 -0.59680545898E-01  0.12964068674E+00  0.20693577771E-01 0.  0.
         14    1    1    2    0    0  0.13491796344E-01 -0.16616939715E-01 -0.10453979957E-01  0.23820935141E-01  0.00000000000E+00 0. -1.
     999901    1    3    3    0    0 -0.10617343273E+00 -0.48397137326E-01  0.70134525855E-01  0.89046837812E+00  0.88000000000E+00 0. -1.
        -11    1    4    4    0    0  0.50428840742E-02  0.11020268226E-01 -0.55747221634E-02  0.13349743060E-01  0.51100000000E-03 0.  1.
         11    1    4    4    0    0  0.87638752317E-01  0.53993808814E-01 -0.54105823735E-01  0.11629094368E+00  0.51100000000E-03 0. -1.
</event>
<event>
 8    1  0.1131349E+005  0.1043930E+01  0.7957747E-01            NaN
         13   -1    0    0    0    0  0.00000000000E+00  0.00000000000E+00  0.74505805969E-08  0.10566000000E+00  0.10566000000E+00 0. -1.
     999900   -1    0    0    0    0 -0.00000000000E+00 -0.00000000000E+00 -0.74505805969E-08  0.93827000000E+00  0.93827000000E+00 0. -1.
     999902    2    1    2    0    0  0.13062908962E-01  0.13555315277E-01  0.13891443423E-01  0.10205343089E+01  0.10202661012E+01 0.  0.
     999903    2    3    3    0    0 -0.85821843672E-01  0.91571485668E-01  0.29281861023E-01  0.13143274994E+00  0.25815005978E-01 0.  0.
         14    1    1    2    0    0 -0.13062908962E-01 -0.13555315277E-01 -0.13891443423E-01  0.23395691124E-01  0.00000000000E+00 0.  1.
     999901    1    3    3    0    0  0.98884752634E-01 -0.78016170391E-01 -0.15390417600E-01  0.88910155893E+00  0.88000000000E+00 0.  1.
        -11    1    4    4    0    0 -0.26775933699E-01  0.37156135415E-01 -0.46003761647E-03  0.45803949394E-01  0.51100000000E-03 0.  1.
         11    1    4    4    0    0 -0.59045909972E-01  0.54415350252E-01  0.29741898640E-01  0.85628800548E-01  0.51100000000E-03 0. -1.
</event>
<event>
 8    1  0.1131349E+005  0.1043930E+01  0.7957747E-01            NaN
         13   -1    0    0    0    0  0.00000000000E+00  0.00000000000E+00  0.74505805969E-08  0.10566000000E+00  0.10566000000E+00 0. -1.
     999900   -1    0    0    0    0 -0.00000000000E+00 -0.00000000000E+00 -0.74505805969E-08  0.93827000000E+00  0.93827000000E+00 0.  1.
     999902    2    1    2    0    0  0.71468260739E-02 -0.10406517789E-01 -0.20499438144E-01  0.10198551231E+01  0.10195709256E+01 0.  0.
     999903    2    3    3    0    0  0.27986746406E-01 -0.11170586024E+00 -0.62878669253E-01  0.13278587081E+00  0.20418208891E-01 0.  0.
         14    1    1    2    0    0 -0.71468260739E-02  0.10406517789E-01  0.20499438144E-01  0.24074876939E-01  0.00000000000E+00 0. -1.
     999901    1    3    3    0    0 -0.20839920333E-01  0.10129934245E+00  0.42379231109E-01  0.88706925225E+00  0.88000000000E+00 0. -1.
        -11    1    4    4    0    0  0.12561066334E-01 -0.76839164475E-01 -0.50031460566E-01  0.92549693420E-01  0.51100000000E-03 0. -1.
         11    1    4    4    0    0  0.15425680072E-01 -0.34866695760E-01 -0.12847208687E-01  0.40236177390E-01  0.51100000000E-03 0.  1.
</event>
<event>
 8    1  0.1131349E+005  0.1043930E+01  0.7957747E-01            NaN
         13   -1    0    0    0    0  0.00000000000E+00  0.00000000000E+00  0.74505805969E-08  0.10566000000E+00  0.10566000000E+00 0.  1.
     999900   -1    0    0    0    0 -0.00000000000E+00 -0.00000000000E+00 -0.74505805969E-08  0.93827000000E+00  0.93827000000E+00 0. -1.
     999902    2    1    2    0    0  0.22872675050E-01  0.52339442505E-02  0.98796598683E-02  0.10184709915E+01  0.10181527387E+01 0.  0.
     999903    2    3    3    0    0 -0.33155752598E-01  0.12017567389E+00 -0.25322924548E-01  0.12853278695E+00  0.18382880264E-01 0.  0.
         14    1    1    2    0    0 -0.22872675050E-01 -0.52339442505E-02 -0.98796598683E-02  0.25459008533E-01  0.00000000000E+00 0. -1.
     999901    1    3    3    0    0  0.56028427648E-01 -0.11494172964E+00  0.35202584417E-01  0.88993820452E+00  0.88000000000E+00 0.  1.
        -11    1    4    4    0    0 -0.11750352774E-01  0.18123852374E-01 -0.21269604746E-02  0.21710133511E-01  0.51100000000E-03 0.  1.
         11    1    4    4    0    0 -0.21405399824E-01  0.10205182152E+00 -0.23195964074E-01  0.10682265343E+00  0.51100000000E-03 0. -1.
</event>
<event>
 8    1  0.1131349E+005  0.1043930E+01  0.7957747E-01            NaN
         13   -1    0    0    0    0  0.00000000000E+00  0.00000000000E+00  0.74505805969E-08  0.10566000000E+00  0.10566000000E+00 0. -1.
     999900   -1    0    0    0    0 -0.00000000000E+00 -0.00000000000E+00 -0.74505805969E-08  0.93827000000E+00  0.93827000000E+00 0. -1.
     999902    2    1    2    0    0 -0.23704542207E-01  0.17858305385E-03  0.68574869448E-02  0.10192528377E+01  0.10189540641E+01 0.  0.
     999903    2    3    3    0    0  0.10568511725E+00  0.67703250992E-01  0.43977258273E-02  0.12722855820E+00  0.20363983518E-01 0.  0.
         14    1    1    2    0    0  0.23704542207E-01 -0.17858305385E-03 -0.68574869448E-02  0.24677162324E-01  0.00000000000E+00 0. -1.
     999901    1    3    3    0    0 -0.12938965946E+00 -0.67524667938E-01  0.24597611175E-02  0.89202427948E+00  0.88000000000E+00 0.  1.
        -11    1    4    4    0    0  0.80876520173E-01  0.47375999898E-01  0.11319465736E-01  0.94413390508E-01  0.51100000000E-03 0.  1.
         11    1    4    4    0    0  0.24808597080E-01  0.20327251093E-01 -0.69217399083E-02  0.32815167689E-01  0.51100000000E-03 0. -1.
</event>
<event>
 8    1  0.1131349E+005  0.1043930E+01  0.7957747E-01            NaN
         13   -1    0    0    0    0  0.00000000000E+00  0.00000000000E+00  0.74505805969E-08  0.10566000000E+00  0.10566000000E+00 0.  1.
     999900   -1    0    0    0    0 -0.00000000000E+00 -0.00000000000E+00 -0.74505805969E-08  0.93827000000E+00  0.93827000000E+00 0. -1.
     999902    2    1    2    0    0 -0.19535310333E-01 -0.92127363202E-02 -0.95309184803E-02  0.10203219237E+01  0.10200487668E+01 0.  0.
     999903    2    3    3    0    0 -0.11297080724E+00  0.60470656281E-02 -0.67678271025E-01  0.13333592140E+00  0.19978720552E-01 0.  0.
         14    1    1    2    0    0  0.19535310333E-01  0.92127363202E-02  0.95309184803E-02  0.23608076317E-01  0.00000000000E+00 0.  1.
     999901    1    3    3    0    0  0.93435496909E-01 -0.15259801948E-01  0.58147352545E-01  0.88698600228E+00  0.88000000000E+00 0. -1.
        -11    1    4    4    0    0 -0.38384839651E-01  0.58823673878E-02 -0.33507000314E-01  0.51293063392E-01  0.51100000000E-03 0.  1.
         11    1    4    4    0    0 -0.74585967591E-01  0.16469824027E-03 -0.34171270711E-01  0.82042858007E-01  0.51100000000E-03 0. -1.
</event>
<event>
 8    1  0.1131349E+005  0.1043930E+01  0.7957747E-01            NaN
         13   -1    0    0    0    0  0.00000000000E+00  0.00000000000E+00  0.74505805969E-08  0.10566000000E+00  0.10566000000E+00 0.  1.
     999900   -1    0    0    0    0 -0.00000000000E+00 -0.00000000000E+00 -0.74505805969E-08  0.93827000000E+00  0.93827000000E+00 0.  1.
     999902    2    1    2    0    0 -0.11118447873E-02 -0.43674152254E-02 -0.23709993922E-01  0.10197954951E+01  0.10195098712E+01 0.  0.
     999903    2    3    3    0    0 -0.21629564066E-01 -0.10282942387E+00  0.71944583576E-01  0.12891641120E+00  0.20042193374E-01 0.  0.
         14    1    1    2    0    0  0.11118447873E-02  0.43674152254E-02  0.23709993922E-01  0.24134504891E-01  0.00000000000E+00 0.  1.
     999901    1    3    3    0    0  0.20517719279E-01  0.98462008645E-01 -0.95654577498E-01  0.89087908391E+00  0.88000000000E+00 0.  1.
        -11    1    4    4    0    0 -0.46311811101E-02 -0.62726445594E-01  0.48656793392E-01  0.79522320637E-01  0.51100000000E-03 0. -1.
         11    1    4    4    0    0 -0.16998382956E-01 -0.40102978276E-01  0.23287790185E-01  0.49394090562E-01  0.51100000000E-03 0.  1.
</event>
<event>
 8    1  0.1131349E+005  0.1043930E+01  0.7957747E-01            NaN
         13   -1    0    0    0    0  0.00000000000E+00  0.00000000000E+00  0.74505805969E-08  0.10566000000E+00  0.10566000000E+00 0. -1.
     999900   -1    0    0    0    0 -0.00000000000E+00 -0.00000000000E+00 -0.74505805969E-08  0.93827000000E+00  0.93827000000E+00 0. -1.
     999902    2    1    2    0    0  0.31352783361E-02 -0.87127643306E-02  0.23412211153E-01  0.10187531483E+01  0.10184419980E+01 0.  0.
     999903    2    3    3    0    0 -0.11099264566E+00  0.58202210257E-01 -0.15961550111E-01  0.12799330973E+00  0.20509792401E-01 0.  0.
         14    1    1    2    0    0 -0.31352783361E-02  0.87127643306E-02 -0.23412211153E-01  0.25176851741E-01  0.00000000000E+00 0.  1.
     999901    1    3    3    0    0  0.11412792400E+00 -0.66914974587E-01  0.39373761264E-01  0.89075983853E+00  0.88000000000E+00 0.  1.
        -11    1    4    4    0    0 -0.45677381268E-01  0.35458799877E-01 -0.77142487139E-02  0.58339698341E-01  0.51100000000E-03 0. -1.
         11    1    4    4    0    0 -0.65315264392E-01  0.22743410380E-01 -0.82473013972E-02  0.69653611390E-01  0.51100000000E-03 0.  1.
</event>
<event>
 8    1  0.1131349E+005  0.1043930E+01  0.7957747E-01            NaN
         13   -1    0    0    0    0  0.00000000000E+00  0.00000000000E+00  0.74505805969E-08  0.10566000000E+00  0.10566000000E+00 0.  1.
     999900   -1    0    0    0    0 -0.00000000000E+00 -0.00000000000E+00 -0.74505805969E-08  0.93827000000E+00  0.93827000000E+00 0.  1.
     999902    2    1    2    0    0  0.23551517468E-01  0.38979348531E-02  0.25725961055E-02  0.10199198746E+01  0.10196372220E+01 0.  0.
     999903    2    3    3    0    0 -0.24472246170E-01 -0.10444156896E+00  0.70901475653E-01  0.12935119912E+00  0.14063474155E-01 0.  0.
         14    1    1    2    0    0 -0.23551517468E-01 -0.38979348531E-02 -0.25725961055E-02  0.24010125403E-01  0.00000000000E+00 0. -1.
     999901    1    3    3    0    0  0.48023763638E-01  0.10833950381E+00 -0.68328879547E-01  0.89056867548E+00  0.88000000000E+00 0.  1.
        -11    1    4    4    0    0 -0.11015900349E-01 -0.44014738587E-01  0.21832757407E-01  0.50354520059E-01  0.51100000000E-03 0.  1.
         11    1    4    4    0    0 -0.13456345821E-01 -0.60426830370E-01  0.49068718246E-01  0.78996679061E-01  0.51100000000E-03 0. -1.
</event>
<event>
 8    1  0.1131349E+005  0.1043930E+01  0.7957747E-01            NaN
         13   -1    0    0    0    0  0.00000000000E+00  0.00000000000E+00  0.74505805969E-08  0.10566000000E+00  0.10566000000E+00 0.  1.
     999900   -1    0    0    0    0 -0.00000000000E+00 -0.00000000000E+00 -0.74505805969E-08  0.93827000000E+00  0.93827000000E+00 0.  1.
     999902    2    1    2    0    0  0.23011696045E-01 -0.37206144135E-02 -0.62629219570E-03  0.10206110513E+01  0.10203446205E+01 0.  0.
     999903    2    3    3    0    0  0.10688129980E+00  0.67513125259E-01  0.35949276449E-01  0.13300408404E+00  0.20398567768E-01 0.  0.
         14    1    1    2    0    0 -0.23011696045E-01  0.37206144135E-02  0.62629219570E-03  0.23318948698E-01  0.00000000000E+00 0.  1.
     999901    1    3    3    0    0 -0.83869603751E-01 -0.71233739673E-01 -0.36575568644E-01  0.88760696726E+00  0.88000000000E+00 0.  1.
        -11    1    4    4    0    0  0.56287152508E-01  0.25325288368E-01  0.22973286225E-01  0.65860813610E-01  0.51100000000E-03 0. -1.
         11    1    4    4    0    0  0.50594147288E-01  0.42187836891E-01  0.12975990224E-01  0.67143270435E-01  0.51100000000E-03 0.  1.
</event>
<event>
 8    1  0.1131349E+005  0.1043930E+01  0.7957747E-01            NaN
         13   -1    0    0    0    0  0.00000000000E+00  0.00000000000E+00  0.74505805969E-08  0.10566000000E+00  0.10566000000E+00 0. -1.
     999900   -1    0    0    0    0 -0.00000000000E+00 -0.00000000000E+00 -0.74505805969E-08  0.93827000000E+00  0.93827000000E+00 0. -1.
     999902    2    1    2    0    0 -0.13224966845E-01 -0.15869438524E-01 -0.78993969189E-02  0.10218135062E+01  0.10215741295E+01 0.  0.
     999903    2    3    3    0    0  0.10171081628E+00  0.16957943174E-01  0.76216770932E-01  0.12975778991E+00  0.19885318356E-01 0.  0.
         14    1    1    2    0    0  0.13224966845E-01  0.15869438524E-01  0.78993969189E-02  0.22116493818E-01  0.00000000000E+00 0.  1.
     999901    1    3    3    0    0 -0.11493578313E+00 -0.32827381698E-01 -0.84116167851E-01  0.89205571627E+00  0.88000000000E+00 0. -1.
        -11    1    4    4    0    0  0.53267290410E-01  0.45656671435E-02  0.28268079196E-01  0.60478053594E-01  0.51100000000E-03 0. -1.
         11    1    4    4    0    0  0.48443525874E-01  0.12392276030E-01  0.47948691736E-01  0.69279736319E-01  0.51100000000E-03 0.  1.
</event>
<event>
 8    1  0.1131349E+005  0.1043930E+01  0.7957747E-01            NaN
         13   -1    0    0    0    0  0.00000000000E+00  0.00000000000E+00  0.74505805969E-08  0.10566000000E+00  0.10566000000E+00 0.  1.
     999900   -1    0    0    0    0 -0.00000000000E+00 -0.00000000000E+00 -0.74505805969E-08  0.93827000000E+00  0.93827000000E+00 0. -1.
     999902    2    1    2    0    0  0.14871998922E-01  0.18546776626E-01  0.19724422061E-02  0.10200752352E+01  0.10197962717E+01 0.  0.
     999903    2    3    3    0    0 -0.55122710357E-01 -0.11058177120E+00  0.25332829493E-01  0.12759602039E+00  0.19291211712E-01 0.  0.
         14    1    1    2    0    0 -0.14871998922E-01 -0.18546776626E-01 -0.19724422061E-02  0.23854764795E-01  0.00000000000E+00 0. -1.
     999901    1    3    3    0    0  0.69994709279E-01  0.12912854783E+00 -0.23360387287E-01  0.89247921482E+00  0.88000000000E+00 0. -1.
        -11    1    4    4    0    0 -0.20101611144E-01 -0.57580943608E-01  0.18314251243E-01  0.63681337588E-01  0.51100000000E-03 0.  1.
         11    1    4    4    0    0 -0.35021099212E-01 -0.53000827593E-01  0.70185782497E-02  0.63914682798E-01  0.51100000000E-03 0. -1.
</event>
<event>
 8    1  0.1131349E+005  0.1043930E+01  0.7957747E-01            NaN
         13   -1    0    0    0    0  0.00000000000E+00  0.00000000000E+00  0.74505805969E-08  0.10566000000E+00  0.10566000000E+00 0. -1.
     999900   -1    0    0    0    0 -0.00000000000E+00 -0.00000000000E+00 -0.74505805969E-08  0.93827000000E+00  0.93827000000E+00 0.  1.
     999902    2    1    2    0    0 -0.71602511363E-03  0.13697357054E-01 -0.16972313168E-01  0.10221082288E+01  0.10218752574E+01 0.  0.
     999903    2    3    3    0    0  0.12863798273E+00 -0.19921608215E-01  0.51219579847E-02  0.13174265730E+00  0.19628861979E-01 0.  0.
         14    1    1    2    0    0  0.71602511363E-03 -0.13697357054E-01  0.16972313168E-01  0.21821771158E-01  0.00000000000E+00 0. -1.
     999901    1    3    3    0    0 -0.12935400785E+00  0.33618965269E-01 -0.22094271153E-01  0.89036557154E+00  0.88000000000E+00 0.  1.
        -11    1    4    4    0    0  0.71764884801E-01 -0.11387455393E-01 -0.68869343553E-02  0.72990162465E-01  0.51100000000E-03 0. -1.
         11    1    4    4    0    0  0.56873097933E-01 -0.85341528226E-02  0.12008892340E-01  0.58752494833E-01  0.51100000000E-03 0.  1.
</event>
<event>
 8    1  0.1131349E+005  0.1043930E+01  0.7957747E-01            NaN
         13   -1    0    0    0    0  0.00000000000E+00  0.00000000000E+00  0.74505805969E-08  0.10566000000E+00  0.10566000000E+00 0.  1.
     999900   -1    0    0    0    0 -0.00000000000E+00 -0.00000000000E+00 -0.74505805969E-08  0.93827000000E+00  0.93827000000E+00 0. -1.
     999902    2    1    2    0    0  0.19337179301E-01  0.14151925097E-01  0.20156485586E-01  0.10126172646E+01  0.10121330136E+01 0.  0.
     999903    2    3    3    0    0  0.20205854304E-02 -0.10967258070E+00 -0.46719323970E-01  0.12126730719E+00  0.22156417569E-01 0.  0.
         14    1    1    2    0    0 -0.19337179301E-01 -0.14151925097E-01 -0.20156485586E-01  0.31312735404E-01  0.00000000000E+00 0.  1.
     999901    1    3    3    0    0  0.17316593871E-01  0.12382450579E+00  0.66875809556E-01  0.89134995740E+00  0.88000000000E+00 0. -1.
        -11    1    4    4    0    0  0.10979610490E-01 -0.65957652072E-01 -0.33084709234E-01  0.74604442357E-01  0.51100000000E-03 0.  1.
         11    1    4    4    0    0 -0.89590250597E-02 -0.43714928625E-01 -0.13634614736E-01  0.46662864836E-01  0.51100000000E-03 0. -1.
</event>
<event>
 8    1  0.1131349E+005  0.1043930E+01  0.7957747E-01            NaN
         13   -1    0    0    0    0  0.00000000000E+00  0.00000000000E+00  0.74505805969E-08  0.10566000000E+00  0.10566000000E+00 0.  1.
     999900   -1    0    0    0    0 -0.00000000000E+00 -0.00000000000E+00 -0.74505805969E-08  0.93827000000E+00  0.93827000000E+00 0.  1.
     999902    2    1    2    0    0  0.94710441092E-02 -0.15144769932E-01 -0.15825904634E-01  0.10200652982E+01  0.10197860995E+01 0.  0.
     999903    2    3    3    0    0  0.19184488109E-01 -0.12498793092E+00 -0.35682757251E-01  0.13296092692E+00  0.20379437228E-01 0.  0.
         14    1    1    2    0    0 -0.94710441092E-02  0.15144769932E-01  0.15825904634E-01  0.23864701764E-01  0.00000000000E+00 0.  1.
     999901    1    3    3    0    0 -0.97134440003E-02  0.10984316099E+00  0.19856852616E-01  0.88710437132E+00  0.88000000000E+00 0. -1.
        -11    1    4    4    0    0  0.22024005953E-01 -0.80842569904E-01 -0.21522977446E-01  0.86510563668E-01  0.51100000000E-03 0.  1.
         11    1    4    4    0    0 -0.28395178438E-02 -0.44145361020E-01 -0.14159779805E-01  0.46450363253E-01  0.51100000000E-03 0. -1.
</event>
<event>
 8    1  0.1131349E+005  0.1043930E+01  0.7957747E-01            NaN
         13   -1    0    0    0    0  0.00000000000E+00  0.00000000000E+00  0.74505805969E-08  0.10566000000E+00  0.10566000000E+00 0. -1.
     999900   -1    0    0    0    0 -0.00000000000E+00 -0.00000000000E+00 -0.74505805969E-08  0.93827000000E+00  0.93827000000E+00 0. -1.
     999902    2    1    2    0    0  0.94518168740E-02  0.19624798307E-01 -0.97991285879E-02  0.10200450158E+01  0.10197653366E+01 0.  0.
     999903    2    3    3    0    0 -0.67496346386E-01 -0.91294959125E-01 -0.56699655513E-01  0.12851606400E+00  0.20273170258E-01 0.  0.
         14    1    1    2    0    0 -0.94518168740E-02 -0.19624798307E-01  0.97991285879E-02  0.23884984235E-01  0.00000000000E+00 0. -1.
     999901    1    3    3    0    0  0.76948163260E-01  0.11091975743E+00  0.46900526925E-01  0.89152895177E+00  0.88000000000E+00 0.  1.
        -11    1    4    4    0    0 -0.48696062466E-01 -0.49275078066E-01 -0.35121956995E-01  0.77673372543E-01  0.51100000000E-03 0.  1.
         11    1    4    4    0    0 -0.18800283920E-01 -0.42019881060E-01 -0.21577698518E-01  0.50842691452E-01  0.51100000000E-03 0. -1.
</event>
<event>
 8    1  0.1131349E+005  0.1043930E+01  0.7957747E-01            NaN
         13   -1    0    0    0    0  0.00000000000E+00  0.00000000000E+00  0.74505805969E-08  0.10566000000E+00  0.10566000000E+00 0.  1.
     999900   -1    0    0    0    0 -0.00000000000E+00 -0.00000000000E+00 -0.74505805969E-08  0.93827000000E+00  0.93827000000E+00 0. -1.
     999902    2    1    2    0    0 -0.11666094562E-01  0.21043394714E-01  0.36481993564E-02  0.10195941914E+01  0.10193037248E+01 0.  0.
     999903    2    3    3    0    0  0.12088747559E+00  0.36378013737E-01  0.19301194426E-01  0.12939723801E+00  0.20831885658E-01 0.  0.
         14    1    1    2    0    0  0.11666094562E-01 -0.21043394714E-01 -0.36481993564E-02  0.24335808636E-01  0.00000000000E+00 0. -1.
     999901    1    3    3    0    0 -0.13255357016E+00 -0.15334619023E-01 -0.15652995070E-01  0.89019695335E+00  0.88000000000E+00 0. -1.
        -11    1    4    4    0    0  0.95115374457E-01  0.34902236049E-01  0.21184909468E-01  0.10350923654E+00  0.51100000000E-03 0.  1.
         11    1    4    4    0    0  0.25772101137E-01  0.14757776887E-02 -0.18837150414E-02  0.25888001471E-01  0.51100000000E-03 0. -1.
</event>
<event>
 8    1  0.1131349E+005  0.1043930E+01  0.7957747E-01            NaN
         13   -1    0    0    0    0  0.00000000000E+00  0.00000000000E+00  0.74505805969E-08  0.10566000000E+00  0.10566000000E+00 0.  1.
     999900   -1    0    0    0    0 -0.00000000000E+00 -0.00000000000E+00 -0.74505805969E-08  0.93827000000E+00  0.93827000000E+00 0. -1.
     999902    2    1    2    0    0  0.32535601331E-02  0.12782892072E-01  0.19608113608E-01  0.10202981126E+01  0.10200243980E+01 0.  0.
     999903    2    3    3    0    0 -0.90585107229E-01 -0.64000602391E-01 -0.61352291887E-01  0.12830260376E+00  0.19892603002E-01 0.  0.
         14    1    1    2    0    0 -0.32535601331E-02 -0.12782892072E-01 -0.19608113608E-01  0.23631887409E-01  0.00000000000E+00 0. -1.
     999901    1    3    3    0    0  0.93838667362E-01  0.76783494462E-01  0.80960405495E-01  0.89199550883E+00  0.88000000000E+00 0. -1.
        -11    1    4    4    0    0 -0.31766074984E-01 -0.34363674591E-01 -0.26605932525E-01  0.53833840824E-01  0.51100000000E-03 0.  1.
         11    1    4    4    0    0 -0.58819032244E-01 -0.29636927799E-01 -0.34746359362E-01  0.74468762938E-01  0.51100000000E-03 0. -1.
</event>
<event>
 8    1  0.1131349E+005  0.1043930E+01  0.7957747E-01            NaN
         13   -1    0    0    0    0  0.00000000000E+00  0.00000000000E+00  0.74505805969E-08  0.10566000000E+00  0.10566000000E+00 0.  1.
     999900   -1    0    0    0    0 -0.00000000000E+00 -0.00000000000E+00 -0.74505805969E-08  0.93827000000E+00  0.93827000000E+00 0.  1.
     999902    2    1    2    0    0 -0.20362101248E-01  0.77944451315E-02 -0.76651954397E-02  0.10208188823E+01  0.10205572334E+01 0.  0.
     999903    2    3    3    0    0 -0.56458663050E-01  0.10172795392E+00  0.59916959269E-01  0.13250935654E+00  0.20797363304E-01 0.  0.
         14    1    1    2    0    0  0.20362101248E-01 -0.77944451315E-02  0.76651954397E-02  0.23111117742E-01  0.00000000000E+00 0.  1.
     999901    1    3    3    0    0  0.36096561802E-01 -0.93933508788E-01 -0.67582154709E-01  0.88830952572E+00  0.88000000000E+00 0.  1.
        -11    1    4    4    0    0 -0.36385765544E-01  0.68638915718E-01  0.50552135223E-01  0.92687670064E-01  0.51100000000E-03 0. -1.
         11    1    4    4    0    0 -0.20072897506E-01  0.33089038201E-01  0.93648240459E-02  0.39821686476E-01  0.51100000000E-03 0.  1.
</event>
<event>
 8    1  0.1131349E+005  0.1043930E+01  0.7957747E-01            NaN
         13   -1    0    0    0    0  0.00000000000E+00  0.00000000000E+00  0.74505805969E-08  0.10566000000E+00  0.10566000000E+00 0.  1.
     999900   -1    0    0    0    0 -0.00000000000E+00 -0.00000000000E+00 -0.74505805969E-08  0.93827000000E+00  0.93827000000E+00 0.  1.
     999902    2    1    2    0    0 -0.20825533742E-01  0.53180247726E-02 -0.85115996539E-02  0.10208122239E+01  0.10205504225E+01 0.  0.
     999903    2    3    3    0    0 -0.84610821566E-01  0.30872030128E-01 -0.97912901288E-01  0.13361767767E+00  0.12436807312E-01 0.  0.
         14    1    1    2    0    0  0.20825533742E-01 -0.53180247726E-02  0.85115996539E-02  0.23117776100E-01  0.00000000000E+00 0.  1.
     999901    1    3    3    0    0  0.63785287824E-01 -0.25554005356E-01  0.89401301634E-01  0.88719454623E+00  0.88000000000E+00 0. -1.
        -11    1    4    4    0    0 -0.42811150085E-01  0.18814667286E-01 -0.42736576644E-01  0.63351893271E-01  0.51100000000E-03 0.  1.
         11    1    4    4    0    0 -0.41799671481E-01  0.12057362842E-01 -0.55176324643E-01  0.70265784396E-01  0.51100000000E-03 0. -1.
</event>
<event>
 8    1  0.1131349E+005  0.1043930E+01  0.7957747E-01            NaN
         13   -1    0    0    0    0  0.00000000000E+00  0.00000000000E+00  0.74505805969E-08  0.10566000000E+00  0.10566000000E+00 0. -1.
     999900   -1    0    0    0    0 -0.00000000000E+00 -0.00000000000E+00 -0.74505805969E-08  0.93827000000E+00  0.93827000000E+00 0.  1.
     999902    2    1    2    0    0 -0.13609771075E-01  0.57117410123E-02 -0.18974241635E-01  0.10198910379E+01  0.10196076978E+01 0.  0.
     999903    2    3    3    0    0  0.35449653098E-01  0.11780371879E+00  0.36353042759E-01  0.12970423334E+00  0.19163777392E-01 0.  0.
         14    1    1    2    0    0  0.13609771075E-01 -0.57117410123E-02  0.18974241635E-01  0.24038962118E-01  0.00000000000E+00 0. -1.
     999901    1    3    3    0    0 -0.49059424173E-01 -0.11209197777E+00 -0.55327284394E-01  0.89018680454E+00  0.88000000000E+00 0.  1.
        -11    1    4    4    0    0  0.20245270196E-01  0.54081032222E-01  0.26179704454E-01  0.63405575920E-01  0.51100000000E-03 0.  1.
         11    1    4    4    0    0  0.15204382902E-01  0.63722686565E-01  0.10173338305E-01  0.66298657420E-01  0.51100000000E-03 0. -1.
</event>
<event>
 8    1  0.1131349E+005  0.1043930E+01  0.7957747E-01            NaN
         13   -1    0    0    0    0  0.00000000000E+00  0.00000000000E+00  0.74505805969E-08  0.10566000000E+00  0.10566000000E+00 0.  1.
     999900   -1    0    0    0    0 -0.00000000000E+00 -0.00000000000E+00 -0.74505805969E-08  0.93827000000E+00  0.93827000000E+00 0. -1.
     999902    2    1    2    0    0  0.20364815398E-01 -0.59537740285E-02 -0.11487191754E-01  0.10198026565E+01  0.10195172041E+01 0.  0.
     999903    2    3    3    0    0  0.77641011473E-01  0.93609393331E-01  0.43666201067E-01  0.13062591157E+00  0.19119269743E-01 0.  0.
         14    1    1    2    0    0 -0.20364815398E-01  0.59537740285E-02  0.11487191754E-01  0.24127343529E-01  0.00000000000E+00 0.  1.
     999901    1    3    3    0    0 -0.57276196075E-01 -0.99563167360E-01 -0.55153392822E-01  0.88917674490E+00  0.88000000000E+00 0. -1.
        -11    1    4    4    0    0  0.74714924768E-01  0.91467138401E-01  0.38359915932E-01  0.12417850725E+00  0.51100000000E-03 0. -1.
         11    1    4    4    0    0  0.29260867053E-02  0.21422549303E-02  0.53062851355E-02  0.64474043252E-02  0.51100000000E-03 0.  1.
</event>
<event>
 8    1  0.1578442E+005  0.1043930E+01  0.7957747E-01            NaN
         13   -1    0    0    0    0  0.00000000000E+00  0.00000000000E+00  0.74505805969E-08  0.10566000000E+00  0.10566000000E+00 0. -1.
     999900   -1    0    0    0    0 -0.00000000000E+00 -0.00000000000E+00 -0.74505805969E-08  0.93827000000E+00  0.93827000000E+00 0. -1.
     999902    2    1    2    0    0  0.30402557021E-03 -0.20243620176E-01  0.10242389306E-01  0.10212407266E+01  0.10209886476E+01 0.  0.
     999903    2    3    3    0    0  0.91957105866E-01  0.12543805638E-02 -0.90423290658E-01  0.13051291727E+00  0.19989179356E-01 0.  0.
         14    1    1    2    0    0 -0.30402557021E-03  0.20243620176E-01 -0.10242389306E-01  0.22689273414E-01  0.00000000000E+00 0.  1.
     999901    1    3    3    0    0 -0.91653080296E-01 -0.21498000740E-01  0.10066567996E+00  0.89072780931E+00  0.88000000000E+00 0.  1.
        -11    1    4    4    0    0  0.41316553087E-01  0.88405869641E-02 -0.33319139411E-01  0.53811148556E-01  0.51100000000E-03 0.  1.
         11    1    4    4    0    0  0.50640552779E-01 -0.75862064003E-02 -0.57104151248E-01  0.76701768715E-01  0.51100000000E-03 0. -1.
</event>
<event>
 8    1  0.1131349E+005  0.1043930E+01  0.7957747E-01            NaN
         13   -1    0    0    0    0  0.00000000000E+00  0.00000000000E+00  0.74505805969E-08  0.10566000000E+00  0.10566000000E+00 0.  1.
     999900   -1    0    0    0    0 -0.00000000000E+00 -0.00000000000E+00 -0.74505805969E-08  0.93827000000E+00  0.93827000000E+00 0. -1.
     999902    2    1    2    0    0 -0.10185244469E-01 -0.18717366962E-01 -0.11842922154E-01  0.10195510370E+01  0.10192595269E+01 0.  0.
     999903    2    3    3    0    0 -0.51789756821E-01  0.11307679001E+00 -0.25980129053E-01  0.12865233578E+00  0.20196956338E-01 0.  0.
         14    1    1    2    0    0  0.10185244469E-01  0.18717366962E-01  0.11842922154E-01  0.24378962981E-01  0.00000000000E+00 0.  1.
     999901    1    3    3    0    0  0.41604512352E-01 -0.13179415697E+00  0.14137206898E-01  0.89089870124E+00  0.88000000000E+00 0.  1.
        -11    1    4    4    0    0 -0.10008591455E-01  0.44443647672E-01 -0.11746420259E-01  0.47049433909E-01  0.51100000000E-03 0. -1.
         11    1    4    4    0    0 -0.41781165366E-01  0.68633142334E-01 -0.14233708794E-01  0.81602901866E-01  0.51100000000E-03 0.  1.
</event>
<event>
 8    1  0.1131349E+005  0.1043930E+01  0.7957747E-01            NaN
         13   -1    0    0    0    0  0.00000000000E+00  0.00000000000E+00  0.74505805969E-08  0.10566000000E+00  0.10566000000E+00 0. -1.
     999900   -1    0    0    0    0 -0.00000000000E+00 -0.00000000000E+00 -0.74505805969E-08  0.93827000000E+00  0.93827000000E+00 0. -1.
     999902    2    1    2    0    0  0.37001725602E-02 -0.12309125375E-01  0.20070956147E-01  0.10200962188E+01  0.10198177516E+01 0.  0.
     999903    2    3    3    0    0 -0.14107365111E-01 -0.11189869571E+00  0.67457644857E-01  0.13303326210E+00  0.20663473196E-01 0.  0.
         14    1    1    2    0    0 -0.37001725602E-02  0.12309125375E-01 -0.20070956147E-01  0.23833781176E-01  0.00000000000E+00 0.  1.
     999901    1    3    3    0    0  0.17807537672E-01  0.99589570335E-01 -0.47386688711E-01  0.88706295672E+00  0.88000000000E+00 0.  1.
        -11    1    4    4    0    0 -0.14412320738E-01 -0.38156379026E-01  0.27034951546E-01  0.48936427899E-01  0.51100000000E-03 0.  1.
         11    1    4    4    0    0  0.30495562629E-03 -0.73742316684E-01  0.40422693311E-01  0.84096834206E-01  0.51100000000E-03 0. -1.
</event>
<event>
 8    1  0.1131349E+005  0.1043930E+01  0.7957747E-01            NaN
         13   -1    0    0    0    0  0.00000000000E+00  0.00000000000E+00  0.74505805969E-08  0.10566000000E+00  0.10566000000E+00 0. -1.
     999900   -1    0    0    0    0 -0.00000000000E+00 -0.00000000000E+00 -0.74505805969E-08  0.93827000000E+00  0.93827000000E+00 0.  1.
     999902    2    1    2    0    0 -0.88457441432E-02  0.18887317098E-01 -0.10873954566E-01  0.10204093532E+01  0.10201382393E+01 0.  0.
     999903    2    3    3    0    0  0.46760350403E-01  0.10422142372E+00  0.62006343175E-01  0.13154182356E+00  0.20244239146E-01 0.  0.
         14    1    1    2    0    0  0.88457441432E-02 -0.18887317098E-01  0.10873954566E-01  0.23520646770E-01  0.00000000000E+00 0. -1.
     999901    1    3    3    0    0 -0.55606094546E-01 -0.85334106625E-01 -0.72880297741E-01  0.88886752967E+00  0.88000000000E+00 0. -1.
        -11    1    4    4    0    0  0.21405643591E-01  0.47527786918E-01  0.16957490965E-01  0.54817056905E-01  0.51100000000E-03 0.  1.
         11    1    4    4    0    0  0.25354706812E-01  0.56693636805E-01  0.45048852210E-01  0.76724766654E-01  0.51100000000E-03 0. -1.
</event>
<event>
 8    1  0.1131349E+005  0.1043930E+01  0.7957747E-01            NaN
         13   -1    0    0    0    0  0.00000000000E+00  0.00000000000E+00  0.74505805969E-08  0.10566000000E+00  0.10566000000E+00 0. -1.
     999900   -1    0    0    0    0 -0.00000000000E+00 -0.00000000000E+00 -0.74505805969E-08  0.93827000000E+00  0.93827000000E+00 0.  1.
     999902    2    1    2    0    0  0.14255968663E-01 -0.20963309422E-01 -0.20481329948E-02  0.10184960103E+01  0.10181783906E+01 0.  0.
     999903    2    3    3    0    0 -0.41937385151E-01 -0.85522860365E-01 -0.86609476125E-01  0.13030895262E+00  0.20157327727E-01 0.  0.
         14    1    1    2    0    0 -0.14255968663E-01  0.20963309422E-01  0.20481329948E-02  0.25433989722E-01  0.00000000000E+00 0. -1.
     999901    1    3    3    0    0  0.56193353814E-01  0.64559550943E-01  0.84561343130E-01  0.88818705765E+00  0.88000000000E+00 0. -1.
        -11    1    4    4    0    0 -0.34250933094E-01 -0.76558436140E-01 -0.82882608814E-01  0.11791568397E+00  0.51100000000E-03 0. -1.
         11    1    4    4    0    0 -0.76864520568E-02 -0.89644242256E-02 -0.37268673108E-02  0.12393268652E-01  0.51100000000E-03 0.  1.
</event>
<event>
 8    1  0.1131349E+005  0.1043930E+01  0.7957747E-01            NaN
         13   -1    0    0    0    0  0.00000000000E+00  0.00000000000E+00  0.74505805969E-08  0.10566000000E+00  0.10566000000E+00 0.  1.
     999900   -1    0    0    0    0 -0.00000000000E+00 -0.00000000000E+00 -0.74505805969E-08  0.93827000000E+00  0.93827000000E+00 0. -1.
     999902    2    1    2    0    0 -0.21510277200E-01  0.35261679855E-02  0.81045438035E-03  0.10221175558E+01  0.10218847856E+01 0.  0.
     999903    2    3    3    0    0 -0.99316150115E-01 -0.77243571662E-01 -0.41001756763E-01  0.13401521614E+00  0.21181762489E-01 0.  0.
         14    1    1    2    0    0  0.21510277200E-01 -0.35261679855E-02 -0.81045438035E-03  0.21812444205E-01  0.00000000000E+00 0.  1.
     999901    1    3    3    0    0  0.77805872915E-01  0.80769739647E-01  0.41812211143E-01  0.88810233966E+00  0.88000000000E+00 0. -1.
        -11    1    4    4    0    0 -0.19933674485E-01 -0.25761818464E-01 -0.59569367435E-02  0.33117501195E-01  0.51100000000E-03 0.  1.
         11    1    4    4    0    0 -0.79382475631E-01 -0.51481753198E-01 -0.35044820019E-01  0.10089771494E+00  0.51100000000E-03 0. -1.
</event>
<event>
 8    1  0.1131349E+005  0.1043930E+01  0.7957747E-01            NaN
         13   -1    0    0    0    0  0.00000000000E+00  0.00000000000E+00  0.74505805969E-08  0.10566000000E+00  0.10566000000E+00 0. -1.
     999900   -1    0    0    0    0 -0.00000000000E+00 -0.00000000000E+00 -0.74505805969E-08  0.93827000000E+00  0.93827000000E+00 0.  1.
     999902    2    1    2    0    0 -0.69421941725E-02 -0.20762843313E-01 -0.80826488512E-02  0.10205929279E+01  0.10203260780E+01 0.  0.
     999903    2    3    3    0    0  0.10064858449E-01  0.24790113482E-01  0.12538962232E+00  0.12920123010E+00  0.15954603454E-01 0.  0.
         14    1    1    2    0    0  0.69421941725E-02  0.20762843313E-01  0.80826488512E-02  0.23337072113E-01  0.00000000000E+00 0. -1.
     999901    1    3    3    0    0 -0.17007052622E-01 -0.45552956795E-01 -0.13347227117E+00  0.89139169779E+00  0.88000000000E+00 0.  1.
        -11    1    4    4    0    0  0.28978861617E-02  0.11774263133E-01  0.25847510776E-01  0.28554963682E-01  0.51100000000E-03 0.  1.
         11    1    4    4    0    0  0.71669722874E-02  0.13015850349E-01  0.99542111545E-01  0.10064626642E+00  0.51100000000E-03 0. -1.
</event>
<event>
 8    1  0.1131349E+005  0.1043930E+01  0.7957747E-01            NaN
         13   -1    0    0    0    0  0.00000000000E+00  0.00000000000E+00  0.74505805969E-08  0.10566000000E+00  0.10566000000E+00 0. -1.
     999900   -1    0    0    0    0 -0.00000000000E+00 -0.00000000000E+00 -0.74505805969E-08  0.93827000000E+00  0.93827000000E+00 0. -1.
     999902    2    1    2    0    0  0.21326697995E-01 -0.38315195462E-03 -0.90210968674E-02  0.10207706597E+01  0.10205079053E+01 0.  0.
     999903    2    3    3    0    0  0.37396819375E-01 -0.12490585526E+00 -0.68616732535E-03  0.13181980424E+00  0.19390595279E-01 0.  0.
         14    1    1    2    0    0 -0.21326697995E-01  0.38315195462E-03  0.90210968674E-02  0.23159340264E-01  0.00000000000E+00 0. -1.
     999901    1    3    3    0    0 -0.16070121381E-01  0.12452270331E+00 -0.83349295421E-02  0.88895085550E+00  0.88000000000E+00 0. -1.
        -11    1    4    4    0    0  0.28706718655E-01 -0.62187995108E-01  0.91379354552E-04  0.68495926176E-01  0.51100000000E-03 0.  1.
         11    1    4    4    0    0  0.86901007201E-02 -0.62717860155E-01 -0.77754667991E-03  0.63323878062E-01  0.51100000000E-03 0. -1.
</event>
<event>
 8    1  0.1131349E+005  0.1043930E+01  0.7957747E-01            NaN
         13   -1    0    0    0    0  0.00000000000E+00  0.00000000000E+00  0.74505805969E-08  0.10566000000E+00  0.10566000000E+00 0. -1.
     999900   -1    0    0    0    0 -0.00000000000E+00 -0.00000000000E+00 -0.74505805969E-08  0.93827000000E+00  0.93827000000E+00 0. -1.
     999902    2    1    2    0    0  0.15045282338E-01 -0.13269519412E-01 -0.13801429763E-01  0.10195800487E+01  0.10192892404E+01 0.  0.
     999903    2    3    3    0    0  0.11672644986E+00  0.12926942975E-01 -0.57294605949E-01  0.13227121245E+00  0.20514185799E-01 0.  0.
         14    1    1    2    0    0 -0.15045282338E-01  0.13269519412E-01  0.13801429763E-01  0.24349951326E-01  0.00000000000E+00 0.  1.
     999901    1    3    3    0    0 -0.10168116753E+00 -0.26196462387E-01  0.43493176187E-01  0.88730883623E+00  0.88000000000E+00 0.  1.
        -11    1    4    4    0    0  0.49590965757E-01  0.66362058166E-02 -0.35701550678E-01  0.61466779273E-01  0.51100000000E-03 0.  1.
         11    1    4    4    0    0  0.67135484107E-01  0.62907371583E-02 -0.21593055271E-01  0.70804433175E-01  0.51100000000E-03 0. -1.
</event>
<event>
 8    1  0.1131349E+005  0.1043930E+01  0.7957747E-01            NaN
         13   -1    0    0    0    0  0.00000000000E+00  0.00000000000E+00  0.74505805969E-08  0.10566000000E+00  0.10566000000E+00 0.  1.
     999900   -1    0    0    0    0 -0.00000000000E+00 -0.00000000000E+00 -0.74505805969E-08  0.93827000000E+00  0.93827000000E+00 0. -1.
     999902    2    1    2    0    0  0.77711903877E-02  0.21496942340E-01  0.43374244082E-02  0.10206636470E+01  0.10203984306E+01 0.  0.
     999903    2    3    3    0    0 -0.62868779394E-01 -0.94972544517E-01 -0.56362269872E-01  0.12811695381E+00  0.16278229417E-01 0.  0.
         14    1    1    2    0    0 -0.77711903877E-02 -0.21496942340E-01 -0.43374244082E-02  0.23266352970E-01  0.00000000000E+00 0. -1.
     999901    1    3    3    0    0  0.70639969781E-01  0.11646948686E+00  0.60699694280E-01  0.89254669322E+00  0.88000000000E+00 0.  1.
        -11    1    4    4    0    0 -0.43694765087E-01 -0.56555009657E-01 -0.41685145547E-01  0.82738226314E-01  0.51100000000E-03 0. -1.
         11    1    4    4    0    0 -0.19174014306E-01 -0.38417534860E-01 -0.14677124325E-01  0.45378727492E-01  0.51100000000E-03 0.  1.
</event>
<event>
 8    1  0.1131349E+005  0.1043930E+01  0.7957747E-01            NaN
         13   -1    0    0    0    0  0.00000000000E+00  0.00000000000E+00  0.74505805969E-08  0.10566000000E+00  0.10566000000E+00 0.  1.
     999900   -1    0    0    0    0 -0.00000000000E+00 -0.00000000000E+00 -0.74505805969E-08  0.93827000000E+00  0.93827000000E+00 0.  1.
     999902    2    1    2    0    0  0.21379874858E-01 -0.32432366807E-02 -0.10271518728E-01  0.10199900391E+01  0.10197090556E+01 0.  0.
     999903    2    3    3    0    0 -0.58181045163E-01  0.87531227686E-02  0.11181220406E+00  0.12792597857E+00  0.20035863902E-01 0.  0.
         14    1    1    2    0    0 -0.21379874858E-01  0.32432366807E-02  0.10271518728E-01  0.23939960946E-01  0.00000000000E+00 0.  1.
     999901    1    3    3    0    0  0.79560920022E-01 -0.11996359449E-01 -0.12208372279E+00  0.89206406048E+00  0.88000000000E+00 0.  1.
        -11    1    4    4    0    0 -0.30940931883E-01  0.46296851517E-02  0.38531400330E-01  0.49635724864E-01  0.51100000000E-03 0. -1.
         11    1    4    4    0    0 -0.27240113280E-01  0.41234376169E-02  0.73280803730E-01  0.78290253708E-01  0.51100000000E-03 0.  1.
</event>
<event>
 8    1  0.1131349E+005  0.1043930E+01  0.7957747E-01            NaN
         13   -1    0    0    0    0  0.00000000000E+00  0.00000000000E+00  0.74505805969E-08  0.10566000000E+00  0.10566000000E+00 0. -1.
     999900   -1    0    0    0    0 -0.00000000000E+00 -0.00000000000E+00 -0.74505805969E-08  0.93827000000E+00  0.93827000000E+00 0. -1.
     999902    2    1    2    0    0  0.87694532284E-02  0.19604288774E-01  0.81843852770E-02  0.10209470583E+01  0.10206883365E+01 0.  0.
     999903    2    3    3    0    0  0.69953631363E-01 -0.91502094349E-01  0.58512088061E-01  0.13042978741E+00  0.17947734795E-01 0.  0.
         14    1    1    2    0    0 -0.87694532284E-02 -0.19604288774E-01 -0.81843852770E-02  0.22982941731E-01  0.00000000000E+00 0.  1.
     999901    1    3    3    0    0 -0.61184178134E-01  0.11110638312E+00 -0.50327702784E-01  0.89051727086E+00  0.88000000000E+00 0. -1.
        -11    1    4    4    0    0  0.18833697052E-01 -0.23933428008E-01  0.69419179116E-02  0.31240494013E-01  0.51100000000E-03 0.  1.
         11    1    4    4    0    0  0.51119934310E-01 -0.67568666341E-01  0.51570170149E-01  0.99189293400E-01  0.51100000000E-03 0. -1.
</event>
<event>
 8    1  0.1131349E+005  0.1043930E+01  0.7957747E-01            NaN
         13   -1    0    0    0    0  0.00000000000E+00  0.00000000000E+00  0.74505805969E-08  0.10566000000E+00  0.10566000000E+00 0.  1.
     999900   -1    0    0    0    0 -0.00000000000E+00 -0.00000000000E+00 -0.74505805969E-08  0.93827000000E+00  0.93827000000E+00 0.  1.
     999902    2    1    2    0    0  0.15168876773E-01 -0.15063455210E-01 -0.98392247056E-02  0.10203967714E+01  0.10201253640E+01 0.  0.
     999903    2    3    3    0    0 -0.92714971879E-01 -0.89458549999E-01  0.58343658015E-02  0.13055452900E+00  0.20286622174E-01 0.  0.
         14    1    1    2    0    0 -0.15168876773E-01  0.15063455210E-01  0.98392247056E-02  0.23533228598E-01  0.00000000000E+00 0.  1.
     999901    1    3    3    0    0  0.10788384865E+00  0.74395094788E-01 -0.15673590507E-01  0.88984224240E+00  0.88000000000E+00 0.  1.
        -11    1    4    4    0    0 -0.76602624447E-01 -0.70404988967E-01 -0.29781696580E-02  0.10408628708E+00  0.51100000000E-03 0. -1.
         11    1    4    4    0    0 -0.16112347432E-01 -0.19053561031E-01  0.88125354594E-02  0.26468241913E-01  0.51100000000E-03 0.  1.
</event>
<event>
 8    1  0.1131349E+005  0.1043930E+01  0.7957747E-01            NaN
         13   -1    0    0    0    0  0.00000000000E+00  0.00000000000E+00  0.74505805969E-08  0.10566000000E+00  0.10566000000E+00 0. -1.
     999900   -1    0    0    0    0 -0.00000000000E+00 -0.00000000000E+00 -0.74505805969E-08  0.93827000000E+00  0.93827000000E+00 0. -1.
     999902    2    1    2    0    0 -0.20024199364E-01  0.11681798610E-01 -0.36192407471E-02  0.10204665842E+01  0.10201968033E+01 0.  0.
     999903    2    3    3    0    0 -0.12894506487E+00  0.10706621205E-01  0.24957210014E-01  0.13329054783E+00  0.20051092634E-01 0.  0.
         14    1    1    2    0    0  0.20024199364E-01 -0.11681798610E-01  0.36192407471E-02  0.23463415832E-01  0.00000000000E+00 0. -1.
     999901    1    3    3    0    0  0.10892086551E+00  0.97517740483E-03 -0.28576450761E-01  0.88717603634E+00  0.88000000000E+00 0. -1.
        -11    1    4    4    0    0 -0.42748230089E-01  0.72688181708E-03  0.17487906097E-01  0.46195535646E-01  0.51100000000E-03 0. -1.
         11    1    4    4    0    0 -0.86196834785E-01  0.99797393884E-02  0.74693039168E-02  0.87095012184E-01  0.51100000000E-03 0.  1.
</event>
<event>
 8    1  0.1131349E+005  0.1043930E+01  0.7957747E-01            NaN
         13   -1    0    0    0    0  0.00000000000E+00  0.00000000000E+00  0.74505805969E-08  0.10566000000E+00  0.10566000000E+00 0. -1.
     999900   -1    0    0    0    0 -0.00000000000E+00 -0.00000000000E+00 -0.74505805969E-08  0.93827000000E+00  0.93827000000E+00 0. -1.
     999902    2    1    2    0    0 -0.61018955161E-02 -0.46711073315E-02 -0.23106364028E-01  0.10195793033E+01  0.10192884769E+01 0.  0.
     999903    2    3    3    0    0  0.98216848808E-01 -0.14761841582E-01 -0.83565835084E-01  0.13130030939E+00  0.19800532695E-01 0.  0.
         14    1    1    2    0    0  0.61018955161E-02  0.46711073315E-02  0.23106364028E-01  0.24350696729E-01  0.00000000000E+00 0. -1.
     999901    1    3    3    0    0 -0.10431874432E+00  0.10090734251E-01  0.60459471055E-01  0.88827899388E+00  0.88000000000E+00 0.  1.
        -11    1    4    4    0    0  0.30575262720E-01  0.45767346904E-02 -0.25275783986E-01  0.39936444107E-01  0.51100000000E-03 0.  1.
         11    1    4    4    0    0  0.67641586089E-01 -0.19338576272E-01 -0.58290051098E-01  0.91363865280E-01  0.51100000000E-03 0. -1.
</event>
<event>
 8    1  0.1131349E+005  0.1043930E+01  0.7957747E-01            NaN
         13   -1    0    0    0    0  0.00000000000E+00  0.00000000000E+00  0.74505805969E-08  0.10566000000E+00  0.10566000000E+00 0. -1.
     999900   -1    0    0    0    0 -0.00000000000E+00 -0.00000000000E+00 -0.74505805969E-08  0.93827000000E+00  0.93827000000E+00 0. -1.
     999902    2    1    2    0    0 -0.16098083961E-01  0.15514992887E-01  0.71501105857E-02  0.10204568794E+01  0.10201868727E+01 0.  0.
     999903    2    3    3    0    0 -0.16718978483E-01  0.33454820966E-01 -0.12350088573E+00  0.13062998283E+00  0.20321770372E-01 0.  0.
         14    1    1    2    0    0  0.16098083961E-01 -0.15514992887E-01 -0.71501105857E-02  0.23473120647E-01  0.00000000000E+00 0. -1.
     999901    1    3    3    0    0  0.62089452158E-03 -0.17939828079E-01  0.13065099631E+00  0.88982689652E+00  0.88000000000E+00 0.  1.
        -11    1    4    4    0    0 -0.89355153036E-02  0.19188019685E-01 -0.98901605500E-01  0.10114253420E+00  0.51100000000E-03 0.  1.
         11    1    4    4    0    0 -0.77834631789E-02  0.14266801281E-01 -0.24599280227E-01  0.29487448627E-01  0.51100000000E-03 0. -1.
</event>
<event>
 8    1  0.1131349E+005  0.1043930E+01  0.7957747E-01            NaN
         13   -1    0    0    0    0  0.00000000000E+00  0.00000000000E+00  0.74505805969E-08  0.10566000000E+00  0.10566000000E+00 0.  1.
     999900   -1    0    0    0    0 -0.00000000000E+00 -0.00000000000E+00 -0.74505805969E-08  0.93827000000E+00  0.93827000000E+00 0.  1.
     999902    2    1    2    0    0 -0.22302964913E-02  0.90577262128E-02  0.22230926182E-01  0.10198212733E+01  0.10195362665E+01 0.  0.
     999903    2    3    3    0    0  0.85838396217E-01  0.90193454527E-01  0.37895712282E-01  0.13157328616E+00  0.19296505312E-01 0.  0.
         14    1    1    2    0    0  0.22302964913E-02 -0.90577262128E-02 -0.22230926182E-01  0.24108726750E-01  0.00000000000E+00 0. -1.
     999901    1    3    3    0    0 -0.88068692709E-01 -0.81135728314E-01 -0.15664786099E-01  0.88824798709E+00  0.88000000000E+00 0. -1.
        -11    1    4    4    0    0  0.12809120142E-01  0.72430360790E-02  0.93010030794E-02  0.17415651287E-01  0.51100000000E-03 0.  1.
         11    1    4    4    0    0  0.73029276075E-01  0.82950418448E-01  0.28594709202E-01  0.11415763487E+00  0.51100000000E-03 0. -1.
</event>
<event>
 8    1  0.1131349E+005  0.1043930E+01  0.7957747E-01            NaN
         13   -1    0    0    0    0  0.00000000000E+00  0.00000000000E+00  0.74505805969E-08  0.10566000000E+00  0.10566000000E+00 0.  1.
     999900   -1    0    0    0    0 -0.00000000000E+00 -0.00000000000E+00 -0.74505805969E-08  0.93827000000E+00  0.93827000000E+00 0. -1.
     999902    2    1    2    0    0  0.66523317604E-02  0.19968227470E-01  0.11350032287E-01  0.10200175167E+01  0.10197371855E+01 0.  0.
     999903    2    3    3    0    0  0.29668752501E-01  0.93771743156E-01 -0.84683246111E-01  0.13142362455E+00  0.20677094292E-01 0.  0.
         14    1    1    2    0    0 -0.66523317604E-02 -0.19968227470E-01 -0.11350032287E-01  0.23912483331E-01  0.00000000000E+00 0. -1.
     999901    1    3    3    0    0 -0.23016420741E-01 -0.73803515686E-01  0.96033278398E-01  0.88859389212E+00  0.88000000000E+00 0.  1.
        -11    1    4    4    0    0  0.15088747854E-01  0.61636424884E-01 -0.65730876776E-01  0.91364809785E-01  0.51100000000E-03 0.  1.
         11    1    4    4    0    0  0.14580004647E-01  0.32135318272E-01 -0.18952369335E-01  0.40058814765E-01  0.51100000000E-03 0. -1.
</event>
<event>
 8    1  0.1131349E+005  0.1043930E+01  0.7957747E-01            NaN
         13   -1    0    0    0    0  0.00000000000E+00  0.00000000000E+00  0.74505805969E-08  0.10566000000E+00  0.10566000000E+00 0.  1.
     999900   -1    0    0    0    0 -0.00000000000E+00 -0.00000000000E+00 -0.74505805969E-08  0.93827000000E+00  0.93827000000E+00 0. -1.
     999902    2    1    2    0    0  0.40516345631E-02  0.12084197397E-01  0.20039069993E-01  0.10201811496E+01  0.10199046868E+01 0.  0.
     999903    2    3    3    0    0 -0.20122161874E-03  0.13036164886E+00  0.91056628070E-03  0.13205191240E+00  0.21039925228E-01 0.  0.
         14    1    1    2    0    0 -0.40516345631E-02 -0.12084197397E-01 -0.20039069993E-01  0.23748850405E-01  0.00000000000E+00 0. -1.
     999901    1    3    3    0    0  0.42528561818E-02 -0.11827745146E+00  0.19128503712E-01  0.88812923720E+00  0.88000000000E+00 0.  1.
        -11    1    4    4    0    0  0.69532891678E-02  0.76634358639E-01 -0.70219516479E-02  0.77270577066E-01  0.51100000000E-03 0. -1.
         11    1    4    4    0    0 -0.71545107865E-02  0.53727290221E-01  0.79325179286E-02  0.54781335332E-01  0.51100000000E-03 0.  1.
</event>
<event>
 8    1  0.1131349E+005  0.1043930E+01  0.7957747E-01            NaN
         13   -1    0    0    0    0  0.00000000000E+00  0.00000000000E+00  0.74505805969E-08  0.10566000000E+00  0.10566000000E+00 0.  1.
     999900   -1    0    0    0    0 -0.00000000000E+00 -0.00000000000E+00 -0.74505805969E-08  0.93827000000E+00  0.93827000000E+00 0. -1.
     999902    2    1    2    0    0 -0.15954031886E-01  0.13972828308E-01 -0.81520198466E-02  0.10212093818E+01  0.10209565980E+01 0.  0.
     999903    2    3    3    0    0  0.11559155792E+00 -0.19611656449E-01  0.49642938361E-01  0.12892444019E+00  0.20274728518E-01 0.  0.
         14    1    1    2    0    0  0.15954031886E-01 -0.13972828308E-01  0.81520198466E-02  0.22720618212E-01  0.00000000000E+00 0.  1.
     999901    1    3    3    0    0 -0.13154558981E+00  0.33584484757E-01 -0.57794958207E-01  0.89228494160E+00  0.88000000000E+00 0. -1.
        -11    1    4    4    0    0  0.27689947413E-01 -0.83632848202E-02  0.21150374113E-01  0.35836813012E-01  0.51100000000E-03 0.  1.
         11    1    4    4    0    0  0.87901610511E-01 -0.11248371628E-01  0.28492564248E-01  0.93087627175E-01  0.51100000000E-03 0. -1.
</event>
<event>
 8    1  0.1131349E+005  0.1043930E+01  0.7957747E-01            NaN
         13   -1    0    0    0    0  0.00000000000E+00  0.00000000000E+00  0.74505805969E-08  0.10566000000E+00  0.10566000000E+00 0.  1.
     999900   -1    0    0    0    0 -0.00000000000E+00 -0.00000000000E+00 -0.74505805969E-08  0.93827000000E+00  0.93827000000E+00 0. -1.
     999902    2    1    2    0    0  0.22290002007E-01 -0.84897053192E-02  0.93635032428E-02  0.10183059004E+01  0.10179834539E+01 0.  0.
     999903    2    3    3    0    0  0.11805371589E+00  0.52065846808E-01 -0.64402574483E-02  0.13090101953E+00  0.21120316232E-01 0.  0.
         14    1    1    2    0    0 -0.22290002007E-01  0.84897053192E-02 -0.93635032428E-02  0.25624099571E-01  0.00000000000E+00 0.  1.
     999901    1    3    3    0    0 -0.95763713887E-01 -0.60555552127E-01  0.15803760691E-01  0.88740488090E+00  0.88000000000E+00 0.  1.
        -11    1    4    4    0    0  0.10874707210E+00  0.40886109434E-01 -0.53046778779E-02  0.11630133431E+00  0.51100000000E-03 0.  1.
         11    1    4    4    0    0  0.93066437988E-02  0.11179737374E-01 -0.11355795704E-02  0.14599685220E-01  0.51100000000E-03 0. -1.
</event>
<event>
 8    1  0.1131349E+005  0.1043930E+01  0.7957747E-01            NaN
         13   -1    0    0    0    0  0.00000000000E+00  0.00000000000E+00  0.74505805969E-08  0.10566000000E+00  0.10566000000E+00 0.  1.
     999900   -1    0    0    0    0 -0.00000000000E+00 -0.00000000000E+00 -0.74505805969E-08  0.93827000000E+00  0.93827000000E+00 0.  1.
     999902    2    1    2    0    0 -0.55111018551E-02 -0.99458750733E-02  0.20578356779E-01  0.10204191208E+01  0.10201482346E+01 0.  0.
     999903    2    3    3    0    0 -0.11382050203E+00 -0.60293487982E-01 -0.18087331762E-01  0.13150920195E+00  0.19419249543E-01 0.  0.
         14    1    1    2    0    0  0.55111018551E-02  0.99458750733E-02 -0.20578356779E-01  0.23510879234E-01  0.00000000000E+00 0. -1.
     999901    1    3    3    0    0  0.10830940018E+00  0.50347612909E-01  0.38665688541E-01  0.88890991881E+00  0.88000000000E+00 0. -1.
        -11    1    4    4    0    0 -0.73438042455E-01 -0.36340183762E-01 -0.23002914401E-02  0.81971382184E-01  0.51100000000E-03 0.  1.
         11    1    4    4    0    0 -0.40382459576E-01 -0.23953304220E-01 -0.15787040322E-01  0.49537819770E-01  0.51100000000E-03 0. -1.
</event>
<event>
 8    1  0.1131349E+005  0.1043930E+01  0.7957747E-01            NaN
         13   -1    0    0    0    0  0.00000000000E+00  0.00000000000E+00  0.74505805969E-08  0.10566000000E+00  0.10566000000E+00 0.  1.
     999900   -1    0    0    0    0 -0.00000000000E+00 -0.00000000000E+00 -0.74505805969E-08  0.93827000000E+00  0.93827000000E+00 0.  1.
     999902    2    1    2    0    0 -0.39813507100E-02 -0.19025872280E-01 -0.12256427662E-01  0.10209505529E+01  0.10206919107E+01 0.  0.
     999903    2    3    3    0    0 -0.10515207407E+00  0.24055285963E-01 -0.73533154138E-01  0.13199254565E+00  0.19475417478E-01 0.  0.
         14    1    1    2    0    0  0.39813507100E-02  0.19025872280E-01  0.12256427662E-01  0.22979447089E-01  0.00000000000E+00 0.  1.
     999901    1    3    3    0    0  0.10117072336E+00 -0.43081158243E-01  0.61276726475E-01  0.88895800726E+00  0.88000000000E+00 0. -1.
        -11    1    4    4    0    0 -0.66054395019E-01  0.82518443996E-02 -0.36799685851E-01  0.76064144227E-01  0.51100000000E-03 0.  1.
         11    1    4    4    0    0 -0.39097679053E-01  0.15803441563E-01 -0.36733468287E-01  0.55928401425E-01  0.51100000000E-03 0. -1.
</event>
<event>
 8    1  0.1131349E+005  0.1043930E+01  0.7957747E-01            NaN
         13   -1    0    0    0    0  0.00000000000E+00  0.00000000000E+00  0.74505805969E-08  0.10566000000E+00  0.10566000000E+00 0.  1.
     999900   -1    0    0    0    0 -0.00000000000E+00 -0.00000000000E+00 -0.74505805969E-08  0.93827000000E+00  0.93827000000E+00 0.  1.
     999902    2    1    2    0    0  0.16717958704E-01  0.16087915740E-01  0.34399529936E-02  0.10204748417E+01  0.10202052529E+01 0.  0.
     999903    2    3    3    0    0 -0.54031466378E-02 -0.12172039982E+00 -0.36098703050E-01  0.12859829165E+00  0.19732068472E-01 0.  0.
         14    1    1    2    0    0 -0.16717958704E-01 -0.16087915740E-01 -0.34399529936E-02  0.23455158338E-01  0.00000000000E+00 0.  1.
     999901    1    3    3    0    0  0.22121105342E-01  0.13780831556E+00  0.39538656043E-01  0.89187655001E+00  0.88000000000E+00 0. -1.
        -11    1    4    4    0    0 -0.10042952846E-01 -0.79285642309E-01 -0.30496155677E-01  0.85541513959E-01  0.51100000000E-03 0. -1.
         11    1    4    4    0    0  0.46398062078E-02 -0.42434757516E-01 -0.56025473723E-02  0.43056777691E-01  0.51100000000E-03 0.  1.
</event>
<event>
 8    1  0.1131349E+005  0.1043930E+01  0.7957747E-01            NaN
         13   -1    0    0    0    0  0.00000000000E+00  0.00000000000E+00  0.74505805969E-08  0.10566000000E+00  0.10566000000E+00 0.  1.
     999900   -1    0    0    0    0 -0.00000000000E+00 -0.00000000000E+00 -0.74505805969E-08  0.93827000000E+00  0.93827000000E+00 0.  1.
     999902    2    1    2    0    0 -0.59928475754E-02 -0.14647429720E-01 -0.17692423713E-01  0.10201921973E+01  0.10199159947E+01 0.  0.
     999903    2    3    3    0    0 -0.42374675991E-01 -0.12123418769E+00  0.23180430932E-01  0.13207341885E+00  0.20315367583E-01 0.  0.
         14    1    1    2    0    0  0.59928475754E-02  0.14647429720E-01  0.17692423713E-01  0.23737802685E-01  0.00000000000E+00 0.  1.
     999901    1    3    3    0    0  0.36381828416E-01  0.10658675797E+00 -0.40872854645E-01  0.88811877846E+00  0.88000000000E+00 0.  1.
        -11    1    4    4    0    0 -0.17684723737E-03 -0.22831966277E-01  0.19709228910E-02  0.22923254940E-01  0.51100000000E-03 0.  1.
         11    1    4    4    0    0 -0.42197828754E-01 -0.98402221409E-01  0.21209508041E-01  0.10915016391E+00  0.51100000000E-03 0. -1.
</event>
<event>
 8    1  0.1131349E+005  0.1043930E+01  0.7957747E-01            NaN
         13   -1    0    0    0    0  0.00000000000E+00  0.00000000000E+00  0.74505805969E-08  0.10566000000E+00  0.10566000000E+00 0.  1.
     999900   -1    0    0    0    0 -0.00000000000E+00 -0.00000000000E+00 -0.74505805969E-08  0.93827000000E+00  0.93827000000E+00 0. -1.
     999902    2    1    2    0    0 -0.13040796872E-01 -0.19058648714E-01 -0.48655040379E-02  0.10203298389E+01  0.10200568673E+01 0.  0.
     999903    2    3    3    0    0  0.10591831742E+00 -0.72541820894E-01 -0.13828117049E-01  0.13067144997E+00  0.20070009279E-01 0.  0.
         14    1    1    2    0    0  0.13040796872E-01  0.19058648714E-01  0.48655040379E-02  0.23600161088E-01  0.00000000000E+00 0.  1.
     999901    1    3    3    0    0 -0.11895911429E+00  0.53483172180E-01  0.89626130115E-02  0.88965838894E+00  0.88000000000E+00 0.  1.
        -11    1    4    4    0    0  0.68518074611E-01 -0.57567477697E-01 -0.12480512474E-01  0.90359091127E-01  0.51100000000E-03 0. -1.
         11    1    4    4    0    0  0.37400242811E-01 -0.14974343198E-01 -0.13476045758E-02  0.40312358844E-01  0.51100000000E-03 0.  1.
</event>
<event>
 8    1  0.1131349E+005  0.1043930E+01  0.7957747E-01            NaN
         13   -1    0    0    0    0  0.00000000000E+00  0.00000000000E+00  0.74505805969E-08  0.10566000000E+00  0.10566000000E+00 0.  1.
     999900   -1    0    0    0    0 -0.00000000000E+00 -0.00000000000E+00 -0.74505805969E-08  0.93827000000E+00  0.93827000000E+00 0. -1.
     999902    2    1    2    0    0  0.10276926303E-01 -0.54000378749E-02 -0.20006195964E-01  0.10207994250E+01  0.10205373303E+01 0.  0.
     999903    2    3    3    0    0  0.94207626173E-02  0.11321292824E+00  0.58628420273E-01  0.12936621290E+00  0.19809277788E-01 0.  0.
         14    1    1    2    0    0 -0.10276926303E-01  0.54000378749E-02  0.20006195964E-01  0.23130575009E-01  0.00000000000E+00 0.  1.
     999901    1    3    3    0    0  0.85616368577E-03 -0.11861296612E+00 -0.78634616237E-01  0.89143321209E+00  0.88000000000E+00 0. -1.
        -11    1    4    4    0    0 -0.55565249188E-02  0.28421391012E-01  0.11131825790E-01  0.31029487631E-01  0.51100000000E-03 0.  1.
         11    1    4    4    0    0  0.14977287536E-01  0.84791537233E-01  0.47496594484E-01  0.98336725270E-01  0.51100000000E-03 0. -1.
</event>
<event>
 8    1  0.1131349E+005  0.1043930E+01  0.7957747E-01            NaN
         13   -1    0    0    0    0  0.00000000000E+00  0.00000000000E+00  0.74505805969E-08  0.10566000000E+00  0.10566000000E+00 0.  1.
     999900   -1    0    0    0    0 -0.00000000000E+00 -0.00000000000E+00 -0.74505805969E-08  0.93827000000E+00  0.93827000000E+00 0.  1.
     999902    2    1    2    0    0  0.14348022604E-01  0.18788463109E-01  0.18051666190E-02  0.10202207038E+01  0.10199451720E+01 0.  0.
     999903    2    3    3    0    0 -0.77038367430E-01 -0.56020560072E-01  0.84013093154E-01  0.12853353591E+00  0.19734660518E-01 0.  0.
         14    1    1    2    0    0 -0.14348022604E-01 -0.18788463109E-01 -0.18051666190E-02  0.23709296176E-01  0.00000000000E+00 0. -1.
     999901    1    3    3    0    0  0.91386390034E-01  0.74809023182E-01 -0.82207926535E-01  0.89168716791E+00  0.88000000000E+00 0.  1.
        -11    1    4    4    0    0 -0.66045720476E-01 -0.38506919695E-01  0.63239324437E-01  0.99218412273E-01  0.51100000000E-03 0.  1.
         11    1    4    4    0    0 -0.10992646953E-01 -0.17513640378E-01  0.20773768717E-01  0.29315123640E-01  0.51100000000E-03 0. -1.
</event>
<event>
 8    1  0.1131349E+005  0.1043930E+01  0.7957747E-01            NaN
         13   -1    0    0    0    0  0.00000000000E+00  0.00000000000E+00  0.74505805969E-08  0.10566000000E+00  0.10566000000E+00 0.  1.
     999900   -1    0    0    0    0 -0.00000000000E+00 -0.00000000000E+00 -0.74505805969E-08  0.93827000000E+00  0.93827000000E+00 0.  1.
     999902    2    1    2    0    0  0.78261186134E-02  0.81106253920E-02 -0.21472431360E-01  0.10196793158E+01  0.10193909021E+01 0.  0.
     999903    2    3    3    0    0  0.93022472820E-01  0.63455449857E-03 -0.93316312209E-01  0.13261908466E+00  0.15043416632E-01 0.  0.
         14    1    1    2    0    0 -0.78261186134E-02 -0.81106253920E-02  0.21472431360E-01  0.24250684223E-01  0.00000000000E+00 0.  1.
     999901    1    3    3    0    0 -0.85196354206E-01  0.74760708935E-02  0.71843880849E-01  0.88706023111E+00  0.88000000000E+00 0. -1.
        -11    1    4    4    0    0  0.40932186117E-01  0.59989251652E-02 -0.47965097348E-01  0.63343055247E-01  0.51100000000E-03 0.  1.
         11    1    4    4    0    0  0.52090286702E-01 -0.53643706666E-02 -0.45351214861E-01  0.69276029417E-01  0.51100000000E-03 0. -1.
</event>
<event>
 8    1  0.1131349E+005  0.1043930E+01  0.7957747E-01            NaN
         13   -1    0    0    0    0  0.00000000000E+00  0.00000000000E+00  0.74505805969E-08  0.10566000000E+00  0.10566000000E+00 0. -1.
     999900   -1    0    0    0    0 -0.00000000000E+00 -0.00000000000E+00 -0.74505805969E-08  0.93827000000E+00  0.93827000000E+00 0.  1.
     999902    2    1    2    0    0 -0.15448598241E-01  0.12703024414E-01  0.11579764477E-01  0.10208190294E+01  0.10205573839E+01 0.  0.
     999903    2    3    3    0    0 -0.32195357900E-01 -0.66268579372E-01  0.10751445014E+00  0.13193184191E+00  0.20459429117E-01 0.  0.
         14    1    1    2    0    0  0.15448598241E-01 -0.12703024414E-01 -0.11579764477E-01  0.23110970604E-01  0.00000000000E+00 0.  1.
     999901    1    3    3    0    0  0.16746759658E-01  0.78971603786E-01 -0.95934685658E-01  0.88888718749E+00  0.88000000000E+00 0.  1.
        -11    1    4    4    0    0 -0.24667864040E-01 -0.63911331940E-01  0.94876831663E-01  0.11702579277E+00  0.51100000000E-03 0.  1.
         11    1    4    4    0    0 -0.75274938591E-02 -0.23572474320E-02  0.12637618472E-01  0.14906049138E-01  0.51100000000E-03 0. -1.
</event>
<event>
 8    1  0.1131349E+005  0.1043930E+01  0.7957747E-01            NaN
         13   -1    0    0    0    0  0.00000000000E+00  0.00000000000E+00  0.74505805969E-08  0.10566000000E+00  0.10566000000E+00 0. -1.
     999900   -1    0    0    0    0 -0.00000000000E+00 -0.00000000000E+00 -0.74505805969E-08  0.93827000000E+00  0.93827000000E+00 0. -1.
     999902    2    1    2    0    0 -0.53576131173E-04  0.21105681389E-01 -0.41040606310E-02  0.10224289309E+01  0.10222028286E+01 0.  0.
     999903    2    3    3    0    0 -0.10191922465E+00  0.44164613381E-01  0.70811820855E-01  0.13309169794E+00  0.19001175182E-01 0.  0.
         14    1    1    2    0    0  0.53576131173E-04 -0.21105681389E-01  0.41040606310E-02  0.21501069066E-01  0.00000000000E+00 0. -1.
     999901    1    3    3    0    0  0.10186564852E+00 -0.23058931992E-01 -0.74915881486E-01  0.88933723300E+00  0.88000000000E+00 0. -1.
        -11    1    4    4    0    0 -0.49143119929E-01  0.28356104725E-01  0.44101565705E-01  0.71863232116E-01  0.51100000000E-03 0.  1.
         11    1    4    4    0    0 -0.52776104724E-01  0.15808508657E-01  0.26710255150E-01  0.61228465823E-01  0.51100000000E-03 0. -1.
</event>
<event>
 8    1  0.1131349E+005  0.1043930E+01  0.7957747E-01            NaN
         13   -1    0    0    0    0  0.00000000000E+00  0.00000000000E+00  0.74505805969E-08  0.10566000000E+00  0.10566000000E+00 0. -1.
     999900   -1    0    0    0    0 -0.00000000000E+00 -0.00000000000E+00 -0.74505805969E-08  0.93827000000E+00  0.93827000000E+00 0.  1.
     999902    2    1    2    0    0  0.36232184033E-02  0.21895445374E-01 -0.93125834349E-02  0.10198621283E+01  0.10195780981E+01 0.  0.
     999903    2    3    3    0    0  0.10840789999E+00  0.48155865067E-01 -0.54226645157E-01  0.13211964754E+00  0.21066848395E-01 0.  0.
         14    1    1    2    0    0 -0.36232184033E-02 -0.21895445374E-01  0.93125834349E-02  0.24067871737E-01  0.00000000000E+00 0. -1.
     999901    1    3    3    0    0 -0.10478468158E+00 -0.26260419692E-01  0.44914061723E-01  0.88774248072E+00  0.88000000000E+00 0. -1.
        -11    1    4    4    0    0  0.23982543457E-01  0.10879822241E-01 -0.28515720868E-02  0.26493876784E-01  0.51100000000E-03 0. -1.
         11    1    4    4    0    0  0.84425356531E-01  0.37276042826E-01 -0.51375073071E-01  0.10562577076E+00  0.51100000000E-03 0.  1.
</event>
<event>
 8    1  0.1131349E+005  0.1043930E+01  0.7957747E-01            NaN
         13   -1    0    0    0    0  0.00000000000E+00  0.00000000000E+00  0.74505805969E-08  0.10566000000E+00  0.10566000000E+00 0.  1.
     999900   -1    0    0    0    0 -0.00000000000E+00 -0.00000000000E+00 -0.74505805969E-08  0.93827000000E+00  0.93827000000E+00 0. -1.
     999902    2    1    2    0    0  0.17008476465E-02  0.60156139139E-02 -0.23368505313E-01  0.10197397637E+01  0.10194528033E+01 0.  0.
     999903    2    3    3    0    0 -0.10776074004E+00  0.47058006213E-01 -0.55226692128E-01  0.13143730323E+00  0.19973585425E-01 0.  0.
         14    1    1    2    0    0 -0.17008476465E-02 -0.60156139139E-02  0.23368505313E-01  0.24190236337E-01  0.00000000000E+00 0.  1.
     999901    1    3    3    0    0  0.10946158768E+00 -0.41042392299E-01  0.31858186815E-01  0.88830246043E+00  0.88000000000E+00 0. -1.
        -11    1    4    4    0    0 -0.80839833492E-01  0.26605966080E-01 -0.34896910933E-01  0.91983757391E-01  0.51100000000E-03 0. -1.
         11    1    4    4    0    0 -0.26920906546E-01  0.20452040133E-01 -0.20329781195E-01  0.39453545839E-01  0.51100000000E-03 0.  1.
</event>
<event>
 8    1  0.1131349E+005  0.1043930E+01  0.7957747E-01            NaN
         13   -1    0    0    0    0  0.00000000000E+00  0.00000000000E+00  0.74505805969E-08  0.10566000000E+00  0.10566000000E+00 0. -1.
     999900   -1    0    0    0    0 -0.00000000000E+00 -0.00000000000E+00 -0.74505805969E-08  0.93827000000E+00  0.93827000000E+00 0. -1.
     999902    2    1    2    0    0 -0.13202899838E-01  0.12566098691E-01 -0.15206244826E-01  0.10201928291E+01  0.10199166413E+01 0.  0.
     999903    2    3    3    0    0 -0.51677171312E-01  0.11043997764E+00  0.45879740292E-01  0.13182856636E+00  0.20156925406E-01 0.  0.
         14    1    1    2    0    0  0.13202899838E-01 -0.12566098691E-01  0.15206244826E-01  0.23737170896E-01  0.00000000000E+00 0.  1.
     999901    1    3    3    0    0  0.38474271474E-01 -0.97873878953E-01 -0.61085985118E-01  0.88836426275E+00  0.88000000000E+00 0. -1.
        -11    1    4    4    0    0 -0.75821451767E-02  0.33829034441E-01  0.75746316945E-02  0.35489838869E-01  0.51100000000E-03 0.  1.
         11    1    4    4    0    0 -0.44095026136E-01  0.76610943203E-01  0.38305108598E-01  0.96338727488E-01  0.51100000000E-03 0. -1.
</event>
<event>
 8    1  0.1131349E+005  0.1043930E+01  0.7957747E-01            NaN
         13   -1    0    0    0    0  0.00000000000E+00  0.00000000000E+00  0.74505805969E-08  0.10566000000E+00  0.10566000000E+00 0. -1.
     999900   -1    0    0    0    0 -0.00000000000E+00 -0.00000000000E+00 -0.74505805969E-08  0.93827000000E+00  0.93827000000E+00 0. -1.
     999902    2    1    2    0    0 -0.13117152558E-01  0.82417330272E-02 -0.17650607285E-01  0.10204453286E+01  0.10201750530E+01 0.  0.
     999903    2    3    3    0    0 -0.81103580643E-01  0.94538410076E-01 -0.42951357341E-01  0.13325346723E+00  0.19908934160E-01 0.  0.
         14    1    1    2    0    0  0.13117152558E-01 -0.82417330272E-02  0.17650607285E-01  0.23484671427E-01  0.00000000000E+00 0. -1.
     999901    1    3    3    0    0  0.67986428085E-01 -0.86296677049E-01  0.25300750056E-01  0.88719186134E+00  0.88000000000E+00 0. -1.
        -11    1    4    4    0    0 -0.71257215082E-01  0.82749525282E-01 -0.30249392049E-01  0.11331531880E+00  0.51100000000E-03 0. -1.
         11    1    4    4    0    0 -0.98463655612E-02  0.11788884795E-01 -0.12701965292E-01  0.19938148429E-01  0.51100000000E-03 0.  1.
</event>
<event>
 7    1  0.1131349E+005  0.1043930E+01  0.7957747E-01            NaN
         13   -1    0    0    0    0  0.00000000000E+00  0.00000000000E+00  0.74505805969E-08  0.10566000000E+00  0.10566000000E+00 0.  1.
     999900   -1    0    0    0    0 -0.00000000000E+00 -0.00000000000E+00 -0.74505805969E-08  0.93827000000E+00  0.93827000000E+00 0. -1.
     999903    2    1    2    0    0  0.83049419118E-01 -0.75693476681E-01  0.92649450566E-02  0.11449039319E+00  0.19887244614E-01 0.  0.
         14    1    1    2    0    0 -0.26891124246E-01  0.33693535279E-01 -0.17721308856E-01  0.46609351748E-01  0.00000000000E+00 0. -1.
     999901    1    1    2    0    0 -0.56158294872E-01  0.41999941401E-01  0.84563637997E-02  0.88283025506E+00  0.88000000000E+00 0.  1.
        -11    1    3    3    0    0  0.57684943645E-02 -0.13955159904E-01  0.27812823254E-02  0.15362899061E-01  0.51100000000E-03 0. -1.
         11    1    3    3    0    0  0.77280924754E-01 -0.61738316777E-01  0.64836627312E-02  0.99127494131E-01  0.51100000000E-03 0.  1.
</event>
<event>
 8    1  0.1131349E+005  0.1043930E+01  0.7957747E-01            NaN
         13   -1    0    0    0    0  0.00000000000E+00  0.00000000000E+00  0.74505805969E-08  0.10566000000E+00  0.10566000000E+00 0. -1.
     999900   -1    0    0    0    0 -0.00000000000E+00 -0.00000000000E+00 -0.74505805969E-08  0.93827000000E+00  0.93827000000E+00 0.  1.
     999902    2    1    2    0    0  0.16636449161E-01  0.11644841267E-01  0.42446290944E-02  0.10231841415E+01  0.10229738006E+01 0.  0.
     999903    2    3    3    0    0 -0.62780445205E-01 -0.95535824001E-03 -0.11381480088E+00  0.13166642595E+00  0.20974789937E-01 0.  0.
         14    1    1    2    0    0 -0.16636449161E-01 -0.11644841267E-01 -0.42446290944E-02  0.20745858501E-01  0.00000000000E+00 0.  1.
     999901    1    3    3    0    0  0.79416894366E-01  0.12600199507E-01  0.11805942997E+00  0.89151771555E+00  0.88000000000E+00 0. -1.
        -11    1    4    4    0    0 -0.26928879594E-01 -0.11251668013E-02 -0.29053627501E-01  0.39633381744E-01  0.51100000000E-03 0. -1.
         11    1    4    4    0    0 -0.35851565611E-01  0.16980856125E-03 -0.84761173378E-01  0.92033044202E-01  0.51100000000E-03 0.  1.
</event>
<event>
 8    1  0.1131349E+005  0.1043930E+01  0.7957747E-01            NaN
         13   -1    0    0    0    0  0.00000000000E+00  0.00000000000E+00  0.74505805969E-08  0.10566000000E+00  0.10566000000E+00 0.  1.
     999900   -1    0    0    0    0 -0.00000000000E+00 -0.00000000000E+00 -0.74505805969E-08  0.93827000000E+00  0.93827000000E+00 0.  1.
     999902    2    1    2    0    0  0.82588390630E-02 -0.16843892170E-01 -0.12915023215E-01  0.10211545099E+01  0.10209004898E+01 0.  0.
     999903    2    3    3    0    0 -0.90873497990E-01  0.77138312371E-02  0.89600631082E-01  0.12933627648E+00  0.19547467715E-01 0.  0.
         14    1    1    2    0    0 -0.82588390630E-02  0.16843892170E-01  0.12915023215E-01  0.22775490132E-01  0.00000000000E+00 0.  1.
     999901    1    3    3    0    0  0.99132337053E-01 -0.24557723407E-01 -0.10251565430E+00  0.89181823339E+00  0.88000000000E+00 0.  1.
        -11    1    4    4    0    0 -0.86477852696E-01  0.84267060671E-02  0.89658971959E-01  0.12485359729E+00  0.51100000000E-03 0. -1.
         11    1    4    4    0    0 -0.43956452947E-02 -0.71287482999E-03 -0.58340877291E-04  0.44826791919E-02  0.51100000000E-03 0.  1.
</event>
<event>
 8    1  0.1131349E+005  0.1043930E+01  0.7957747E-01            NaN
         13   -1    0    0    0    0  0.00000000000E+00  0.00000000000E+00  0.74505805969E-08  0.10566000000E+00  0.10566000000E+00 0.  1.
     999900   -1    0    0    0    0 -0.00000000000E+00 -0.00000000000E+00 -0.74505805969E-08  0.93827000000E+00  0.93827000000E+00 0. -1.
     999902    2    1    2    0    0 -0.19021719444E-01 -0.22920472595E-02  0.13334582192E-01  0.10205871130E+01  0.10203201286E+01 0.  0.
     999903    2    3    3    0    0  0.79613191498E-01 -0.24176850078E-01  0.98848877591E-01  0.13068796986E+00  0.19633250472E-01 0.  0.
         14    1    1    2    0    0  0.19021719444E-01  0.22920472595E-02 -0.13334582192E-01  0.23342887000E-01  0.00000000000E+00 0.  1.
     999901    1    3    3    0    0 -0.98634910941E-01  0.21884802818E-01 -0.85514295399E-01  0.88989914314E+00  0.88000000000E+00 0. -1.
        -11    1    4    4    0    0  0.65887760884E-01 -0.27412263040E-01  0.81676578241E-01  0.10846176171E+00  0.51100000000E-03 0. -1.
         11    1    4    4    0    0  0.13725430613E-01  0.32354129622E-02  0.17172299349E-01  0.22226208145E-01  0.51100000000E-03 0.  1.
</event>
<event>
 8    1  0.1131349E+005  0.1043930E+01  0.7957747E-01            NaN
         13   -1    0    0    0    0  0.00000000000E+00  0.00000000000E+00  0.74505805969E-08  0.10566000000E+00  0.10566000000E+00 0.  1.
     999900   -1    0    0    0    0 -0.00000000000E+00 -0.00000000000E+00 -0.74505805969E-08  0.93827000000E+00  0.93827000000E+00 0.  1.
     999902    2    1    2    0    0  0.43256693357E-02  0.19547488834E-01  0.12055162657E-01  0.10205603042E+01  0.10202926991E+01 0.  0.
     999903    2    3    3    0    0  0.35840785087E-01 -0.23581658502E-01 -0.11964143033E+00  0.12915842039E+00  0.22960165774E-01 0.  0.
         14    1    1    2    0    0 -0.43256693357E-02 -0.19547488834E-01 -0.12055162657E-01  0.23369695796E-01  0.00000000000E+00 0.  1.
     999901    1    3    3    0    0 -0.31515115751E-01  0.43129147335E-01  0.13169659298E+00  0.89140188382E+00  0.88000000000E+00 0. -1.
        -11    1    4    4    0    0 -0.93746051588E-03 -0.59700280013E-02 -0.30977311299E-01  0.31565408327E-01  0.51100000000E-03 0. -1.
         11    1    4    4    0    0  0.36778245603E-01 -0.17611630500E-01 -0.88664119029E-01  0.97593012059E-01  0.51100000000E-03 0.  1.
</event>
<event>
 8    1  0.1131349E+005  0.1043930E+01  0.7957747E-01            NaN
         13   -1    0    0    0    0  0.00000000000E+00  0.00000000000E+00  0.74505805969E-08  0.10566000000E+00  0.10566000000E+00 0. -1.
     999900   -1    0    0    0    0 -0.00000000000E+00 -0.00000000000E+00 -0.74505805969E-08  0.93827000000E+00  0.93827000000E+00 0.  1.
     999902    2    1    2    0    0  0.32613227914E-02 -0.20290663814E-01 -0.11149739178E-01  0.10205491542E+01  0.10202812908E+01 0.  0.
     999903    2    3    3    0    0 -0.25850996106E-01  0.73421859331E-01 -0.10261499380E+00  0.13038318270E+00  0.20270519223E-01 0.  0.
         14    1    1    2    0    0 -0.32613227914E-02  0.20290663814E-01  0.11149739178E-01  0.23380845752E-01  0.00000000000E+00 0. -1.
     999901    1    3    3    0    0  0.29112318898E-01 -0.93712523144E-01  0.91465254625E-01  0.89016597155E+00  0.88000000000E+00 0. -1.
        -11    1    4    4    0    0 -0.32860470994E-02  0.15797241218E-01 -0.99865161799E-02  0.18982691117E-01  0.51100000000E-03 0.  1.
         11    1    4    4    0    0 -0.22564949007E-01  0.57624618113E-01 -0.92628477623E-01  0.11140049158E+00  0.51100000000E-03 0. -1.
</event>
<event>
 8    1  0.1131349E+005  0.1043930E+01  0.7957747E-01            NaN
         13   -1    0    0    0    0  0.00000000000E+00  0.00000000000E+00  0.74505805969E-08  0.10566000000E+00  0.10566000000E+00 0. -1.
     999900   -1    0    0    0    0 -0.00000000000E+00 -0.00000000000E+00 -0.74505805969E-08  0.93827000000E+00  0.93827000000E+00 0.  1.
     999902    2    1    2    0    0 -0.21432648237E-01 -0.26291841537E-02  0.86237437085E-02  0.10206783339E+01  0.10204134561E+01 0.  0.
     999903    2    3    3    0    0  0.41917024243E-01 -0.60410307088E-01  0.10656346249E+00  0.13110313885E+00  0.20635390847E-01 0.  0.
         14    1    1    2    0    0  0.21432648237E-01  0.26291841537E-02 -0.86237437085E-02  0.23251666076E-01  0.00000000000E+00 0. -1.
     999901    1    3    3    0    0 -0.63349672480E-01  0.57781122934E-01 -0.97939718782E-01  0.88957519507E+00  0.88000000000E+00 0.  1.
        -11    1    4    4    0    0  0.33620024401E-01 -0.35761155639E-01  0.57761984312E-01  0.75801545142E-01  0.51100000000E-03 0.  1.
         11    1    4    4    0    0  0.82969998418E-02 -0.24649151449E-01  0.48801478178E-01  0.55301593711E-01  0.51100000000E-03 0. -1.
</event>
<event>
 8    1  0.1131349E+005  0.1043930E+01  0.7957747E-01            NaN
         13   -1    0    0    0    0  0.00000000000E+00  0.00000000000E+00  0.74505805969E-08  0.10566000000E+00  0.10566000000E+00 0.  1.
     999900   -1    0    0    0    0 -0.00000000000E+00 -0.00000000000E+00 -0.74505805969E-08  0.93827000000E+00  0.93827000000E+00 0. -1.
     999902    2    1    2    0    0  0.21548918958E-01  0.11026847333E-01 -0.31100319490E-02  0.10195246815E+01  0.10192325332E+01 0.  0.
     999903    2    3    3    0    0  0.10031312717E+00 -0.46559514248E-01 -0.69097309530E-01  0.13167654681E+00  0.18269180261E-01 0.  0.
         14    1    1    2    0    0 -0.21548918958E-01 -0.11026847333E-01  0.31100319490E-02  0.24405318459E-01  0.00000000000E+00 0. -1.
     999901    1    3    3    0    0 -0.78764208211E-01  0.57586361581E-01  0.65987277581E-01  0.88784813473E+00  0.88000000000E+00 0. -1.
        -11    1    4    4    0    0  0.36024189878E-01 -0.76569403833E-02 -0.25531962573E-01  0.44816439241E-01  0.51100000000E-03 0.  1.
         11    1    4    4    0    0  0.64288937291E-01 -0.38902573865E-01 -0.43565346957E-01  0.86860107574E-01  0.51100000000E-03 0. -1.
</event>
<event>
 8    1  0.1131349E+005  0.1043930E+01  0.7957747E-01            NaN
         13   -1    0    0    0    0  0.00000000000E+00  0.00000000000E+00  0.74505805969E-08  0.10566000000E+00  0.10566000000E+00 0. -1.
     999900   -1    0    0    0    0 -0.00000000000E+00 -0.00000000000E+00 -0.74505805969E-08  0.93827000000E+00  0.93827000000E+00 0. -1.
     999902    2    1    2    0    0 -0.35731266200E-02  0.15957077501E-01 -0.13400039501E-01  0.10227886515E+01  0.10225701292E+01 0.  0.
     999903    2    3    3    0    0 -0.12978850851E+00  0.92019310351E-02  0.20745344989E-01  0.13310226752E+00  0.18870924843E-01 0.  0.
         14    1    1    2    0    0  0.35731266200E-02 -0.15957077501E-01  0.13400039501E-01  0.21141348463E-01  0.00000000000E+00 0. -1.
     999901    1    3    3    0    0  0.12621538189E+00  0.67551464658E-02 -0.34145384490E-01  0.88968638402E+00  0.88000000000E+00 0. -1.
        -11    1    4    4    0    0 -0.31801621543E-01 -0.37901129693E-02  0.10590971562E-01  0.33736299274E-01  0.51100000000E-03 0.  1.
         11    1    4    4    0    0 -0.97986886963E-01  0.12992044004E-01  0.10154373427E-01  0.99365968243E-01  0.51100000000E-03 0. -1.
</event>
<event>
 8    1  0.1131349E+005  0.1043930E+01  0.7957747E-01            NaN
         13   -1    0    0    0    0  0.00000000000E+00  0.00000000000E+00  0.74505805969E-08  0.10566000000E+00  0.10566000000E+00 0. -1.
     999900   -1    0    0    0    0 -0.00000000000E+00 -0.00000000000E+00 -0.74505805969E-08  0.93827000000E+00  0.93827000000E+00 0. -1.
     999902    2    1    2    0    0 -0.66793154468E-02 -0.17162964352E-01  0.12395155519E-01  0.10217304396E+01  0.10214892416E+01 0.  0.
     999903    2    3    3    0    0 -0.64610202759E-02 -0.51308750288E-02  0.13170457441E+00  0.13359781651E+00  0.20837730044E-01 0.  0.
         14    1    1    2    0    0  0.66793154468E-02  0.17162964352E-01 -0.12395155519E-01  0.22199560368E-01  0.00000000000E+00 0.  1.
     999901    1    3    3    0    0 -0.21829517091E-03 -0.12032089323E-01 -0.11930941889E+00  0.88813262313E+00  0.88000000000E+00 0. -1.
        -11    1    4    4    0    0 -0.70790970181E-02 -0.13373681604E-02  0.13339312094E-01  0.15169065111E-01  0.51100000000E-03 0. -1.
         11    1    4    4    0    0  0.61807674220E-03 -0.37935068684E-02  0.11836526231E+00  0.11842875139E+00  0.51100000000E-03 0.  1.
</event>
<event>
 8    1  0.1131349E+005  0.1043930E+01  0.7957747E-01            NaN
         13   -1    0    0    0    0  0.00000000000E+00  0.00000000000E+00  0.74505805969E-08  0.10566000000E+00  0.10566000000E+00 0. -1.
     999900   -1    0    0    0    0 -0.00000000000E+00 -0.00000000000E+00 -0.74505805969E-08  0.93827000000E+00  0.93827000000E+00 0.  1.
     999902    2    1    2    0    0  0.19946600044E-01 -0.11924344991E-01  0.15140675690E-02  0.10206416068E+01  0.10203758819E+01 0.  0.
     999903    2    3    3    0    0 -0.11593471585E+00 -0.47432498848E-01 -0.24223279391E-01  0.12913334996E+00  0.19948797465E-01 0.  0.
         14    1    1    2    0    0 -0.19946600044E-01  0.11924344991E-01 -0.15140675690E-02  0.23288393191E-01  0.00000000000E+00 0.  1.
     999901    1    3    3    0    0  0.13588131590E+00  0.35508153857E-01  0.25737346960E-01  0.89150825685E+00  0.88000000000E+00 0.  1.
        -11    1    4    4    0    0 -0.59980278286E-01 -0.14359787924E-01 -0.85140464362E-02  0.62262246990E-01  0.51100000000E-03 0.  1.
         11    1    4    4    0    0 -0.55954437568E-01 -0.33072710924E-01 -0.15709232954E-01  0.66871102971E-01  0.51100000000E-03 0. -1.
</event>
<event>
 8    1  0.1131349E+005  0.1043930E+01  0.7957747E-01            NaN
         13   -1    0    0    0    0  0.00000000000E+00  0.00000000000E+00  0.74505805969E-08  0.10566000000E+00  0.10566000000E+00 0.  1.
     999900   -1    0    0    0    0 -0.00000000000E+00 -0.00000000000E+00 -0.74505805969E-08  0.93827000000E+00  0.93827000000E+00 0.  1.
     999902    2    1    2    0    0  0.56327747569E-02 -0.12946943449E-01  0.19651402535E-01  0.10197322911E+01  0.10194451512E+01 0.  0.
     999903    2    3    3    0    0  0.87658997786E-01 -0.42449283666E-01  0.87982061564E-01  0.13278935699E+00  0.20152632485E-01 0.  0.
         14    1    1    2    0    0 -0.56327747569E-02  0.12946943449E-01 -0.19651402535E-01  0.24197708935E-01  0.00000000000E+00 0. -1.
     999901    1    3    3    0    0 -0.82026223029E-01  0.29502340217E-01 -0.68330659029E-01  0.88694293408E+00  0.88000000000E+00 0.  1.
        -11    1    4    4    0    0  0.34629587984E-01 -0.68043543822E-02  0.36022030200E-01  0.50431690267E-01  0.51100000000E-03 0.  1.
         11    1    4    4    0    0  0.53029409802E-01 -0.35644929284E-01  0.51960031364E-01  0.82357666722E-01  0.51100000000E-03 0. -1.
</event>
<event>
 8    1  0.1131349E+005  0.1043930E+01  0.7957747E-01            NaN
         13   -1    0    0    0    0  0.00000000000E+00  0.00000000000E+00  0.74505805969E-08  0.10566000000E+00  0.10566000000E+00 0.  1.
     999900   -1    0    0    0    0 -0.00000000000E+00 -0.00000000000E+00 -0.74505805969E-08  0.93827000000E+00  0.93827000000E+00 0.  1.
     999902    2    1    2    0    0  0.74380017758E-02  0.13378503165E-01  0.18459524258E-01  0.10199495443E+01  0.10196675982E+01 0.  0.
     999903    2    3    3    0    0  0.12436668796E+00  0.36301550613E-01 -0.92560781371E-02  0.13148686175E+00  0.20451018992E-01 0.  0.
         14    1    1    2    0    0 -0.74380017758E-02 -0.13378503165E-01 -0.18459524258E-01  0.23980455650E-01  0.00000000000E+00 0. -1.
     999901    1    3    3    0    0 -0.11692868619E+00 -0.22923047448E-01  0.27715602395E-01  0.88846268260E+00  0.88000000000E+00 0. -1.
        -11    1    4    4    0    0  0.70531609992E-01  0.26694279829E-01  0.28706627939E-02  0.75470487010E-01  0.51100000000E-03 0.  1.
         11    1    4    4    0    0  0.53835077973E-01  0.96072707838E-02 -0.12126740931E-01  0.56016374739E-01  0.51100000000E-03 0. -1.
</event>
<event>
 8    1  0.1131349E+005  0.1043930E+01  0.7957747E-01            NaN
         13   -1    0    0    0    0  0.00000000000E+00  0.00000000000E+00  0.74505805969E-08  0.10566000000E+00  0.10566000000E+00 0.  1.
     999900   -1    0    0    0    0 -0.00000000000E+00 -0.00000000000E+00 -0.74505805969E-08  0.93827000000E+00  0.93827000000E+00 0.  1.
     999902    2    1    2    0    0  0.28360842572E-01  0.20518625961E-01 -0.14123688855E-01  0.10061830797E+01  0.10054747933E+01 0.  0.
     999903    2    3    3    0    0 -0.66633412466E-01  0.81851581079E-01 -0.49201267580E-01  0.11825511171E+00  0.20586736793E-01 0.  0.
         14    1    1    2    0    0 -0.28360842572E-01 -0.20518625961E-01  0.14123688855E-01  0.37746920266E-01  0.00000000000E+00 0.  1.
     999901    1    3    3    0    0  0.94994255037E-01 -0.61332955117E-01  0.35077578725E-01  0.88792796803E+00  0.88000000000E+00 0.  1.
        -11    1    4    4    0    0 -0.31133108320E-01  0.32339031274E-01 -0.31390601354E-01  0.54778776472E-01  0.51100000000E-03 0.  1.
         11    1    4    4    0    0 -0.35500304146E-01  0.49512549805E-01 -0.17810666225E-01  0.63476335236E-01  0.51100000000E-03 0. -1.
</event>
<event>
 8    1  0.1131349E+005  0.1043930E+01  0.7957747E-01            NaN
         13   -1    0    0    0    0  0.00000000000E+00  0.00000000000E+00  0.74505805969E-08  0.10566000000E+00  0.10566000000E+00 0. -1.
     999900   -1    0    0    0    0 -0.00000000000E+00 -0.00000000000E+00 -0.74505805969E-08  0.93827000000E+00  0.93827000000E+00 0. -1.
     999902    2    1    2    0    0 -0.62180407205E-02 -0.92274571407E-02  0.21397035338E-01  0.10198127216E+01  0.10195275102E+01 0.  0.
     999903    2    3    3    0    0  0.32366855822E-01  0.11990682701E+00 -0.25451103613E-01  0.12832003756E+00  0.19824551582E-01 0.  0.
         14    1    1    2    0    0  0.62180407205E-02  0.92274571407E-02 -0.21397035338E-01  0.24117278390E-01  0.00000000000E+00 0.  1.
     999901    1    3    3    0    0 -0.38584896542E-01 -0.12913428415E+00  0.46848138950E-01  0.89149268405E+00  0.88000000000E+00 0.  1.
        -11    1    4    4    0    0  0.26970249052E-01  0.93434618480E-01 -0.27938700627E-01  0.10118425954E+00  0.51100000000E-03 0.  1.
         11    1    4    4    0    0  0.53966067696E-02  0.26472208532E-01  0.24875970144E-02  0.27135778026E-01  0.51100000000E-03 0. -1.
</event>
<event>
 8    1  0.1131349E+005  0.1043930E+01  0.7957747E-01            NaN
         13   -1    0    0    0    0  0.00000000000E+00  0.00000000000E+00  0.74505805969E-08  0.10566000000E+00  0.10566000000E+00 0. -1.
     999900   -1    0    0    0    0 -0.00000000000E+00 -0.00000000000E+00 -0.74505805969E-08  0.93827000000E+00  0.93827000000E+00 0. -1.
     999902    2    1    2    0    0  0.54070209142E-02  0.21595238439E-01  0.50477300911E-02  0.10211030471E+01  0.10208478648E+01 0.  0.
     999903    2    3    3    0    0  0.60823032981E-01  0.76718832706E-01 -0.87222303516E-01  0.13283320967E+00  0.21253487409E-01 0.  0.
         14    1    1    2    0    0 -0.54070209142E-02 -0.21595238439E-01 -0.50477300911E-02  0.22826952873E-01  0.00000000000E+00 0.  1.
     999901    1    3    3    0    0 -0.55416012067E-01 -0.55123594267E-01  0.92270033607E-01  0.88826983746E+00  0.88000000000E+00 0.  1.
        -11    1    4    4    0    0  0.23941027908E-01  0.33693954795E-01 -0.23475118487E-01  0.47537329710E-01  0.51100000000E-03 0.  1.
         11    1    4    4    0    0  0.36882005073E-01  0.43024877912E-01 -0.63747185029E-01  0.85295879957E-01  0.51100000000E-03 0. -1.
</event>
<event>
 8    1  0.1131349E+005  0.1043930E+01  0.7957747E-01            NaN
         13   -1    0    0    0    0  0.00000000000E+00  0.00000000000E+00  0.74505805969E-08  0.10566000000E+00  0.10566000000E+00 0.  1.
     999900   -1    0    0    0    0 -0.00000000000E+00 -0.00000000000E+00 -0.74505805969E-08  0.93827000000E+00  0.93827000000E+00 0. -1.
     999902    2    1    2    0    0  0.10202941318E-01 -0.13636363953E-01  0.17031876771E-01  0.10198440028E+01  0.10195595396E+01 0.  0.
     999903    2    3    3    0    0  0.42669842814E-01 -0.70687847750E-01 -0.98106400225E-01  0.12991940247E+00  0.20897322018E-01 0.  0.
         14    1    1    2    0    0 -0.10202941318E-01  0.13636363953E-01 -0.17031876771E-01  0.24085997171E-01  0.00000000000E+00 0. -1.
     999901    1    3    3    0    0 -0.32466901496E-01  0.57051483797E-01  0.11513827700E+00  0.88992460036E+00  0.88000000000E+00 0.  1.
        -11    1    4    4    0    0  0.30830928042E-01 -0.50686413313E-01 -0.54787545481E-01  0.80756392189E-01  0.51100000000E-03 0. -1.
         11    1    4    4    0    0  0.11838914772E-01 -0.20001434436E-01 -0.43318854744E-01  0.49163010280E-01  0.51100000000E-03 0.  1.
</event>
<event>
 8    1  0.1131349E+005  0.1043930E+01  0.7957747E-01            NaN
         13   -1    0    0    0    0  0.00000000000E+00  0.00000000000E+00  0.74505805969E-08  0.10566000000E+00  0.10566000000E+00 0. -1.
     999900   -1    0    0    0    0 -0.00000000000E+00 -0.00000000000E+00 -0.74505805969E-08  0.93827000000E+00  0.93827000000E+00 0.  1.
     999902    2    1    2    0    0  0.10779764047E-01  0.13111166899E-01  0.16247059476E-01  0.10204337673E+01  0.10201632225E+01 0.  0.
     999903    2    3    3    0    0  0.74713307772E-01  0.33132233935E-01  0.10393298657E+00  0.13354191201E+00  0.18749754172E-01 0.  0.
         14    1    1    2    0    0 -0.10779764047E-01 -0.13111166899E-01 -0.16247059476E-01  0.23496232718E-01  0.00000000000E+00 0.  1.
     999901    1    3    3    0    0 -0.63933543726E-01 -0.20021067037E-01 -0.87685927095E-01  0.88689185527E+00  0.88000000000E+00 0.  1.
        -11    1    4    4    0    0  0.61688959092E-01  0.18827422866E-01  0.79725733939E-01  0.10254976011E+00  0.51100000000E-03 0.  1.
         11    1    4    4    0    0  0.13024348680E-01  0.14304811069E-01  0.24207252632E-01  0.30992151898E-01  0.51100000000E-03 0. -1.
</event>
<event>
 8    1  0.1131349E+005  0.1043930E+01  0.7957747E-01            NaN
         13   -1    0    0    0    0  0.00000000000E+00  0.00000000000E+00  0.74505805969E-08  0.10566000000E+00  0.10566000000E+00 0.  1.
     999900   -1    0    0    0    0 -0.00000000000E+00 -0.00000000000E+00 -0.74505805969E-08  0.93827000000E+00  0.93827000000E+00 0. -1.
     999902    2    1    2    0    0 -0.12423037638E-01 -0.19296542102E-01 -0.51736563488E-02  0.10204043731E+01  0.10201331430E+01 0.  0.
     999903    2    3    3    0    0 -0.12918048125E+00  0.17525868633E-01 -0.32706449668E-02  0.13192712970E+00  0.19982933367E-01 0.  0.
         14    1    1    2    0    0  0.12423037638E-01  0.19296542102E-01  0.51736563488E-02  0.23525626905E-01  0.00000000000E+00 0.  1.
     999901    1    3    3    0    0  0.11675744361E+00 -0.36822410735E-01 -0.19030113820E-02  0.88847724339E+00  0.88000000000E+00 0. -1.
        -11    1    4    4    0    0 -0.59926059671E-01  0.16372058345E-01  0.41616247264E-02  0.62263610267E-01  0.51100000000E-03 0. -1.
         11    1    4    4    0    0 -0.69254421580E-01  0.11538102877E-02 -0.74322696932E-02  0.69663519437E-01  0.51100000000E-03 0.  1.
</event>
<event>
 8    1  0.1131349E+005  0.1043930E+01  0.7957747E-01            NaN
         13   -1    0    0    0    0  0.00000000000E+00  0.00000000000E+00  0.74505805969E-08  0.10566000000E+00  0.10566000000E+00 0. -1.
     999900   -1    0    0    0    0 -0.00000000000E+00 -0.00000000000E+00 -0.74505805969E-08  0.93827000000E+00  0.93827000000E+00 0. -1.
     999902    2    1    2    0    0  0.17993209444E-01  0.13755240504E-01  0.55012409985E-02  0.10206227934E+01  0.10203566340E+01 0.  0.
     999903    2    3    3    0    0  0.65170389798E-01  0.31722849182E-01 -0.10832406195E+00  0.13185695196E+00  0.19965833696E-01 0.  0.
         14    1    1    2    0    0 -0.17993209444E-01 -0.13755240504E-01 -0.55012409985E-02  0.23307206610E-01  0.00000000000E+00 0.  1.
     999901    1    3    3    0    0 -0.47177180354E-01 -0.17967608678E-01  0.11382530295E+00  0.88876584143E+00  0.88000000000E+00 0.  1.
        -11    1    4    4    0    0  0.50787099513E-01  0.32984378735E-01 -0.90835577012E-01  0.10917262427E+00  0.51100000000E-03 0.  1.
         11    1    4    4    0    0  0.14383290285E-01 -0.12615295529E-02 -0.17488484939E-01  0.22684327689E-01  0.51100000000E-03 0. -1.
</event>
<event>
 8    1  0.1131349E+005  0.1043930E+01  0.7957747E-01            NaN
         13   -1    0    0    0    0  0.00000000000E+00  0.00000000000E+00  0.74505805969E-08  0.10566000000E+00  0.10566000000E+00 0.  1.
     999900   -1    0    0    0    0 -0.00000000000E+00 -0.00000000000E+00 -0.74505805969E-08  0.93827000000E+00  0.93827000000E+00 0.  1.
     999902    2    1    2    0    0 -0.10644489403E-01 -0.16051857384E-01 -0.13664350828E-01  0.10203147133E+01  0.10200413876E+01 0.  0.
     999903    2    3    3    0    0  0.10137664965E+00 -0.80164214196E-01  0.38014243626E-02  0.13072818962E+00  0.19284252694E-01 0.  0.
         14    1    1    2    0    0  0.10644489403E-01  0.16051857384E-01  0.13664350828E-01  0.23615286653E-01  0.00000000000E+00 0.  1.
     999901    1    3    3    0    0 -0.11202113906E+00  0.64112356812E-01 -0.17465775191E-01  0.88958652373E+00  0.88000000000E+00 0. -1.
        -11    1    4    4    0    0  0.66035277434E-01 -0.41210283584E-01 -0.15587972956E-02  0.77856511024E-01  0.51100000000E-03 0.  1.
         11    1    4    4    0    0  0.35341372219E-01 -0.38953930612E-01  0.53602216582E-02  0.52871678597E-01  0.51100000000E-03 0. -1.
</event>
<event>
 8    1  0.1131349E+005  0.1043930E+01  0.7957747E-01            NaN
         13   -1    0    0    0    0  0.00000000000E+00  0.00000000000E+00  0.74505805969E-08  0.10566000000E+00  0.10566000000E+00 0. -1.
     999900   -1    0    0    0    0 -0.00000000000E+00 -0.00000000000E+00 -0.74505805969E-08  0.93827000000E+00  0.93827000000E+00 0. -1.
     999902    2    1    2    0    0  0.39676705417E-02  0.20198233927E-01  0.11714075320E-01  0.10202460260E+01  0.10199710893E+01 0.  0.
     999903    2    3    3    0    0 -0.39031489551E-01  0.11966799997E+00  0.39998686674E-01  0.13314784578E+00  0.16869099169E-01 0.  0.
         14    1    1    2    0    0 -0.39676705417E-02 -0.20198233927E-01 -0.11714075320E-01  0.23683973989E-01  0.00000000000E+00 0.  1.
     999901    1    3    3    0    0  0.42999160093E-01 -0.99469766046E-01 -0.28284611354E-01  0.88709818023E+00  0.88000000000E+00 0. -1.
        -11    1    4    4    0    0 -0.30308205656E-01  0.88695285066E-01  0.37201667854E-01  0.10084476256E+00  0.51100000000E-03 0.  1.
         11    1    4    4    0    0 -0.87232838954E-02  0.30972714907E-01  0.27970188207E-02  0.32303083226E-01  0.51100000000E-03 0. -1.
</event>
<event>
 8    1  0.1131349E+005  0.1043930E+01  0.7957747E-01            NaN
         13   -1    0    0    0    0  0.00000000000E+00  0.00000000000E+00  0.74505805969E-08  0.10566000000E+00  0.10566000000E+00 0. -1.
     999900   -1    0    0    0    0 -0.00000000000E+00 -0.00000000000E+00 -0.74505805969E-08  0.93827000000E+00  0.93827000000E+00 0.  1.
     999902    2    1    2    0    0  0.28712148444E-02  0.32222224605E-03  0.24375682583E-01  0.10193836845E+01  0.10190881094E+01 0.  0.
     999903    2    3    3    0    0  0.45686710212E-01 -0.42245425221E-01  0.11537354311E+00  0.13263356083E+00  0.20215231073E-01 0.  0.
         14    1    1    2    0    0 -0.28712148444E-02 -0.32222224605E-03 -0.24375682583E-01  0.24546315472E-01  0.00000000000E+00 0.  1.
     999901    1    3    3    0    0 -0.42815495368E-01  0.42567647467E-01 -0.90997860526E-01  0.88675012370E+00  0.88000000000E+00 0.  1.
        -11    1    4    4    0    0  0.21965069395E-01 -0.17662256237E-01  0.32671957538E-01  0.43152491229E-01  0.51100000000E-03 0. -1.
         11    1    4    4    0    0  0.23721640818E-01 -0.24583168984E-01  0.82701585571E-01  0.89481069603E-01  0.51100000000E-03 0.  1.
</event>
<event>
 8    1  0.1131349E+005  0.1043930E+01  0.7957747E-01            NaN
         13   -1    0    0    0    0  0.00000000000E+00  0.00000000000E+00  0.74505805969E-08  0.10566000000E+00  0.10566000000E+00 0. -1.
     999900   -1    0    0    0    0 -0.00000000000E+00 -0.00000000000E+00 -0.74505805969E-08  0.93827000000E+00  0.93827000000E+00 0. -1.
     999902    2    1    2    0    0 -0.17101457476E-01  0.47239523210E-02 -0.15346843693E-01  0.10204715008E+01  0.10202018343E+01 0.  0.
     999903    2    3    3    0    0  0.99175556032E-01 -0.63930265153E-01 -0.49143015063E-01  0.12953046648E+00  0.20981804000E-01 0.  0.
         14    1    1    2    0    0  0.17101457476E-01 -0.47239523210E-02  0.15346843693E-01  0.23458499198E-01  0.00000000000E+00 0. -1.
     999901    1    3    3    0    0 -0.11627701351E+00  0.68654217474E-01  0.33796171370E-01  0.89094103433E+00  0.88000000000E+00 0.  1.
        -11    1    4    4    0    0  0.20257335093E-01 -0.23389112485E-01 -0.96689962096E-02  0.32421610334E-01  0.51100000000E-03 0.  1.
         11    1    4    4    0    0  0.78918220938E-01 -0.40541152668E-01 -0.39474018853E-01  0.97108856142E-01  0.51100000000E-03 0. -1.
</event>
<event>
 8    1  0.1131349E+005  0.1043930E+01  0.7957747E-01            NaN
         13   -1    0    0    0    0  0.00000000000E+00  0.00000000000E+00  0.74505805969E-08  0.10566000000E+00  0.10566000000E+00 0.  1.
     999900   -1    0    0    0    0 -0.00000000000E+00 -0.00000000000E+00 -0.74505805969E-08  0.93827000000E+00  0.93827000000E+00 0. -1.
     999902    2    1    2    0    0  0.18699536968E-01  0.13566718576E-01 -0.11126741947E-02  0.10208006554E+01  0.10205385890E+01 0.  0.
     999903    2    3    3    0    0  0.46800883043E-01  0.11327059763E+00 -0.48790990749E-01  0.13344290852E+00  0.20146913325E-01 0.  0.
         14    1    1    2    0    0 -0.18699536968E-01 -0.13566718576E-01  0.11126741947E-02  0.23129344556E-01  0.00000000000E+00 0. -1.
     999901    1    3    3    0    0 -0.28101346074E-01 -0.99703879052E-01  0.47678316554E-01  0.88735774692E+00  0.88000000000E+00 0.  1.
        -11    1    4    4    0    0  0.56610169261E-02  0.25425762530E-01 -0.18015766189E-01  0.31675628885E-01  0.51100000000E-03 0.  1.
         11    1    4    4    0    0  0.41139866116E-01  0.87844835097E-01 -0.30775224560E-01  0.10176727964E+00  0.51100000000E-03 0. -1.
</event>
<event>
 8    1  0.1131349E+005  0.1043930E+01  0.7957747E-01            NaN
         13   -1    0    0    0    0  0.00000000000E+00  0.00000000000E+00  0.74505805969E-08  0.10566000000E+00  0.10566000000E+00 0. -1.
     999900   -1    0    0    0    0 -0.00000000000E+00 -0.00000000000E+00 -0.74505805969E-08  0.93827000000E+00  0.93827000000E+00 0.  1.
     999902    2    1    2    0    0  0.11030313747E-01 -0.25687175641E-02 -0.20884538546E-01  0.10201722627E+01  0.10198955905E+01 0.  0.
     999903    2    3    3    0    0  0.67274648213E-01 -0.99856291533E-01  0.46114592175E-01  0.13049974951E+00  0.20161144815E-01 0.  0.
         14    1    1    2    0    0 -0.11030313747E-01  0.25687175641E-02  0.20884538546E-01  0.23757737299E-01  0.00000000000E+00 0. -1.
     999901    1    3    3    0    0 -0.56244334465E-01  0.97287573969E-01 -0.66999130721E-01  0.88967251319E+00  0.88000000000E+00 0.  1.
        -11    1    4    4    0    0  0.79949319907E-02 -0.26878607290E-01  0.11354052194E-01  0.30258124357E-01  0.51100000000E-03 0.  1.
         11    1    4    4    0    0  0.59279716222E-01 -0.72977684243E-01  0.34760539980E-01  0.10024162515E+00  0.51100000000E-03 0. -1.
</event>
<event>
 8    1  0.1131349E+005  0.1043930E+01  0.7957747E-01            NaN
         13   -1    0    0    0    0  0.00000000000E+00  0.00000000000E+00  0.74505805969E-08  0.10566000000E+00  0.10566000000E+00 0. -1.
     999900   -1    0    0    0    0 -0.00000000000E+00 -0.00000000000E+00 -0.74505805969E-08  0.93827000000E+00  0.93827000000E+00 0. -1.
     999902    2    1    2    0    0  0.15108030245E-01  0.14801272033E-01 -0.11101306057E-01  0.10200434090E+01  0.10197636918E+01 0.  0.
     999903    2    3    3    0    0 -0.40571925889E-01  0.77415954661E-01  0.93954489234E-01  0.12984254624E+00  0.19807310797E-01 0.  0.
         14    1    1    2    0    0 -0.15108030245E-01 -0.14801272033E-01  0.11101306057E-01  0.23886590963E-01  0.00000000000E+00 0. -1.
     999901    1    3    3    0    0  0.55679956134E-01 -0.62614682629E-01 -0.10505579529E+00  0.89020086279E+00  0.88000000000E+00 0. -1.
        -11    1    4    4    0    0 -0.21487848800E-01  0.44461337277E-01  0.38735075826E-01  0.62763089302E-01  0.51100000000E-03 0. -1.
         11    1    4    4    0    0 -0.19084077089E-01  0.32954617385E-01  0.55219413408E-01  0.67079456940E-01  0.51100000000E-03 0.  1.
</event>
<event>
 8    1  0.1131349E+005  0.1043930E+01  0.7957747E-01            NaN
         13   -1    0    0    0    0  0.00000000000E+00  0.00000000000E+00  0.74505805969E-08  0.10566000000E+00  0.10566000000E+00 0. -1.
     999900   -1    0    0    0    0 -0.00000000000E+00 -0.00000000000E+00 -0.74505805969E-08  0.93827000000E+00  0.93827000000E+00 0. -1.
     999902    2    1    2    0    0 -0.18112561169E-01  0.16307936150E-01  0.48905651495E-03  0.10195526985E+01  0.10192612286E+01 0.  0.
     999903    2    3    3    0    0  0.59695891677E-01 -0.32875115179E-01 -0.10691741583E+00  0.12825629537E+00  0.19338324982E-01 0.  0.
         14    1    1    2    0    0  0.18112561169E-01 -0.16307936150E-01 -0.48905651495E-03  0.24377301529E-01  0.00000000000E+00 0.  1.
     999901    1    3    3    0    0 -0.77808452846E-01  0.49183051329E-01  0.10740647235E+00  0.89129640310E+00  0.88000000000E+00 0.  1.
        -11    1    4    4    0    0  0.29474851983E-01 -0.24862428513E-01 -0.69602363760E-01  0.79571712391E-01  0.51100000000E-03 0. -1.
         11    1    4    4    0    0  0.30221039694E-01 -0.80126866660E-02 -0.37315052074E-01  0.48684582982E-01  0.51100000000E-03 0.  1.
</event>
<event>
 8    1  0.1131349E+005  0.1043930E+01  0.7957747E-01            NaN
         13   -1    0    0    0    0  0.00000000000E+00  0.00000000000E+00  0.74505805969E-08  0.10566000000E+00  0.10566000000E+00 0. -1.
     999900   -1    0    0    0    0 -0.00000000000E+00 -0.00000000000E+00 -0.74505805969E-08  0.93827000000E+00  0.93827000000E+00 0. -1.
     999902    2    1    2    0    0  0.61038276175E-02  0.18086328347E-01 -0.14084803280E-01  0.10202075704E+01  0.10199317296E+01 0.  0.
     999903    2    3    3    0    0 -0.10019827759E+00 -0.31719167872E-01 -0.74374200013E-01  0.13036739573E+00  0.20453258903E-01 0.  0.
         14    1    1    2    0    0 -0.61038276175E-02 -0.18086328347E-01  0.14084803280E-01  0.23722429642E-01  0.00000000000E+00 0. -1.
     999901    1    3    3    0    0  0.10630210521E+00  0.49805496219E-01  0.60289396733E-01  0.88984017463E+00  0.88000000000E+00 0.  1.
        -11    1    4    4    0    0 -0.26877109279E-01 -0.84564001169E-03 -0.25089902246E-01  0.36781223823E-01  0.51100000000E-03 0.  1.
         11    1    4    4    0    0 -0.73321168309E-01 -0.30873527860E-01 -0.49284297767E-01  0.93586171906E-01  0.51100000000E-03 0. -1.
</event>
<event>
 8    1  0.1131349E+005  0.1043930E+01  0.7957747E-01            NaN
         13   -1    0    0    0    0  0.00000000000E+00  0.00000000000E+00  0.74505805969E-08  0.10566000000E+00  0.10566000000E+00 0.  1.
     999900   -1    0    0    0    0 -0.00000000000E+00 -0.00000000000E+00 -0.74505805969E-08  0.93827000000E+00  0.93827000000E+00 0. -1.
     999902    2    1    2    0    0  0.64688748738E-02 -0.21012594991E-01 -0.87541344698E-02  0.10202654620E+01  0.10199909816E+01 0.  0.
     999903    2    3    3    0    0  0.73914574063E-01  0.97770065125E-02 -0.10649743793E+00  0.13175509327E+00  0.21418361302E-01 0.  0.
         14    1    1    2    0    0 -0.64688748738E-02  0.21012594991E-01  0.87541344698E-02  0.23664538041E-01  0.00000000000E+00 0. -1.
     999901    1    3    3    0    0 -0.67445699190E-01 -0.30789601503E-01  0.97743303461E-01  0.88851036869E+00  0.88000000000E+00 0.  1.
        -11    1    4    4    0    0  0.68906852206E-01  0.14295914732E-01 -0.92690079361E-01  0.11637972071E+00  0.51100000000E-03 0.  1.
         11    1    4    4    0    0  0.50077218576E-02 -0.45189082198E-02 -0.13807358570E-01  0.15375372561E-01  0.51100000000E-03 0. -1.
</event>
<event>
 7    1  0.1131349E+005  0.1043930E+01  0.7957747E-01            NaN
         13   -1    0    0    0    0  0.00000000000E+00  0.00000000000E+00  0.74505805969E-08  0.10566000000E+00  0.10566000000E+00 0. -1.
     999900   -1    0    0    0    0 -0.00000000000E+00 -0.00000000000E+00 -0.74505805969E-08  0.93827000000E+00  0.93827000000E+00 0.  1.
     999903    2    1    2    0    0  0.43439397329E-01 -0.71905706419E-01 -0.21979542487E-01  0.88653958090E-01  0.17860910985E-01 0.  0.
         14    1    1    2    0    0  0.41614690365E-01  0.53917112024E-01 -0.16771618530E-01  0.70143599931E-01  0.00000000000E+00 0. -1.
     999901    1    1    2    0    0 -0.85054087695E-01  0.17988594395E-01  0.38751161017E-01  0.88513244198E+00  0.88000000000E+00 0.  1.
        -11    1    3    3    0    0  0.21272056510E-01 -0.41469391385E-01 -0.35924217638E-02  0.46748020548E-01  0.51100000000E-03 0.  1.
         11    1    3    3    0    0  0.22167340819E-01 -0.30436315034E-01 -0.18387120723E-01  0.41905937543E-01  0.51100000000E-03 0. -1.
</event>
<event>
 8    1  0.1131349E+005  0.1043930E+01  0.7957747E-01            NaN
         13   -1    0    0    0    0  0.00000000000E+00  0.00000000000E+00  0.74505805969E-08  0.10566000000E+00  0.10566000000E+00 0. -1.
     999900   -1    0    0    0    0 -0.00000000000E+00 -0.00000000000E+00 -0.74505805969E-08  0.93827000000E+00  0.93827000000E+00 0. -1.
     999902    2    1    2    0    0  0.66405288249E-02 -0.21358241632E-01 -0.85622235666E-02  0.10199804117E+01  0.10196991995E+01 0.  0.
     999903    2    3    3    0    0 -0.91785010309E-01  0.10046094775E-01 -0.89227578320E-01  0.13027219065E+00  0.21997063121E-01 0.  0.
         14    1    1    2    0    0 -0.66405288249E-02  0.21358241632E-01  0.85622235666E-02  0.23949588328E-01  0.00000000000E+00 0.  1.
     999901    1    3    3    0    0  0.98425539134E-01 -0.31404336407E-01  0.80665354753E-01  0.88970822102E+00  0.88000000000E+00 0.  1.
        -11    1    4    4    0    0 -0.40078808630E-01  0.80988948608E-02 -0.53731997788E-01  0.67522527399E-01  0.51100000000E-03 0.  1.
         11    1    4    4    0    0 -0.51706201679E-01  0.19471999141E-02 -0.35495580532E-01  0.62749663249E-01  0.51100000000E-03 0. -1.
</event>
<event>
 8    1  0.1131349E+005  0.1043930E+01  0.7957747E-01            NaN
         13   -1    0    0    0    0  0.00000000000E+00  0.00000000000E+00  0.74505805969E-08  0.10566000000E+00  0.10566000000E+00 0.  1.
     999900   -1    0    0    0    0 -0.00000000000E+00 -0.00000000000E+00 -0.74505805969E-08  0.93827000000E+00  0.93827000000E+00 0. -1.
     999902    2    1    2    0    0 -0.23506868191E-01 -0.44791932178E-02  0.83963094798E-03  0.10199854598E+01  0.10197043676E+01 0.  0.
     999903    2    3    3    0    0  0.91364385700E-01  0.85372351475E-01 -0.18606661655E-01  0.12777087614E+00  0.18528344767E-01 0.  0.
         14    1    1    2    0    0  0.23506868191E-01  0.44791932178E-02 -0.83963094798E-03  0.23944540174E-01  0.00000000000E+00 0. -1.
     999901    1    3    3    0    0 -0.11487125389E+00 -0.89851544692E-01  0.19446292603E-01  0.89221458369E+00  0.88000000000E+00 0.  1.
        -11    1    4    4    0    0  0.18050966836E-01  0.21647036525E-01 -0.11254283506E-01  0.30353774268E-01  0.51100000000E-03 0.  1.
         11    1    4    4    0    0  0.73313418863E-01  0.63725314950E-01 -0.73523781484E-02  0.97417101868E-01  0.51100000000E-03 0. -1.
</event>
<event>
 8    1  0.1131349E+005  0.1043930E+01  0.7957747E-01            NaN
         13   -1    0    0    0    0  0.00000000000E+00  0.00000000000E+00  0.74505805969E-08  0.10566000000E+00  0.10566000000E+00 0. -1.
     999900   -1    0    0    0    0 -0.00000000000E+00 -0.00000000000E+00 -0.74505805969E-08  0.93827000000E+00  0.93827000000E+00 0. -1.
     999902    2    1    2    0    0 -0.90687164342E-02  0.21011133818E-01 -0.69133015251E-02  0.10200238690E+01  0.10197436885E+01 0.  0.
     999903    2    3    3    0    0 -0.32575120887E-01 -0.53283625211E-01  0.11030592832E+00  0.12883779969E+00  0.23054231472E-01 0.  0.
         14    1    1    2    0    0  0.90687164342E-02 -0.21011133818E-01  0.69133015251E-02  0.23906131014E-01  0.00000000000E+00 0. -1.
     999901    1    3    3    0    0  0.23506404452E-01  0.74294759029E-01 -0.11721922985E+00  0.89118606930E+00  0.88000000000E+00 0. -1.
        -11    1    4    4    0    0 -0.20612524760E-01 -0.19701303758E-01  0.66499353890E-01  0.72356359330E-01  0.51100000000E-03 0. -1.
         11    1    4    4    0    0 -0.11962596127E-01 -0.33582321454E-01  0.43806574431E-01  0.56481440356E-01  0.51100000000E-03 0.  1.
</event>
<event>
 8    1  0.1131349E+005  0.1043930E+01  0.7957747E-01            NaN
         13   -1    0    0    0    0  0.00000000000E+00  0.00000000000E+00  0.74505805969E-08  0.10566000000E+00  0.10566000000E+00 0.  1.
     999900   -1    0    0    0    0 -0.00000000000E+00 -0.00000000000E+00 -0.74505805969E-08  0.93827000000E+00  0.93827000000E+00 0. -1.
     999902    2    1    2    0    0 -0.12062390771E-01 -0.30315794376E-01  0.15642846469E-02  0.10112651007E+01  0.10107374082E+01 0.  0.
     999903    2    3    3    0    0 -0.11010710115E+00  0.28757860677E-01  0.41930203385E-01  0.12293415485E+00  0.20101646695E-01 0.  0.
         14    1    1    2    0    0  0.12062390771E-01  0.30315794376E-01 -0.15642846469E-02  0.32664899299E-01  0.00000000000E+00 0.  1.
     999901    1    3    3    0    0  0.98044710377E-01 -0.59073655053E-01 -0.40365918738E-01  0.88833094585E+00  0.88000000000E+00 0. -1.
        -11    1    4    4    0    0 -0.26762333125E-01  0.57052580692E-02  0.19475882365E-01  0.33590825515E-01  0.51100000000E-03 0.  1.
         11    1    4    4    0    0 -0.83344768023E-01  0.23052602607E-01  0.22454321020E-01  0.89343329339E-01  0.51100000000E-03 0. -1.
</event>
<event>
 8    1  0.1131349E+005  0.1043930E+01  0.7957747E-01            NaN
         13   -1    0    0    0    0  0.00000000000E+00  0.00000000000E+00  0.74505805969E-08  0.10566000000E+00  0.10566000000E+00 0.  1.
     999900   -1    0    0    0    0 -0.00000000000E+00 -0.00000000000E+00 -0.74505805969E-08  0.93827000000E+00  0.93827000000E+00 0. -1.
     999902    2    1    2    0    0 -0.14334751519E-01  0.18586614178E-01 -0.74194479947E-02  0.10193130234E+01  0.10190157232E+01 0.  0.
     999903    2    3    3    0    0  0.54338253300E-01 -0.19662357843E-01  0.11257284394E+00  0.12769813145E+00  0.17173045626E-01 0.  0.
         14    1    1    2    0    0  0.14334751519E-01 -0.18586614178E-01  0.74194479947E-02  0.24616976586E-01  0.00000000000E+00 0. -1.
     999901    1    3    3    0    0 -0.68673004818E-01  0.38248972021E-01 -0.11999229193E+00  0.89161489197E+00  0.88000000000E+00 0. -1.
        -11    1    4    4    0    0  0.39124503184E-01 -0.56548240813E-02  0.76642992029E-01  0.86238698581E-01  0.51100000000E-03 0.  1.
         11    1    4    4    0    0  0.15213750116E-01 -0.14007533762E-01  0.35929851906E-01  0.41459432868E-01  0.51100000000E-03 0. -1.
</event>
<event>
 8    1  0.1131349E+005  0.1043930E+01  0.7957747E-01            NaN
         13   -1    0    0    0    0  0.00000000000E+00  0.00000000000E+00  0.74505805969E-08  0.10566000000E+00  0.10566000000E+00 0. -1.
     999900   -1    0    0    0    0 -0.00000000000E+00 -0.00000000000E+00 -0.74505805969E-08  0.93827000000E+00  0.93827000000E+00 0. -1.
     999902    2    1    2    0    0 -0.19836161004E-01  0.78990666342E-02 -0.10402205784E-01  0.10201797490E+01  0.10199032532E+01 0.  0.
     999903    2    3    3    0    0 -0.11317108877E+00 -0.37021672660E-01  0.50894610295E-01  0.13198687512E+00  0.25533786803E-01 0.  0.
         14    1    1    2    0    0  0.19836161004E-01 -0.78990666342E-02  0.10402205784E-01  0.23750250993E-01  0.00000000000E+00 0. -1.
     999901    1    3    3    0    0  0.93334927761E-01  0.44920739294E-01 -0.61296816079E-01  0.88819287389E+00  0.88000000000E+00 0. -1.
        -11    1    4    4    0    0 -0.33051039041E-01 -0.23415261168E-01  0.17344472493E-01  0.44065150452E-01  0.51100000000E-03 0.  1.
         11    1    4    4    0    0 -0.80120049724E-01 -0.13606411492E-01  0.33550137801E-01  0.87921724670E-01  0.51100000000E-03 0. -1.
</event>
<event>
 8    1  0.1131349E+005  0.1043930E+01  0.7957747E-01            NaN
         13   -1    0    0    0    0  0.00000000000E+00  0.00000000000E+00  0.74505805969E-08  0.10566000000E+00  0.10566000000E+00 0. -1.
     999900   -1    0    0    0    0 -0.00000000000E+00 -0.00000000000E+00 -0.74505805969E-08  0.93827000000E+00  0.93827000000E+00 0.  1.
     999902    2    1    2    0    0 -0.19223985838E-01  0.14159242825E-01 -0.23378857991E-02  0.10199401793E+01  0.10196580102E+01 0.  0.
     999903    2    3    3    0    0 -0.76553125314E-02  0.35350274551E-01 -0.12447635010E+00  0.13117660075E+00  0.20116986106E-01 0.  0.
         14    1    1    2    0    0  0.19223985838E-01 -0.14159242825E-01  0.23378857991E-02  0.23989820735E-01  0.00000000000E+00 0. -1.
     999901    1    3    3    0    0 -0.11568673306E-01 -0.21191031726E-01  0.12213846430E+00  0.88876357851E+00  0.88000000000E+00 0. -1.
        -11    1    4    4    0    0 -0.14346067068E-01  0.20633056373E-01 -0.79601403987E-01  0.83475608972E-01  0.51100000000E-03 0.  1.
         11    1    4    4    0    0  0.66907545365E-02  0.14717218178E-01 -0.44874946114E-01  0.47700991781E-01  0.51100000000E-03 0. -1.
</event>
<event>
 8    1  0.1131349E+005  0.1043930E+01  0.7957747E-01            NaN
         13   -1    0    0    0    0  0.00000000000E+00  0.00000000000E+00  0.74505805969E-08  0.10566000000E+00  0.10566000000E+00 0. -1.
     999900   -1    0    0    0    0 -0.00000000000E+00 -0.00000000000E+00 -0.74505805969E-08  0.93827000000E+00  0.93827000000E+00 0. -1.
     999902    2    1    2    0    0  0.13349391615E-01 -0.16546346471E-01 -0.10900405367E-01  0.10200384392E+01  0.10197586042E+01 0.  0.
     999903    2    3    3    0    0 -0.81798770809E-02  0.12249084654E+00  0.30151752367E-01  0.12791729831E+00  0.19564998385E-01 0.  0.
         14    1    1    2    0    0 -0.13349391615E-01  0.16546346471E-01  0.10900405367E-01  0.23891560752E-01  0.00000000000E+00 0. -1.
     999901    1    3    3    0    0  0.21529268696E-01 -0.13903719301E+00 -0.41052157734E-01  0.89212114094E+00  0.88000000000E+00 0. -1.
        -11    1    4    4    0    0 -0.33305954318E-03  0.82862126318E-01  0.27968195969E-01  0.87456983788E-01  0.51100000000E-03 0.  1.
         11    1    4    4    0    0 -0.78468175377E-02  0.39628720221E-01  0.21835563980E-02  0.40460314523E-01  0.51100000000E-03 0. -1.
</event>
<event>
 8    1  0.1131349E+005  0.1043930E+01  0.7957747E-01            NaN
         13   -1    0    0    0    0  0.00000000000E+00  0.00000000000E+00  0.74505805969E-08  0.10566000000E+00  0.10566000000E+00 0. -1.
     999900   -1    0    0    0    0 -0.00000000000E+00 -0.00000000000E+00 -0.74505805969E-08  0.93827000000E+00  0.93827000000E+00 0.  1.
     999902    2    1    2    0    0 -0.53635684586E-02 -0.30546024937E-02  0.21411883402E-01  0.10216462119E+01  0.10214031599E+01 0.  0.
     999903    2    3    3    0    0  0.79951947600E-01 -0.45595535500E-01  0.94775146212E-01  0.13346231390E+00  0.18936581271E-01 0.  0.
         14    1    1    2    0    0  0.53635684586E-02  0.30546024937E-02 -0.21411883402E-01  0.22283788139E-01  0.00000000000E+00 0.  1.
     999901    1    3    3    0    0 -0.85315516059E-01  0.42540933007E-01 -0.73363262809E-01  0.88818389796E+00  0.88000000000E+00 0.  1.
        -11    1    4    4    0    0  0.59917985038E-01 -0.25001055779E-01  0.70534657100E-01  0.95867704125E-01  0.51100000000E-03 0.  1.
         11    1    4    4    0    0  0.20033962563E-01 -0.20594479721E-01  0.24240489112E-01  0.37594609778E-01  0.51100000000E-03 0. -1.
</event>
<event>
 8    1  0.1131349E+005  0.1043930E+01  0.7957747E-01            NaN
         13   -1    0    0    0    0  0.00000000000E+00  0.00000000000E+00  0.74505805969E-08  0.10566000000E+00  0.10566000000E+00 0. -1.
     999900   -1    0    0    0    0 -0.00000000000E+00 -0.00000000000E+00 -0.74505805969E-08  0.93827000000E+00  0.93827000000E+00 0. -1.
     999902    2    1    2    0    0 -0.10669150300E-01 -0.31089827542E-02 -0.21649584043E-01  0.10195948191E+01  0.10193043677E+01 0.  0.
     999903    2    3    3    0    0  0.69545384101E-01 -0.76362663165E-01 -0.79030343412E-01  0.13106061895E+00  0.16225716784E-01 0.  0.
         14    1    1    2    0    0  0.10669150300E-01  0.31089827542E-02  0.21649584043E-01  0.24335180935E-01  0.00000000000E+00 0. -1.
     999901    1    3    3    0    0 -0.80214534401E-01  0.73253680411E-01  0.57380759368E-01  0.88853420011E+00  0.88000000000E+00 0.  1.
        -11    1    4    4    0    0  0.16646314586E-01 -0.12080443122E-01 -0.98192502223E-02  0.22797273768E-01  0.51100000000E-03 0. -1.
         11    1    4    4    0    0  0.52899069515E-01 -0.64282220043E-01 -0.69211093189E-01  0.10826334519E+00  0.51100000000E-03 0.  1.
</event>
<event>
 8    1  0.1131349E+005  0.1043930E+01  0.7957747E-01            NaN
         13   -1    0    0    0    0  0.00000000000E+00  0.00000000000E+00  0.74505805969E-08  0.10566000000E+00  0.10566000000E+00 0. -1.
     999900   -1    0    0    0    0 -0.00000000000E+00 -0.00000000000E+00 -0.74505805969E-08  0.93827000000E+00  0.93827000000E+00 0. -1.
     999902    2    1    2    0    0 -0.16500670102E-01 -0.21876803679E-01 -0.36227710078E-02  0.10162896107E+01  0.10159136684E+01 0.  0.
     999903    2    3    3    0    0  0.90390500661E-01  0.58177401397E-01 -0.59490161120E-01  0.12446251788E+00  0.19919499096E-01 0.  0.
         14    1    1    2    0    0  0.16500670102E-01  0.21876803679E-01  0.36227710078E-02  0.27640389339E-01  0.00000000000E+00 0. -1.
     999901    1    3    3    0    0 -0.10689117076E+00 -0.80054205076E-01  0.55867390112E-01  0.89182709278E+00  0.88000000000E+00 0.  1.
        -11    1    4    4    0    0  0.27654861952E-01  0.74933644419E-02 -0.14695772551E-01  0.32205104441E-01  0.51100000000E-03 0.  1.
         11    1    4    4    0    0  0.62735638710E-01  0.50684036955E-01 -0.44794388569E-01  0.92257413440E-01  0.51100000000E-03 0. -1.
</event>
<event>
 8    1  0.1131349E+005  0.1043930E+01  0.7957747E-01            NaN
         13   -1    0    0    0    0  0.00000000000E+00  0.00000000000E+00  0.74505805969E-08  0.10566000000E+00  0.10566000000E+00 0. -1.
     999900   -1    0    0    0    0 -0.00000000000E+00 -0.00000000000E+00 -0.74505805969E-08  0.93827000000E+00  0.93827000000E+00 0. -1.
     999902    2    1    2    0    0 -0.16846141700E-02 -0.11324189759E-01 -0.20985632529E-01  0.10200245201E+01  0.10197443550E+01 0.  0.
     999903    2    3    3    0    0 -0.12702701051E+00  0.19381673997E-01  0.58928249686E-02  0.13020655111E+00  0.20186873908E-01 0.  0.
         14    1    1    2    0    0  0.16846141700E-02  0.11324189759E-01  0.20985632529E-01  0.23905479942E-01  0.00000000000E+00 0. -1.
     999901    1    3    3    0    0  0.12534239634E+00 -0.30705863756E-01 -0.26878457498E-01  0.88981796895E+00  0.88000000000E+00 0. -1.
        -11    1    4    4    0    0 -0.74663966765E-01  0.37408759832E-02  0.98820670664E-02  0.75409670843E-01  0.51100000000E-03 0.  1.
         11    1    4    4    0    0 -0.52363043749E-01  0.15640798014E-01 -0.39892420979E-02  0.54796880264E-01  0.51100000000E-03 0. -1.
</event>
<event>
 8    1  0.1131349E+005  0.1043930E+01  0.7957747E-01            NaN
         13   -1    0    0    0    0  0.00000000000E+00  0.00000000000E+00  0.74505805969E-08  0.10566000000E+00  0.10566000000E+00 0. -1.
     999900   -1    0    0    0    0 -0.00000000000E+00 -0.00000000000E+00 -0.74505805969E-08  0.93827000000E+00  0.93827000000E+00 0. -1.
     999902    2    1    2    0    0 -0.88971593449E-02  0.21592259563E-01 -0.15276070128E-02  0.10205266092E+01  0.10202582229E+01 0.  0.
     999903    2    3    3    0    0 -0.14957524078E-01 -0.10699834440E+00  0.66689132382E-01  0.12854802483E+00  0.20119171938E-01 0.  0.
         14    1    1    2    0    0  0.88971593449E-02 -0.21592259563E-01  0.15276070128E-02  0.23403390794E-01  0.00000000000E+00 0.  1.
     999901    1    3    3    0    0  0.60603647332E-02  0.12859060396E+00 -0.68216739395E-01  0.89197858437E+00  0.88000000000E+00 0. -1.
        -11    1    4    4    0    0 -0.15531786184E-01 -0.10648584522E+00  0.62900404477E-01  0.12464827965E+00  0.51100000000E-03 0.  1.
         11    1    4    4    0    0  0.57426210553E-03 -0.51249917966E-03  0.37887279057E-02  0.38997451863E-02  0.51100000000E-03 0. -1.
</event>
<event>
 8    1  0.1131349E+005  0.1043930E+01  0.7957747E-01            NaN
         13   -1    0    0    0    0  0.00000000000E+00  0.00000000000E+00  0.74505805969E-08  0.10566000000E+00  0.10566000000E+00 0.  1.
     999900   -1    0    0    0    0 -0.00000000000E+00 -0.00000000000E+00 -0.74505805969E-08  0.93827000000E+00  0.93827000000E+00 0.  1.
     999902    2    1    2    0    0  0.12340867407E-01  0.13709244942E-01  0.13944605632E-01  0.10208065826E+01  0.10205446520E+01 0.  0.
     999903    2    3    3    0    0  0.68251906950E-02  0.80781466219E-01  0.10418947619E+00  0.13363509851E+00  0.20752447827E-01 0.  0.
         14    1    1    2    0    0 -0.12340867407E-01 -0.13709244942E-01 -0.13944605632E-01  0.23123417383E-01  0.00000000000E+00 0. -1.
     999901    1    3    3    0    0  0.55156767123E-02 -0.67072221277E-01 -0.90244870561E-01  0.88717148411E+00  0.88000000000E+00 0. -1.
        -11    1    4    4    0    0  0.81048937083E-02  0.12350469132E-01  0.24222433484E-01  0.28376236443E-01  0.51100000000E-03 0. -1.
         11    1    4    4    0    0 -0.12797030133E-02  0.68430997086E-01  0.79967042709E-01  0.10525886206E+00  0.51100000000E-03 0.  1.
</event>
<event>
 8    1  0.1131349E+005  0.1043930E+01  0.7957747E-01            NaN
         13   -1    0    0    0    0  0.00000000000E+00  0.00000000000E+00  0.74505805969E-08  0.10566000000E+00  0.10566000000E+00 0. -1.
     999900   -1    0    0    0    0 -0.00000000000E+00 -0.00000000000E+00 -0.74505805969E-08  0.93827000000E+00  0.93827000000E+00 0. -1.
     999902    2    1    2    0    0 -0.19254756851E-01  0.15351948594E-01 -0.39007399046E-02  0.10189972152E+01  0.10186921423E+01 0.  0.
     999903    2    3    3    0    0 -0.10733088405E+00 -0.41093086261E-01 -0.59715463086E-01  0.13104522917E+00  0.19958836302E-01 0.  0.
         14    1    1    2    0    0  0.19254756851E-01 -0.15351948594E-01  0.39007399046E-02  0.24932784819E-01  0.00000000000E+00 0. -1.
     999901    1    3    3    0    0  0.88076127199E-01  0.56445034855E-01  0.55814723181E-01  0.88795198601E+00  0.88000000000E+00 0.  1.
        -11    1    4    4    0    0 -0.10765947721E-02 -0.26359174242E-02  0.60073512824E-03  0.29545085318E-02  0.51100000000E-03 0. -1.
         11    1    4    4    0    0 -0.10625428928E+00 -0.38457168837E-01 -0.60316198214E-01  0.12809072064E+00  0.51100000000E-03 0.  1.
</event>
<event>
 8    1  0.1131349E+005  0.1043930E+01  0.7957747E-01            NaN
         13   -1    0    0    0    0  0.00000000000E+00  0.00000000000E+00  0.74505805969E-08  0.10566000000E+00  0.10566000000E+00 0. -1.
     999900   -1    0    0    0    0 -0.00000000000E+00 -0.00000000000E+00 -0.74505805969E-08  0.93827000000E+00  0.93827000000E+00 0. -1.
     999902    2    1    2    0    0 -0.21449621351E-01 -0.76554430539E-02 -0.25913785784E-02  0.10210082351E+01  0.10207509044E+01 0.  0.
     999903    2    3    3    0    0 -0.74868403152E-01  0.86200050806E-01  0.63001637760E-01  0.13198356513E+00  0.20364885319E-01 0.  0.
         14    1    1    2    0    0  0.21449621351E-01  0.76554430539E-02  0.25913785784E-02  0.22921764928E-01  0.00000000000E+00 0. -1.
     999901    1    3    3    0    0  0.53418781801E-01 -0.93855493860E-01 -0.65593016338E-01  0.88902466994E+00  0.88000000000E+00 0. -1.
        -11    1    4    4    0    0 -0.52272530998E-01  0.48664438799E-01  0.31719911002E-01  0.78147674153E-01  0.51100000000E-03 0. -1.
         11    1    4    4    0    0 -0.22595872154E-01  0.37535612006E-01  0.31281726758E-01  0.53835890975E-01  0.51100000000E-03 0.  1.
</event>
<event>
 8    1  0.1131349E+005  0.1043930E+01  0.7957747E-01            NaN
         13   -1    0    0    0    0  0.00000000000E+00  0.00000000000E+00  0.74505805969E-08  0.10566000000E+00  0.10566000000E+00 0.  1.
     999900   -1    0    0    0    0 -0.00000000000E+00 -0.00000000000E+00 -0.74505805969E-08  0.93827000000E+00  0.93827000000E+00 0. -1.
     999902    2    1    2    0    0  0.19945388518E-01  0.97749382188E-02 -0.63765208495E-02  0.10208209551E+01  0.10205593536E+01 0.  0.
     999903    2    3    3    0    0  0.98874093979E-01 -0.83540225592E-01  0.16348173079E-01  0.13208372051E+00  0.20586177616E-01 0.  0.
         14    1    1    2    0    0 -0.19945388518E-01 -0.97749382188E-02  0.63765208495E-02  0.23109044949E-01  0.00000000000E+00 0.  1.
     999901    1    3    3    0    0 -0.78928705461E-01  0.93315163811E-01 -0.22724693928E-01  0.88873723454E+00  0.88000000000E+00 0. -1.
        -11    1    4    4    0    0  0.13604786419E-01 -0.33936886624E-02  0.23325356427E-02  0.14223543151E-01  0.51100000000E-03 0. -1.
         11    1    4    4    0    0  0.85269307561E-01 -0.80146536930E-01  0.14015637436E-01  0.11786017736E+00  0.51100000000E-03 0.  1.
</event>
<event>
 8    1  0.1131349E+005  0.1043930E+01  0.7957747E-01            NaN
         13   -1    0    0    0    0  0.00000000000E+00  0.00000000000E+00  0.74505805969E-08  0.10566000000E+00  0.10566000000E+00 0.  1.
     999900   -1    0    0    0    0 -0.00000000000E+00 -0.00000000000E+00 -0.74505805969E-08  0.93827000000E+00  0.93827000000E+00 0.  1.
     999902    2    1    2    0    0  0.19307137210E-01 -0.96434927640E-02 -0.85888863670E-02  0.10207021833E+01  0.10204378548E+01 0.  0.
     999903    2    3    3    0    0 -0.40907226987E-02  0.72941148402E-01  0.10489084111E+00  0.12927336878E+00  0.19296895696E-01 0.  0.
         14    1    1    2    0    0 -0.19307137210E-01  0.96434927640E-02  0.85888863670E-02  0.23227816707E-01  0.00000000000E+00 0.  1.
     999901    1    3    3    0    0  0.23397859909E-01 -0.82584641166E-01 -0.11347972748E+00  0.89142881452E+00  0.88000000000E+00 0.  1.
        -11    1    4    4    0    0 -0.78181420995E-02  0.26216942115E-01  0.27503945737E-01  0.38796643565E-01  0.51100000000E-03 0.  1.
         11    1    4    4    0    0  0.37274194008E-02  0.46724206287E-01  0.77386895372E-01  0.90476725210E-01  0.51100000000E-03 0. -1.
</event>
<event>
 8    1  0.1131349E+005  0.1043930E+01  0.7957747E-01            NaN
         13   -1    0    0    0    0  0.00000000000E+00  0.00000000000E+00  0.74505805969E-08  0.10566000000E+00  0.10566000000E+00 0. -1.
     999900   -1    0    0    0    0 -0.00000000000E+00 -0.00000000000E+00 -0.74505805969E-08  0.93827000000E+00  0.93827000000E+00 0.  1.
     999902    2    1    2    0    0 -0.35066515083E-02  0.20649499858E-01  0.12170866077E-01  0.10197054581E+01  0.10194176734E+01 0.  0.
     999903    2    3    3    0    0 -0.24185553481E-01 -0.12371039041E+00  0.21791441346E-02  0.12764759596E+00  0.19998959806E-01 0.  0.
         14    1    1    2    0    0  0.35066515083E-02 -0.20649499858E-01 -0.12170866077E-01  0.24224541899E-01  0.00000000000E+00 0.  1.
     999901    1    3    3    0    0  0.20678901973E-01  0.14435989026E+00  0.99917219420E-02  0.89205786214E+00  0.88000000000E+00 0.  1.
        -11    1    4    4    0    0 -0.22498081393E-01 -0.70058154494E-01  0.60171525424E-02  0.73829370329E-01  0.51100000000E-03 0. -1.
         11    1    4    4    0    0 -0.16874720887E-02 -0.53652235911E-01 -0.38380084078E-02  0.53818225629E-01  0.51100000000E-03 0.  1.
</event>
<event>
 8    1  0.1131349E+005  0.1043930E+01  0.7957747E-01            NaN
         13   -1    0    0    0    0  0.00000000000E+00  0.00000000000E+00  0.74505805969E-08  0.10566000000E+00  0.10566000000E+00 0.  1.
     999900   -1    0    0    0    0 -0.00000000000E+00 -0.00000000000E+00 -0.74505805969E-08  0.93827000000E+00  0.93827000000E+00 0.  1.
     999902    2    1    2    0    0  0.19899979101E-01  0.21488678364E-02  0.13811619339E-01  0.10196115373E+01  0.10193214897E+01 0.  0.
     999903    2    3    3    0    0  0.10537000661E+00 -0.75919666971E-01 -0.80138536589E-02  0.13176235356E+00  0.20747574266E-01 0.  0.
         14    1    1    2    0    0 -0.19899979101E-01 -0.21488678364E-02 -0.13811619339E-01  0.24318462739E-01  0.00000000000E+00 0. -1.
     999901    1    3    3    0    0 -0.85470027514E-01  0.78068534807E-01  0.21825472998E-01  0.88784918370E+00  0.88000000000E+00 0. -1.
        -11    1    4    4    0    0  0.49998802324E-01 -0.41439152295E-01 -0.13399266589E-01  0.66309011778E-01  0.51100000000E-03 0. -1.
         11    1    4    4    0    0  0.55371204290E-01 -0.34480514676E-01  0.53854129305E-02  0.65453341781E-01  0.51100000000E-03 0.  1.
</event>
<event>
 8    1  0.1131349E+005  0.1043930E+01  0.7957747E-01            NaN
         13   -1    0    0    0    0  0.00000000000E+00  0.00000000000E+00  0.74505805969E-08  0.10566000000E+00  0.10566000000E+00 0. -1.
     999900   -1    0    0    0    0 -0.00000000000E+00 -0.00000000000E+00 -0.74505805969E-08  0.93827000000E+00  0.93827000000E+00 0. -1.
     999902    2    1    2    0    0 -0.21679690304E-01  0.20600699285E-04 -0.11245422500E-01  0.10195072867E+01  0.10192147167E+01 0.  0.
     999903    2    3    3    0    0 -0.74825918328E-01  0.89735308154E-01  0.55459212790E-01  0.13084381913E+00  0.19825164252E-01 0.  0.
         14    1    1    2    0    0  0.21679690304E-01 -0.20600699285E-04  0.11245422500E-01  0.24422713266E-01  0.00000000000E+00 0. -1.
     999901    1    3    3    0    0  0.53146228023E-01 -0.89714707455E-01 -0.66704635291E-01  0.88866346761E+00  0.88000000000E+00 0. -1.
        -11    1    4    4    0    0 -0.45809033173E-01  0.51167120037E-01  0.22012153233E-01  0.72120300222E-01  0.51100000000E-03 0. -1.
         11    1    4    4    0    0 -0.29016885155E-01  0.38568188118E-01  0.33447059557E-01  0.58723518907E-01  0.51100000000E-03 0.  1.
</event>
<event>
 8    1  0.1131349E+005  0.1043930E+01  0.7957747E-01            NaN
         13   -1    0    0    0    0  0.00000000000E+00  0.00000000000E+00  0.74505805969E-08  0.10566000000E+00  0.10566000000E+00 0.  1.
     999900   -1    0    0    0    0 -0.00000000000E+00 -0.00000000000E+00 -0.74505805969E-08  0.93827000000E+00  0.93827000000E+00 0.  1.
     999902    2    1    2    0    0 -0.15710696870E-01  0.90808610591E-02  0.15496978815E-01  0.10200669661E+01  0.10197878068E+01 0.  0.
     999903    2    3    3    0    0  0.22178387540E-01 -0.12125957111E+00 -0.30368200994E-01  0.12847971537E+00  0.19724228023E-01 0.  0.
         14    1    1    2    0    0  0.15710696870E-01 -0.90808610591E-02 -0.15496978815E-01  0.23863033884E-01  0.00000000000E+00 0. -1.
     999901    1    3    3    0    0 -0.37889084410E-01  0.13034043217E+00  0.45865179810E-01  0.89158725075E+00  0.88000000000E+00 0.  1.
        -11    1    4    4    0    0 -0.14210237919E-02 -0.18686195307E-01  0.62339206099E-03  0.18757476971E-01  0.51100000000E-03 0.  1.
         11    1    4    4    0    0  0.23599411332E-01 -0.10257337580E+00 -0.30991593055E-01  0.10972223840E+00  0.51100000000E-03 0. -1.
</event>
<event>
 8    1  0.1131349E+005  0.1043930E+01  0.7957747E-01            NaN
         13   -1    0    0    0    0  0.00000000000E+00  0.00000000000E+00  0.74505805969E-08  0.10566000000E+00  0.10566000000E+00 0. -1.
     999900   -1    0    0    0    0 -0.00000000000E+00 -0.00000000000E+00 -0.74505805969E-08  0.93827000000E+00  0.93827000000E+00 0. -1.
     999902    2    1    2    0    0  0.70034376296E-02 -0.63073065972E-02  0.21442418301E-01  0.10205076270E+01  0.10202388001E+01 0.  0.
     999903    2    3    3    0    0 -0.28661722799E-01 -0.11488352366E+00 -0.49880649319E-01  0.13025610154E+00  0.21420888139E-01 0.  0.
         14    1    1    2    0    0 -0.70034376296E-02  0.63073065972E-02 -0.21442418301E-01  0.23422373016E-01  0.00000000000E+00 0.  1.
     999901    1    3    3    0    0  0.35665160429E-01  0.10857621707E+00  0.71323067620E-01  0.89025152544E+00  0.88000000000E+00 0.  1.
        -11    1    4    4    0    0 -0.70257531448E-02 -0.70472870936E-01 -0.31983815665E-01  0.77711082419E-01  0.51100000000E-03 0.  1.
         11    1    4    4    0    0 -0.21635969654E-01 -0.44410652727E-01 -0.17896833654E-01  0.52545019121E-01  0.51100000000E-03 0. -1.
</event>
<event>
 8    1  0.1131349E+005  0.1043930E+01  0.7957747E-01            NaN
         13   -1    0    0    0    0  0.00000000000E+00  0.00000000000E+00  0.74505805969E-08  0.10566000000E+00  0.10566000000E+00 0. -1.
     999900   -1    0    0    0    0 -0.00000000000E+00 -0.00000000000E+00 -0.74505805969E-08  0.93827000000E+00  0.93827000000E+00 0.  1.
     999902    2    1    2    0    0  0.20494848225E-01  0.37609582623E-02 -0.14215019132E-01  0.10187059960E+01  0.10183936645E+01 0.  0.
     999903    2    3    3    0    0  0.66806578686E-01  0.49903043529E-01 -0.10044778621E+00  0.13207757406E+00  0.20032351454E-01 0.  0.
         14    1    1    2    0    0 -0.20494848225E-01 -0.37609582623E-02  0.14215019132E-01  0.25224004039E-01  0.00000000000E+00 0. -1.
     999901    1    3    3    0    0 -0.46311730461E-01 -0.46142085267E-01  0.86232767079E-01  0.88662842190E+00  0.88000000000E+00 0. -1.
        -11    1    4    4    0    0  0.15728980844E-01  0.10475588427E-01 -0.37171847041E-01  0.41703070926E-01  0.51100000000E-03 0. -1.
         11    1    4    4    0    0  0.51077597842E-01  0.39427455102E-01 -0.63275939171E-01  0.90374503130E-01  0.51100000000E-03 0.  1.
</event>
<event>
 8    1  0.1131349E+005  0.1043930E+01  0.7957747E-01            NaN
         13   -1    0    0    0    0  0.00000000000E+00  0.00000000000E+00  0.74505805969E-08  0.10566000000E+00  0.10566000000E+00 0. -1.
     999900   -1    0    0    0    0 -0.00000000000E+00 -0.00000000000E+00 -0.74505805969E-08  0.93827000000E+00  0.93827000000E+00 0.  1.
     999902    2    1    2    0    0 -0.12377320024E-01  0.14362837578E-01  0.14287613458E-01  0.10201892112E+01  0.10199129382E+01 0.  0.
     999903    2    3    3    0    0 -0.18901111775E-01 -0.11772216401E+00 -0.43520979081E-01  0.12843204646E+00  0.19620270433E-01 0.  0.
         14    1    1    2    0    0  0.12377320024E-01 -0.14362837578E-01 -0.14287613458E-01  0.23740788795E-01  0.00000000000E+00 0.  1.
     999901    1    3    3    0    0  0.65237917510E-02  0.13208500159E+00  0.57808592539E-01  0.89175716475E+00  0.88000000000E+00 0. -1.
        -11    1    4    4    0    0 -0.51439606052E-02 -0.80973803909E-01 -0.34484587854E-01  0.88162719846E-01  0.51100000000E-03 0. -1.
         11    1    4    4    0    0 -0.13757151170E-01 -0.36748360102E-01 -0.90363912270E-02  0.40269326614E-01  0.51100000000E-03 0.  1.
</event>
<event>
 8    1  0.1131349E+005  0.1043930E+01  0.7957747E-01            NaN
         13   -1    0    0    0    0  0.00000000000E+00  0.00000000000E+00  0.74505805969E-08  0.10566000000E+00  0.10566000000E+00 0. -1.
     999900   -1    0    0    0    0 -0.00000000000E+00 -0.00000000000E+00 -0.74505805969E-08  0.93827000000E+00  0.93827000000E+00 0. -1.
     999902    2    1    2    0    0 -0.15640185903E-01 -0.16474989494E-01 -0.60554577628E-02  0.10204202305E+01  0.10201493702E+01 0.  0.
     999903    2    3    3    0    0 -0.15114868823E-01  0.28872682545E-01  0.12387341124E+00  0.12972488509E+00  0.20538567165E-01 0.  0.
         14    1    1    2    0    0  0.15640185903E-01  0.16474989494E-01  0.60554577628E-02  0.23509769515E-01  0.00000000000E+00 0.  1.
     999901    1    3    3    0    0 -0.52531707996E-03 -0.45347672039E-01 -0.12992886900E+00  0.89069534540E+00  0.88000000000E+00 0. -1.
        -11    1    4    4    0    0 -0.14037620386E-01  0.70295772549E-02  0.66307398953E-01  0.68142512570E-01  0.51100000000E-03 0. -1.
         11    1    4    4    0    0 -0.10772484366E-02  0.21843105290E-01  0.57566012287E-01  0.61582372515E-01  0.51100000000E-03 0.  1.
</event>
<event>
 8    1  0.1131349E+005  0.1043930E+01  0.7957747E-01            NaN
         13   -1    0    0    0    0  0.00000000000E+00  0.00000000000E+00  0.74505805969E-08  0.10566000000E+00  0.10566000000E+00 0.  1.
     999900   -1    0    0    0    0 -0.00000000000E+00 -0.00000000000E+00 -0.74505805969E-08  0.93827000000E+00  0.93827000000E+00 0.  1.
     999902    2    1    2    0    0 -0.35074515019E-02  0.15841414632E-01  0.16673865491E-01  0.10206647808E+01  0.10203995905E+01 0.  0.
     999903    2    3    3    0    0 -0.44190998321E-01 -0.38153727023E-01 -0.11289422174E+00  0.12861180282E+00  0.19680937581E-01 0.  0.
         14    1    1    2    0    0  0.35074515019E-02 -0.15841414632E-01 -0.16673865491E-01  0.23265219191E-01  0.00000000000E+00 0. -1.
     999901    1    3    3    0    0  0.40683546819E-01  0.53995141655E-01  0.12956808723E+00  0.89205297799E+00  0.88000000000E+00 0. -1.
        -11    1    4    4    0    0 -0.19867282615E-01 -0.60375855348E-02 -0.30596283544E-01  0.36980468430E-01  0.51100000000E-03 0. -1.
         11    1    4    4    0    0 -0.24323715706E-01 -0.32116141488E-01 -0.82297938199E-01  0.91631334393E-01  0.51100000000E-03 0.  1.
</event>
<event>
 8    1  0.1131349E+005  0.1043930E+01  0.7957747E-01            NaN
         13   -1    0    0    0    0  0.00000000000E+00  0.00000000000E+00  0.74505805969E-08  0.10566000000E+00  0.10566000000E+00 0. -1.
     999900   -1    0    0    0    0 -0.00000000000E+00 -0.00000000000E+00 -0.74505805969E-08  0.93827000000E+00  0.93827000000E+00 0. -1.
     999902    2    1    2    0    0 -0.23107279626E-01  0.48958096205E-02  0.39106219282E-02  0.10199882313E+01  0.10197072049E+01 0.  0.
     999903    2    3    3    0    0  0.30646267599E-01  0.43492247840E-02 -0.12384196351E+00  0.12914005925E+00  0.19550281385E-01 0.  0.
         14    1    1    2    0    0  0.23107279626E-01 -0.48958096205E-02 -0.39106219282E-02  0.23941768678E-01  0.00000000000E+00 0.  1.
     999901    1    3    3    0    0 -0.53753547225E-01  0.54658483654E-03  0.12775258544E+00  0.89084817207E+00  0.88000000000E+00 0.  1.
        -11    1    4    4    0    0  0.88477562955E-02  0.91047279832E-02 -0.28222021009E-01  0.30950322356E-01  0.51100000000E-03 0. -1.
         11    1    4    4    0    0  0.21798511303E-01 -0.47555031992E-02 -0.95619942506E-01  0.98189736895E-01  0.51100000000E-03 0.  1.
</event>
<event>
 8    1  0.1131349E+005  0.1043930E+01  0.7957747E-01            NaN
         13   -1    0    0    0    0  0.00000000000E+00  0.00000000000E+00  0.74505805969E-08  0.10566000000E+00  0.10566000000E+00 0.  1.
     999900   -1    0    0    0    0 -0.00000000000E+00 -0.00000000000E+00 -0.74505805969E-08  0.93827000000E+00  0.93827000000E+00 0. -1.
     999902    2    1    2    0    0 -0.17654522054E-02 -0.78262037140E-02  0.23226492112E-01  0.10193569208E+01  0.10190606929E+01 0.  0.
     999903    2    3    3    0    0 -0.67633436893E-02  0.12461317559E+00 -0.23455170293E-01  0.12820915206E+00  0.17699020011E-01 0.  0.
         14    1    1    2    0    0  0.17654522054E-02  0.78262037140E-02 -0.23226492112E-01  0.24573079210E-01  0.00000000000E+00 0. -1.
     999901    1    3    3    0    0  0.49978914839E-02 -0.13243937931E+00  0.46681662404E-01  0.89114776873E+00  0.88000000000E+00 0.  1.
        -11    1    4    4    0    0 -0.64839741717E-02  0.84515019828E-01 -0.24020980621E-01  0.88102775941E-01  0.51100000000E-03 0.  1.
         11    1    4    4    0    0 -0.27936951762E-03  0.40098155763E-01  0.56581032801E-03  0.40106376117E-01  0.51100000000E-03 0. -1.
</event>
<event>
 8    1  0.1131349E+005  0.1043930E+01  0.7957747E-01            NaN
         13   -1    0    0    0    0  0.00000000000E+00  0.00000000000E+00  0.74505805969E-08  0.10566000000E+00  0.10566000000E+00 0. -1.
     999900   -1    0    0    0    0 -0.00000000000E+00 -0.00000000000E+00 -0.74505805969E-08  0.93827000000E+00  0.93827000000E+00 0. -1.
     999902    2    1    2    0    0  0.19790248077E-02 -0.33781459305E-02 -0.26505921942E-01  0.10171364876E+01  0.10167835276E+01 0.  0.
     999903    2    3    3    0    0  0.43597983859E-01 -0.11864353184E+00 -0.98521081626E-02  0.12848830273E+00  0.20859243994E-01 0.  0.
         14    1    1    2    0    0 -0.19790248077E-02  0.33781459305E-02  0.26505921942E-01  0.26793512407E-01  0.00000000000E+00 0. -1.
     999901    1    3    3    0    0 -0.41618959052E-01  0.11526538591E+00 -0.16653813780E-01  0.88864818486E+00  0.88000000000E+00 0.  1.
        -11    1    4    4    0    0  0.68891321240E-02 -0.40593413872E-01  0.29847697981E-02  0.41285050114E-01  0.51100000000E-03 0. -1.
         11    1    4    4    0    0  0.36708851736E-01 -0.78050117967E-01 -0.12836877961E-01  0.87203252619E-01  0.51100000000E-03 0.  1.
</event>
<event>
 8    1  0.1131349E+005  0.1043930E+01  0.7957747E-01            NaN
         13   -1    0    0    0    0  0.00000000000E+00  0.00000000000E+00  0.74505805969E-08  0.10566000000E+00  0.10566000000E+00 0. -1.
     999900   -1    0    0    0    0 -0.00000000000E+00 -0.00000000000E+00 -0.74505805969E-08  0.93827000000E+00  0.93827000000E+00 0. -1.
     999902    2    1    2    0    0 -0.35309607828E-01 -0.10255735285E-01 -0.69985753013E-02  0.10065010197E+01  0.10058048390E+01 0.  0.
     999903    2    3    3    0    0  0.96189142590E-01  0.51067076482E-01 -0.28527262054E-01  0.11435983525E+00  0.20103974395E-01 0.  0.
         14    1    1    2    0    0  0.35309607828E-01  0.10255735285E-01  0.69985753013E-02  0.37428980315E-01  0.00000000000E+00 0. -1.
     999901    1    3    3    0    0 -0.13149875042E+00 -0.61322811767E-01  0.21528686752E-01  0.89214118443E+00  0.88000000000E+00 0. -1.
        -11    1    4    4    0    0  0.15606845692E-01  0.16842872053E-01 -0.89319452025E-02  0.24643391356E-01  0.51100000000E-03 0. -1.
         11    1    4    4    0    0  0.80582296898E-01  0.34224204429E-01 -0.19595316851E-01  0.89716443898E-01  0.51100000000E-03 0.  1.
</event>
<event>
 8    1  0.1131349E+005  0.1043930E+01  0.7957747E-01            NaN
         13   -1    0    0    0    0  0.00000000000E+00  0.00000000000E+00  0.74505805969E-08  0.10566000000E+00  0.10566000000E+00 0. -1.
     999900   -1    0    0    0    0 -0.00000000000E+00 -0.00000000000E+00 -0.74505805969E-08  0.93827000000E+00  0.93827000000E+00 0. -1.
     999902    2    1    2    0    0 -0.21253115985E-01 -0.49045230833E-02  0.97201606960E-02  0.10200504939E+01  0.10197709446E+01 0.  0.
     999903    2    3    3    0    0 -0.57105162353E-02 -0.12907461883E+00  0.72800247550E-02  0.13119407170E+00  0.21587460903E-01 0.  0.
         14    1    1    2    0    0  0.21253115985E-01  0.49045230833E-02 -0.97201606960E-02  0.23879506061E-01  0.00000000000E+00 0.  1.
     999901    1    3    3    0    0 -0.15542599750E-01  0.12417009575E+00  0.24401359410E-02  0.88885642223E+00  0.88000000000E+00 0.  1.
        -11    1    4    4    0    0  0.72945204908E-02 -0.75721200859E-01  0.44132015430E-02  0.76201363226E-01  0.51100000000E-03 0. -1.
         11    1    4    4    0    0 -0.13005036726E-01 -0.53353417971E-01  0.28668232120E-02  0.54992708478E-01  0.51100000000E-03 0.  1.
</event>
<event>
 8    1  0.1131349E+005  0.1043930E+01  0.7957747E-01            NaN
         13   -1    0    0    0    0  0.00000000000E+00  0.00000000000E+00  0.74505805969E-08  0.10566000000E+00  0.10566000000E+00 0.  1.
     999900   -1    0    0    0    0 -0.00000000000E+00 -0.00000000000E+00 -0.74505805969E-08  0.93827000000E+00  0.93827000000E+00 0.  1.
     999902    2    1    2    0    0  0.19472031206E-02 -0.84674340263E-02 -0.21744177916E-01  0.10205142294E+01  0.10202455558E+01 0.  0.
     999903    2    3    3    0    0  0.19635163105E-01  0.27024099376E-01  0.12131562701E+00  0.12808013064E+00  0.23899726562E-01 0.  0.
         14    1    1    2    0    0 -0.19472031206E-02  0.84674340263E-02  0.21744177916E-01  0.23415770588E-01  0.00000000000E+00 0.  1.
     999901    1    3    3    0    0 -0.17687959984E-01 -0.35491533402E-01 -0.14305980493E+00  0.89243409878E+00  0.88000000000E+00 0.  1.
        -11    1    4    4    0    0  0.24873333624E-01  0.19356047819E-01  0.87319587838E-01  0.92834857968E-01  0.51100000000E-03 0.  1.
         11    1    4    4    0    0 -0.52381705193E-02  0.76680515571E-02  0.33996039172E-01  0.35245272668E-01  0.51100000000E-03 0. -1.
</event>
<event>
 8    1  0.1131349E+005  0.1043930E+01  0.7957747E-01            NaN
         13   -1    0    0    0    0  0.00000000000E+00  0.00000000000E+00  0.74505805969E-08  0.10566000000E+00  0.10566000000E+00 0.  1.
     999900   -1    0    0    0    0 -0.00000000000E+00 -0.00000000000E+00 -0.74505805969E-08  0.93827000000E+00  0.93827000000E+00 0.  1.
     999902    2    1    2    0    0 -0.22134692253E-01 -0.78614449750E-02  0.69324117617E-02  0.10194390782E+01  0.10191448518E+01 0.  0.
     999903    2    3    3    0    0  0.23897038221E-01 -0.10733442241E+00  0.67495231615E-01  0.13057370672E+00  0.20053426773E-01 0.  0.
         14    1    1    2    0    0  0.22134692253E-01  0.78614449750E-02 -0.69324117617E-02  0.24490921809E-01  0.00000000000E+00 0.  1.
     999901    1    3    3    0    0 -0.46031730474E-01  0.99472977438E-01 -0.60562819854E-01  0.88886537147E+00  0.88000000000E+00 0.  1.
        -11    1    4    4    0    0  0.18815613753E-01 -0.52358365370E-01  0.42254228981E-01  0.69864917755E-01  0.51100000000E-03 0. -1.
         11    1    4    4    0    0  0.50814244680E-02 -0.54976057044E-01  0.25241002634E-01  0.60708788966E-01  0.51100000000E-03 0.  1.
</event>
<event>
 7    1  0.1131349E+005  0.1043930E+01  0.7957747E-01            NaN
         13   -1    0    0    0    0  0.00000000000E+00  0.00000000000E+00  0.74505805969E-08  0.10566000000E+00  0.10566000000E+00 0. -1.
     999900   -1    0    0    0    0 -0.00000000000E+00 -0.00000000000E+00 -0.74505805969E-08  0.93827000000E+00  0.93827000000E+00 0.  1.
     999903    2    1    2    0    0  0.29028099583E-01  0.10288183831E+00 -0.26353923599E-01  0.11186216827E+00  0.19781612171E-01 0.  0.
         14    1    1    2    0    0 -0.59199701568E-02  0.12786686468E-01  0.41750665876E-01  0.44064310939E-01  0.00000000000E+00 0. -1.
     999901    1    1    2    0    0 -0.23108129426E-01 -0.11566852478E+00 -0.15396742277E-01  0.88800352079E+00  0.88000000000E+00 0. -1.
        -11    1    3    3    0    0  0.22056265594E-01  0.86935706580E-01 -0.14642693881E-01  0.90878850871E-01  0.51100000000E-03 0.  1.
         11    1    3    3    0    0  0.69718339884E-02  0.15946131734E-01 -0.11711229718E-01  0.20983317396E-01  0.51100000000E-03 0. -1.
</event>
<event>
 8    1  0.1131349E+005  0.1043930E+01  0.7957747E-01            NaN
         13   -1    0    0    0    0  0.00000000000E+00  0.00000000000E+00  0.74505805969E-08  0.10566000000E+00  0.10566000000E+00 0. -1.
     999900   -1    0    0    0    0 -0.00000000000E+00 -0.00000000000E+00 -0.74505805969E-08  0.93827000000E+00  0.93827000000E+00 0. -1.
     999902    2    1    2    0    0  0.10483486933E-01  0.19274431542E-01 -0.44210630013E-02  0.10215480205E+01  0.10213027980E+01 0.  0.
     999903    2    3    3    0    0 -0.11680901691E+00 -0.17151796360E-01  0.49803742238E-01  0.12999287293E+00  0.21890722270E-01 0.  0.
         14    1    1    2    0    0 -0.10483486933E-01 -0.19274431542E-01  0.44210630013E-02  0.22381979528E-01  0.00000000000E+00 0. -1.
     999901    1    3    3    0    0  0.12729250384E+00  0.36426227901E-01 -0.54224805240E-01  0.89155514755E+00  0.88000000000E+00 0.  1.
        -11    1    4    4    0    0 -0.34352588050E-01 -0.60849331980E-02  0.25825603677E-01  0.43409096328E-01  0.51100000000E-03 0.  1.
         11    1    4    4    0    0 -0.82456428857E-01 -0.11066863162E-01  0.23978138562E-01  0.86583776598E-01  0.51100000000E-03 0. -1.
</event>
<event>
 8    1  0.1131349E+005  0.1043930E+01  0.7957747E-01            NaN
         13   -1    0    0    0    0  0.00000000000E+00  0.00000000000E+00  0.74505805969E-08  0.10566000000E+00  0.10566000000E+00 0. -1.
     999900   -1    0    0    0    0 -0.00000000000E+00 -0.00000000000E+00 -0.74505805969E-08  0.93827000000E+00  0.93827000000E+00 0.  1.
     999902    2    1    2    0    0 -0.71282789295E-02  0.19765110032E-01  0.20319141206E-02  0.10228207459E+01  0.10226028934E+01 0.  0.
     999903    2    3    3    0    0  0.12452233487E+00  0.74185965327E-02 -0.38718050773E-01  0.13200938528E+00  0.19145309879E-01 0.  0.
         14    1    1    2    0    0  0.71282789295E-02 -0.19765110032E-01 -0.20319141206E-02  0.21109254133E-01  0.00000000000E+00 0. -1.
     999901    1    3    3    0    0 -0.13165061380E+00  0.12346513499E-01  0.40749964894E-01  0.89081136059E+00  0.88000000000E+00 0. -1.
        -11    1    4    4    0    0  0.65927410848E-01 -0.35348779093E-02 -0.26582829070E-01  0.71174621778E-01  0.51100000000E-03 0.  1.
         11    1    4    4    0    0  0.58594924023E-01  0.10953474442E-01 -0.12135221703E-01  0.60834763503E-01  0.51100000000E-03 0. -1.
</event>
<event>
 8    1  0.1131349E+005  0.1043930E+01  0.7957747E-01            NaN
         13   -1    0    0    0    0  0.00000000000E+00  0.00000000000E+00  0.74505805969E-08  0.10566000000E+00  0.10566000000E+00 0.  1.
     999900   -1    0    0    0    0 -0.00000000000E+00 -0.00000000000E+00 -0.74505805969E-08  0.93827000000E+00  0.93827000000E+00 0. -1.
     999902    2    1    2    0    0 -0.61580718751E-02  0.20409708751E-01  0.95703881852E-02  0.10205618509E+01  0.10202942817E+01 0.  0.
     999903    2    3    3    0    0 -0.36879676606E-01 -0.12142586849E+00 -0.32446818648E-02  0.12858350255E+00  0.20465509600E-01 0.  0.
         14    1    1    2    0    0  0.61580718751E-02 -0.20409708751E-01 -0.95703881852E-02  0.23368149061E-01  0.00000000000E+00 0. -1.
     999901    1    3    3    0    0  0.30721604731E-01  0.14183557724E+00  0.12815070050E-01  0.89197834839E+00  0.88000000000E+00 0.  1.
        -11    1    4    4    0    0 -0.24062078402E-01 -0.55376463917E-01 -0.90289644691E-02  0.61051778789E-01  0.51100000000E-03 0. -1.
         11    1    4    4    0    0 -0.12817598204E-01 -0.66049404574E-01  0.57842826042E-02  0.67531723764E-01  0.51100000000E-03 0.  1.
</event>
<event>
 8    1  0.1131349E+005  0.1043930E+01  0.7957747E-01            NaN
         13   -1    0    0    0    0  0.00000000000E+00  0.00000000000E+00  0.74505805969E-08  0.10566000000E+00  0.10566000000E+00 0. -1.
     999900   -1    0    0    0    0 -0.00000000000E+00 -0.00000000000E+00 -0.74505805969E-08  0.93827000000E+00  0.93827000000E+00 0.  1.
     999902    2    1    2    0    0 -0.10787837133E-01  0.12688405363E-01  0.16652752451E-01  0.10203782012E+01  0.10201063603E+01 0.  0.
     999903    2    3    3    0    0 -0.10732665509E+00  0.75325264965E-01 -0.26703031758E-02  0.13267526668E+00  0.20067123184E-01 0.  0.
         14    1    1    2    0    0  0.10787837133E-01 -0.12688405363E-01 -0.16652752451E-01  0.23551798760E-01  0.00000000000E+00 0.  1.
     999901    1    3    3    0    0  0.96538817960E-01 -0.62636859602E-01  0.19323055627E-01  0.88770293456E+00  0.88000000000E+00 0. -1.
        -11    1    4    4    0    0 -0.79909643273E-01  0.65675137062E-01  0.45832332027E-03  0.10343715917E+00  0.51100000000E-03 0.  1.
         11    1    4    4    0    0 -0.27417011821E-01  0.96501279033E-02 -0.31286264961E-02  0.29238107505E-01  0.51100000000E-03 0. -1.
</event>
<event>
 8    1  0.1131349E+005  0.1043930E+01  0.7957747E-01            NaN
         13   -1    0    0    0    0  0.00000000000E+00  0.00000000000E+00  0.74505805969E-08  0.10566000000E+00  0.10566000000E+00 0. -1.
     999900   -1    0    0    0    0 -0.00000000000E+00 -0.00000000000E+00 -0.74505805969E-08  0.93827000000E+00  0.93827000000E+00 0. -1.
     999902    2    1    2    0    0  0.79661829833E-02 -0.22850291179E-01  0.58489213358E-02  0.10190341016E+01  0.10187299418E+01 0.  0.
     999903    2    3    3    0    0  0.95241935381E-02  0.44082989506E-01 -0.11792665849E+00  0.12785348821E+00  0.20144414531E-01 0.  0.
         14    1    1    2    0    0 -0.79661829833E-02  0.22850291179E-01 -0.58489213358E-02  0.24895898439E-01  0.00000000000E+00 0.  1.
     999901    1    3    3    0    0 -0.15580105548E-02 -0.66933280685E-01  0.12377557983E+00  0.89118061336E+00  0.88000000000E+00 0.  1.
        -11    1    4    4    0    0  0.73596139206E-02  0.68989321544E-02 -0.43096380730E-01  0.44264187951E-01  0.51100000000E-03 0.  1.
         11    1    4    4    0    0  0.21645796175E-02  0.37184057352E-01 -0.74830277762E-01  0.83589300254E-01  0.51100000000E-03 0. -1.
</event>
<event>
 8    1  0.1131349E+005  0.1043930E+01  0.7957747E-01            NaN
         13   -1    0    0    0    0  0.00000000000E+00  0.00000000000E+00  0.74505805969E-08  0.10566000000E+00  0.10566000000E+00 0.  1.
     999900   -1    0    0    0    0 -0.00000000000E+00 -0.00000000000E+00 -0.74505805969E-08  0.93827000000E+00  0.93827000000E+00 0. -1.
     999902    2    1    2    0    0 -0.18263316025E-01 -0.10923421286E-01  0.10362689249E-01  0.10202602900E+01  0.10199856882E+01 0.  0.
     999903    2    3    3    0    0 -0.11151444071E+00 -0.48702456749E-01 -0.48526111063E-01  0.13257176431E+00  0.20324602228E-01 0.  0.
         14    1    1    2    0    0  0.18263316025E-01  0.10923421286E-01 -0.10362689249E-01  0.23669710038E-01  0.00000000000E+00 0.  1.
     999901    1    3    3    0    0  0.93251124687E-01  0.37779035463E-01  0.58888800312E-01  0.88768852565E+00  0.88000000000E+00 0.  1.
        -11    1    4    4    0    0 -0.53135583721E-01 -0.33821845620E-01 -0.21702015282E-01  0.66622414297E-01  0.51100000000E-03 0.  1.
         11    1    4    4    0    0 -0.58378856992E-01 -0.14880611129E-01 -0.26824095782E-01  0.65949350010E-01  0.51100000000E-03 0. -1.
</event>
<event>
 8    1  0.1131349E+005  0.1043930E+01  0.7957747E-01            NaN
         13   -1    0    0    0    0  0.00000000000E+00  0.00000000000E+00  0.74505805969E-08  0.10566000000E+00  0.10566000000E+00 0. -1.
     999900   -1    0    0    0    0 -0.00000000000E+00 -0.00000000000E+00 -0.74505805969E-08  0.93827000000E+00  0.93827000000E+00 0.  1.
     999902    2    1    2    0    0 -0.22263343526E-01  0.87441378917E-03 -0.51812327614E-02  0.10210549866E+01  0.10207987164E+01 0.  0.
     999903    2    3    3    0    0 -0.79699909726E-01  0.80260827071E-01 -0.67810694085E-01  0.13340437338E+00  0.20113692657E-01 0.  0.
         14    1    1    2    0    0  0.22263343526E-01 -0.87441378917E-03  0.51812327614E-02  0.22875013385E-01  0.00000000000E+00 0. -1.
     999901    1    3    3    0    0  0.57436566200E-01 -0.79386413282E-01  0.62629461323E-01  0.88765061323E+00  0.88000000000E+00 0. -1.
        -11    1    4    4    0    0 -0.10993059440E-01  0.22319432559E-01 -0.12218976871E-01  0.27723075990E-01  0.51100000000E-03 0. -1.
         11    1    4    4    0    0 -0.68706850286E-01  0.57941394512E-01 -0.55591717213E-01  0.10568129739E+00  0.51100000000E-03 0.  1.
</event>
<event>
 8    1  0.1131349E+005  0.1043930E+01  0.7957747E-01            NaN
         13   -1    0    0    0    0  0.00000000000E+00  0.00000000000E+00  0.74505805969E-08  0.10566000000E+00  0.10566000000E+00 0.  1.
     999900   -1    0    0    0    0 -0.00000000000E+00 -0.00000000000E+00 -0.74505805969E-08  0.93827000000E+00  0.93827000000E+00 0. -1.
     999902    2    1    2    0    0 -0.43591888632E-02  0.57806683598E-02 -0.23649783329E-01  0.10191968056E+01  0.10188966570E+01 0.  0.
     999903    2    3    3    0    0 -0.28959077339E-01  0.70149380938E-01 -0.10667530084E+00  0.13260686530E+00  0.21104433366E-01 0.  0.
         14    1    1    2    0    0  0.43591888632E-02 -0.57806683598E-02  0.23649783329E-01  0.24733194411E-01  0.00000000000E+00 0.  1.
     999901    1    3    3    0    0  0.24599888475E-01 -0.64368712578E-01  0.83025517512E-01  0.88658994029E+00  0.88000000000E+00 0.  1.
        -11    1    4    4    0    0 -0.27294158527E-01  0.61390748581E-01 -0.79966474762E-01  0.10444469018E+00  0.51100000000E-03 0.  1.
         11    1    4    4    0    0 -0.16649188118E-02  0.87586323568E-02 -0.26708826080E-01  0.28162175111E-01  0.51100000000E-03 0. -1.
</event>
<event>
 8    1  0.1131349E+005  0.1043930E+01  0.7957747E-01            NaN
         13   -1    0    0    0    0  0.00000000000E+00  0.00000000000E+00  0.74505805969E-08  0.10566000000E+00  0.10566000000E+00 0. -1.
     999900   -1    0    0    0    0 -0.00000000000E+00 -0.00000000000E+00 -0.74505805969E-08  0.93827000000E+00  0.93827000000E+00 0. -1.
     999902    2    1    2    0    0 -0.23059432508E-01 -0.75614869912E-03  0.70809170543E-02  0.10197960286E+01  0.10195104175E+01 0.  0.
     999903    2    3    3    0    0  0.25141616953E-01 -0.49269573067E-01 -0.11451329548E+00  0.12880666502E+00  0.20451659604E-01 0.  0.
         14    1    1    2    0    0  0.23059432508E-01  0.75614869912E-03 -0.70809170543E-02  0.24133971385E-01  0.00000000000E+00 0. -1.
     999901    1    3    3    0    0 -0.48201049462E-01  0.48513424368E-01  0.12159421253E+00  0.89098936359E+00  0.88000000000E+00 0.  1.
        -11    1    4    4    0    0  0.36971701422E-02 -0.31435192957E-02 -0.28193084195E-01  0.28612268314E-01  0.51100000000E-03 0.  1.
         11    1    4    4    0    0  0.21444446811E-01 -0.46126053771E-01 -0.86320211281E-01  0.10019439671E+00  0.51100000000E-03 0. -1.
</event>
<event>
 8    1  0.1131349E+005  0.1043930E+01  0.7957747E-01            NaN
         13   -1    0    0    0    0  0.00000000000E+00  0.00000000000E+00  0.74505805969E-08  0.10566000000E+00  0.10566000000E+00 0.  1.
     999900   -1    0    0    0    0 -0.00000000000E+00 -0.00000000000E+00 -0.74505805969E-08  0.93827000000E+00  0.93827000000E+00 0.  1.
     999902    2    1    2    0    0  0.15678898060E-01  0.21515064816E-01  0.21216378883E-02  0.10172236860E+01  0.10168730502E+01 0.  0.
     999903    2    3    3    0    0 -0.37258053240E-01  0.77741505092E-01  0.93875621827E-01  0.12908939046E+00  0.20482534298E-01 0.  0.
         14    1    1    2    0    0 -0.15678898060E-01 -0.21515064816E-01 -0.21216378883E-02  0.26706313968E-01  0.00000000000E+00 0.  1.
     999901    1    3    3    0    0  0.52936951301E-01 -0.56226440276E-01 -0.91753983938E-01  0.88813429557E+00  0.88000000000E+00 0.  1.
        -11    1    4    4    0    0 -0.22914791604E-01  0.47437913480E-01  0.71356565205E-01  0.88698725067E-01  0.51100000000E-03 0.  1.
         11    1    4    4    0    0 -0.14343261637E-01  0.30303591612E-01  0.22519056622E-01  0.40390665395E-01  0.51100000000E-03 0. -1.
</event>
<event>
 8    1  0.1131349E+005  0.1043930E+01  0.7957747E-01            NaN
         13   -1    0    0    0    0  0.00000000000E+00  0.00000000000E+00  0.74505805969E-08  0.10566000000E+00  0.10566000000E+00 0. -1.
     999900   -1    0    0    0    0 -0.00000000000E+00 -0.00000000000E+00 -0.74505805969E-08  0.93827000000E+00  0.93827000000E+00 0. -1.
     999902    2    1    2    0    0  0.12144717087E-02  0.18991044230E-01  0.15425678476E-01  0.10194333419E+01  0.10191389759E+01 0.  0.
     999903    2    3    3    0    0 -0.10210633825E+00  0.56238922737E-01  0.57617727071E-01  0.13160297341E+00  0.20273613266E-01 0.  0.
         14    1    1    2    0    0 -0.12144717087E-02 -0.18991044230E-01 -0.15425678476E-01  0.24496658118E-01  0.00000000000E+00 0.  1.
     999901    1    3    3    0    0  0.10332080996E+00 -0.37247878507E-01 -0.42192048595E-01  0.88783036848E+00  0.88000000000E+00 0.  1.
        -11    1    4    4    0    0 -0.40035348560E-01  0.17008980145E-01  0.31327415496E-01  0.53607859709E-01  0.51100000000E-03 0.  1.
         11    1    4    4    0    0 -0.62070989691E-01  0.39229942592E-01  0.26290311575E-01  0.77995113697E-01  0.51100000000E-03 0. -1.
</event>
<event>
 8    1  0.1131349E+005  0.1043930E+01  0.7957747E-01            NaN
         13   -1    0    0    0    0  0.00000000000E+00  0.00000000000E+00  0.74505805969E-08  0.10566000000E+00  0.10566000000E+00 0.  1.
     999900   -1    0    0    0    0 -0.00000000000E+00 -0.00000000000E+00 -0.74505805969E-08  0.93827000000E+00  0.93827000000E+00 0.  1.
     999902    2    1    2    0    0 -0.28352418702E-02  0.20851260039E-02 -0.25327089958E-01  0.10183595516E+01  0.10180384710E+01 0.  0.
     999903    2    3    3    0    0 -0.38949384709E-02  0.26914243593E-01  0.12126594582E+00  0.12588707235E+00  0.20064354319E-01 0.  0.
         14    1    1    2    0    0  0.28352418702E-02 -0.20851260039E-02  0.25327089958E-01  0.25570448425E-01  0.00000000000E+00 0.  1.
     999901    1    3    3    0    0  0.10596966007E-02 -0.24829117589E-01 -0.14659303578E+00  0.89247247923E+00  0.88000000000E+00 0.  1.
        -11    1    4    4    0    0  0.47817939221E-02  0.16840772158E-01  0.41891437384E-01  0.45405184804E-01  0.51100000000E-03 0. -1.
         11    1    4    4    0    0 -0.86767323930E-02  0.10073471434E-01  0.79374508438E-01  0.80481887544E-01  0.51100000000E-03 0.  1.
</event>
<event>
 8    1  0.1131349E+005  0.1043930E+01  0.7957747E-01            NaN
         13   -1    0    0    0    0  0.00000000000E+00  0.00000000000E+00  0.74505805969E-08  0.10566000000E+00  0.10566000000E+00 0. -1.
     999900   -1    0    0    0    0 -0.00000000000E+00 -0.00000000000E+00 -0.74505805969E-08  0.93827000000E+00  0.93827000000E+00 0.  1.
     999902    2    1    2    0    0  0.85239610710E-03 -0.22164627123E-01 -0.91353442382E-02  0.10199414238E+01  0.10196592843E+01 0.  0.
     999903    2    3    3    0    0 -0.13017236355E-01  0.11642282248E+00 -0.48069490195E-01  0.12813723249E+00  0.19615107046E-01 0.  0.
         14    1    1    2    0    0 -0.85239610710E-03  0.22164627123E-01  0.91353442382E-02  0.23988576218E-01  0.00000000000E+00 0.  1.
     999901    1    3    3    0    0  0.13869632462E-01 -0.13858744960E+00  0.38934145956E-01  0.89180419130E+00  0.88000000000E+00 0.  1.
        -11    1    4    4    0    0  0.35687410374E-02  0.53487373081E-02 -0.20586823169E-02  0.67708343108E-02  0.51100000000E-03 0.  1.
         11    1    4    4    0    0 -0.16585977393E-01  0.11107408517E+00 -0.46010807878E-01  0.12136639817E+00  0.51100000000E-03 0. -1.
</event>
<event>
 8    1  0.1131349E+005  0.1043930E+01  0.7957747E-01            NaN
         13   -1    0    0    0    0  0.00000000000E+00  0.00000000000E+00  0.74505805969E-08  0.10566000000E+00  0.10566000000E+00 0.  1.
     999900   -1    0    0    0    0 -0.00000000000E+00 -0.00000000000E+00 -0.74505805969E-08  0.93827000000E+00  0.93827000000E+00 0. -1.
     999902    2    1    2    0    0  0.94160438638E-02  0.22607777622E-01  0.10457593021E-02  0.10194174093E+01  0.10191226556E+01 0.  0.
     999903    2    3    3    0    0  0.12528375160E+00 -0.16855416814E-01  0.25967950638E-01  0.13059583831E+00  0.20020365430E-01 0.  0.
         14    1    1    2    0    0 -0.94160438638E-02 -0.22607777622E-01 -0.10457593021E-02  0.24512590715E-01  0.00000000000E+00 0.  1.
     999901    1    3    3    0    0 -0.11586770774E+00  0.39463194436E-01 -0.24922191336E-01  0.88882157098E+00  0.88000000000E+00 0. -1.
        -11    1    4    4    0    0  0.41015600975E-01 -0.55056327953E-02 -0.97694094211E-03  0.41398152742E-01  0.51100000000E-03 0. -1.
         11    1    4    4    0    0  0.84268150626E-01 -0.11349784019E-01  0.26944891580E-01  0.89197685567E-01  0.51100000000E-03 0.  1.
</event>
<event>
 8    1  0.1131349E+005  0.1043930E+01  0.7957747E-01            NaN
         13   -1    0    0    0    0  0.00000000000E+00  0.00000000000E+00  0.74505805969E-08  0.10566000000E+00  0.10566000000E+00 0.  1.
     999900   -1    0    0    0    0 -0.00000000000E+00 -0.00000000000E+00 -0.74505805969E-08  0.93827000000E+00  0.93827000000E+00 0.  1.
     999902    2    1    2    0    0  0.21177075352E-01  0.87343958467E-02 -0.45837468845E-02  0.10205683021E+01  0.10203008823E+01 0.  0.
     999903    2    3    3    0    0 -0.33351365282E-01 -0.12347760045E+00  0.56560384718E-02  0.12896400874E+00  0.15514296668E-01 0.  0.
         14    1    1    2    0    0 -0.21177075352E-01 -0.87343958467E-02  0.45837468845E-02  0.23361697858E-01  0.00000000000E+00 0.  1.
     999901    1    3    3    0    0  0.54528440634E-01  0.13221199630E+00 -0.10239785356E-01  0.89160429340E+00  0.88000000000E+00 0. -1.
        -11    1    4    4    0    0 -0.21405840185E-01 -0.99039401340E-01  0.81778245366E-03  0.10133085858E+00  0.51100000000E-03 0. -1.
         11    1    4    4    0    0 -0.11945525097E-01 -0.24438199109E-01  0.48382560181E-02  0.27633150162E-01  0.51100000000E-03 0.  1.
</event>
<event>
 8    1  0.1131349E+005  0.1043930E+01  0.7957747E-01            NaN
         13   -1    0    0    0    0  0.00000000000E+00  0.00000000000E+00  0.74505805969E-08  0.10566000000E+00  0.10566000000E+00 0.  1.
     999900   -1    0    0    0    0 -0.00000000000E+00 -0.00000000000E+00 -0.74505805969E-08  0.93827000000E+00  0.93827000000E+00 0. -1.
     999902    2    1    2    0    0  0.90008120880E-02 -0.14651146515E-01 -0.16786412778E-01  0.10198997198E+01  0.10196165868E+01 0.  0.
     999903    2    3    3    0    0 -0.47367671338E-01  0.48175199392E-02  0.11676076280E+00  0.12782837568E+00  0.20978873045E-01 0.  0.
         14    1    1    2    0    0 -0.90008120880E-02  0.14651146515E-01  0.16786412778E-01  0.24030280198E-01  0.00000000000E+00 0.  1.
     999901    1    3    3    0    0  0.56368483426E-01 -0.19468666454E-01 -0.13354717557E+00  0.89207134412E+00  0.88000000000E+00 0. -1.
        -11    1    4    4    0    0 -0.18112620923E-01 -0.82987504420E-02  0.42515484595E-01  0.46954912916E-01  0.51100000000E-03 0.  1.
         11    1    4    4    0    0 -0.29255050414E-01  0.13116270381E-01  0.74245278201E-01  0.80873462765E-01  0.51100000000E-03 0. -1.
</event>
<event>
 8    1  0.1131349E+005  0.1043930E+01  0.7957747E-01            NaN
         13   -1    0    0    0    0  0.00000000000E+00  0.00000000000E+00  0.74505805969E-08  0.10566000000E+00  0.10566000000E+00 0. -1.
     999900   -1    0    0    0    0 -0.00000000000E+00 -0.00000000000E+00 -0.74505805969E-08  0.93827000000E+00  0.93827000000E+00 0.  1.
     999902    2    1    2    0    0  0.32104232544E-02  0.85038878739E-02  0.19376298793E-01  0.10225275730E+01  0.10223035624E+01 0.  0.
     999903    2    3    3    0    0  0.29412573509E-01 -0.36735153924E-01 -0.11967404012E+00  0.13007694673E+00  0.19584820069E-01 0.  0.
         14    1    1    2    0    0 -0.32104232544E-02 -0.85038878739E-02 -0.19376298793E-01  0.21402426997E-01  0.00000000000E+00 0.  1.
     999901    1    3    3    0    0 -0.26202150255E-01  0.45239041798E-01  0.13905033892E+00  0.89245062627E+00  0.88000000000E+00 0. -1.
        -11    1    4    4    0    0  0.34829083301E-02 -0.17263166242E-01 -0.54549342018E-01  0.57323986208E-01  0.51100000000E-03 0. -1.
         11    1    4    4    0    0  0.25929665179E-01 -0.19471987682E-01 -0.65124698105E-01  0.72752960523E-01  0.51100000000E-03 0.  1.
</event>
<event>
 8    1  0.1131349E+005  0.1043930E+01  0.7957747E-01            NaN
         13   -1    0    0    0    0  0.00000000000E+00  0.00000000000E+00  0.74505805969E-08  0.10566000000E+00  0.10566000000E+00 0.  1.
     999900   -1    0    0    0    0 -0.00000000000E+00 -0.00000000000E+00 -0.74505805969E-08  0.93827000000E+00  0.93827000000E+00 0. -1.
     999902    2    1    2    0    0  0.23615650374E-01  0.20261379291E-02  0.20436034847E-02  0.10201396555E+01  0.10198622143E+01 0.  0.
     999903    2    3    3    0    0  0.67669620067E-01  0.21190380912E-01 -0.10941328762E+00  0.13180939086E+00  0.19345239432E-01 0.  0.
         14    1    1    2    0    0 -0.23615650374E-01 -0.20261379291E-02 -0.20436034847E-02  0.23790344527E-01  0.00000000000E+00 0. -1.
     999901    1    3    3    0    0 -0.44053969693E-01 -0.19164242983E-01  0.11145689110E+00  0.88833026461E+00  0.88000000000E+00 0.  1.
        -11    1    4    4    0    0  0.38544800534E-01  0.21872310486E-01 -0.63797056767E-01  0.77681562724E-01  0.51100000000E-03 0. -1.
         11    1    4    4    0    0  0.29124819533E-01 -0.68192957347E-03 -0.45616230849E-01  0.54127828135E-01  0.51100000000E-03 0.  1.
</event>
<event>
 8    1  0.1131349E+005  0.1043930E+01  0.7957747E-01            NaN
         13   -1    0    0    0    0  0.00000000000E+00  0.00000000000E+00  0.74505805969E-08  0.10566000000E+00  0.10566000000E+00 0. -1.
     999900   -1    0    0    0    0 -0.00000000000E+00 -0.00000000000E+00 -0.74505805969E-08  0.93827000000E+00  0.93827000000E+00 0.  1.
     999902    2    1    2    0    0  0.14038746399E-01  0.11024882899E-01  0.16096404308E-01  0.10198940129E+01  0.10196107438E+01 0.  0.
     999903    2    3    3    0    0 -0.22025697999E-02 -0.12748327986E+00  0.38039127321E-02  0.12882757496E+00  0.18034310671E-01 0.  0.
         14    1    1    2    0    0 -0.14038746399E-01 -0.11024882899E-01 -0.16096404308E-01  0.24035987082E-01  0.00000000000E+00 0.  1.
     999901    1    3    3    0    0  0.16241316198E-01  0.13850816276E+00  0.12292491576E-01  0.89106643796E+00  0.88000000000E+00 0. -1.
        -11    1    4    4    0    0  0.19155330512E-02 -0.11849335194E+00  0.60875822955E-02  0.11866618516E+00  0.51100000000E-03 0. -1.
         11    1    4    4    0    0 -0.41181028511E-02 -0.89899279185E-02 -0.22836695634E-02  0.10161389804E-01  0.51100000000E-03 0.  1.
</event>
<event>
 8    1  0.1131349E+005  0.1043930E+01  0.7957747E-01            NaN
         13   -1    0    0    0    0  0.00000000000E+00  0.00000000000E+00  0.74505805969E-08  0.10566000000E+00  0.10566000000E+00 0. -1.
     999900   -1    0    0    0    0 -0.00000000000E+00 -0.00000000000E+00 -0.74505805969E-08  0.93827000000E+00  0.93827000000E+00 0. -1.
     999902    2    1    2    0    0 -0.18934868303E-01  0.14123275098E-01  0.10541443283E-02  0.10202845489E+01  0.10200105163E+01 0.  0.
     999903    2    3    3    0    0  0.78061494920E-01  0.86471319029E-01 -0.54741685741E-01  0.13025325250E+00  0.19959249084E-01 0.  0.
         14    1    1    2    0    0  0.18934868303E-01 -0.14123275098E-01 -0.10541443283E-02  0.23645451093E-01  0.00000000000E+00 0.  1.
     999901    1    3    3    0    0 -0.96996363223E-01 -0.72348043931E-01  0.55795830069E-01  0.89003129641E+00  0.88000000000E+00 0. -1.
        -11    1    4    4    0    0  0.42245341224E-01  0.32277005470E-01 -0.22535164791E-01  0.57745724607E-01  0.51100000000E-03 0. -1.
         11    1    4    4    0    0  0.35816153696E-01  0.54194313559E-01 -0.32206520950E-01  0.72507527888E-01  0.51100000000E-03 0.  1.
</event>
<event>
 8    1  0.1131349E+005  0.1043930E+01  0.7957747E-01            NaN
         13   -1    0    0    0    0  0.00000000000E+00  0.00000000000E+00  0.74505805969E-08  0.10566000000E+00  0.10566000000E+00 0.  1.
     999900   -1    0    0    0    0 -0.00000000000E+00 -0.00000000000E+00 -0.74505805969E-08  0.93827000000E+00  0.93827000000E+00 0.  1.
     999902    2    1    2    0    0  0.96591386512E-02 -0.22950542649E-01 -0.48092928290E-02  0.10185694861E+01  0.10182537220E+01 0.  0.
     999903    2    3    3    0    0  0.67447799169E-01 -0.12737080283E-01  0.10787881945E+00  0.12944494211E+00  0.20167164502E-01 0.  0.
         14    1    1    2    0    0 -0.96591386512E-02  0.22950542649E-01  0.48092928290E-02  0.25360513892E-01  0.00000000000E+00 0.  1.
     999901    1    3    3    0    0 -0.57788660518E-01 -0.10213462366E-01 -0.11268811228E+00  0.88912454400E+00  0.88000000000E+00 0.  1.
        -11    1    4    4    0    0  0.36764011599E-01 -0.15240151692E-01  0.50212333982E-01  0.64073351539E-01  0.51100000000E-03 0. -1.
         11    1    4    4    0    0  0.30683787569E-01  0.25030714088E-02  0.57666485467E-01  0.65371590567E-01  0.51100000000E-03 0.  1.
</event>
<event>
 8    1  0.1131349E+005  0.1043930E+01  0.7957747E-01            NaN
         13   -1    0    0    0    0  0.00000000000E+00  0.00000000000E+00  0.74505805969E-08  0.10566000000E+00  0.10566000000E+00 0.  1.
     999900   -1    0    0    0    0 -0.00000000000E+00 -0.00000000000E+00 -0.74505805969E-08  0.93827000000E+00  0.93827000000E+00 0.  1.
     999902    2    1    2    0    0  0.13961953613E-01  0.14279622457E-01  0.12888932144E-01  0.10201609374E+01  0.10198839982E+01 0.  0.
     999903    2    3    3    0    0 -0.59402458237E-01  0.11203037087E+00  0.34153512593E-01  0.13145979069E+00  0.59798079698E-02 0.  0.
         14    1    1    2    0    0 -0.13961953613E-01 -0.14279622457E-01 -0.12888932144E-01  0.23769062624E-01  0.00000000000E+00 0. -1.
     999901    1    3    3    0    0  0.73364411850E-01 -0.97750748415E-01 -0.21264580449E-01  0.88870114669E+00  0.88000000000E+00 0.  1.
        -11    1    4    4    0    0 -0.16300019357E-01  0.28052661640E-01  0.11057336214E-01  0.34280727257E-01  0.51100000000E-03 0.  1.
         11    1    4    4    0    0 -0.43102438881E-01  0.83977709231E-01  0.23096176379E-01  0.97179063432E-01  0.51100000000E-03 0. -1.
</event>
<event>
 8    1  0.1131349E+005  0.1043930E+01  0.7957747E-01            NaN
         13   -1    0    0    0    0  0.00000000000E+00  0.00000000000E+00  0.74505805969E-08  0.10566000000E+00  0.10566000000E+00 0.  1.
     999900   -1    0    0    0    0 -0.00000000000E+00 -0.00000000000E+00 -0.74505805969E-08  0.93827000000E+00  0.93827000000E+00 0. -1.
     999902    2    1    2    0    0  0.23505223739E-01 -0.26320625866E-02 -0.78937541453E-02  0.10189953925E+01  0.10186902745E+01 0.  0.
     999903    2    3    3    0    0 -0.10507162173E+00  0.54388219327E-02 -0.67951184226E-01  0.12758973890E+00  0.24334164427E-01 0.  0.
         14    1    1    2    0    0 -0.23505223739E-01  0.26320625866E-02  0.78937541453E-02  0.24934607496E-01  0.00000000000E+00 0. -1.
     999901    1    3    3    0    0  0.12857684547E+00 -0.80708845193E-02  0.60057430080E-01  0.89140565360E+00  0.88000000000E+00 0. -1.
        -11    1    4    4    0    0 -0.90468627682E-01 -0.40961068362E-03 -0.48773763352E-01  0.10278074473E+00  0.51100000000E-03 0. -1.
         11    1    4    4    0    0 -0.14602994047E-01  0.58484326163E-02 -0.19177420874E-01  0.24808994167E-01  0.51100000000E-03 0.  1.
</event>
<event>
 8    1  0.1131349E+005  0.1043930E+01  0.7957747E-01            NaN
         13   -1    0    0    0    0  0.00000000000E+00  0.00000000000E+00  0.74505805969E-08  0.10566000000E+00  0.10566000000E+00 0.  1.
     999900   -1    0    0    0    0 -0.00000000000E+00 -0.00000000000E+00 -0.74505805969E-08  0.93827000000E+00  0.93827000000E+00 0.  1.
     999902    2    1    2    0    0 -0.21309777247E-01  0.79487223639E-02  0.64364831966E-02  0.10202928024E+01  0.10200189633E+01 0.  0.
     999903    2    3    3    0    0 -0.33169029881E-01 -0.63166824611E-01 -0.10687414946E+00  0.13010329317E+00  0.20360520531E-01 0.  0.
         14    1    1    2    0    0  0.21309777247E-01 -0.79487223639E-02 -0.64364831966E-02  0.23637197581E-01  0.00000000000E+00 0. -1.
     999901    1    3    3    0    0  0.11859252634E-01  0.71115546975E-01  0.11331063266E+00  0.89018950924E+00  0.88000000000E+00 0. -1.
        -11    1    4    4    0    0 -0.12780996497E-01 -0.19469793154E-01 -0.19823361321E-01  0.30588453573E-01  0.51100000000E-03 0. -1.
         11    1    4    4    0    0 -0.20388033384E-01 -0.43697031456E-01 -0.87050788144E-01  0.99514839602E-01  0.51100000000E-03 0.  1.
</event>
<event>
 8    1  0.1131349E+005  0.1043930E+01  0.7957747E-01            NaN
         13   -1    0    0    0    0  0.00000000000E+00  0.00000000000E+00  0.74505805969E-08  0.10566000000E+00  0.10566000000E+00 0. -1.
     999900   -1    0    0    0    0 -0.00000000000E+00 -0.00000000000E+00 -0.74505805969E-08  0.93827000000E+00  0.93827000000E+00 0. -1.
     999902    2    1    2    0    0  0.17243571334E-01 -0.41517792506E-02  0.15973842218E-01  0.10200607382E+01  0.10197814315E+01 0.  0.
     999903    2    3    3    0    0  0.11515808996E+00  0.27855660889E-01 -0.53001726881E-01  0.13137105203E+00  0.20294007305E-01 0.  0.
         14    1    1    2    0    0 -0.17243571334E-01  0.41517792506E-02 -0.15973842218E-01  0.23869261792E-01  0.00000000000E+00 0.  1.
     999901    1    3    3    0    0 -0.97914518627E-01 -0.32007440139E-01  0.68975569100E-01  0.88868968618E+00  0.88000000000E+00 0.  1.
        -11    1    4    4    0    0  0.10620621645E+00  0.31034989086E-01 -0.49731720394E-01  0.12131131891E+00  0.51100000000E-03 0.  1.
         11    1    4    4    0    0  0.89518735098E-02 -0.31793281978E-02 -0.32700064876E-02  0.10059733125E-01  0.51100000000E-03 0. -1.
</event>
<event>
 8    1  0.1131349E+005  0.1043930E+01  0.7957747E-01            NaN
         13   -1    0    0    0    0  0.00000000000E+00  0.00000000000E+00  0.74505805969E-08  0.10566000000E+00  0.10566000000E+00 0.  1.
     999900   -1    0    0    0    0 -0.00000000000E+00 -0.00000000000E+00 -0.74505805969E-08  0.93827000000E+00  0.93827000000E+00 0.  1.
     999902    2    1    2    0    0  0.20667369956E-01  0.72296755615E-02  0.94874008797E-02  0.10200674946E+01  0.10197883478E+01 0.  0.
     999903    2    3    3    0    0  0.10621773998E+00  0.51126062642E-01 -0.56671985618E-01  0.13236099858E+00  0.20288849720E-01 0.  0.
         14    1    1    2    0    0 -0.20667369956E-01 -0.72296755615E-02 -0.94874008797E-02  0.23862505423E-01  0.00000000000E+00 0. -1.
     999901    1    3    3    0    0 -0.85550370027E-01 -0.43896387081E-01  0.66159386498E-01  0.88770649600E+00  0.88000000000E+00 0.  1.
        -11    1    4    4    0    0  0.96833805061E-01  0.42861915344E-01 -0.44383953133E-01  0.11482214946E+00  0.51100000000E-03 0. -1.
         11    1    4    4    0    0  0.93839349231E-02  0.82641472984E-02 -0.12288032485E-01  0.17538849123E-01  0.51100000000E-03 0.  1.
</event>
<event>
 8    1  0.1131349E+005  0.1043930E+01  0.7957747E-01            NaN
         13   -1    0    0    0    0  0.00000000000E+00  0.00000000000E+00  0.74505805969E-08  0.10566000000E+00  0.10566000000E+00 0.  1.
     999900   -1    0    0    0    0 -0.00000000000E+00 -0.00000000000E+00 -0.74505805969E-08  0.93827000000E+00  0.93827000000E+00 0. -1.
     999902    2    1    2    0    0 -0.98084037009E-02  0.82082616705E-02  0.17561267322E-01  0.10222049349E+01  0.10219740459E+01 0.  0.
     999903    2    3    3    0    0 -0.75370211271E-01 -0.22767072772E-01  0.10736704499E+00  0.13466738661E+00  0.20214210786E-01 0.  0.
         14    1    1    2    0    0  0.98084037009E-02 -0.82082616705E-02 -0.17561267322E-01  0.21725065081E-01  0.00000000000E+00 0. -1.
     999901    1    3    3    0    0  0.65561807570E-01  0.30975334442E-01 -0.89805777665E-01  0.88753754831E+00  0.88000000000E+00 0. -1.
        -11    1    4    4    0    0 -0.38856075770E-01 -0.16413386485E-01  0.71929354943E-01  0.83386372409E-01  0.51100000000E-03 0.  1.
         11    1    4    4    0    0 -0.36514135501E-01 -0.63536862864E-02  0.35437690044E-01  0.51281014201E-01  0.51100000000E-03 0. -1.
</event>
<event>
 8    1  0.1131349E+005  0.1043930E+01  0.7957747E-01            NaN
         13   -1    0    0    0    0  0.00000000000E+00  0.00000000000E+00  0.74505805969E-08  0.10566000000E+00  0.10566000000E+00 0.  1.
     999900   -1    0    0    0    0 -0.00000000000E+00 -0.00000000000E+00 -0.74505805969E-08  0.93827000000E+00  0.93827000000E+00 0.  1.
     999902    2    1    2    0    0  0.10895151934E-02 -0.87880120591E-02 -0.22748282405E-01  0.10195189256E+01  0.10192266378E+01 0.  0.
     999903    2    3    3    0    0  0.60150730200E-01  0.74264916939E-01  0.81530175568E-01  0.12752116054E+00  0.21933732614E-01 0.  0.
         14    1    1    2    0    0 -0.10895151934E-02  0.87880120591E-02  0.22748282405E-01  0.24411074365E-01  0.00000000000E+00 0.  1.
     999901    1    3    3    0    0 -0.59061215007E-01 -0.83052928998E-01 -0.10427845797E+00  0.89199776509E+00  0.88000000000E+00 0.  1.
        -11    1    4    4    0    0  0.36672004798E-01  0.30098376960E-01  0.46662163777E-01  0.66545975693E-01  0.51100000000E-03 0. -1.
         11    1    4    4    0    0  0.23478725402E-01  0.44166539979E-01  0.34868011791E-01  0.60975184849E-01  0.51100000000E-03 0.  1.
</event>
<event>
 8    1  0.1131349E+005  0.1043930E+01  0.7957747E-01            NaN
         13   -1    0    0    0    0  0.00000000000E+00  0.00000000000E+00  0.74505805969E-08  0.10566000000E+00  0.10566000000E+00 0.  1.
     999900   -1    0    0    0    0 -0.00000000000E+00 -0.00000000000E+00 -0.74505805969E-08  0.93827000000E+00  0.93827000000E+00 0. -1.
     999902    2    1    2    0    0  0.69651399673E-02  0.60939973824E-02 -0.22056461739E-01  0.10200106045E+01  0.10197301093E+01 0.  0.
     999903    2    3    3    0    0  0.86949004030E-01 -0.78878231554E-02 -0.98435614454E-01  0.13297808826E+00  0.19267971044E-01 0.  0.
         14    1    1    2    0    0 -0.69651399673E-02 -0.60939973824E-02  0.22056461739E-01  0.23919395547E-01  0.00000000000E+00 0.  1.
     999901    1    3    3    0    0 -0.79983864063E-01  0.13981820538E-01  0.76379152715E-01  0.88703251619E+00  0.88000000000E+00 0.  1.
        -11    1    4    4    0    0  0.25114454799E-01  0.29738407202E-02 -0.18520334447E-01  0.31350334568E-01  0.51100000000E-03 0.  1.
         11    1    4    4    0    0  0.61834549231E-01 -0.10861663876E-01 -0.79915280007E-01  0.10162775369E+00  0.51100000000E-03 0. -1.
</event>
<event>
 8    1  0.1131349E+005  0.1043930E+01  0.7957747E-01            NaN
         13   -1    0    0    0    0  0.00000000000E+00  0.00000000000E+00  0.74505805969E-08  0.10566000000E+00  0.10566000000E+00 0. -1.
     999900   -1    0    0    0    0 -0.00000000000E+00 -0.00000000000E+00 -0.74505805969E-08  0.93827000000E+00  0.93827000000E+00 0. -1.
     999902    2    1    2    0    0  0.17784930524E-01 -0.15281908771E-01 -0.63393070111E-03  0.10204727547E+01  0.10202031174E+01 0.  0.
     999903    2    3    3    0    0  0.79331790533E-01  0.99018892078E-01  0.23542453234E-01  0.13062041492E+00  0.20227993284E-01 0.  0.
         14    1    1    2    0    0 -0.17784930524E-01  0.15281908771E-01  0.63393070111E-03  0.23457245310E-01  0.00000000000E+00 0.  1.
     999901    1    3    3    0    0 -0.61546860009E-01 -0.11430080085E+00 -0.24176383935E-01  0.88985233977E+00  0.88000000000E+00 0. -1.
        -11    1    4    4    0    0  0.32862012196E-01  0.27458598175E-01  0.34858489431E-02  0.42968578324E-01  0.51100000000E-03 0.  1.
         11    1    4    4    0    0  0.46469778337E-01  0.71560293903E-01  0.20056604290E-01  0.87651836597E-01  0.51100000000E-03 0. -1.
</event>
<event>
 8    1  0.1131349E+005  0.1043930E+01  0.7957747E-01            NaN
         13   -1    0    0    0    0  0.00000000000E+00  0.00000000000E+00  0.74505805969E-08  0.10566000000E+00  0.10566000000E+00 0. -1.
     999900   -1    0    0    0    0 -0.00000000000E+00 -0.00000000000E+00 -0.74505805969E-08  0.93827000000E+00  0.93827000000E+00 0.  1.
     999902    2    1    2    0    0 -0.24040734453E-01 -0.43732521290E-02 -0.51152690304E-03  0.10194893800E+01  0.10191963756E+01 0.  0.
     999903    2    3    3    0    0  0.88054758343E-01 -0.52452947673E-01  0.74065732652E-01  0.12795204241E+00  0.19520251493E-01 0.  0.
         14    1    1    2    0    0  0.24040734453E-01  0.43732521290E-02  0.51152690304E-03  0.24440620021E-01  0.00000000000E+00 0. -1.
     999901    1    3    3    0    0 -0.11209549280E+00  0.48079695544E-01 -0.74577259555E-01  0.89153733756E+00  0.88000000000E+00 0.  1.
        -11    1    4    4    0    0  0.57734569075E-01 -0.40146656272E-01  0.59556277672E-01  0.92153381963E-01  0.51100000000E-03 0. -1.
         11    1    4    4    0    0  0.30320189268E-01 -0.12306291401E-01  0.14509454980E-01  0.35798660451E-01  0.51100000000E-03 0.  1.
</event>
<event>
 8    1  0.1131349E+005  0.1043930E+01  0.7957747E-01            NaN
         13   -1    0    0    0    0  0.00000000000E+00  0.00000000000E+00  0.74505805969E-08  0.10566000000E+00  0.10566000000E+00 0.  1.
     999900   -1    0    0    0    0 -0.00000000000E+00 -0.00000000000E+00 -0.74505805969E-08  0.93827000000E+00  0.93827000000E+00 0.  1.
     999902    2    1    2    0    0 -0.42593795578E-02 -0.13377314542E-01  0.18035482185E-01  0.10210745088E+01  0.10208186808E+01 0.  0.
     999903    2    3    3    0    0  0.10159683927E+00 -0.76769974012E-01  0.29202266899E-01  0.13239635257E+00  0.21458684085E-01 0.  0.
         14    1    1    2    0    0  0.42593795578E-02  0.13377314542E-01 -0.18035482185E-01  0.22855491161E-01  0.00000000000E+00 0. -1.
     999901    1    3    3    0    0 -0.10585621883E+00  0.63392659470E-01 -0.11166784714E-01  0.88867815626E+00  0.88000000000E+00 0.  1.
        -11    1    4    4    0    0  0.65402002401E-01 -0.61734865026E-01  0.20550314755E-01  0.92256121940E-01  0.51100000000E-03 0. -1.
         11    1    4    4    0    0  0.36194836874E-01 -0.15035108986E-01  0.86519521445E-02  0.40140230635E-01  0.51100000000E-03 0.  1.
</event>
<event>
 8    1  0.1131349E+005  0.1043930E+01  0.7957747E-01            NaN
         13   -1    0    0    0    0  0.00000000000E+00  0.00000000000E+00  0.74505805969E-08  0.10566000000E+00  0.10566000000E+00 0.  1.
     999900   -1    0    0    0    0 -0.00000000000E+00 -0.00000000000E+00 -0.74505805969E-08  0.93827000000E+00  0.93827000000E+00 0.  1.
     999902    2    1    2    0    0  0.12811854464E-02  0.23188801426E-01 -0.81258556936E-02  0.10193252956E+01  0.10190282954E+01 0.  0.
     999903    2    3    3    0    0  0.58297947309E-01 -0.10638592927E+00  0.34551404355E-01  0.12699022933E+00  0.14700414823E-01 0.  0.
         14    1    1    2    0    0 -0.12811854464E-02 -0.23188801426E-01  0.81258556936E-02  0.24604704397E-01  0.00000000000E+00 0.  1.
     999901    1    3    3    0    0 -0.57016761863E-01  0.12957473070E+00 -0.42677260049E-01  0.89233506627E+00  0.88000000000E+00 0. -1.
        -11    1    4    4    0    0  0.17631454333E-01 -0.39410101402E-01  0.59926300483E-02  0.43591249240E-01  0.51100000000E-03 0. -1.
         11    1    4    4    0    0  0.40666492977E-01 -0.66975827869E-01  0.28558774307E-01  0.83398980093E-01  0.51100000000E-03 0.  1.
</event>
<event>
 8    1  0.1131349E+005  0.1043930E+01  0.7957747E-01            NaN
         13   -1    0    0    0    0  0.00000000000E+00  0.00000000000E+00  0.74505805969E-08  0.10566000000E+00  0.10566000000E+00 0.  1.
     999900   -1    0    0    0    0 -0.00000000000E+00 -0.00000000000E+00 -0.74505805969E-08  0.93827000000E+00  0.93827000000E+00 0.  1.
     999902    2    1    2    0    0 -0.19120890818E-01 -0.10046936506E-01 -0.24935135350E-02  0.10221867940E+01  0.10219555151E+01 0.  0.
     999903    2    3    3    0    0  0.25653595851E-01 -0.12732298627E+00 -0.21788389472E-01  0.13306884974E+00  0.19061349464E-01 0.  0.
         14    1    1    2    0    0  0.19120890818E-01  0.10046936506E-01  0.24935135350E-02  0.21743206033E-01  0.00000000000E+00 0.  1.
     999901    1    3    3    0    0 -0.44774486669E-01  0.11727604976E+00  0.19294875937E-01  0.88911794422E+00  0.88000000000E+00 0. -1.
        -11    1    4    4    0    0  0.12964391798E-01 -0.96008521856E-01 -0.21678622849E-01  0.99277064488E-01  0.51100000000E-03 0.  1.
         11    1    4    4    0    0  0.12689204053E-01 -0.31314464413E-01 -0.10976662295E-03  0.33791785255E-01  0.51100000000E-03 0. -1.
</event>
<event>
 8    1  0.1131349E+005  0.1043930E+01  0.7957747E-01            NaN
         13   -1    0    0    0    0  0.00000000000E+00  0.00000000000E+00  0.74505805969E-08  0.10566000000E+00  0.10566000000E+00 0.  1.
     999900   -1    0    0    0    0 -0.00000000000E+00 -0.00000000000E+00 -0.74505805969E-08  0.93827000000E+00  0.93827000000E+00 0. -1.
     999902    2    1    2    0    0 -0.16991271673E-01  0.14800116161E-01 -0.47334536807E-02  0.10209049629E+01  0.10206452816E+01 0.  0.
     999903    2    3    3    0    0  0.75475879957E-01 -0.27258364473E-01 -0.10034688323E+00  0.12991617627E+00  0.19211688956E-01 0.  0.
         14    1    1    2    0    0  0.16991271673E-01 -0.14800116161E-01  0.47334536807E-02  0.23025037138E-01  0.00000000000E+00 0.  1.
     999901    1    3    3    0    0 -0.92467151629E-01  0.42058480634E-01  0.95613429554E-01  0.89098878659E+00  0.88000000000E+00 0.  1.
        -11    1    4    4    0    0  0.56206310715E-01 -0.17692711471E-01 -0.59467453490E-01  0.83718698921E-01  0.51100000000E-03 0. -1.
         11    1    4    4    0    0  0.19269569241E-01 -0.95656530020E-02 -0.40879429744E-01  0.46197477348E-01  0.51100000000E-03 0.  1.
</event>
<event>
 8    1  0.1131349E+005  0.1043930E+01  0.7957747E-01            NaN
         13   -1    0    0    0    0  0.00000000000E+00  0.00000000000E+00  0.74505805969E-08  0.10566000000E+00  0.10566000000E+00 0.  1.
     999900   -1    0    0    0    0 -0.00000000000E+00 -0.00000000000E+00 -0.74505805969E-08  0.93827000000E+00  0.93827000000E+00 0.  1.
     999902    2    1    2    0    0 -0.68820113008E-02  0.17669920585E-02  0.22802316154E-01  0.10200463244E+01  0.10197666762E+01 0.  0.
     999903    2    3    3    0    0 -0.31733460761E-01  0.11985592097E+00 -0.33702292342E-01  0.13001522352E+00  0.19891191868E-01 0.  0.
         14    1    1    2    0    0  0.68820113008E-02 -0.17669920585E-02 -0.22802316154E-01  0.23883675648E-01  0.00000000000E+00 0. -1.
     999901    1    3    3    0    0  0.24851449461E-01 -0.11808892891E+00  0.56504608496E-01  0.89003110083E+00  0.88000000000E+00 0. -1.
        -11    1    4    4    0    0 -0.71812856738E-02  0.45479513248E-01 -0.38977493602E-02  0.46210502705E-01  0.51100000000E-03 0. -1.
         11    1    4    4    0    0 -0.24552175088E-01  0.74376407721E-01 -0.29804542982E-01  0.83804720813E-01  0.51100000000E-03 0.  1.
</event>
<event>
 8    1  0.1131349E+005  0.1043930E+01  0.7957747E-01            NaN
         13   -1    0    0    0    0  0.00000000000E+00  0.00000000000E+00  0.74505805969E-08  0.10566000000E+00  0.10566000000E+00 0.  1.
     999900   -1    0    0    0    0 -0.00000000000E+00 -0.00000000000E+00 -0.74505805969E-08  0.93827000000E+00  0.93827000000E+00 0.  1.
     999902    2    1    2    0    0 -0.10994334827E-01  0.66892509654E-02 -0.20246846647E-01  0.10199392460E+01  0.10196570548E+01 0.  0.
     999903    2    3    3    0    0  0.50670586488E-01 -0.10200667378E+00  0.54651369542E-01  0.12795992488E+00  0.20349455799E-01 0.  0.
         14    1    1    2    0    0  0.10994334827E-01 -0.66892509654E-02  0.20246846647E-01  0.23990753967E-01  0.00000000000E+00 0.  1.
     999901    1    3    3    0    0 -0.61664921315E-01  0.10869592475E+00 -0.74898216188E-01  0.89197932115E+00  0.88000000000E+00 0.  1.
        -11    1    4    4    0    0  0.39875076238E-01 -0.61207571092E-01  0.29189349409E-01  0.78668085676E-01  0.51100000000E-03 0.  1.
         11    1    4    4    0    0  0.10795510250E-01 -0.40799102690E-01  0.25462020133E-01  0.49291839203E-01  0.51100000000E-03 0. -1.
</event>
<event>
 8    1  0.1131349E+005  0.1043930E+01  0.7957747E-01            NaN
         13   -1    0    0    0    0  0.00000000000E+00  0.00000000000E+00  0.74505805969E-08  0.10566000000E+00  0.10566000000E+00 0. -1.
     999900   -1    0    0    0    0 -0.00000000000E+00 -0.00000000000E+00 -0.74505805969E-08  0.93827000000E+00  0.93827000000E+00 0.  1.
     999902    2    1    2    0    0  0.10988020165E-01 -0.18215841246E-01  0.81786666982E-02  0.10211386848E+01  0.10208843076E+01 0.  0.
     999903    2    3    3    0    0  0.64907441314E-01  0.63640181789E-01 -0.90970251777E-01  0.13016269157E+00  0.20092060423E-01 0.  0.
         14    1    1    2    0    0 -0.10988020165E-01  0.18215841246E-01 -0.81786666982E-02  0.22791315197E-01  0.00000000000E+00 0. -1.
     999901    1    3    3    0    0 -0.53919421149E-01 -0.81856023035E-01  0.99148918475E-01  0.89097599323E+00  0.88000000000E+00 0. -1.
        -11    1    4    4    0    0  0.56086229111E-01  0.45081248656E-01 -0.64395526914E-01  0.96566190169E-01  0.51100000000E-03 0.  1.
         11    1    4    4    0    0  0.88212122033E-02  0.18558933133E-01 -0.26574724863E-01  0.33596501400E-01  0.51100000000E-03 0. -1.
</event>
<event>
 8    1  0.1131349E+005  0.1043930E+01  0.7957747E-01            NaN
         13   -1    0    0    0    0  0.00000000000E+00  0.00000000000E+00  0.74505805969E-08  0.10566000000E+00  0.10566000000E+00 0.  1.
     999900   -1    0    0    0    0 -0.00000000000E+00 -0.00000000000E+00 -0.74505805969E-08  0.93827000000E+00  0.93827000000E+00 0.  1.
     999902    2    1    2    0    0 -0.99625080863E-03 -0.33643344572E-01 -0.80830676220E-02  0.10093149291E+01  0.10087211820E+01 0.  0.
     999903    2    3    3    0    0 -0.60199328837E-01 -0.58531423754E-01 -0.88154207728E-01  0.12334889794E+00  0.19846902113E-01 0.  0.
         14    1    1    2    0    0  0.99625080863E-03  0.33643344572E-01  0.80830676220E-02  0.34615070878E-01  0.00000000000E+00 0. -1.
     999901    1    3    3    0    0  0.59203078028E-01  0.24888079181E-01  0.80071140106E-01  0.88596603118E+00  0.88000000000E+00 0. -1.
        -11    1    4    4    0    0 -0.41422355650E-01 -0.49775011348E-01 -0.59184354259E-01  0.87729198174E-01  0.51100000000E-03 0. -1.
         11    1    4    4    0    0 -0.18776973186E-01 -0.87564124061E-02 -0.28969853469E-01  0.35619699764E-01  0.51100000000E-03 0.  1.
</event>
<event>
 8    1  0.1131349E+005  0.1043930E+01  0.7957747E-01            NaN
         13   -1    0    0    0    0  0.00000000000E+00  0.00000000000E+00  0.74505805969E-08  0.10566000000E+00  0.10566000000E+00 0. -1.
     999900   -1    0    0    0    0 -0.00000000000E+00 -0.00000000000E+00 -0.74505805969E-08  0.93827000000E+00  0.93827000000E+00 0.  1.
     999902    2    1    2    0    0 -0.70600835059E-02 -0.24304566249E-01  0.34797177719E-02  0.10183826879E+01  0.10180621955E+01 0.  0.
     999903    2    3    3    0    0  0.43524238342E-01  0.79092980066E-01  0.86761884320E-01  0.12698729557E+00  0.21168132827E-01 0.  0.
         14    1    1    2    0    0  0.70600835059E-02  0.24304566249E-01 -0.34797177719E-02  0.25547312098E-01  0.00000000000E+00 0.  1.
     999901    1    3    3    0    0 -0.50584321848E-01 -0.10339754631E+00 -0.83282166548E-01  0.89139539233E+00  0.88000000000E+00 0.  1.
        -11    1    4    4    0    0  0.32209615807E-01  0.37018436061E-01  0.48610461760E-01  0.69072875084E-01  0.51100000000E-03 0. -1.
         11    1    4    4    0    0  0.11314622535E-01  0.42074544004E-01  0.38151422560E-01  0.57914420489E-01  0.51100000000E-03 0.  1.
</event>
<event>
 7    1  0.1131349E+005  0.1043930E+01  0.7957747E-01            NaN
         13   -1    0    0    0    0  0.00000000000E+00  0.00000000000E+00  0.74505805969E-08  0.10566000000E+00  0.10566000000E+00 0.  1.
     999900   -1    0    0    0    0 -0.00000000000E+00 -0.00000000000E+00 -0.74505805969E-08  0.93827000000E+00  0.93827000000E+00 0.  1.
     999902    2    1    2    0    0  0.46366799874E-02  0.13573624218E-01  0.17044464880E-01  0.10216531991E+01  0.10214103012E+01 0.  0.
         14    1    1    2    0    0 -0.46366799874E-02 -0.13573624218E-01 -0.17044464880E-01  0.22276800910E-01  0.00000000000E+00 0.  1.
     999901    1    3    3    0    0  0.80303807138E-01 -0.67924472055E-01  0.64147337698E-01  0.88858163175E+00  0.88000000000E+00 0.  1.
        -11    1    3    3    0    0 -0.11319631777E-01  0.47339267231E-01 -0.50145808863E-02  0.48934113132E-01  0.51100000000E-03 0. -1.
         11    1    3    3    0    0 -0.64347495374E-01  0.34158829042E-01 -0.42088291931E-01  0.84137454211E-01  0.51100000000E-03 0.  1.
</event>
<event>
 8    1  0.1131349E+005  0.1043930E+01  0.7957747E-01            NaN
         13   -1    0    0    0    0  0.00000000000E+00  0.00000000000E+00  0.74505805969E-08  0.10566000000E+00  0.10566000000E+00 0. -1.
     999900   -1    0    0    0    0 -0.00000000000E+00 -0.00000000000E+00 -0.74505805969E-08  0.93827000000E+00  0.93827000000E+00 0. -1.
     999902    2    1    2    0    0  0.19056226907E-01 -0.84589071254E-02 -0.10640817783E-01  0.10205223112E+01  0.10202538251E+01 0.  0.
     999903    2    3    3    0    0  0.97053641682E-01 -0.81624910533E-01  0.34306663479E-01  0.13290914269E+00  0.20145909491E-01 0.  0.
         14    1    1    2    0    0 -0.19056226907E-01  0.84589071254E-02  0.10640817783E-01  0.23407688839E-01  0.00000000000E+00 0. -1.
     999901    1    3    3    0    0 -0.77997414775E-01  0.73166003407E-01 -0.44947481262E-01  0.88761316847E+00  0.88000000000E+00 0.  1.
        -11    1    4    4    0    0  0.40469655208E-01 -0.45074317841E-01  0.10623303583E-01  0.61502868401E-01  0.51100000000E-03 0.  1.
         11    1    4    4    0    0  0.56583986473E-01 -0.36550592691E-01  0.23683359896E-01  0.71406274292E-01  0.51100000000E-03 0. -1.
</event>
<event>
 8    1  0.1131349E+005  0.1043930E+01  0.7957747E-01            NaN
         13   -1    0    0    0    0  0.00000000000E+00  0.00000000000E+00  0.74505805969E-08  0.10566000000E+00  0.10566000000E+00 0.  1.
     999900   -1    0    0    0    0 -0.00000000000E+00 -0.00000000000E+00 -0.74505805969E-08  0.93827000000E+00  0.93827000000E+00 0. -1.
     999902    2    1    2    0    0  0.17743457045E-01  0.58259021613E-02  0.15694738586E-01  0.10195354059E+01  0.10192435173E+01 0.  0.
     999903    2    3    3    0    0 -0.20278768821E-01 -0.94391883447E-01  0.84431219354E-01  0.13037063036E+00  0.23384061499E-01 0.  0.
         14    1    1    2    0    0 -0.17743457045E-01 -0.58259021613E-02 -0.15694738586E-01  0.24394594138E-01  0.00000000000E+00 0. -1.
     999901    1    3    3    0    0  0.38022225866E-01  0.10021778561E+00 -0.68736480769E-01  0.88916477551E+00  0.88000000000E+00 0. -1.
        -11    1    4    4    0    0 -0.12147319933E-01 -0.64577196159E-01  0.42418732661E-01  0.78213692196E-01  0.51100000000E-03 0. -1.
         11    1    4    4    0    0 -0.81314488874E-02 -0.29814687288E-01  0.42012486693E-01  0.52156938160E-01  0.51100000000E-03 0.  1.
</event>
<event>
 8    1  0.1131349E+005  0.1043930E+01  0.7957747E-01            NaN
         13   -1    0    0    0    0  0.00000000000E+00  0.00000000000E+00  0.74505805969E-08  0.10566000000E+00  0.10566000000E+00 0. -1.
     999900   -1    0    0    0    0 -0.00000000000E+00 -0.00000000000E+00 -0.74505805969E-08  0.93827000000E+00  0.93827000000E+00 0.  1.
     999902    2    1    2    0    0  0.29196009510E-02  0.20256331390E-01 -0.12065094048E-01  0.10201726953E+01  0.10198960333E+01 0.  0.
     999903    2    3    3    0    0  0.11908436729E+00  0.18263718333E-01 -0.49426826480E-01  0.13175042945E+00  0.20012859478E-01 0.  0.
         14    1    1    2    0    0 -0.29196009510E-02 -0.20256331390E-01  0.12065094048E-01  0.23757304677E-01  0.00000000000E+00 0. -1.
     999901    1    3    3    0    0 -0.11616476634E+00  0.19926130568E-02  0.37361732432E-01  0.88842226587E+00  0.88000000000E+00 0. -1.
        -11    1    4    4    0    0  0.34355816678E-01  0.12938719187E-01 -0.94494453627E-02  0.37911551439E-01  0.51100000000E-03 0. -1.
         11    1    4    4    0    0  0.84728550613E-01  0.53249991466E-02 -0.39977381117E-01  0.93838878014E-01  0.51100000000E-03 0.  1.
</event>
<event>
 8    1  0.1131349E+005  0.1043930E+01  0.7957747E-01            NaN
         13   -1    0    0    0    0  0.00000000000E+00  0.00000000000E+00  0.74505805969E-08  0.10566000000E+00  0.10566000000E+00 0. -1.
     999900   -1    0    0    0    0 -0.00000000000E+00 -0.00000000000E+00 -0.74505805969E-08  0.93827000000E+00  0.93827000000E+00 0. -1.
     999902    2    1    2    0    0 -0.73980092724E-02  0.22415523415E-01 -0.43614767842E-02  0.10199256523E+01  0.10196431373E+01 0.  0.
     999903    2    3    3    0    0 -0.16036517030E-01  0.50181267794E-01  0.11819103931E+00  0.13095732909E+00  0.20133821178E-01 0.  0.
         14    1    1    2    0    0  0.73980092724E-02 -0.22415523415E-01  0.43614767842E-02  0.24004347750E-01  0.00000000000E+00 0. -1.
     999901    1    3    3    0    0  0.86385077581E-02 -0.27765744379E-01 -0.12255251609E+00  0.88896832316E+00  0.88000000000E+00 0. -1.
        -11    1    4    4    0    0 -0.39951029195E-02  0.16556170499E-01  0.62616982193E-01  0.64893876513E-01  0.51100000000E-03 0. -1.
         11    1    4    4    0    0 -0.12041414111E-01  0.33625097295E-01  0.55574057112E-01  0.66063452580E-01  0.51100000000E-03 0.  1.
</event>
<event>
 8    1  0.1131349E+005  0.1043930E+01  0.7957747E-01            NaN
         13   -1    0    0    0    0  0.00000000000E+00  0.00000000000E+00  0.74505805969E-08  0.10566000000E+00  0.10566000000E+00 0. -1.
     999900   -1    0    0    0    0 -0.00000000000E+00 -0.00000000000E+00 -0.74505805969E-08  0.93827000000E+00  0.93827000000E+00 0.  1.
     999902    2    1    2    0    0  0.22475797476E-01 -0.48201119275E-02  0.59991196473E-02  0.10201732244E+01  0.10198965748E+01 0.  0.
     999903    2    3    3    0    0  0.77399718803E-02 -0.88064870255E-01  0.95483507400E-01  0.13160454949E+00  0.19680668788E-01 0.  0.
         14    1    1    2    0    0 -0.22475797476E-01  0.48201119275E-02 -0.59991196473E-02  0.23756775617E-01  0.00000000000E+00 0.  1.
     999901    1    3    3    0    0  0.14735825596E-01  0.83244758328E-01 -0.89484387753E-01  0.88856867489E+00  0.88000000000E+00 0.  1.
        -11    1    4    4    0    0  0.88456917551E-02 -0.15310537519E-01  0.21371853789E-01  0.27743036552E-01  0.51100000000E-03 0.  1.
         11    1    4    4    0    0 -0.11057198748E-02 -0.72754332737E-01  0.74111653611E-01  0.10386151294E+00  0.51100000000E-03 0. -1.
</event>
<event>
 8    1  0.1131349E+005  0.1043930E+01  0.7957747E-01            NaN
         13   -1    0    0    0    0  0.00000000000E+00  0.00000000000E+00  0.74505805969E-08  0.10566000000E+00  0.10566000000E+00 0.  1.
     999900   -1    0    0    0    0 -0.00000000000E+00 -0.00000000000E+00 -0.74505805969E-08  0.93827000000E+00  0.93827000000E+00 0.  1.
     999902    2    1    2    0    0 -0.16604386134E-01  0.17020072522E-01  0.19856944711E-02  0.10200693317E+01  0.10197902285E+01 0.  0.
     999903    2    3    3    0    0 -0.11635887404E+00  0.48747265185E-01 -0.36801223777E-01  0.13301691071E+00  0.20578752014E-01 0.  0.
         14    1    1    2    0    0  0.16604386134E-01 -0.17020072522E-01 -0.19856944711E-02  0.23860668266E-01  0.00000000000E+00 0. -1.
     999901    1    3    3    0    0  0.99754487902E-01 -0.31727192663E-01  0.38786918249E-01  0.88705242102E+00  0.88000000000E+00 0. -1.
        -11    1    4    4    0    0 -0.52673438378E-01  0.11075869745E-01 -0.15883458908E-01  0.56122289592E-01  0.51100000000E-03 0.  1.
         11    1    4    4    0    0 -0.63685435658E-01  0.37671395441E-01 -0.20917764870E-01  0.76894621122E-01  0.51100000000E-03 0. -1.
</event>
<event>
 8    1  0.1131349E+005  0.1043930E+01  0.7957747E-01            NaN
         13   -1    0    0    0    0  0.00000000000E+00  0.00000000000E+00  0.74505805969E-08  0.10566000000E+00  0.10566000000E+00 0. -1.
     999900   -1    0    0    0    0 -0.00000000000E+00 -0.00000000000E+00 -0.74505805969E-08  0.93827000000E+00  0.93827000000E+00 0. -1.
     999902    2    1    2    0    0 -0.65135590737E-02 -0.21151156054E-01 -0.82425924719E-02  0.10203135188E+01  0.10200401651E+01 0.  0.
     999903    2    3    3    0    0  0.13583168172E-01  0.11637928659E+00 -0.48901787733E-01  0.12847739524E+00  0.19657452543E-01 0.  0.
         14    1    1    2    0    0  0.65135590737E-02  0.21151156054E-01  0.82425924719E-02  0.23616481213E-01  0.00000000000E+00 0. -1.
     999901    1    3    3    0    0 -0.20096727246E-01 -0.13753044264E+00  0.40659195261E-01  0.89183612354E+00  0.88000000000E+00 0.  1.
        -11    1    4    4    0    0  0.13449499143E-01  0.37167064703E-01 -0.18272506733E-01  0.43547966073E-01  0.51100000000E-03 0. -1.
         11    1    4    4    0    0  0.13366902909E-03  0.79212221886E-01 -0.30629281000E-01  0.84929429170E-01  0.51100000000E-03 0.  1.
</event>
<event>
 8    1  0.1131349E+005  0.1043930E+01  0.7957747E-01            NaN
         13   -1    0    0    0    0  0.00000000000E+00  0.00000000000E+00  0.74505805969E-08  0.10566000000E+00  0.10566000000E+00 0.  1.
     999900   -1    0    0    0    0 -0.00000000000E+00 -0.00000000000E+00 -0.74505805969E-08  0.93827000000E+00  0.93827000000E+00 0. -1.
     999902    2    1    2    0    0 -0.20309488163E-01  0.91330476900E-02 -0.80815063856E-02  0.10202403690E+01  0.10199652994E+01 0.  0.
     999903    2    3    3    0    0 -0.11538554640E+00  0.32102899468E-01  0.53590368045E-01  0.13267601023E+00  0.19661527657E-01 0.  0.
         14    1    1    2    0    0  0.20309488163E-01 -0.91330476900E-02  0.80815063856E-02  0.23689630960E-01  0.00000000000E+00 0. -1.
     999901    1    3    3    0    0  0.95076058237E-01 -0.22969851778E-01 -0.61671874431E-01  0.88756435881E+00  0.88000000000E+00 0. -1.
        -11    1    4    4    0    0 -0.65958711164E-01  0.27341557217E-01  0.36246266261E-01  0.80075996830E-01  0.51100000000E-03 0. -1.
         11    1    4    4    0    0 -0.49426835237E-01  0.47613422511E-02  0.17344101784E-01  0.52600013396E-01  0.51100000000E-03 0.  1.
</event>
<event>
 8    1  0.1131349E+005  0.1043930E+01  0.7957747E-01            NaN
         13   -1    0    0    0    0  0.00000000000E+00  0.00000000000E+00  0.74505805969E-08  0.10566000000E+00  0.10566000000E+00 0. -1.
     999900   -1    0    0    0    0 -0.00000000000E+00 -0.00000000000E+00 -0.74505805969E-08  0.93827000000E+00  0.93827000000E+00 0.  1.
     999902    2    1    2    0    0  0.91138232853E-02 -0.25075787071E-02 -0.20950060768E-01  0.10209462063E+01  0.10206874651E+01 0.  0.
     999903    2    3    3    0    0  0.12227445804E+00  0.46175633553E-01 -0.33059112292E-02  0.13219050286E+00  0.19497891544E-01 0.  0.
         14    1    1    2    0    0 -0.91138232853E-02  0.25075787071E-02  0.20950060768E-01  0.22983793683E-01  0.00000000000E+00 0. -1.
     999901    1    3    3    0    0 -0.11316063475E+00 -0.48683212260E-01 -0.17644149539E-01  0.88875570346E+00  0.88000000000E+00 0.  1.
        -11    1    4    4    0    0  0.77321505172E-01  0.35972037907E-01  0.46588297147E-02  0.85408246022E-01  0.51100000000E-03 0. -1.
         11    1    4    4    0    0  0.44952952868E-01  0.10203595646E-01 -0.79647409439E-02  0.46782256839E-01  0.51100000000E-03 0.  1.
</event>
<event>
 8    1  0.1131349E+005  0.1043930E+01  0.7957747E-01            NaN
         13   -1    0    0    0    0  0.00000000000E+00  0.00000000000E+00  0.74505805969E-08  0.10566000000E+00  0.10566000000E+00 0. -1.
     999900   -1    0    0    0    0 -0.00000000000E+00 -0.00000000000E+00 -0.74505805969E-08  0.93827000000E+00  0.93827000000E+00 0.  1.
     999902    2    1    2    0    0  0.17797902940E-01  0.13961535616E-01  0.67243874502E-02  0.10203311184E+01  0.10200581768E+01 0.  0.
     999903    2    3    3    0    0 -0.43036014116E-01 -0.10571906640E+00 -0.54510897251E-01  0.12804530542E+00  0.19888258122E-01 0.  0.
         14    1    1    2    0    0 -0.17797902940E-01 -0.13961535616E-01 -0.67243874502E-02  0.23598881592E-01  0.00000000000E+00 0. -1.
     999901    1    3    3    0    0  0.60833917056E-01  0.11968060201E+00  0.61235284701E-01  0.89228581299E+00  0.88000000000E+00 0. -1.
        -11    1    4    4    0    0 -0.27994167146E-01 -0.87043950693E-01 -0.38522164108E-01  0.99219660325E-01  0.51100000000E-03 0. -1.
         11    1    4    4    0    0 -0.15041846970E-01 -0.18675115702E-01 -0.15988733143E-01  0.28825645098E-01  0.51100000000E-03 0.  1.
</event>
<event>
 8    1  0.1131349E+005  0.1043930E+01  0.7957747E-01            NaN
         13   -1    0    0    0    0  0.00000000000E+00  0.00000000000E+00  0.74505805969E-08  0.10566000000E+00  0.10566000000E+00 0. -1.
     999900   -1    0    0    0    0 -0.00000000000E+00 -0.00000000000E+00 -0.74505805969E-08  0.93827000000E+00  0.93827000000E+00 0.  1.
     999902    2    1    2    0    0 -0.76315753227E-02 -0.21020569499E-01 -0.68654650282E-02  0.10205368409E+01  0.10202686919E+01 0.  0.
     999903    2    3    3    0    0 -0.12818704544E+00 -0.25607271871E-01  0.41962170736E-03  0.13227576906E+00  0.20225034153E-01 0.  0.
         14    1    1    2    0    0  0.76315753227E-02  0.21020569499E-01  0.68654650282E-02  0.23393159128E-01  0.00000000000E+00 0.  1.
     999901    1    3    3    0    0  0.12055547011E+00  0.45867023722E-02 -0.72850867356E-02  0.88826107182E+00  0.88000000000E+00 0.  1.
        -11    1    4    4    0    0 -0.45778577669E-01 -0.18942927691E-01 -0.16092276257E-02  0.49571800627E-01  0.51100000000E-03 0. -1.
         11    1    4    4    0    0 -0.82408467769E-01 -0.66643441797E-02  0.20288493331E-02  0.82703968429E-01  0.51100000000E-03 0.  1.
</event>
<event>
 8    1  0.1131349E+005  0.1043930E+01  0.7957747E-01            NaN
         13   -1    0    0    0    0  0.00000000000E+00  0.00000000000E+00  0.74505805969E-08  0.10566000000E+00  0.10566000000E+00 0.  1.
     999900   -1    0    0    0    0 -0.00000000000E+00 -0.00000000000E+00 -0.74505805969E-08  0.93827000000E+00  0.93827000000E+00 0. -1.
     999902    2    1    2    0    0 -0.96502311571E-03  0.13952331114E-02  0.20158024822E-01  0.10237007165E+01  0.10235008222E+01 0.  0.
     999903    2    3    3    0    0  0.11473657545E-01  0.86357355207E-01 -0.96883759736E-01  0.13180831141E+00  0.19943180328E-01 0.  0.
         14    1    1    2    0    0  0.96502311571E-03 -0.13952331114E-02 -0.20158024822E-01  0.20229283471E-01  0.00000000000E+00 0. -1.
     999901    1    3    3    0    0 -0.12438680660E-01 -0.84962122095E-01  0.11704178456E+00  0.89189240511E+00  0.88000000000E+00 0.  1.
        -11    1    4    4    0    0  0.59038910558E-02  0.51862180846E-01 -0.43223614917E-01  0.67772293301E-01  0.51100000000E-03 0. -1.
         11    1    4    4    0    0  0.55697664890E-02  0.34495174361E-01 -0.53660144819E-01  0.64036018114E-01  0.51100000000E-03 0.  1.
</event>
<event>
 8    1  0.1131349E+005  0.1043930E+01  0.7957747E-01            NaN
         13   -1    0    0    0    0  0.00000000000E+00  0.00000000000E+00  0.74505805969E-08  0.10566000000E+00  0.10566000000E+00 0. -1.
     999900   -1    0    0    0    0 -0.00000000000E+00 -0.00000000000E+00 -0.74505805969E-08  0.93827000000E+00  0.93827000000E+00 0.  1.
     999902    2    1    2    0    0 -0.20894781381E-01  0.25398007462E-03 -0.11564102419E-01  0.10200472686E+01  0.10197676428E+01 0.  0.
     999903    2    3    3    0    0 -0.63649082830E-01 -0.87232863917E-01 -0.74017876083E-01  0.13247622805E+00  0.20261459118E-01 0.  0.
         14    1    1    2    0    0  0.20894781381E-01 -0.25398007462E-03  0.11564102419E-01  0.23882731410E-01  0.00000000000E+00 0.  1.
     999901    1    3    3    0    0  0.42754301449E-01  0.87486843991E-01  0.62453773664E-01  0.88757104054E+00  0.88000000000E+00 0. -1.
        -11    1    4    4    0    0 -0.27612559852E-01 -0.23305454289E-01 -0.19558465432E-01  0.41090051743E-01  0.51100000000E-03 0.  1.
         11    1    4    4    0    0 -0.36036522978E-01 -0.63927409627E-01 -0.54459410651E-01  0.91386176305E-01  0.51100000000E-03 0. -1.
</event>
<event>
 8    1  0.1131349E+005  0.1043930E+01  0.7957747E-01            NaN
         13   -1    0    0    0    0  0.00000000000E+00  0.00000000000E+00  0.74505805969E-08  0.10566000000E+00  0.10566000000E+00 0.  1.
     999900   -1    0    0    0    0 -0.00000000000E+00 -0.00000000000E+00 -0.74505805969E-08  0.93827000000E+00  0.93827000000E+00 0.  1.
     999902    2    1    2    0    0 -0.27197649777E-01  0.87844814921E-02 -0.11977862757E-01  0.10129405104E+01  0.10124663595E+01 0.  0.
     999903    2    3    3    0    0  0.11582523333E+00  0.22095039138E-01  0.17345125223E-01  0.12081240657E+00  0.19776470421E-01 0.  0.
         14    1    1    2    0    0  0.27197649777E-01 -0.87844814921E-02  0.11977862757E-01  0.30989489585E-01  0.00000000000E+00 0.  1.
     999901    1    3    3    0    0 -0.14302288311E+00 -0.13310557646E-01 -0.29322987980E-01  0.89212810384E+00  0.88000000000E+00 0.  1.
        -11    1    4    4    0    0  0.84936648667E-01  0.23081979670E-01  0.73367905020E-02  0.88323845524E-01  0.51100000000E-03 0. -1.
         11    1    4    4    0    0  0.30888584666E-01 -0.98694053245E-03  0.10008334721E-01  0.32488561051E-01  0.51100000000E-03 0.  1.
</event>
<event>
 8    1  0.1131349E+005  0.1043930E+01  0.7957747E-01            NaN
         13   -1    0    0    0    0  0.00000000000E+00  0.00000000000E+00  0.74505805969E-08  0.10566000000E+00  0.10566000000E+00 0. -1.
     999900   -1    0    0    0    0 -0.00000000000E+00 -0.00000000000E+00 -0.74505805969E-08  0.93827000000E+00  0.93827000000E+00 0.  1.
     999902    2    1    2    0    0  0.58021829498E-03 -0.35029321242E-02  0.22809053356E-01  0.10208462373E+01  0.10205852145E+01 0.  0.
     999903    2    3    3    0    0 -0.55403183180E-02  0.10408535119E+00 -0.73453585168E-01  0.12906196109E+00  0.19927497712E-01 0.  0.
         14    1    1    2    0    0 -0.58021829498E-03  0.35029321242E-02 -0.22809053356E-01  0.23083762729E-01  0.00000000000E+00 0.  1.
     999901    1    3    3    0    0  0.61205366130E-02 -0.10758828332E+00  0.96262638524E-01  0.89178427619E+00  0.88000000000E+00 0. -1.
        -11    1    4    4    0    0 -0.10254784722E-01  0.92324933267E-01 -0.60064829898E-01  0.11062142118E+00  0.51100000000E-03 0.  1.
         11    1    4    4    0    0  0.47144664044E-02  0.11760417927E-01 -0.13388755270E-01  0.18440539905E-01  0.51100000000E-03 0. -1.
</event>
<event>
 8    1  0.1131349E+005  0.1043930E+01  0.7957747E-01            NaN
         13   -1    0    0    0    0  0.00000000000E+00  0.00000000000E+00  0.74505805969E-08  0.10566000000E+00  0.10566000000E+00 0.  1.
     999900   -1    0    0    0    0 -0.00000000000E+00 -0.00000000000E+00 -0.74505805969E-08  0.93827000000E+00  0.93827000000E+00 0.  1.
     999902    2    1    2    0    0  0.15519072790E-01  0.15989015074E-01 -0.93597306520E-02  0.10197619471E+01  0.10194755191E+01 0.  0.
     999903    2    3    3    0    0 -0.26700292848E-01  0.12695099689E+00 -0.11872469896E-01  0.13178596200E+00  0.19927944932E-01 0.  0.
         14    1    1    2    0    0 -0.15519072790E-01 -0.15989015074E-01  0.93597306520E-02  0.24168052904E-01  0.00000000000E+00 0. -1.
     999901    1    3    3    0    0  0.42219365638E-01 -0.11096198182E+00  0.25127392441E-02  0.88797598509E+00  0.88000000000E+00 0.  1.
        -11    1    4    4    0    0 -0.11904946781E-01  0.87457199186E-01 -0.14841494949E-01  0.89504304592E-01  0.51100000000E-03 0. -1.
         11    1    4    4    0    0 -0.14795346067E-01  0.39493797707E-01  0.29690250527E-02  0.42281657410E-01  0.51100000000E-03 0.  1.
</event>
<event>
 8    1  0.1131349E+005  0.1043930E+01  0.7957747E-01            NaN
         13   -1    0    0    0    0  0.00000000000E+00  0.00000000000E+00  0.74505805969E-08  0.10566000000E+00  0.10566000000E+00 0. -1.
     999900   -1    0    0    0    0 -0.00000000000E+00 -0.00000000000E+00 -0.74505805969E-08  0.93827000000E+00  0.93827000000E+00 0.  1.
     999902    2    1    2    0    0  0.10207015011E-03 -0.22721909745E-01 -0.78001818596E-02  0.10199062943E+01  0.10196233180E+01 0.  0.
     999903    2    3    3    0    0 -0.38164911948E-01 -0.12423915821E+00 -0.21037144884E-01  0.13314514781E+00  0.19827757911E-01 0.  0.
         14    1    1    2    0    0 -0.10207015011E-03  0.22721909745E-01  0.78001818596E-02  0.24023705747E-01  0.00000000000E+00 0. -1.
     999901    1    3    3    0    0  0.38266982098E-01  0.10151724846E+00  0.13236963024E-01  0.88676114644E+00  0.88000000000E+00 0. -1.
        -11    1    4    4    0    0 -0.35328590927E-01 -0.83979957297E-01 -0.14768018025E-01  0.92298960135E-01  0.51100000000E-03 0. -1.
         11    1    4    4    0    0 -0.28363210213E-02 -0.40259200910E-01 -0.62691268592E-02  0.40846187673E-01  0.51100000000E-03 0.  1.
</event>
<event>
 8    1  0.1131349E+005  0.1043930E+01  0.7957747E-01            NaN
         13   -1    0    0    0    0  0.00000000000E+00  0.00000000000E+00  0.74505805969E-08  0.10566000000E+00  0.10566000000E+00 0. -1.
     999900   -1    0    0    0    0 -0.00000000000E+00 -0.00000000000E+00 -0.74505805969E-08  0.93827000000E+00  0.93827000000E+00 0. -1.
     999902    2    1    2    0    0  0.15370833867E-01 -0.37928113853E-03  0.17085319675E-01  0.10209449062E+01  0.10206861354E+01 0.  0.
     999903    2    3    3    0    0  0.12470113401E+00 -0.16331599640E-01 -0.37022524496E-01  0.13238694536E+00  0.18399511189E-01 0.  0.
         14    1    1    2    0    0 -0.15370833867E-01  0.37928113853E-03 -0.17085319675E-01  0.22985093786E-01  0.00000000000E+00 0.  1.
     999901    1    3    3    0    0 -0.10933030014E+00  0.15952318502E-01  0.54107844171E-01  0.88855796085E+00  0.88000000000E+00 0.  1.
        -11    1    4    4    0    0  0.60244835200E-01 -0.16244539897E-02 -0.24697966874E-01  0.65133169028E-01  0.51100000000E-03 0. -1.
         11    1    4    4    0    0  0.64456298810E-01 -0.14707145650E-01 -0.12324557622E-01  0.67253776333E-01  0.51100000000E-03 0.  1.
</event>
<event>
 8    1  0.1131349E+005  0.1043930E+01  0.7957747E-01            NaN
         13   -1    0    0    0    0  0.00000000000E+00  0.00000000000E+00  0.74505805969E-08  0.10566000000E+00  0.10566000000E+00 0. -1.
     999900   -1    0    0    0    0 -0.00000000000E+00 -0.00000000000E+00 -0.74505805969E-08  0.93827000000E+00  0.93827000000E+00 0.  1.
     999902    2    1    2    0    0 -0.24228395461E-01  0.24149596294E-01 -0.10313407787E-02  0.10097060053E+01  0.10091258273E+01 0.  0.
     999903    2    3    3    0    0 -0.22375740765E-01 -0.58402338790E-01  0.10069803266E+00  0.12000542663E+00  0.18700312488E-01 0.  0.
         14    1    1    2    0    0  0.24228395461E-01 -0.24149596294E-01  0.10313407787E-02  0.34223994676E-01  0.00000000000E+00 0.  1.
     999901    1    3    3    0    0 -0.18526546966E-02  0.82551935085E-01 -0.10172937344E+00  0.88970057870E+00  0.88000000000E+00 0.  1.
        -11    1    4    4    0    0 -0.14247759571E-01 -0.53345999382E-01  0.90449290356E-01  0.10597230558E+00  0.51100000000E-03 0. -1.
         11    1    4    4    0    0 -0.81279811939E-02 -0.50563394088E-02  0.10248742304E-01  0.14033121047E-01  0.51100000000E-03 0.  1.
</event>
<event>
 8    1  0.1131349E+005  0.1043930E+01  0.7957747E-01            NaN
         13   -1    0    0    0    0  0.00000000000E+00  0.00000000000E+00  0.74505805969E-08  0.10566000000E+00  0.10566000000E+00 0.  1.
     999900   -1    0    0    0    0 -0.00000000000E+00 -0.00000000000E+00 -0.74505805969E-08  0.93827000000E+00  0.93827000000E+00 0. -1.
     999902    2    1    2    0    0 -0.56274815354E-02  0.15176178043E-01  0.21805204487E-01  0.10167739349E+01  0.10164112272E+01 0.  0.
     999903    2    3    3    0    0 -0.10424987622E+00  0.17796940521E-01  0.73044250442E-01  0.12977974950E+00  0.17959762623E-01 0.  0.
         14    1    1    2    0    0  0.56274815354E-02 -0.15176178043E-01 -0.21805204487E-01  0.27156065089E-01  0.00000000000E+00 0. -1.
     999901    1    3    3    0    0  0.98622394682E-01 -0.26207624780E-02 -0.51239045955E-01  0.88699418541E+00  0.88000000000E+00 0. -1.
        -11    1    4    4    0    0 -0.57013922352E-01  0.73275318223E-02  0.49999278836E-01  0.76187066289E-01  0.51100000000E-03 0.  1.
         11    1    4    4    0    0 -0.47235953865E-01  0.10469408699E-01  0.23044971606E-01  0.53592683207E-01  0.51100000000E-03 0. -1.
</event>
<event>
 8    1  0.1131349E+005  0.1043930E+01  0.7957747E-01            NaN
         13   -1    0    0    0    0  0.00000000000E+00  0.00000000000E+00  0.74505805969E-08  0.10566000000E+00  0.10566000000E+00 0.  1.
     999900   -1    0    0    0    0 -0.00000000000E+00 -0.00000000000E+00 -0.74505805969E-08  0.93827000000E+00  0.93827000000E+00 0.  1.
     999902    2    1    2    0    0  0.75841952049E-02  0.19394067163E-01  0.12070545543E-01  0.10198603526E+01  0.10195762800E+01 0.  0.
     999903    2    3    3    0    0 -0.46657840588E-01 -0.10891349101E+00  0.45177954080E-01  0.12828807370E+00  0.19433983308E-01 0.  0.
         14    1    1    2    0    0 -0.75841952049E-02 -0.19394067163E-01 -0.12070545543E-01  0.24069647436E-01  0.00000000000E+00 0. -1.
     999901    1    3    3    0    0  0.54242035792E-01  0.12830755817E+00 -0.33107408538E-01  0.89157227886E+00  0.88000000000E+00 0. -1.
        -11    1    4    4    0    0 -0.12028774773E-01 -0.43282158933E-01  0.24874739639E-01  0.51352219986E-01  0.51100000000E-03 0.  1.
         11    1    4    4    0    0 -0.34629065815E-01 -0.65631332078E-01  0.20303214442E-01  0.76935853718E-01  0.51100000000E-03 0. -1.
</event>
<event>
 8    1  0.1131349E+005  0.1043930E+01  0.7957747E-01            NaN
         13   -1    0    0    0    0  0.00000000000E+00  0.00000000000E+00  0.74505805969E-08  0.10566000000E+00  0.10566000000E+00 0. -1.
     999900   -1    0    0    0    0 -0.00000000000E+00 -0.00000000000E+00 -0.74505805969E-08  0.93827000000E+00  0.93827000000E+00 0.  1.
     999902    2    1    2    0    0  0.10505551543E-01 -0.21427520826E-01 -0.44117103251E-02  0.10196613278E+01  0.10193724810E+01 0.  0.
     999903    2    3    3    0    0  0.57050692276E-01 -0.47276168059E-01  0.10641457875E+00  0.13111359750E+00  0.19413792060E-01 0.  0.
         14    1    1    2    0    0 -0.10505551543E-01  0.21427520826E-01  0.44117103251E-02  0.24268672192E-01  0.00000000000E+00 0.  1.
     999901    1    3    3    0    0 -0.46545140733E-01  0.25848647233E-01 -0.11082628908E+00  0.88854773031E+00  0.88000000000E+00 0.  1.
        -11    1    4    4    0    0  0.30202636042E-01 -0.34218300998E-01  0.53225813851E-01  0.70116615208E-01  0.51100000000E-03 0.  1.
         11    1    4    4    0    0  0.26848056234E-01 -0.13057867061E-01  0.53188764901E-01  0.60996982290E-01  0.51100000000E-03 0. -1.
</event>
<event>
 8    1  0.1131349E+005  0.1043930E+01  0.7957747E-01            NaN
         13   -1    0    0    0    0  0.00000000000E+00  0.00000000000E+00  0.74505805969E-08  0.10566000000E+00  0.10566000000E+00 0.  1.
     999900   -1    0    0    0    0 -0.00000000000E+00 -0.00000000000E+00 -0.74505805969E-08  0.93827000000E+00  0.93827000000E+00 0.  1.
     999902    2    1    2    0    0 -0.87393221367E-02  0.20239674592E-01  0.72656847446E-02  0.10207177111E+01  0.10204537400E+01 0.  0.
     999903    2    3    3    0    0  0.55765309477E-01 -0.96072222513E-02  0.11652790700E+00  0.13111672308E+00  0.20267547996E-01 0.  0.
         14    1    1    2    0    0  0.87393221367E-02 -0.20239674592E-01 -0.72656847446E-02  0.23212288853E-01  0.00000000000E+00 0. -1.
     999901    1    3    3    0    0 -0.64504631614E-01  0.29846896843E-01 -0.10926222226E+00  0.88960098806E+00  0.88000000000E+00 0.  1.
        -11    1    4    4    0    0  0.32069390658E-01  0.25332086922E-02  0.49998506068E-01  0.59455653167E-01  0.51100000000E-03 0. -1.
         11    1    4    4    0    0  0.23695918819E-01 -0.12140430944E-01  0.66529400932E-01  0.71661069917E-01  0.51100000000E-03 0.  1.
</event>
<event>
 8    1  0.1131349E+005  0.1043930E+01  0.7957747E-01            NaN
         13   -1    0    0    0    0  0.00000000000E+00  0.00000000000E+00  0.74505805969E-08  0.10566000000E+00  0.10566000000E+00 0.  1.
     999900   -1    0    0    0    0 -0.00000000000E+00 -0.00000000000E+00 -0.74505805969E-08  0.93827000000E+00  0.93827000000E+00 0.  1.
     999902    2    1    2    0    0 -0.23399964889E-01 -0.30615159073E-02 -0.49762402747E-02  0.10198116625E+01  0.10195264257E+01 0.  0.
     999903    2    3    3    0    0  0.11633169909E+00  0.32232589475E-01  0.34624454971E-01  0.12720938441E+00  0.20282272132E-01 0.  0.
         14    1    1    2    0    0  0.23399964889E-01  0.30615159073E-02  0.49762402747E-02  0.24118337499E-01  0.00000000000E+00 0.  1.
     999901    1    3    3    0    0 -0.13973166398E+00 -0.35294105383E-01 -0.39600695246E-01  0.89260227809E+00  0.88000000000E+00 0.  1.
        -11    1    4    4    0    0  0.26886411917E-01  0.12384222309E-01  0.16215710777E-01  0.33755866230E-01  0.51100000000E-03 0.  1.
         11    1    4    4    0    0  0.89445287170E-01  0.19848367167E-01  0.18408744194E-01  0.93453518178E-01  0.51100000000E-03 0. -1.
</event>
<event>
 8    1  0.1131349E+005  0.1043930E+01  0.7957747E-01            NaN
         13   -1    0    0    0    0  0.00000000000E+00  0.00000000000E+00  0.74505805969E-08  0.10566000000E+00  0.10566000000E+00 0. -1.
     999900   -1    0    0    0    0 -0.00000000000E+00 -0.00000000000E+00 -0.74505805969E-08  0.93827000000E+00  0.93827000000E+00 0. -1.
     999902    2    1    2    0    0 -0.29556858015E-02 -0.11803292855E-01  0.19859189981E-01  0.10206396323E+01  0.10203738618E+01 0.  0.
     999903    2    3    3    0    0  0.11612939157E+00  0.33789047001E-01 -0.41395669325E-01  0.12934166030E+00  0.19695897243E-01 0.  0.
         14    1    1    2    0    0  0.29556858015E-02  0.11803292855E-01 -0.19859189981E-01  0.23290367697E-01  0.00000000000E+00 0. -1.
     999901    1    3    3    0    0 -0.11908507737E+00 -0.45592339856E-01  0.61254859305E-01  0.89129797200E+00  0.88000000000E+00 0. -1.
        -11    1    4    4    0    0  0.30453363583E-01  0.47157709613E-03 -0.13090502447E-01  0.33154971178E-01  0.51100000000E-03 0.  1.
         11    1    4    4    0    0  0.85676027982E-01  0.33317469905E-01 -0.28305166878E-01  0.96186689124E-01  0.51100000000E-03 0. -1.
</event>
<event>
 8    1  0.1131349E+005  0.1043930E+01  0.7957747E-01            NaN
         13   -1    0    0    0    0  0.00000000000E+00  0.00000000000E+00  0.74505805969E-08  0.10566000000E+00  0.10566000000E+00 0.  1.
     999900   -1    0    0    0    0 -0.00000000000E+00 -0.00000000000E+00 -0.74505805969E-08  0.93827000000E+00  0.93827000000E+00 0.  1.
     999902    2    1    2    0    0  0.10752048128E-01 -0.18799451728E-01 -0.10935019223E-01  0.10196689083E+01  0.10193802441E+01 0.  0.
     999903    2    3    3    0    0  0.89612095422E-01 -0.45875856456E-01 -0.84168042731E-01  0.13269928399E+00  0.19746359215E-01 0.  0.
         14    1    1    2    0    0 -0.10752048128E-01  0.18799451728E-01  0.10935019223E-01  0.24261091682E-01  0.00000000000E+00 0. -1.
     999901    1    3    3    0    0 -0.78860047294E-01  0.27076404728E-01  0.73233023508E-01  0.88696962433E+00  0.88000000000E+00 0. -1.
        -11    1    4    4    0    0  0.53410131954E-01 -0.37935218349E-01 -0.54697945197E-01  0.85345470392E-01  0.51100000000E-03 0. -1.
         11    1    4    4    0    0  0.36201963467E-01 -0.79406381066E-02 -0.29470097534E-01  0.47353813596E-01  0.51100000000E-03 0.  1.
</event>
<event>
 8    1  0.1131349E+005  0.1043930E+01  0.7957747E-01            NaN
         13   -1    0    0    0    0  0.00000000000E+00  0.00000000000E+00  0.74505805969E-08  0.10566000000E+00  0.10566000000E+00 0. -1.
     999900   -1    0    0    0    0 -0.00000000000E+00 -0.00000000000E+00 -0.74505805969E-08  0.93827000000E+00  0.93827000000E+00 0.  1.
     999902    2    1    2    0    0  0.60171685852E-02 -0.21013679120E-01 -0.93680507455E-02  0.10201488856E+01  0.10198716622E+01 0.  0.
     999903    2    3    3    0    0 -0.96560706313E-02  0.83544665137E-01  0.94138367273E-01  0.12779711843E+00  0.19927882795E-01 0.  0.
         14    1    1    2    0    0 -0.60171685852E-02  0.21013679120E-01  0.93680507455E-02  0.23781114413E-01  0.00000000000E+00 0. -1.
     999901    1    3    3    0    0  0.15673239217E-01 -0.10455834426E+00 -0.10350641802E+00  0.89235176716E+00  0.88000000000E+00 0.  1.
        -11    1    4    4    0    0  0.18656317050E-02  0.28400961087E-01  0.20499579719E-01  0.35079752878E-01  0.51100000000E-03 0.  1.
         11    1    4    4    0    0 -0.11521702336E-01  0.55143704051E-01  0.73638787554E-01  0.92717365550E-01  0.51100000000E-03 0. -1.
</event>
<event>
 8    1  0.1131349E+005  0.1043930E+01  0.7957747E-01            NaN
         13   -1    0    0    0    0  0.00000000000E+00  0.00000000000E+00  0.74505805969E-08  0.10566000000E+00  0.10566000000E+00 0. -1.
     999900   -1    0    0    0    0 -0.00000000000E+00 -0.00000000000E+00 -0.74505805969E-08  0.93827000000E+00  0.93827000000E+00 0. -1.
     999902    2    1    2    0    0 -0.22141095161E-01  0.20846019322E-02  0.91415135751E-02  0.10198854386E+01  0.10196019650E+01 0.  0.
     999903    2    3    3    0    0  0.56175583610E-01  0.25888509099E-01 -0.11025755811E+00  0.12805795169E+00  0.20400950353E-01 0.  0.
         14    1    1    2    0    0  0.22141095161E-01 -0.20846019322E-02 -0.91415135751E-02  0.24044561351E-01  0.00000000000E+00 0.  1.
     999901    1    3    3    0    0 -0.78316678771E-01 -0.23803907167E-01  0.11939907168E+00  0.89182748695E+00  0.88000000000E+00 0.  1.
        -11    1    4    4    0    0  0.20169590382E-01  0.18951197669E-01 -0.57388350429E-01  0.63715336892E-01  0.51100000000E-03 0.  1.
         11    1    4    4    0    0  0.36005993228E-01  0.69373114303E-02 -0.52869207676E-01  0.64342614802E-01  0.51100000000E-03 0. -1.
</event>
<event>
 8    1  0.1131349E+005  0.1043930E+01  0.7957747E-01            NaN
         13   -1    0    0    0    0  0.00000000000E+00  0.00000000000E+00  0.74505805969E-08  0.10566000000E+00  0.10566000000E+00 0. -1.
     999900   -1    0    0    0    0 -0.00000000000E+00 -0.00000000000E+00 -0.74505805969E-08  0.93827000000E+00  0.93827000000E+00 0. -1.
     999902    2    1    2    0    0 -0.13118081944E-01 -0.95362213799E-02 -0.17781885006E-01  0.10198630304E+01  0.10195790218E+01 0.  0.
     999903    2    3    3    0    0 -0.35231580157E-01 -0.64145370493E-01  0.10484241892E+00  0.12940927758E+00  0.19973370361E-01 0.  0.
         14    1    1    2    0    0  0.13118081944E-01  0.95362213799E-02  0.17781885006E-01  0.24066969615E-01  0.00000000000E+00 0.  1.
     999901    1    3    3    0    0  0.22113498214E-01  0.54609149113E-01 -0.12262430392E+00  0.89045375280E+00  0.88000000000E+00 0. -1.
        -11    1    4    4    0    0 -0.70170646442E-02 -0.24277096389E-01  0.49604980161E-01  0.55673438758E-01  0.51100000000E-03 0. -1.
         11    1    4    4    0    0 -0.28214515513E-01 -0.39868274104E-01  0.55237438756E-01  0.73735838823E-01  0.51100000000E-03 0.  1.
</event>
<event>
 8    1  0.1131349E+005  0.1043930E+01  0.7957747E-01            NaN
         13   -1    0    0    0    0  0.00000000000E+00  0.00000000000E+00  0.74505805969E-08  0.10566000000E+00  0.10566000000E+00 0. -1.
     999900   -1    0    0    0    0 -0.00000000000E+00 -0.00000000000E+00 -0.74505805969E-08  0.93827000000E+00  0.93827000000E+00 0.  1.
     999902    2    1    2    0    0 -0.12463788379E-01  0.94809713865E-02  0.17575160306E-01  0.10203902230E+01  0.10201186628E+01 0.  0.
     999903    2    3    3    0    0 -0.93478269528E-01 -0.89261980845E-01 -0.61773210278E-02  0.13085231090E+00  0.19449418386E-01 0.  0.
         14    1    1    2    0    0  0.12463788379E-01 -0.94809713865E-02 -0.17575160306E-01  0.23539776952E-01  0.00000000000E+00 0.  1.
     999901    1    3    3    0    0  0.81014481149E-01  0.98742952232E-01  0.23752481334E-01  0.88953791214E+00  0.88000000000E+00 0.  1.
        -11    1    4    4    0    0 -0.73822345487E-01 -0.62854187078E-01 -0.10992486380E-01  0.97578088751E-01  0.51100000000E-03 0.  1.
         11    1    4    4    0    0 -0.19655924041E-01 -0.26407793767E-01  0.48151653518E-02  0.33274222153E-01  0.51100000000E-03 0. -1.
</event>
<event>
 8    1  0.1131349E+005  0.1043930E+01  0.7957747E-01            NaN
         13   -1    0    0    0    0  0.00000000000E+00  0.00000000000E+00  0.74505805969E-08  0.10566000000E+00  0.10566000000E+00 0.  1.
     999900   -1    0    0    0    0 -0.00000000000E+00 -0.00000000000E+00 -0.74505805969E-08  0.93827000000E+00  0.93827000000E+00 0. -1.
     999902    2    1    2    0    0 -0.18680939567E-02  0.47751720079E-02  0.22685241277E-01  0.10206724805E+01  0.10204074677E+01 0.  0.
     999903    2    3    3    0    0  0.32024651654E-01  0.86525471485E-01  0.94110044668E-01  0.13335442464E+00  0.20358451172E-01 0.  0.
         14    1    1    2    0    0  0.18680939567E-02 -0.47751720079E-02 -0.22685241277E-01  0.23257519527E-01  0.00000000000E+00 0. -1.
     999901    1    3    3    0    0 -0.33892745611E-01 -0.81750299477E-01 -0.71424803391E-01  0.88731805583E+00  0.88000000000E+00 0. -1.
        -11    1    4    4    0    0 -0.39739921954E-03  0.43146044914E-02  0.11820396373E-01  0.12599866248E-01  0.51100000000E-03 0.  1.
         11    1    4    4    0    0  0.32422050873E-01  0.82210866993E-01  0.82289648296E-01  0.12075455839E+00  0.51100000000E-03 0. -1.
</event>
<event>
 8    1  0.1131349E+005  0.1043930E+01  0.7957747E-01            NaN
         13   -1    0    0    0    0  0.00000000000E+00  0.00000000000E+00  0.74505805969E-08  0.10566000000E+00  0.10566000000E+00 0.  1.
     999900   -1    0    0    0    0 -0.00000000000E+00 -0.00000000000E+00 -0.74505805969E-08  0.93827000000E+00  0.93827000000E+00 0.  1.
     999902    2    1    2    0    0  0.33775745577E-02 -0.21403417542E-01  0.40707643366E-02  0.10218826552E+01  0.10216447893E+01 0.  0.
     999903    2    3    3    0    0  0.70766205537E-01  0.67876477168E-01  0.85258808635E-01  0.13109445041E+00  0.17367166685E-01 0.  0.
         14    1    1    2    0    0 -0.33775745577E-02  0.21403417542E-01 -0.40707643366E-02  0.22047344844E-01  0.00000000000E+00 0. -1.
     999901    1    3    3    0    0 -0.67388630979E-01 -0.89279894710E-01 -0.81188044298E-01  0.89078820475E+00  0.88000000000E+00 0.  1.
        -11    1    4    4    0    0  0.30001571266E-01  0.33059535230E-01  0.28230976420E-01  0.52823065972E-01  0.51100000000E-03 0. -1.
         11    1    4    4    0    0  0.40764634271E-01  0.34816941939E-01  0.57027832215E-01  0.78271384435E-01  0.51100000000E-03 0.  1.
</event>
<event>
 8    1  0.1131349E+005  0.1043930E+01  0.7957747E-01            NaN
         13   -1    0    0    0    0  0.00000000000E+00  0.00000000000E+00  0.74505805969E-08  0.10566000000E+00  0.10566000000E+00 0.  1.
     999900   -1    0    0    0    0 -0.00000000000E+00 -0.00000000000E+00 -0.74505805969E-08  0.93827000000E+00  0.93827000000E+00 0.  1.
     999902    2    1    2    0    0  0.14187993008E-01 -0.11512335451E-01  0.14038131823E-01  0.10208886858E+01  0.10206286331E+01 0.  0.
     999903    2    3    3    0    0  0.99226939181E-01 -0.19703801506E-01  0.85423457812E-01  0.13387426248E+00  0.19771842533E-01 0.  0.
         14    1    1    2    0    0 -0.14187993008E-01  0.11512335451E-01 -0.14038131823E-01  0.23041314160E-01  0.00000000000E+00 0. -1.
     999901    1    3    3    0    0 -0.85038946173E-01  0.81914660544E-02 -0.71385325989E-01  0.88701442336E+00  0.88000000000E+00 0.  1.
        -11    1    4    4    0    0  0.24290967053E-01 -0.10903376093E-01  0.30848252527E-01  0.40753042777E-01  0.51100000000E-03 0. -1.
         11    1    4    4    0    0  0.74935972128E-01 -0.88004254124E-02  0.54575205285E-01  0.93121219703E-01  0.51100000000E-03 0.  1.
</event>
<event>
 8    1  0.1131349E+005  0.1043930E+01  0.7957747E-01            NaN
         13   -1    0    0    0    0  0.00000000000E+00  0.00000000000E+00  0.74505805969E-08  0.10566000000E+00  0.10566000000E+00 0.  1.
     999900   -1    0    0    0    0 -0.00000000000E+00 -0.00000000000E+00 -0.74505805969E-08  0.93827000000E+00  0.93827000000E+00 0. -1.
     999902    2    1    2    0    0  0.18323182823E-01  0.12986791455E-01 -0.70390071308E-02  0.10203939977E+01  0.10201225256E+01 0.  0.
     999903    2    3    3    0    0 -0.46994188737E-01 -0.10702721734E+00  0.43760956053E-01  0.12840164486E+00  0.30144354370E-01 0.  0.
         14    1    1    2    0    0 -0.18323182823E-01 -0.12986791455E-01  0.70390071308E-02  0.23536002261E-01  0.00000000000E+00 0.  1.
     999901    1    3    3    0    0  0.65317371560E-01  0.12001400880E+00 -0.50799963184E-01  0.89199235288E+00  0.88000000000E+00 0.  1.
        -11    1    4    4    0    0 -0.25800845219E-01 -0.43135644483E-01  0.33253829807E-01  0.60269774820E-01  0.51100000000E-03 0.  1.
         11    1    4    4    0    0 -0.21193343518E-01 -0.63891572861E-01  0.10507126246E-01  0.68131870040E-01  0.51100000000E-03 0. -1.
</event>
<event>
 8    1  0.1131349E+005  0.1043930E+01  0.7957747E-01            NaN
         13   -1    0    0    0    0  0.00000000000E+00  0.00000000000E+00  0.74505805969E-08  0.10566000000E+00  0.10566000000E+00 0.  1.
     999900   -1    0    0    0    0 -0.00000000000E+00 -0.00000000000E+00 -0.74505805969E-08  0.93827000000E+00  0.93827000000E+00 0.  1.
     999902    2    1    2    0    0 -0.10588916627E-01  0.17505627276E-01 -0.12104842698E-01  0.10201581814E+01  0.10198811773E+01 0.  0.
     999903    2    3    3    0    0 -0.95157161271E-01 -0.37094090559E-01  0.77621280632E-01  0.12988648447E+00  0.20361206874E-01 0.  0.
         14    1    1    2    0    0  0.10588916627E-01 -0.17505627276E-01  0.12104842698E-01  0.23771818576E-01  0.00000000000E+00 0.  1.
     999901    1    3    3    0    0  0.84568244644E-01  0.54599717835E-01 -0.89726123330E-01  0.89027169695E+00  0.88000000000E+00 0.  1.
        -11    1    4    4    0    0 -0.37980705350E-01 -0.24702524446E-01  0.38995278717E-01  0.59779942925E-01  0.51100000000E-03 0.  1.
         11    1    4    4    0    0 -0.57176455921E-01 -0.12391566113E-01  0.38626001915E-01  0.70106541545E-01  0.51100000000E-03 0. -1.
</event>
<event>
 8    1  0.1131349E+005  0.1043930E+01  0.7957747E-01            NaN
         13   -1    0    0    0    0  0.00000000000E+00  0.00000000000E+00  0.74505805969E-08  0.10566000000E+00  0.10566000000E+00 0. -1.
     999900   -1    0    0    0    0 -0.00000000000E+00 -0.00000000000E+00 -0.74505805969E-08  0.93827000000E+00  0.93827000000E+00 0.  1.
     999902    2    1    2    0    0  0.29087953062E-01  0.71263014065E-02  0.29260303049E-02  0.10138392234E+01  0.10133925774E+01 0.  0.
     999903    2    3    3    0    0 -0.45981712646E-01  0.92549317874E-01  0.66307973292E-01  0.12426077424E+00  0.19086606717E-01 0.  0.
         14    1    1    2    0    0 -0.29087953062E-01 -0.71263014065E-02 -0.29260303049E-02  0.30090776634E-01  0.00000000000E+00 0. -1.
     999901    1    3    3    0    0  0.75069665708E-01 -0.85423016468E-01 -0.63381942987E-01  0.88957844913E+00  0.88000000000E+00 0.  1.
        -11    1    4    4    0    0 -0.31550312842E-01  0.45745326231E-01  0.28963812088E-01  0.62667540594E-01  0.51100000000E-03 0. -1.
         11    1    4    4    0    0 -0.14431399804E-01  0.46803991643E-01  0.37344161204E-01  0.61593233647E-01  0.51100000000E-03 0.  1.
</event>
<event>
 8    1  0.1131349E+005  0.1043930E+01  0.7957747E-01            NaN
         13   -1    0    0    0    0  0.00000000000E+00  0.00000000000E+00  0.74505805969E-08  0.10566000000E+00  0.10566000000E+00 0.  1.
     999900   -1    0    0    0    0 -0.00000000000E+00 -0.00000000000E+00 -0.74505805969E-08  0.93827000000E+00  0.93827000000E+00 0.  1.
     999902    2    1    2    0    0  0.14214662050E-01 -0.13364157360E-01  0.11687982651E-01  0.10211865118E+01  0.10209332131E+01 0.  0.
     999903    2    3    3    0    0 -0.97694687885E-01 -0.65766671122E-01  0.55202217702E-01  0.13148812764E+00  0.19296004729E-01 0.  0.
         14    1    1    2    0    0 -0.14214662050E-01  0.13364157360E-01 -0.11687982651E-01  0.22743488246E-01  0.00000000000E+00 0. -1.
     999901    1    3    3    0    0  0.11190934993E+00  0.52402513762E-01 -0.43514235051E-01  0.88969838412E+00  0.88000000000E+00 0. -1.
        -11    1    4    4    0    0 -0.75554857714E-01 -0.41684911127E-01  0.44324359698E-01  0.97010712416E-01  0.51100000000E-03 0. -1.
         11    1    4    4    0    0 -0.22139830171E-01 -0.24081759995E-01  0.10877858004E-01  0.34477415219E-01  0.51100000000E-03 0.  1.
</event>
<event>
 8    1  0.1131349E+005  0.1043930E+01  0.7957747E-01            NaN
         13   -1    0    0    0    0  0.00000000000E+00  0.00000000000E+00  0.74505805969E-08  0.10566000000E+00  0.10566000000E+00 0.  1.
     999900   -1    0    0    0    0 -0.00000000000E+00 -0.00000000000E+00 -0.74505805969E-08  0.93827000000E+00  0.93827000000E+00 0. -1.
     999902    2    1    2    0    0  0.38239537070E-02 -0.19659670415E-01  0.10286268489E-01  0.10214148366E+01  0.10211666543E+01 0.  0.
     999903    2    3    3    0    0  0.81497081052E-01 -0.97817626377E-01  0.37017697734E-01  0.13414016094E+00  0.20327581773E-01 0.  0.
         14    1    1    2    0    0 -0.38239537070E-02  0.19659670415E-01 -0.10286268489E-01  0.22515163384E-01  0.00000000000E+00 0.  1.
     999901    1    3    3    0    0 -0.77673127345E-01  0.78157955962E-01 -0.26731429245E-01  0.88727467568E+00  0.88000000000E+00 0. -1.
        -11    1    4    4    0    0  0.49361654710E-01 -0.60993273703E-01  0.32916590140E-01  0.85091218232E-01  0.51100000000E-03 0. -1.
         11    1    4    4    0    0  0.32135426342E-01 -0.36824352674E-01  0.41011075940E-02  0.49048942705E-01  0.51100000000E-03 0.  1.
</event>
<event>
 8    1  0.1131349E+005  0.1043930E+01  0.7957747E-01            NaN
         13   -1    0    0    0    0  0.00000000000E+00  0.00000000000E+00  0.74505805969E-08  0.10566000000E+00  0.10566000000E+00 0. -1.
     999900   -1    0    0    0    0 -0.00000000000E+00 -0.00000000000E+00 -0.74505805969E-08  0.93827000000E+00  0.93827000000E+00 0.  1.
     999902    2    1    2    0    0  0.19304346335E-01  0.55322871800E-02  0.12170205989E-01  0.10204485626E+01  0.10201783623E+01 0.  0.
     999903    2    3    3    0    0 -0.45340306092E-01 -0.11472520801E+00 -0.31110344566E-01  0.12886906401E+00  0.20536927978E-01 0.  0.
         14    1    1    2    0    0 -0.19304346335E-01 -0.55322871800E-02 -0.12170205989E-01  0.23481437406E-01  0.00000000000E+00 0.  1.
     999901    1    3    3    0    0  0.64644652427E-01  0.12025749519E+00  0.43280550555E-01  0.89157949858E+00  0.88000000000E+00 0. -1.
        -11    1    4    4    0    0 -0.24833505645E-01 -0.67194021804E-01 -0.76916806223E-02  0.72049723390E-01  0.51100000000E-03 0. -1.
         11    1    4    4    0    0 -0.20506800447E-01 -0.47531186205E-01 -0.23418663944E-01  0.56819340621E-01  0.51100000000E-03 0.  1.
</event>
<event>
 8    1  0.1131349E+005  0.1043930E+01  0.7957747E-01            NaN
         13   -1    0    0    0    0  0.00000000000E+00  0.00000000000E+00  0.74505805969E-08  0.10566000000E+00  0.10566000000E+00 0. -1.
     999900   -1    0    0    0    0 -0.00000000000E+00 -0.00000000000E+00 -0.74505805969E-08  0.93827000000E+00  0.93827000000E+00 0. -1.
     999902    2    1    2    0    0  0.96106837155E-02  0.18248976266E-01  0.23197635783E-02  0.10231749601E+01  0.10229644311E+01 0.  0.
     999903    2    3    3    0    0 -0.12714465465E+00 -0.68041903286E-02 -0.27278314074E-01  0.13176835824E+00  0.20167637483E-01 0.  0.
         14    1    1    2    0    0 -0.96106837155E-02 -0.18248976266E-01 -0.23197635783E-02  0.20755039853E-01  0.00000000000E+00 0.  1.
     999901    1    3    3    0    0  0.13675533837E+00  0.25053166594E-01  0.29598077652E-01  0.89140660191E+00  0.88000000000E+00 0. -1.
        -11    1    4    4    0    0 -0.86851829569E-01 -0.13988125183E-01 -0.19376927890E-01  0.90081265539E-01  0.51100000000E-03 0. -1.
         11    1    4    4    0    0 -0.40292825082E-01  0.71839348542E-02 -0.79013861835E-02  0.41687092699E-01  0.51100000000E-03 0.  1.
</event>
<event>
 8    1  0.1131349E+005  0.1043930E+01  0.7957747E-01            NaN
         13   -1    0    0    0    0  0.00000000000E+00  0.00000000000E+00  0.74505805969E-08  0.10566000000E+00  0.10566000000E+00 0.  1.
     999900   -1    0    0    0    0 -0.00000000000E+00 -0.00000000000E+00 -0.74505805969E-08  0.93827000000E+00  0.93827000000E+00 0. -1.
     999902    2    1    2    0    0  0.10241303510E-01  0.69801466023E-02 -0.19146050245E-01  0.10211225893E+01  0.10208678486E+01 0.  0.
     999903    2    3    3    0    0  0.92065417829E-01 -0.90124321683E-01  0.17962654097E-01  0.13123410222E+00  0.17357941260E-01 0.  0.
         14    1    1    2    0    0 -0.10241303510E-01 -0.69801466023E-02  0.19146050245E-01  0.22807410729E-01  0.00000000000E+00 0.  1.
     999901    1    3    3    0    0 -0.81824114319E-01  0.97104468285E-01 -0.37108704342E-01  0.88988848705E+00  0.88000000000E+00 0. -1.
        -11    1    4    4    0    0  0.63711722258E-01 -0.63607692934E-01  0.45013660843E-02  0.90142362800E-01  0.51100000000E-03 0. -1.
         11    1    4    4    0    0  0.28353695571E-01 -0.26516628749E-01  0.13461288013E-01  0.41091739422E-01  0.51100000000E-03 0.  1.
</event>
<event>
 8    1  0.1131349E+005  0.1043930E+01  0.7957747E-01            NaN
         13   -1    0    0    0    0  0.00000000000E+00  0.00000000000E+00  0.74505805969E-08  0.10566000000E+00  0.10566000000E+00 0.  1.
     999900   -1    0    0    0    0 -0.00000000000E+00 -0.00000000000E+00 -0.74505805969E-08  0.93827000000E+00  0.93827000000E+00 0. -1.
     999902    2    1    2    0    0 -0.17282114042E-01  0.16134339505E-01 -0.56466308105E-02  0.10196221244E+01  0.10193323323E+01 0.  0.
     999903    2    3    3    0    0 -0.10206514515E+00 -0.83437889161E-02 -0.80878885348E-01  0.13201453471E+00  0.19988261872E-01 0.  0.
         14    1    1    2    0    0  0.17282114042E-01 -0.16134339505E-01  0.56466308105E-02  0.24307875608E-01  0.00000000000E+00 0. -1.
     999901    1    3    3    0    0  0.84783031106E-01  0.24478128421E-01  0.75232254537E-01  0.88760758968E+00  0.88000000000E+00 0.  1.
        -11    1    4    4    0    0 -0.80285996695E-01  0.51752319299E-03 -0.67908080897E-01  0.10515644378E+00  0.51100000000E-03 0.  1.
         11    1    4    4    0    0 -0.21779148453E-01 -0.88613121091E-02 -0.12970804451E-01  0.26858090936E-01  0.51100000000E-03 0. -1.
</event>
<event>
 8    1  0.1131349E+005  0.1043930E+01  0.7957747E-01            NaN
         13   -1    0    0    0    0  0.00000000000E+00  0.00000000000E+00  0.74505805969E-08  0.10566000000E+00  0.10566000000E+00 0.  1.
     999900   -1    0    0    0    0 -0.00000000000E+00 -0.00000000000E+00 -0.74505805969E-08  0.93827000000E+00  0.93827000000E+00 0.  1.
     999902    2    1    2    0    0 -0.14725963100E-01  0.82620927918E-02 -0.14084622002E-01  0.10219415316E+01  0.10217049482E+01 0.  0.
     999903    2    3    3    0    0  0.84110152191E-02  0.30581437564E-01 -0.12853046343E+00  0.13394866926E+00  0.20400893760E-01 0.  0.
         14    1    1    2    0    0  0.14725963100E-01 -0.82620927918E-02  0.14084622002E-01  0.21988468420E-01  0.00000000000E+00 0. -1.
     999901    1    3    3    0    0 -0.23136978319E-01 -0.22319344772E-01  0.11444584143E+00  0.88799286232E+00  0.88000000000E+00 0. -1.
        -11    1    4    4    0    0  0.72725337403E-02  0.42558242287E-02 -0.58817373049E-01  0.59420083139E-01  0.51100000000E-03 0. -1.
         11    1    4    4    0    0  0.11384814789E-02  0.26325613335E-01 -0.69713090379E-01  0.74528586118E-01  0.51100000000E-03 0.  1.
</event>
<event>
 8    1  0.1131349E+005  0.1043930E+01  0.7957747E-01            NaN
         13   -1    0    0    0    0  0.00000000000E+00  0.00000000000E+00  0.74505805969E-08  0.10566000000E+00  0.10566000000E+00 0. -1.
     999900   -1    0    0    0    0 -0.00000000000E+00 -0.00000000000E+00 -0.74505805969E-08  0.93827000000E+00  0.93827000000E+00 0.  1.
     999902    2    1    2    0    0 -0.94661041671E-02 -0.93741513579E-02  0.20070192688E-01  0.10198406979E+01  0.10195561557E+01 0.  0.
     999903    2    3    3    0    0 -0.10568665782E-01  0.37536562140E-01  0.12480157862E+00  0.13238901251E+00  0.20753949317E-01 0.  0.
         14    1    1    2    0    0  0.94661041671E-02  0.93741513579E-02 -0.20070192688E-01  0.24089302113E-01  0.00000000000E+00 0.  1.
     999901    1    3    3    0    0  0.11025616147E-02 -0.46910713498E-01 -0.10473138593E+00  0.88745168538E+00  0.88000000000E+00 0.  1.
        -11    1    4    4    0    0  0.56526780131E-02  0.17457065690E-01  0.51727769173E-01  0.54888296893E-01  0.51100000000E-03 0. -1.
         11    1    4    4    0    0 -0.16221343795E-01  0.20079496450E-01  0.73073809450E-01  0.77500715614E-01  0.51100000000E-03 0.  1.
</event>
<event>
 8    1  0.1131349E+005  0.1043930E+01  0.7957747E-01            NaN
         13   -1    0    0    0    0  0.00000000000E+00  0.00000000000E+00  0.74505805969E-08  0.10566000000E+00  0.10566000000E+00 0. -1.
     999900   -1    0    0    0    0 -0.00000000000E+00 -0.00000000000E+00 -0.74505805969E-08  0.93827000000E+00  0.93827000000E+00 0. -1.
     999902    2    1    2    0    0 -0.20627258408E-01  0.80927244887E-02 -0.50138080889E-02  0.10212118520E+01  0.10209591237E+01 0.  0.
     999903    2    3    3    0    0  0.22867857446E-01 -0.90600991872E-03 -0.12762371821E+00  0.13160182931E+00  0.22527056427E-01 0.  0.
         14    1    1    2    0    0  0.20627258408E-01 -0.80927244887E-02  0.50138080889E-02  0.22718148046E-01  0.00000000000E+00 0.  1.
     999901    1    3    3    0    0 -0.43495115855E-01  0.89987344074E-02  0.12260991012E+00  0.88961002264E+00  0.88000000000E+00 0.  1.
        -11    1    4    4    0    0  0.66313255011E-02 -0.33233200225E-02 -0.92824264600E-01  0.93121555794E-01  0.51100000000E-03 0. -1.
         11    1    4    4    0    0  0.16236531945E-01  0.24173101038E-02 -0.34799453607E-01  0.38480273519E-01  0.51100000000E-03 0.  1.
</event>
<event>
 8    1  0.1131349E+005  0.1043930E+01  0.7957747E-01            NaN
         13   -1    0    0    0    0  0.00000000000E+00  0.00000000000E+00  0.74505805969E-08  0.10566000000E+00  0.10566000000E+00 0.  1.
     999900   -1    0    0    0    0 -0.00000000000E+00 -0.00000000000E+00 -0.74505805969E-08  0.93827000000E+00  0.93827000000E+00 0. -1.
     999902    2    1    2    0    0  0.11449729123E-01 -0.14391446105E-01  0.14783733091E-01  0.10203340516E+01  0.10200611786E+01 0.  0.
     999903    2    3    3    0    0  0.70678210510E-01  0.10659704085E+00 -0.79329682945E-02  0.12979361145E+00  0.20618220776E-01 0.  0.
         14    1    1    2    0    0 -0.11449729123E-01  0.14391446105E-01 -0.14783733091E-01  0.23595948426E-01  0.00000000000E+00 0. -1.
     999901    1    3    3    0    0 -0.59228481387E-01 -0.12098848695E+00  0.22716701386E-01  0.89054044013E+00  0.88000000000E+00 0. -1.
        -11    1    4    4    0    0  0.27981873266E-01  0.59792992645E-01 -0.74422404790E-02  0.66436701192E-01  0.51100000000E-03 0. -1.
         11    1    4    4    0    0  0.42696337244E-01  0.46804048202E-01 -0.49072781544E-03  0.63356910254E-01  0.51100000000E-03 0.  1.
</event>
<event>
 8    1  0.1131349E+005  0.1043930E+01  0.7957747E-01            NaN
         13   -1    0    0    0    0  0.00000000000E+00  0.00000000000E+00  0.74505805969E-08  0.10566000000E+00  0.10566000000E+00 0.  1.
     999900   -1    0    0    0    0 -0.00000000000E+00 -0.00000000000E+00 -0.74505805969E-08  0.93827000000E+00  0.93827000000E+00 0. -1.
     999902    2    1    2    0    0  0.14476481911E-01 -0.73700402614E-02 -0.17156165852E-01  0.10203033191E+01  0.10200297265E+01 0.  0.
     999903    2    3    3    0    0 -0.62222931240E-01  0.11012077963E+00  0.13219549779E-01  0.12867022372E+00  0.19570148144E-01 0.  0.
         14    1    1    2    0    0 -0.14476481911E-01  0.73700402614E-02  0.17156165852E-01  0.23626680865E-01  0.00000000000E+00 0. -1.
     999901    1    3    3    0    0  0.76699413151E-01 -0.11749081989E+00 -0.30375715631E-01  0.89163309541E+00  0.88000000000E+00 0.  1.
        -11    1    4    4    0    0 -0.38336661757E-01  0.55873385728E-01 -0.76591592879E-03  0.67767120461E-01  0.51100000000E-03 0.  1.
         11    1    4    4    0    0 -0.23886269483E-01  0.54247393899E-01  0.13985465708E-01  0.60903103260E-01  0.51100000000E-03 0. -1.
</event>
<event>
 8    1  0.1131349E+005  0.1043930E+01  0.7957747E-01            NaN
         13   -1    0    0    0    0  0.00000000000E+00  0.00000000000E+00  0.74505805969E-08  0.10566000000E+00  0.10566000000E+00 0.  1.
     999900   -1    0    0    0    0 -0.00000000000E+00 -0.00000000000E+00 -0.74505805969E-08  0.93827000000E+00  0.93827000000E+00 0.  1.
     999902    2    1    2    0    0 -0.59789686007E-02 -0.15763710496E-01  0.16176106369E-01  0.10205653033E+01  0.10202978140E+01 0.  0.
     999903    2    3    3    0    0 -0.48325094994E-01  0.11180354368E+00 -0.36792351459E-01  0.12878491763E+00  0.19913078565E-01 0.  0.
         14    1    1    2    0    0  0.59789686007E-02  0.15763710496E-01 -0.16176106369E-01  0.23364696690E-01  0.00000000000E+00 0. -1.
     999901    1    3    3    0    0  0.42346126394E-01 -0.12756725417E+00  0.52968457828E-01  0.89178038568E+00  0.88000000000E+00 0. -1.
        -11    1    4    4    0    0 -0.36845259131E-01  0.78464771830E-01 -0.16970227433E-01  0.88332005971E-01  0.51100000000E-03 0.  1.
         11    1    4    4    0    0 -0.11479835863E-01  0.33338771849E-01 -0.19822124026E-01  0.40452911660E-01  0.51100000000E-03 0. -1.
</event>
<event>
 8    1  0.1131349E+005  0.1043930E+01  0.7957747E-01            NaN
         13   -1    0    0    0    0  0.00000000000E+00  0.00000000000E+00  0.74505805969E-08  0.10566000000E+00  0.10566000000E+00 0.  1.
     999900   -1    0    0    0    0 -0.00000000000E+00 -0.00000000000E+00 -0.74505805969E-08  0.93827000000E+00  0.93827000000E+00 0. -1.
     999902    2    1    2    0    0  0.17110703874E-01  0.10289273006E-01  0.13282425944E-01  0.10199494211E+01  0.10196674720E+01 0.  0.
     999903    2    3    3    0    0 -0.41295535758E-03 -0.10846868512E+00 -0.65419507327E-01  0.12831915828E+00  0.20505322693E-01 0.  0.
         14    1    1    2    0    0 -0.17110703874E-01 -0.10289273006E-01 -0.13282425944E-01  0.23980578913E-01  0.00000000000E+00 0. -1.
     999901    1    3    3    0    0  0.17523659231E-01  0.11875795813E+00  0.78701933271E-01  0.89163026281E+00  0.88000000000E+00 0.  1.
        -11    1    4    4    0    0  0.61701867935E-02 -0.88757746063E-01 -0.47416821554E-01  0.10081976383E+00  0.51100000000E-03 0. -1.
         11    1    4    4    0    0 -0.65831421511E-02 -0.19710939059E-01 -0.18002685773E-01  0.27499394452E-01  0.51100000000E-03 0.  1.
</event>
<event>
 8    1  0.1131349E+005  0.1043930E+01  0.7957747E-01            NaN
         13   -1    0    0    0    0  0.00000000000E+00  0.00000000000E+00  0.74505805969E-08  0.10566000000E+00  0.10566000000E+00 0.  1.
     999900   -1    0    0    0    0 -0.00000000000E+00 -0.00000000000E+00 -0.74505805969E-08  0.93827000000E+00  0.93827000000E+00 0.  1.
     999902    2    1    2    0    0 -0.82463335646E-04  0.24909279452E-04  0.23505853773E-01  0.10204239884E+01  0.10201532157E+01 0.  0.
     999903    2    3    3    0    0  0.77391311573E-01 -0.64482545793E-01 -0.78074087973E-01  0.12886250305E+00  0.19041209537E-01 0.  0.
         14    1    1    2    0    0  0.82463335646E-04 -0.24909279452E-04 -0.23505853773E-01  0.23506011620E-01  0.00000000000E+00 0. -1.
     999901    1    3    3    0    0 -0.77473774908E-01  0.64507455072E-01  0.10157994175E+00  0.89156148533E+00  0.88000000000E+00 0. -1.
        -11    1    4    4    0    0  0.64127496284E-02 -0.12345744559E-01 -0.15449132554E-01  0.20796095408E-01  0.51100000000E-03 0. -1.
         11    1    4    4    0    0  0.70978561944E-01 -0.52136801233E-01 -0.62624955419E-01  0.10806640764E+00  0.51100000000E-03 0.  1.
</event>
<event>
 8    1  0.1131349E+005  0.1043930E+01  0.7957747E-01            NaN
         13   -1    0    0    0    0  0.00000000000E+00  0.00000000000E+00  0.74505805969E-08  0.10566000000E+00  0.10566000000E+00 0.  1.
     999900   -1    0    0    0    0 -0.00000000000E+00 -0.00000000000E+00 -0.74505805969E-08  0.93827000000E+00  0.93827000000E+00 0.  1.
     999902    2    1    2    0    0  0.94057207250E-02 -0.11726706427E-01 -0.19267545620E-01  0.10194918835E+01  0.10191989398E+01 0.  0.
     999903    2    3    3    0    0 -0.97720403745E-02 -0.88855308457E-01  0.90894329959E-01  0.12906937329E+00  0.20158504156E-01 0.  0.
         14    1    1    2    0    0 -0.94057207250E-02  0.11726706427E-01  0.19267545620E-01  0.24438116543E-01  0.00000000000E+00 0.  1.
     999901    1    3    3    0    0  0.19177761100E-01  0.77128602030E-01 -0.11016187558E+00  0.89042251016E+00  0.88000000000E+00 0.  1.
        -11    1    4    4    0    0  0.13078182648E-02 -0.49383634896E-01  0.39057416872E-01  0.62977747799E-01  0.51100000000E-03 0. -1.
         11    1    4    4    0    0 -0.11079858639E-01 -0.39471673561E-01  0.51836913088E-01  0.66091625495E-01  0.51100000000E-03 0.  1.
</event>
<event>
 8    1  0.1131349E+005  0.1043930E+01  0.7957747E-01            NaN
         13   -1    0    0    0    0  0.00000000000E+00  0.00000000000E+00  0.74505805969E-08  0.10566000000E+00  0.10566000000E+00 0.  1.
     999900   -1    0    0    0    0 -0.00000000000E+00 -0.00000000000E+00 -0.74505805969E-08  0.93827000000E+00  0.93827000000E+00 0. -1.
     999902    2    1    2    0    0  0.51608381585E-02 -0.23645899220E-01 -0.12797827002E-02  0.10196936504E+01  0.10194055817E+01 0.  0.
     999903    2    3    3    0    0  0.51575466477E-01  0.60461174330E-01  0.99445018934E-01  0.12875380771E+00  0.19304115258E-01 0.  0.
         14    1    1    2    0    0 -0.51608381585E-02  0.23645899220E-01  0.12797827002E-02  0.24236349646E-01  0.00000000000E+00 0. -1.
     999901    1    3    3    0    0 -0.46414628319E-01 -0.84107073550E-01 -0.10072480163E+00  0.89093984264E+00  0.88000000000E+00 0. -1.
        -11    1    4    4    0    0  0.15959930101E-01  0.14870631064E-01  0.41409132635E-01  0.46806328884E-01  0.51100000000E-03 0. -1.
         11    1    4    4    0    0  0.35615536376E-01  0.45590543266E-01  0.58035886298E-01  0.81947478827E-01  0.51100000000E-03 0.  1.
</event>
<event>
 8    1  0.1131349E+005  0.1043930E+01  0.7957747E-01            NaN
         13   -1    0    0    0    0  0.00000000000E+00  0.00000000000E+00  0.74505805969E-08  0.10566000000E+00  0.10566000000E+00 0.  1.
     999900   -1    0    0    0    0 -0.00000000000E+00 -0.00000000000E+00 -0.74505805969E-08  0.93827000000E+00  0.93827000000E+00 0. -1.
     999902    2    1    2    0    0 -0.38734351337E-02  0.16317057500E-01 -0.19328265659E-01  0.10183403201E+01  0.10180187502E+01 0.  0.
     999903    2    3    3    0    0 -0.37635717151E-01 -0.54462960418E-01 -0.11016090714E+00  0.13019603485E+00  0.20806748078E-01 0.  0.
         14    1    1    2    0    0  0.38734351337E-02 -0.16317057500E-01  0.19328265659E-01  0.25589679924E-01  0.00000000000E+00 0.  1.
     999901    1    3    3    0    0  0.33762282017E-01  0.70780017918E-01  0.90832641480E-01  0.88814428523E+00  0.88000000000E+00 0.  1.
        -11    1    4    4    0    0 -0.20409410559E-01 -0.19707619321E-01 -0.30910382809E-01  0.41960066552E-01  0.51100000000E-03 0. -1.
         11    1    4    4    0    0 -0.17226306592E-01 -0.34755341097E-01 -0.79250524331E-01  0.88235968297E-01  0.51100000000E-03 0.  1.
</event>
<event>
 8    1  0.1131349E+005  0.1043930E+01  0.7957747E-01            NaN
         13   -1    0    0    0    0  0.00000000000E+00  0.00000000000E+00  0.74505805969E-08  0.10566000000E+00  0.10566000000E+00 0.  1.
     999900   -1    0    0    0    0 -0.00000000000E+00 -0.00000000000E+00 -0.74505805969E-08  0.93827000000E+00  0.93827000000E+00 0. -1.
     999902    2    1    2    0    0 -0.12803607303E-01 -0.71934961455E-02  0.17942701576E-01  0.10207433813E+01  0.10204800004E+01 0.  0.
     999903    2    3    3    0    0 -0.42027168157E-01  0.50328208276E-01 -0.10954809185E+00  0.12921847116E+00  0.19935331697E-01 0.  0.
         14    1    1    2    0    0  0.12803607303E-01  0.71934961455E-02 -0.17942701576E-01  0.23186618697E-01  0.00000000000E+00 0. -1.
     999901    1    3    3    0    0  0.29223560853E-01 -0.57521704422E-01  0.12749079343E+00  0.89152491014E+00  0.88000000000E+00 0.  1.
        -11    1    4    4    0    0 -0.28969290031E-01  0.40002165900E-01 -0.95134140613E-01  0.10719215863E+00  0.51100000000E-03 0. -1.
         11    1    4    4    0    0 -0.13057878126E-01  0.10326042376E-01 -0.14413951239E-01  0.22026312529E-01  0.51100000000E-03 0.  1.
</event>
<event>
 8    1  0.1131349E+005  0.1043930E+01  0.7957747E-01            NaN
         13   -1    0    0    0    0  0.00000000000E+00  0.00000000000E+00  0.74505805969E-08  0.10566000000E+00  0.10566000000E+00 0.  1.
     999900   -1    0    0    0    0 -0.00000000000E+00 -0.00000000000E+00 -0.74505805969E-08  0.93827000000E+00  0.93827000000E+00 0.  1.
     999902    2    1    2    0    0 -0.29421729200E-02 -0.84802939623E-02  0.21128205530E-01  0.10209741111E+01  0.10207160049E+01 0.  0.
     999903    2    3    3    0    0  0.94709469471E-01  0.17865212365E-01 -0.83558016829E-01  0.12901607725E+00  0.19343127769E-01 0.  0.
         14    1    1    2    0    0  0.29421729200E-02  0.84802939623E-02 -0.21128205530E-01  0.22955888919E-01  0.00000000000E+00 0. -1.
     999901    1    3    3    0    0 -0.97651642391E-01 -0.26345506327E-01  0.10468622236E+00  0.89195803383E+00  0.88000000000E+00 0. -1.
        -11    1    4    4    0    0  0.70329093508E-01  0.12824590914E-01 -0.72337411223E-01  0.10170355800E+00  0.51100000000E-03 0.  1.
         11    1    4    4    0    0  0.24380375963E-01  0.50406214509E-02 -0.11220605606E-01  0.27312519252E-01  0.51100000000E-03 0. -1.
</event>
<event>
 8    1  0.1131349E+005  0.1043930E+01  0.7957747E-01            NaN
         13   -1    0    0    0    0  0.00000000000E+00  0.00000000000E+00  0.74505805969E-08  0.10566000000E+00  0.10566000000E+00 0.  1.
     999900   -1    0    0    0    0 -0.00000000000E+00 -0.00000000000E+00 -0.74505805969E-08  0.93827000000E+00  0.93827000000E+00 0.  1.
     999902    2    1    2    0    0  0.20342920368E-01  0.32945256477E-02  0.10100273500E-01  0.10209799710E+01  0.10207219980E+01 0.  0.
     999903    2    3    3    0    0  0.95565189553E-01  0.69454892020E-01 -0.57031213849E-01  0.13275577603E+00  0.20367848097E-01 0.  0.
         14    1    1    2    0    0 -0.20342920368E-01 -0.32945256477E-02 -0.10100273500E-01  0.22950029044E-01  0.00000000000E+00 0.  1.
     999901    1    3    3    0    0 -0.75222269186E-01 -0.66160366372E-01  0.67131487350E-01  0.88822419493E+00  0.88000000000E+00 0. -1.
        -11    1    4    4    0    0  0.39354958825E-01  0.21727714500E-01 -0.30766355912E-01  0.54476932169E-01  0.51100000000E-03 0.  1.
         11    1    4    4    0    0  0.56210230729E-01  0.47727177520E-01 -0.26264857938E-01  0.78278843860E-01  0.51100000000E-03 0. -1.
</event>
<event>
 8    1  0.1131349E+005  0.1043930E+01  0.7957747E-01            NaN
         13   -1    0    0    0    0  0.00000000000E+00  0.00000000000E+00  0.74505805969E-08  0.10566000000E+00  0.10566000000E+00 0. -1.
     999900   -1    0    0    0    0 -0.00000000000E+00 -0.00000000000E+00 -0.74505805969E-08  0.93827000000E+00  0.93827000000E+00 0. -1.
     999902    2    1    2    0    0 -0.13616737370E-01  0.32177828250E-02 -0.17461968826E-01  0.10215538963E+01  0.10213088039E+01 0.  0.
     999903    2    3    3    0    0  0.16666929333E-02  0.12663999657E+00  0.28582014360E-01  0.13161756457E+00  0.21582056455E-01 0.  0.
         14    1    1    2    0    0  0.13616737370E-01 -0.32177828250E-02  0.17461968826E-01  0.22376103731E-01  0.00000000000E+00 0. -1.
     999901    1    3    3    0    0 -0.15283430304E-01 -0.12342221375E+00 -0.46043983186E-01  0.88993633170E+00  0.88000000000E+00 0.  1.
        -11    1    4    4    0    0  0.54976300329E-02  0.28109278465E-01 -0.10170280012E-02  0.28664454272E-01  0.51100000000E-03 0. -1.
         11    1    4    4    0    0 -0.38309370996E-02  0.98530718110E-01  0.29599042361E-01  0.10295311030E+00  0.51100000000E-03 0.  1.
</event>
<event>
 8    1  0.1131349E+005  0.1043930E+01  0.7957747E-01            NaN
         13   -1    0    0    0    0  0.00000000000E+00  0.00000000000E+00  0.74505805969E-08  0.10566000000E+00  0.10566000000E+00 0. -1.
     999900   -1    0    0    0    0 -0.00000000000E+00 -0.00000000000E+00 -0.74505805969E-08  0.93827000000E+00  0.93827000000E+00 0.  1.
     999902    2    1    2    0    0  0.13268423616E-01  0.10943045033E-01 -0.16555647743E-01  0.10200576149E+01  0.10197782342E+01 0.  0.
     999903    2    3    3    0    0 -0.46542101290E-01  0.11355187326E+00 -0.43605626308E-01  0.13166717600E+00  0.19354572514E-01 0.  0.
         14    1    1    2    0    0 -0.13268423616E-01 -0.10943045033E-01  0.16555647743E-01  0.23872385135E-01  0.00000000000E+00 0. -1.
     999901    1    3    3    0    0  0.59810524907E-01 -0.10260882823E+00  0.27049978565E-01  0.88839043886E+00  0.88000000000E+00 0. -1.
        -11    1    4    4    0    0 -0.40948394226E-01  0.79120497462E-01 -0.35125696489E-01  0.95764814954E-01  0.51100000000E-03 0. -1.
         11    1    4    4    0    0 -0.55937070646E-02  0.34431375800E-01 -0.84799298186E-02  0.35902361049E-01  0.51100000000E-03 0.  1.
</event>
<event>
 8    1  0.1131349E+005  0.1043930E+01  0.7957747E-01            NaN
         13   -1    0    0    0    0  0.00000000000E+00  0.00000000000E+00  0.74505805969E-08  0.10566000000E+00  0.10566000000E+00 0.  1.
     999900   -1    0    0    0    0 -0.00000000000E+00 -0.00000000000E+00 -0.74505805969E-08  0.93827000000E+00  0.93827000000E+00 0. -1.
     999902    2    1    2    0    0 -0.13110507755E-02  0.21133766656E-01  0.50908806647E-02  0.10221522128E+01  0.10219201898E+01 0.  0.
     999903    2    3    3    0    0 -0.70902541745E-01  0.10743824157E+00 -0.33378882700E-01  0.13436205707E+00  0.19205894740E-01 0.  0.
         14    1    1    2    0    0  0.13110507755E-02 -0.21133766656E-01 -0.50908806647E-02  0.21777787150E-01  0.00000000000E+00 0.  1.
     999901    1    3    3    0    0  0.69591490969E-01 -0.86304474912E-01  0.38469763364E-01  0.88779015578E+00  0.88000000000E+00 0. -1.
        -11    1    4    4    0    0 -0.18595083832E-01  0.44752341794E-01 -0.14061622967E-01  0.50463249996E-01  0.51100000000E-03 0. -1.
         11    1    4    4    0    0 -0.52307457913E-01  0.62685899775E-01 -0.19317259732E-01  0.83898807074E-01  0.51100000000E-03 0.  1.
</event>
<event>
 8    1  0.1131349E+005  0.1043930E+01  0.7957747E-01            NaN
         13   -1    0    0    0    0  0.00000000000E+00  0.00000000000E+00  0.74505805969E-08  0.10566000000E+00  0.10566000000E+00 0. -1.
     999900   -1    0    0    0    0 -0.00000000000E+00 -0.00000000000E+00 -0.74505805969E-08  0.93827000000E+00  0.93827000000E+00 0.  1.
     999902    2    1    2    0    0 -0.86945533890E-02 -0.23103608589E-01  0.49184050024E-02  0.10187593286E+01  0.10184483330E+01 0.  0.
     999903    2    3    3    0    0  0.15804410375E-01 -0.12868070368E+00  0.14940236488E-01  0.13205353790E+00  0.20159943450E-01 0.  0.
         14    1    1    2    0    0  0.86945533890E-02  0.23103608589E-01 -0.49184050024E-02  0.25170671351E-01  0.00000000000E+00 0. -1.
     999901    1    3    3    0    0 -0.24498963764E-01  0.10557709509E+00 -0.10021831486E-01  0.88670579074E+00  0.88000000000E+00 0.  1.
        -11    1    4    4    0    0  0.10954990914E-02 -0.34217211259E-01 -0.43804315670E-02  0.34517632687E-01  0.51100000000E-03 0. -1.
         11    1    4    4    0    0  0.14708911283E-01 -0.94463492422E-01  0.19320668055E-01  0.97535905218E-01  0.51100000000E-03 0.  1.
</event>
<event>
 8    1  0.1131349E+005  0.1043930E+01  0.7957747E-01            NaN
         13   -1    0    0    0    0  0.00000000000E+00  0.00000000000E+00  0.74505805969E-08  0.10566000000E+00  0.10566000000E+00 0. -1.
     999900   -1    0    0    0    0 -0.00000000000E+00 -0.00000000000E+00 -0.74505805969E-08  0.93827000000E+00  0.93827000000E+00 0. -1.
     999902    2    1    2    0    0 -0.20705285077E-01 -0.48259423428E-03  0.11852381180E-01  0.10200674631E+01  0.10197883156E+01 0.  0.
     999903    2    3    3    0    0 -0.76184322843E-01  0.10434102937E+00 -0.15733296067E-01  0.13168303884E+00  0.20044566742E-01 0.  0.
         14    1    1    2    0    0  0.20705285077E-01  0.48259423428E-03 -0.11852381180E-01  0.23862536893E-01  0.00000000000E+00 0.  1.
     999901    1    3    3    0    0  0.55479037766E-01 -0.10482362360E+00  0.27585677247E-01  0.88838442427E+00  0.88000000000E+00 0.  1.
        -11    1    4    4    0    0 -0.47855044241E-01  0.76090399388E-01 -0.17732380608E-01  0.91621790975E-01  0.51100000000E-03 0.  1.
         11    1    4    4    0    0 -0.28329278602E-01  0.28250629978E-01  0.19990845408E-02  0.40061247863E-01  0.51100000000E-03 0. -1.
</event>
<event>
 8    1  0.1131349E+005  0.1043930E+01  0.7957747E-01            NaN
         13   -1    0    0    0    0  0.00000000000E+00  0.00000000000E+00  0.74505805969E-08  0.10566000000E+00  0.10566000000E+00 0.  1.
     999900   -1    0    0    0    0 -0.00000000000E+00 -0.00000000000E+00 -0.74505805969E-08  0.93827000000E+00  0.93827000000E+00 0. -1.
     999902    2    1    2    0    0  0.17074636268E-01  0.15534588838E-01  0.72556500089E-02  0.10197326631E+01  0.10194455322E+01 0.  0.
     999903    2    3    3    0    0 -0.40633571109E-01  0.65502580567E-01 -0.10279855612E+00  0.12959842288E+00  0.16927283042E-01 0.  0.
         14    1    1    2    0    0 -0.17074636268E-01 -0.15534588838E-01 -0.72556500089E-02  0.24197336860E-01  0.00000000000E+00 0.  1.
     999901    1    3    3    0    0  0.57708207377E-01 -0.49967991728E-01  0.11005420613E+00  0.89013424026E+00  0.88000000000E+00 0. -1.
        -11    1    4    4    0    0 -0.22125115179E-01  0.20148769208E-01 -0.38521717604E-01  0.48781937953E-01  0.51100000000E-03 0. -1.
         11    1    4    4    0    0 -0.18508455930E-01  0.45353811359E-01 -0.64276838514E-01  0.80816484928E-01  0.51100000000E-03 0.  1.
</event>
<event>
 8    1  0.1131349E+005  0.1043930E+01  0.7957747E-01            NaN
         13   -1    0    0    0    0  0.00000000000E+00  0.00000000000E+00  0.74505805969E-08  0.10566000000E+00  0.10566000000E+00 0.  1.
     999900   -1    0    0    0    0 -0.00000000000E+00 -0.00000000000E+00 -0.74505805969E-08  0.93827000000E+00  0.93827000000E+00 0. -1.
     999902    2    1    2    0    0 -0.15649159200E-02 -0.22275567015E-01 -0.78466749833E-02  0.10202610297E+01  0.10199864453E+01 0.  0.
     999903    2    3    3    0    0 -0.98107265960E-01 -0.81243948886E-01  0.28991127428E-01  0.13225499417E+00  0.20622394372E-01 0.  0.
         14    1    1    2    0    0  0.15649159200E-02  0.22275567015E-01  0.78466749833E-02  0.23668970319E-01  0.00000000000E+00 0.  1.
     999901    1    3    3    0    0  0.96542350039E-01  0.58968381871E-01 -0.36837802412E-01  0.88800603551E+00  0.88000000000E+00 0. -1.
        -11    1    4    4    0    0 -0.18058264642E-01 -0.70771745867E-02  0.86711993399E-02  0.21251779714E-01  0.51100000000E-03 0. -1.
         11    1    4    4    0    0 -0.80049001318E-01 -0.74166774299E-01  0.20319928089E-01  0.11100321446E+00  0.51100000000E-03 0.  1.
</event>
<event>
 8    1  0.1131349E+005  0.1043930E+01  0.7957747E-01            NaN
         13   -1    0    0    0    0  0.00000000000E+00  0.00000000000E+00  0.74505805969E-08  0.10566000000E+00  0.10566000000E+00 0.  1.
     999900   -1    0    0    0    0 -0.00000000000E+00 -0.00000000000E+00 -0.74505805969E-08  0.93827000000E+00  0.93827000000E+00 0. -1.
     999902    2    1    2    0    0 -0.32829832939E-02 -0.17409232779E-01 -0.15092731309E-01  0.10206566267E+01  0.10203912484E+01 0.  0.
     999903    2    3    3    0    0 -0.21812614373E-01  0.14697136085E-01  0.12459285992E+00  0.12886840604E+00  0.19796196017E-01 0.  0.
         14    1    1    2    0    0  0.32829832939E-02  0.17409232779E-01  0.15092731309E-01  0.23273373275E-01  0.00000000000E+00 0. -1.
     999901    1    3    3    0    0  0.18529631080E-01 -0.32106368863E-01 -0.13968559123E+00  0.89178822068E+00  0.88000000000E+00 0. -1.
        -11    1    4    4    0    0 -0.16777958492E-01  0.10395131804E-01  0.46823694300E-01  0.50816120723E-01  0.51100000000E-03 0.  1.
         11    1    4    4    0    0 -0.50346558810E-02  0.43020042812E-02  0.77769165624E-01  0.78052285319E-01  0.51100000000E-03 0. -1.
</event>
<event>
 7    1  0.1196020E+005  0.1043930E+01  0.7957747E-01            NaN
         13   -1    0    0    0    0  0.00000000000E+00  0.00000000000E+00  0.74505805969E-08  0.10566000000E+00  0.10566000000E+00 0. -1.
     999900   -1    0    0    0    0 -0.00000000000E+00 -0.00000000000E+00 -0.74505805969E-08  0.93827000000E+00  0.93827000000E+00 0. -1.
     999903    2    1    2    0    0 -0.79954751013E-01  0.39805136245E-01 -0.67369308923E-01  0.11367423977E+00  0.20149390115E-01 0.  0.
         14    1    1    2    0    0  0.23962646585E-01 -0.14359727558E-02 -0.34235148739E-01  0.41812867137E-01  0.00000000000E+00 0.  1.
     999901    1    1    2    0    0  0.55992104429E-01 -0.38369163489E-01  0.10160445766E+00  0.88844289309E+00  0.88000000000E+00 0.  1.
        -11    1    3    3    0    0 -0.19121018803E-01  0.19516031333E-01 -0.22630111378E-01  0.35480584846E-01  0.51100000000E-03 0. -1.
         11    1    3    3    0    0 -0.60833732210E-01  0.20289104912E-01 -0.44739197546E-01  0.78193654926E-01  0.51100000000E-03 0.  1.
</event>
<event>
 8    1  0.1131349E+005  0.1043930E+01  0.7957747E-01            NaN
         13   -1    0    0    0    0  0.00000000000E+00  0.00000000000E+00  0.74505805969E-08  0.10566000000E+00  0.10566000000E+00 0. -1.
     999900   -1    0    0    0    0 -0.00000000000E+00 -0.00000000000E+00 -0.74505805969E-08  0.93827000000E+00  0.93827000000E+00 0. -1.
     999902    2    1    2    0    0  0.11332286735E-01 -0.20012204968E-01  0.34419816587E-02  0.10206758325E+01  0.10204108970E+01 0.  0.
     999903    2    3    3    0    0  0.53610868055E-01  0.64792798052E-01 -0.97002104256E-01  0.12990741060E+00  0.19856869016E-01 0.  0.
         14    1    1    2    0    0 -0.11332286735E-01  0.20012204968E-01 -0.34419816587E-02  0.23254167542E-01  0.00000000000E+00 0. -1.
     999901    1    3    3    0    0 -0.42278581320E-01 -0.84805003020E-01  0.10044408591E+00  0.89076842185E+00  0.88000000000E+00 0.  1.
        -11    1    4    4    0    0  0.38412757807E-01  0.56781222574E-01 -0.83579776233E-01  0.10809943254E+00  0.51100000000E-03 0.  1.
         11    1    4    4    0    0  0.15198110247E-01  0.80115754779E-02 -0.13422328023E-01  0.21807978065E-01  0.51100000000E-03 0. -1.
</event>
<event>
 8    1  0.1131349E+005  0.1043930E+01  0.7957747E-01            NaN
         13   -1    0    0    0    0  0.00000000000E+00  0.00000000000E+00  0.74505805969E-08  0.10566000000E+00  0.10566000000E+00 0.  1.
     999900   -1    0    0    0    0 -0.00000000000E+00 -0.00000000000E+00 -0.74505805969E-08  0.93827000000E+00  0.93827000000E+00 0.  1.
     999902    2    1    2    0    0 -0.43740935313E-02  0.20211417903E-01  0.11989433120E-01  0.10200264309E+01  0.10197463112E+01 0.  0.
     999903    2    3    3    0    0 -0.43701865466E-01 -0.56499632602E-01 -0.10421283807E+00  0.12821130056E+00  0.21811933536E-01 0.  0.
         14    1    1    2    0    0  0.43740935313E-02 -0.20211417903E-01 -0.11989433120E-01  0.23903569072E-01  0.00000000000E+00 0. -1.
     999901    1    3    3    0    0  0.39327771935E-01  0.76711050505E-01  0.11620227119E+00  0.89181513036E+00  0.88000000000E+00 0. -1.
        -11    1    4    4    0    0 -0.13303690982E-01 -0.21892660934E-01 -0.55708719760E-01  0.61318833770E-01  0.51100000000E-03 0.  1.
         11    1    4    4    0    0 -0.30398174484E-01 -0.34606971668E-01 -0.48504118309E-01  0.66892466795E-01  0.51100000000E-03 0. -1.
</event>
<event>
 8    1  0.1131349E+005  0.1043930E+01  0.7957747E-01            NaN
         13   -1    0    0    0    0  0.00000000000E+00  0.00000000000E+00  0.74505805969E-08  0.10566000000E+00  0.10566000000E+00 0.  1.
     999900   -1    0    0    0    0 -0.00000000000E+00 -0.00000000000E+00 -0.74505805969E-08  0.93827000000E+00  0.93827000000E+00 0. -1.
     999902    2    1    2    0    0  0.96428606511E-02 -0.10915104050E-01  0.18283473781E-01  0.10205545926E+01  0.10202868551E+01 0.  0.
     999903    2    3    3    0    0  0.10328564798E+00 -0.72408881708E-01 -0.32782231508E-01  0.13198373860E+00  0.20834138379E-01 0.  0.
         14    1    1    2    0    0 -0.96428606511E-02  0.10915104050E-01 -0.18283473781E-01  0.23375407407E-01  0.00000000000E+00 0. -1.
     999901    1    3    3    0    0 -0.93642787334E-01  0.61493777658E-01  0.51065705290E-01  0.88857085399E+00  0.88000000000E+00 0.  1.
        -11    1    4    4    0    0  0.36656833613E-01 -0.33040166456E-01 -0.43868107784E-02  0.49546758519E-01  0.51100000000E-03 0. -1.
         11    1    4    4    0    0  0.66628814372E-01 -0.39368715252E-01 -0.28395420730E-01  0.82436980080E-01  0.51100000000E-03 0.  1.
</event>
<event>
 8    1  0.1131349E+005  0.1043930E+01  0.7957747E-01            NaN
         13   -1    0    0    0    0  0.00000000000E+00  0.00000000000E+00  0.74505805969E-08  0.10566000000E+00  0.10566000000E+00 0.  1.
     999900   -1    0    0    0    0 -0.00000000000E+00 -0.00000000000E+00 -0.74505805969E-08  0.93827000000E+00  0.93827000000E+00 0. -1.
     999902    2    1    2    0    0 -0.20346615498E-01  0.67133119611E-02 -0.11313813185E-01  0.10197007679E+01  0.10194128704E+01 0.  0.
     999903    2    3    3    0    0 -0.48899049247E-01  0.11633640625E+00 -0.33454495511E-01  0.13216334666E+00  0.20558951691E-01 0.  0.
         14    1    1    2    0    0  0.20346615498E-01 -0.67133119611E-02  0.11313813185E-01  0.24229232107E-01  0.00000000000E+00 0. -1.
     999901    1    3    3    0    0  0.28552433749E-01 -0.10962309429E+00  0.22140682327E-01  0.88753742123E+00  0.88000000000E+00 0. -1.
        -11    1    4    4    0    0 -0.22192660321E-01  0.29594843634E-01 -0.12103968448E-01  0.38924749390E-01  0.51100000000E-03 0. -1.
         11    1    4    4    0    0 -0.26706388926E-01  0.86741562614E-01 -0.21350527063E-01  0.93238597271E-01  0.51100000000E-03 0.  1.
</event>
<event>
 8    1  0.1131349E+005  0.1043930E+01  0.7957747E-01            NaN
         13   -1    0    0    0    0  0.00000000000E+00  0.00000000000E+00  0.74505805969E-08  0.10566000000E+00  0.10566000000E+00 0.  1.
     999900   -1    0    0    0    0 -0.00000000000E+00 -0.00000000000E+00 -0.74505805969E-08  0.93827000000E+00  0.93827000000E+00 0. -1.
     999902    2    1    2    0    0 -0.14632423894E-01  0.81831632606E-02 -0.15879616202E-01  0.10208381356E+01  0.10205769275E+01 0.  0.
     999903    2    3    3    0    0  0.79542786160E-01  0.51990027096E-01 -0.89072873309E-01  0.13171201161E+00  0.19597435927E-01 0.  0.
         14    1    1    2    0    0  0.14632423894E-01 -0.81831632606E-02  0.15879616202E-01  0.23091864383E-01  0.00000000000E+00 0.  1.
     999901    1    3    3    0    0 -0.94175210054E-01 -0.43806863836E-01  0.73193257107E-01  0.88912612401E+00  0.88000000000E+00 0.  1.
        -11    1    4    4    0    0  0.25175046014E-01  0.25652550020E-01 -0.40842468314E-01  0.54407762344E-01  0.51100000000E-03 0. -1.
         11    1    4    4    0    0  0.54367740146E-01  0.26337477077E-01 -0.48230404995E-01  0.77304249265E-01  0.51100000000E-03 0.  1.
</event>
<event>
 8    1  0.1131349E+005  0.1043930E+01  0.7957747E-01            NaN
         13   -1    0    0    0    0  0.00000000000E+00  0.00000000000E+00  0.74505805969E-08  0.10566000000E+00  0.10566000000E+00 0. -1.
     999900   -1    0    0    0    0 -0.00000000000E+00 -0.00000000000E+00 -0.74505805969E-08  0.93827000000E+00  0.93827000000E+00 0. -1.
     999902    2    1    2    0    0  0.75491140973E-02 -0.10742444466E-01  0.20076332265E-01  0.10199414954E+01  0.10196593576E+01 0.  0.
     999903    2    3    3    0    0 -0.55887183361E-01  0.11387957417E+00  0.81370942571E-02  0.12882009132E+00  0.20891839256E-01 0.  0.
         14    1    1    2    0    0 -0.75491140973E-02  0.10742444466E-01 -0.20076332265E-01  0.23988504622E-01  0.00000000000E+00 0. -1.
     999901    1    3    3    0    0  0.63436297458E-01 -0.12462201864E+00  0.11939238008E-01  0.89112140406E+00  0.88000000000E+00 0. -1.
        -11    1    4    4    0    0 -0.49837481370E-01  0.90745237961E-01  0.13208898939E-01  0.10437053652E+00  0.51100000000E-03 0.  1.
         11    1    4    4    0    0 -0.60497019906E-02  0.23134336210E-01 -0.50718046824E-02  0.24449554798E-01  0.51100000000E-03 0. -1.
</event>
<event>
 8    1  0.1131349E+005  0.1043930E+01  0.7957747E-01            NaN
         13   -1    0    0    0    0  0.00000000000E+00  0.00000000000E+00  0.74505805969E-08  0.10566000000E+00  0.10566000000E+00 0. -1.
     999900   -1    0    0    0    0 -0.00000000000E+00 -0.00000000000E+00 -0.74505805969E-08  0.93827000000E+00  0.93827000000E+00 0. -1.
     999902    2    1    2    0    0 -0.19367486095E-01  0.12026991202E-02  0.12086291545E-01  0.10210690191E+01  0.10208130668E+01 0.  0.
     999903    2    3    3    0    0  0.12325042764E+00 -0.26448982391E-01 -0.16180286682E-01  0.12871063583E+00  0.20357050754E-01 0.  0.
         14    1    1    2    0    0  0.19367486095E-01 -0.12026991202E-02 -0.12086291545E-01  0.22860980865E-01  0.00000000000E+00 0.  1.
     999901    1    3    3    0    0 -0.14261791374E+00  0.27651681511E-01  0.28266578227E-01  0.89235838330E+00  0.88000000000E+00 0.  1.
        -11    1    4    4    0    0  0.79003773345E-01 -0.26831708024E-01 -0.10340339900E-01  0.84075683217E-01  0.51100000000E-03 0.  1.
         11    1    4    4    0    0  0.44246654297E-01  0.38272563285E-03 -0.58399467822E-02  0.44634952613E-01  0.51100000000E-03 0. -1.
</event>
<event>
 8    1  0.1131349E+005  0.1043930E+01  0.7957747E-01            NaN
         13   -1    0    0    0    0  0.00000000000E+00  0.00000000000E+00  0.74505805969E-08  0.10566000000E+00  0.10566000000E+00 0.  1.
     999900   -1    0    0    0    0 -0.00000000000E+00 -0.00000000000E+00 -0.74505805969E-08  0.93827000000E+00  0.93827000000E+00 0.  1.
     999902    2    1    2    0    0 -0.12990497280E-01  0.16202779395E-01 -0.10259807347E-01  0.10207665217E+01  0.10205036723E+01 0.  0.
     999903    2    3    3    0    0  0.53720641055E-01  0.78519960061E-01  0.87179396498E-01  0.13069449910E+00  0.20724707918E-01 0.  0.
         14    1    1    2    0    0  0.12990497280E-01 -0.16202779395E-01  0.10259807347E-01  0.23163478290E-01  0.00000000000E+00 0.  1.
     999901    1    3    3    0    0 -0.66711138336E-01 -0.62317180665E-01 -0.97439203845E-01  0.89007202261E+00  0.88000000000E+00 0.  1.
        -11    1    4    4    0    0  0.24667599946E-01  0.36461156634E-01  0.54337270477E-01  0.69933586452E-01  0.51100000000E-03 0.  1.
         11    1    4    4    0    0  0.29053041109E-01  0.42058803427E-01  0.32842126021E-01  0.60760912649E-01  0.51100000000E-03 0. -1.
</event>
<event>
 8    1  0.1131349E+005  0.1043930E+01  0.7957747E-01            NaN
         13   -1    0    0    0    0  0.00000000000E+00  0.00000000000E+00  0.74505805969E-08  0.10566000000E+00  0.10566000000E+00 0.  1.
     999900   -1    0    0    0    0 -0.00000000000E+00 -0.00000000000E+00 -0.74505805969E-08  0.93827000000E+00  0.93827000000E+00 0.  1.
     999902    2    1    2    0    0  0.15527487382E-01  0.35043835991E-02  0.17754782164E-01  0.10200843325E+01  0.10198055842E+01 0.  0.
     999903    2    3    3    0    0 -0.10876621971E+00  0.61906587265E-01  0.26120279824E-01  0.12939374393E+00  0.19948830879E-01 0.  0.
         14    1    1    2    0    0 -0.15527487382E-01 -0.35043835991E-02 -0.17754782164E-01  0.23845667500E-01  0.00000000000E+00 0. -1.
     999901    1    3    3    0    0  0.12429370709E+00 -0.58402203666E-01 -0.83654976600E-02  0.89069058857E+00  0.88000000000E+00 0.  1.
        -11    1    4    4    0    0 -0.49651247055E-01  0.36666342998E-01  0.19709048599E-01  0.64794866777E-01  0.51100000000E-03 0. -1.
         11    1    4    4    0    0 -0.59114972655E-01  0.25240244267E-01  0.64112312249E-02  0.64598877153E-01  0.51100000000E-03 0.  1.
</event>
<event>
 8    1  0.1131349E+005  0.1043930E+01  0.7957747E-01            NaN
         13   -1    0    0    0    0  0.00000000000E+00  0.00000000000E+00  0.74505805969E-08  0.10566000000E+00  0.10566000000E+00 0.  1.
     999900   -1    0    0    0    0 -0.00000000000E+00 -0.00000000000E+00 -0.74505805969E-08  0.93827000000E+00  0.93827000000E+00 0. -1.
     999902    2    1    2    0    0 -0.19339837606E-01 -0.56451554369E-02  0.80458279488E-02  0.10222359352E+01  0.10220057117E+01 0.  0.
     999903    2    3    3    0    0  0.12935838711E-01  0.38576028189E-01 -0.12291853342E+00  0.13086121251E+00  0.18980126676E-01 0.  0.
         14    1    1    2    0    0  0.19339837606E-01  0.56451554369E-02 -0.80458279488E-02  0.21694064762E-01  0.00000000000E+00 0. -1.
     999901    1    3    3    0    0 -0.32275676317E-01 -0.44221183626E-01  0.13096436137E+00  0.89137472272E+00  0.88000000000E+00 0.  1.
        -11    1    4    4    0    0  0.10452112652E-02  0.12114241549E-01 -0.16159994061E-01  0.20230023330E-01  0.51100000000E-03 0.  1.
         11    1    4    4    0    0  0.11890627446E-01  0.26461786640E-01 -0.10675853936E+00  0.11063118918E+00  0.51100000000E-03 0. -1.
</event>
<event>
 8    1  0.1131349E+005  0.1043930E+01  0.7957747E-01            NaN
         13   -1    0    0    0    0  0.00000000000E+00  0.00000000000E+00  0.74505805969E-08  0.10566000000E+00  0.10566000000E+00 0.  1.
     999900   -1    0    0    0    0 -0.00000000000E+00 -0.00000000000E+00 -0.74505805969E-08  0.93827000000E+00  0.93827000000E+00 0. -1.
     999902    2    1    2    0    0 -0.79398077207E-02 -0.20389844903E-01 -0.66180609230E-02  0.10210698807E+01  0.10208139479E+01 0.  0.
     999903    2    3    3    0    0 -0.53707754835E-01 -0.35065658124E-01 -0.11469180788E+00  0.13315658585E+00  0.21502145263E-01 0.  0.
         14    1    1    2    0    0  0.79398077207E-02  0.20389844903E-01  0.66180609230E-02  0.22860119252E-01  0.00000000000E+00 0.  1.
     999901    1    3    3    0    0  0.45767947114E-01  0.14675813220E-01  0.10807374696E+00  0.88791329490E+00  0.88000000000E+00 0.  1.
        -11    1    4    4    0    0 -0.24511718939E-03 -0.44376932395E-02 -0.17630625138E-01  0.18189372377E-01  0.51100000000E-03 0. -1.
         11    1    4    4    0    0 -0.53462637646E-01 -0.30627964884E-01 -0.97061182743E-01  0.11496721347E+00  0.51100000000E-03 0.  1.
</event>
<event>
 8    1  0.1131349E+005  0.1043930E+01  0.7957747E-01            NaN
         13   -1    0    0    0    0  0.00000000000E+00  0.00000000000E+00  0.74505805969E-08  0.10566000000E+00  0.10566000000E+00 0. -1.
     999900   -1    0    0    0    0 -0.00000000000E+00 -0.00000000000E+00 -0.74505805969E-08  0.93827000000E+00  0.93827000000E+00 0.  1.
     999902    2    1    2    0    0 -0.18352627175E-01  0.96646134382E-02 -0.71883491275E-02  0.10219778693E+01  0.10217420758E+01 0.  0.
     999903    2    3    3    0    0  0.46900499094E-01  0.10998269444E+00  0.52410164936E-01  0.13188030686E+00  0.18701338368E-01 0.  0.
         14    1    1    2    0    0  0.18352627175E-01 -0.96646134382E-02  0.71883491275E-02  0.21952130655E-01  0.00000000000E+00 0.  1.
     999901    1    3    3    0    0 -0.65253126269E-01 -0.10031808100E+00 -0.59598514063E-01  0.89009756249E+00  0.88000000000E+00 0.  1.
        -11    1    4    4    0    0  0.11485607444E-01  0.49819383329E-01  0.24461439928E-01  0.56679037553E-01  0.51100000000E-03 0.  1.
         11    1    4    4    0    0  0.35414891650E-01  0.60163311113E-01  0.27948725008E-01  0.75201269306E-01  0.51100000000E-03 0. -1.
</event>
<event>
 8    1  0.1131349E+005  0.1043930E+01  0.7957747E-01            NaN
         13   -1    0    0    0    0  0.00000000000E+00  0.00000000000E+00  0.74505805969E-08  0.10566000000E+00  0.10566000000E+00 0. -1.
     999900   -1    0    0    0    0 -0.00000000000E+00 -0.00000000000E+00 -0.74505805969E-08  0.93827000000E+00  0.93827000000E+00 0. -1.
     999902    2    1    2    0    0 -0.60006697925E-02 -0.16595836159E-01 -0.15568414114E-01  0.10203969311E+01  0.10201255274E+01 0.  0.
     999903    2    3    3    0    0 -0.12075847412E+00  0.65464340832E-02  0.45453211846E-01  0.13054944010E+00  0.18753585605E-01 0.  0.
         14    1    1    2    0    0  0.60006697925E-02  0.16595836159E-01  0.15568414114E-01  0.23533068941E-01  0.00000000000E+00 0. -1.
     999901    1    3    3    0    0  0.11475780433E+00 -0.23142270242E-01 -0.61021625959E-01  0.88984749096E+00  0.88000000000E+00 0. -1.
        -11    1    4    4    0    0 -0.90799761787E-01  0.31128739833E-02  0.42321791041E-01  0.10022814895E+00  0.51100000000E-03 0. -1.
         11    1    4    4    0    0 -0.29958712333E-01  0.34335600999E-02  0.31314208048E-02  0.30321291148E-01  0.51100000000E-03 0.  1.
</event>
<event>
 8    1  0.1131349E+005  0.1043930E+01  0.7957747E-01            NaN
         13   -1    0    0    0    0  0.00000000000E+00  0.00000000000E+00  0.74505805969E-08  0.10566000000E+00  0.10566000000E+00 0. -1.
     999900   -1    0    0    0    0 -0.00000000000E+00 -0.00000000000E+00 -0.74505805969E-08  0.93827000000E+00  0.93827000000E+00 0.  1.
     999902    2    1    2    0    0 -0.14554753089E-01  0.49076831955E-02  0.17873271883E-01  0.10203634975E+01  0.10200913131E+01 0.  0.
     999903    2    3    3    0    0  0.63224491992E-01 -0.11070160230E+00  0.95708112773E-02  0.12936178668E+00  0.19765886883E-01 0.  0.
         14    1    1    2    0    0  0.14554753089E-01 -0.49076831955E-02 -0.17873271883E-01  0.23566502490E-01  0.00000000000E+00 0.  1.
     999901    1    3    3    0    0 -0.77779245080E-01  0.11560928549E+00  0.83024606058E-02  0.89100171083E+00  0.88000000000E+00 0.  1.
        -11    1    4    4    0    0  0.24431001872E-01 -0.60692689941E-01  0.91701871744E-02  0.66066859457E-01  0.51100000000E-03 0.  1.
         11    1    4    4    0    0  0.38793490120E-01 -0.50008912357E-01  0.40062410289E-03  0.63294927218E-01  0.51100000000E-03 0. -1.
</event>
<event>
 8    1  0.1131349E+005  0.1043930E+01  0.7957747E-01            NaN
         13   -1    0    0    0    0  0.00000000000E+00  0.00000000000E+00  0.74505805969E-08  0.10566000000E+00  0.10566000000E+00 0. -1.
     999900   -1    0    0    0    0 -0.00000000000E+00 -0.00000000000E+00 -0.74505805969E-08  0.93827000000E+00  0.93827000000E+00 0.  1.
     999902    2    1    2    0    0  0.48484413709E-02 -0.23560455218E-01  0.54319278339E-02  0.10192701485E+01  0.10189717991E+01 0.  0.
     999903    2    3    3    0    0  0.11738689830E+00 -0.27264679573E-01 -0.46222662648E-01  0.13059314182E+00  0.19874292490E-01 0.  0.
         14    1    1    2    0    0 -0.48484413709E-02  0.23560455218E-01 -0.54319278339E-02  0.24659851455E-01  0.00000000000E+00 0.  1.
     999901    1    3    3    0    0 -0.11253845693E+00  0.37042243547E-02  0.51654590482E-01  0.88867700673E+00  0.88000000000E+00 0. -1.
        -11    1    4    4    0    0  0.37130440494E-01 -0.82291017624E-03 -0.87747962575E-02  0.38165494400E-01  0.51100000000E-03 0.  1.
         11    1    4    4    0    0  0.80256457810E-01 -0.26441769397E-01 -0.37447866390E-01  0.92427647418E-01  0.51100000000E-03 0. -1.
</event>
<event>
 8    1  0.1131349E+005  0.1043930E+01  0.7957747E-01            NaN
         13   -1    0    0    0    0  0.00000000000E+00  0.00000000000E+00  0.74505805969E-08  0.10566000000E+00  0.10566000000E+00 0.  1.
     999900   -1    0    0    0    0 -0.00000000000E+00 -0.00000000000E+00 -0.74505805969E-08  0.93827000000E+00  0.93827000000E+00 0. -1.
     999902    2    1    2    0    0  0.20946150974E-01  0.12154383238E-01  0.10862071020E-02  0.10196885042E+01  0.10194003117E+01 0.  0.
     999903    2    3    3    0    0  0.23732464339E-01  0.94408054804E-01  0.86229757739E-01  0.13175671953E+00  0.21169585376E-01 0.  0.
         14    1    1    2    0    0 -0.20946150974E-01 -0.12154383238E-01 -0.10862071020E-02  0.24241495795E-01  0.00000000000E+00 0.  1.
     999901    1    3    3    0    0 -0.27863133651E-02 -0.82253671566E-01 -0.85143550637E-01  0.88793178468E+00  0.88000000000E+00 0. -1.
        -11    1    4    4    0    0  0.48762488198E-03  0.27521510721E-01  0.34095634587E-01  0.43822879290E-01  0.51100000000E-03 0.  1.
         11    1    4    4    0    0  0.23244839457E-01  0.66886544083E-01  0.52134123152E-01  0.87933840235E-01  0.51100000000E-03 0. -1.
</event>
<event>
 8    1  0.1131349E+005  0.1043930E+01  0.7957747E-01            NaN
         13   -1    0    0    0    0  0.00000000000E+00  0.00000000000E+00  0.74505805969E-08  0.10566000000E+00  0.10566000000E+00 0. -1.
     999900   -1    0    0    0    0 -0.00000000000E+00 -0.00000000000E+00 -0.74505805969E-08  0.93827000000E+00  0.93827000000E+00 0.  1.
     999902    2    1    2    0    0  0.18006178816E-01 -0.74288426113E-02  0.16186517762E-01  0.10186038567E+01  0.10182889587E+01 0.  0.
     999903    2    3    3    0    0 -0.10277161423E+00  0.16047137828E-01 -0.68207960518E-01  0.12604527322E+00  0.20385526703E-01 0.  0.
         14    1    1    2    0    0 -0.18006178816E-01  0.74288426113E-02 -0.16186517762E-01  0.25326143318E-01  0.00000000000E+00 0. -1.
     999901    1    3    3    0    0  0.12077779304E+00 -0.23475980439E-01  0.84394478281E-01  0.89255858346E+00  0.88000000000E+00 0. -1.
        -11    1    4    4    0    0 -0.84978821284E-01  0.15168590669E-01 -0.64706644640E-01  0.10788279377E+00  0.51100000000E-03 0.  1.
         11    1    4    4    0    0 -0.17792792945E-01  0.87854715918E-03 -0.35013158781E-02  0.18162479450E-01  0.51100000000E-03 0. -1.
</event>
<event>
 8    1  0.1131349E+005  0.1043930E+01  0.7957747E-01            NaN
         13   -1    0    0    0    0  0.00000000000E+00  0.00000000000E+00  0.74505805969E-08  0.10566000000E+00  0.10566000000E+00 0.  1.
     999900   -1    0    0    0    0 -0.00000000000E+00 -0.00000000000E+00 -0.74505805969E-08  0.93827000000E+00  0.93827000000E+00 0. -1.
     999902    2    1    2    0    0  0.21683084132E-01 -0.47236614688E-02  0.83689669136E-02  0.10202127337E+01  0.10199370143E+01 0.  0.
     999903    2    3    3    0    0 -0.76537860254E-01  0.62695318425E-01  0.80710919393E-01  0.12924358108E+00  0.20022580688E-01 0.  0.
         14    1    1    2    0    0 -0.21683084132E-01  0.47236614688E-02 -0.83689669136E-02  0.23717266334E-01  0.00000000000E+00 0. -1.
     999901    1    3    3    0    0  0.98220944386E-01 -0.67418979893E-01 -0.72341952479E-01  0.89096915258E+00  0.88000000000E+00 0.  1.
        -11    1    4    4    0    0 -0.36147269769E-01  0.18138177461E-01  0.37829779520E-01  0.55380248581E-01  0.51100000000E-03 0. -1.
         11    1    4    4    0    0 -0.40390590485E-01  0.44557140963E-01  0.42881139872E-01  0.73863332502E-01  0.51100000000E-03 0.  1.
</event>
<event>
 8    1  0.1131349E+005  0.1043930E+01  0.7957747E-01            NaN
         13   -1    0    0    0    0  0.00000000000E+00  0.00000000000E+00  0.74505805969E-08  0.10566000000E+00  0.10566000000E+00 0.  1.
     999900   -1    0    0    0    0 -0.00000000000E+00 -0.00000000000E+00 -0.74505805969E-08  0.93827000000E+00  0.93827000000E+00 0.  1.
     999902    2    1    2    0    0  0.12364993155E-01  0.19971734039E-01 -0.11210915066E-02  0.10204136214E+01  0.10201426070E+01 0.  0.
     999903    2    3    3    0    0 -0.40400187924E-01 -0.96633499078E-01 -0.70845018659E-01  0.12842574551E+00  0.22448766375E-01 0.  0.
         14    1    1    2    0    0 -0.12364993155E-01 -0.19971734039E-01  0.11210915066E-02  0.23516378599E-01  0.00000000000E+00 0. -1.
     999901    1    3    3    0    0  0.52765181080E-01  0.11660523312E+00  0.69723927152E-01  0.89198787589E+00  0.88000000000E+00 0. -1.
        -11    1    4    4    0    0 -0.29881355547E-01 -0.52001273336E-01 -0.49855080830E-01  0.77992422987E-01  0.51100000000E-03 0.  1.
         11    1    4    4    0    0 -0.10518832377E-01 -0.44632225742E-01 -0.20989937829E-01  0.50433322519E-01  0.51100000000E-03 0. -1.
</event>
<event>
 8    1  0.1131349E+005  0.1043930E+01  0.7957747E-01            NaN
         13   -1    0    0    0    0  0.00000000000E+00  0.00000000000E+00  0.74505805969E-08  0.10566000000E+00  0.10566000000E+00 0.  1.
     999900   -1    0    0    0    0 -0.00000000000E+00 -0.00000000000E+00 -0.74505805969E-08  0.93827000000E+00  0.93827000000E+00 0.  1.
     999902    2    1    2    0    0  0.75892580830E-03 -0.23766982198E-01 -0.34544177096E-02  0.10199013002E+01  0.10196182049E+01 0.  0.
     999903    2    3    3    0    0 -0.23544782170E-01  0.12314888757E+00 -0.63835463947E-02  0.12738602147E+00  0.21597303633E-01 0.  0.
         14    1    1    2    0    0 -0.75892580830E-03  0.23766982198E-01  0.34544177096E-02  0.24028699776E-01  0.00000000000E+00 0.  1.
     999901    1    3    3    0    0  0.24303707978E-01 -0.14691586977E+00  0.29291286851E-02  0.89251527875E+00  0.88000000000E+00 0. -1.
        -11    1    4    4    0    0 -0.88602627827E-02  0.30310886850E-01  0.72607247200E-02  0.32407304156E-01  0.51100000000E-03 0. -1.
         11    1    4    4    0    0 -0.14684519387E-01  0.92838000722E-01 -0.13644271115E-01  0.94978717316E-01  0.51100000000E-03 0.  1.
</event>
<event>
 7    1  0.1131349E+005  0.1043930E+01  0.7957747E-01            NaN
         13   -1    0    0    0    0  0.00000000000E+00  0.00000000000E+00  0.74505805969E-08  0.10566000000E+00  0.10566000000E+00 0. -1.
     999900   -1    0    0    0    0 -0.00000000000E+00 -0.00000000000E+00 -0.74505805969E-08  0.93827000000E+00  0.93827000000E+00 0. -1.
     999903    2    1    2    0    0 -0.69608485045E-01 -0.58585166753E-01  0.18897544079E-01  0.96667945721E-01  0.26646042933E-01 0.  0.
         14    1    1    2    0    0 -0.55390565301E-01  0.52522177299E-02  0.91605658547E-02  0.56388088124E-01  0.00000000000E+00 0.  1.
     999901    1    1    2    0    0  0.12499905035E+00  0.53332949023E-01 -0.28058109934E-01  0.89087396615E+00  0.88000000000E+00 0. -1.
        -11    1    3    3    0    0 -0.87137124483E-02 -0.18361385260E-01  0.11382274623E-01  0.23299925964E-01  0.51100000000E-03 0.  1.
         11    1    3    3    0    0 -0.60894772596E-01 -0.40223781493E-01  0.75152694562E-02  0.73368019758E-01  0.51100000000E-03 0. -1.
</event>
<event>
 8    1  0.1131349E+005  0.1043930E+01  0.7957747E-01            NaN
         13   -1    0    0    0    0  0.00000000000E+00  0.00000000000E+00  0.74505805969E-08  0.10566000000E+00  0.10566000000E+00 0.  1.
     999900   -1    0    0    0    0 -0.00000000000E+00 -0.00000000000E+00 -0.74505805969E-08  0.93827000000E+00  0.93827000000E+00 0.  1.
     999902    2    1    2    0    0  0.10787974801E-01 -0.18722546192E-01  0.10995979866E-01  0.10196848828E+01  0.10193966031E+01 0.  0.
     999903    2    3    3    0    0 -0.12187518062E+00 -0.25302387644E-01 -0.26998252364E-01  0.12890636439E+00  0.19853832851E-01 0.  0.
         14    1    1    2    0    0 -0.10787974801E-01  0.18722546192E-01 -0.10995979866E-01  0.24245117228E-01  0.00000000000E+00 0. -1.
     999901    1    3    3    0    0  0.13266315542E+00  0.65798414529E-02  0.37994232229E-01  0.89077851838E+00  0.88000000000E+00 0.  1.
        -11    1    4    4    0    0 -0.89838040637E-01 -0.15605201558E-01 -0.11136760679E-01  0.91862312297E-01  0.51100000000E-03 0.  1.
         11    1    4    4    0    0 -0.32037139984E-01 -0.96971860869E-02 -0.15861491684E-01  0.37044052097E-01  0.51100000000E-03 0. -1.
</event>
<event>
 8    1  0.1131349E+005  0.1043930E+01  0.7957747E-01            NaN
         13   -1    0    0    0    0  0.00000000000E+00  0.00000000000E+00  0.74505805969E-08  0.10566000000E+00  0.10566000000E+00 0.  1.
     999900   -1    0    0    0    0 -0.00000000000E+00 -0.00000000000E+00 -0.74505805969E-08  0.93827000000E+00  0.93827000000E+00 0.  1.
     999902    2    1    2    0    0  0.17273831483E-01  0.44112118078E-02  0.14994047059E-01  0.10206348183E+01  0.10203689366E+01 0.  0.
     999903    2    3    3    0    0 -0.87532179372E-01  0.57916250965E-01  0.75393727937E-01  0.13074987596E+00  0.19878161413E-01 0.  0.
         14    1    1    2    0    0 -0.17273831483E-01 -0.44112118078E-02 -0.14994047059E-01  0.23295181710E-01  0.00000000000E+00 0. -1.
     999901    1    3    3    0    0  0.10480601085E+00 -0.53505039157E-01 -0.60399680878E-01  0.88988494232E+00  0.88000000000E+00 0.  1.
        -11    1    4    4    0    0 -0.31097917836E-01  0.29296462825E-01  0.22576771974E-01  0.48325303740E-01  0.51100000000E-03 0. -1.
         11    1    4    4    0    0 -0.56434261536E-01  0.28619788140E-01  0.52816955963E-01  0.82424572225E-01  0.51100000000E-03 0.  1.
</event>
<event>
 8    1  0.1131349E+005  0.1043930E+01  0.7957747E-01            NaN
         13   -1    0    0    0    0  0.00000000000E+00  0.00000000000E+00  0.74505805969E-08  0.10566000000E+00  0.10566000000E+00 0.  1.
     999900   -1    0    0    0    0 -0.00000000000E+00 -0.00000000000E+00 -0.74505805969E-08  0.93827000000E+00  0.93827000000E+00 0. -1.
     999902    2    1    2    0    0  0.95409957575E-02 -0.29421679451E-01  0.31740707212E-02  0.10128375484E+01  0.10123601923E+01 0.  0.
     999903    2    3    3    0    0  0.23036513036E-01  0.52270670436E-01  0.10697011023E+00  0.12287721960E+00  0.19831860546E-01 0.  0.
         14    1    1    2    0    0 -0.95409957575E-02  0.29421679451E-01 -0.31740707212E-02  0.31092451603E-01  0.00000000000E+00 0.  1.
     999901    1    3    3    0    0 -0.13495517278E-01 -0.81692349887E-01 -0.10379603951E+00  0.88996032880E+00  0.88000000000E+00 0.  1.
        -11    1    4    4    0    0  0.14982290755E-01  0.33651447930E-01  0.47962729787E-01  0.60477876564E-01  0.51100000000E-03 0. -1.
         11    1    4    4    0    0  0.80542222813E-02  0.18619222506E-01  0.59007380444E-01  0.62399343035E-01  0.51100000000E-03 0.  1.
</event>
<event>
 8    1  0.1131349E+005  0.1043930E+01  0.7957747E-01            NaN
         13   -1    0    0    0    0  0.00000000000E+00  0.00000000000E+00  0.74505805969E-08  0.10566000000E+00  0.10566000000E+00 0.  1.
     999900   -1    0    0    0    0 -0.00000000000E+00 -0.00000000000E+00 -0.74505805969E-08  0.93827000000E+00  0.93827000000E+00 0.  1.
     999902    2    1    2    0    0 -0.15687819621E-01 -0.85488371919E-02 -0.16259682835E-01  0.10197728564E+01  0.10194866900E+01 0.  0.
     999903    2    3    3    0    0 -0.58574422309E-01  0.10883493230E+00 -0.37552836429E-01  0.13068815377E+00  0.19828579765E-01 0.  0.
         14    1    1    2    0    0  0.15687819621E-01  0.85488371919E-02  0.16259682835E-01  0.24157143616E-01  0.00000000000E+00 0.  1.
     999901    1    3    3    0    0  0.42886602688E-01 -0.11738376949E+00  0.21293153594E-01  0.88908470261E+00  0.88000000000E+00 0.  1.
        -11    1    4    4    0    0 -0.19497517831E-01  0.57076921778E-01 -0.18636374367E-01  0.63130846436E-01  0.51100000000E-03 0. -1.
         11    1    4    4    0    0 -0.39076904478E-01  0.51758010519E-01 -0.18916462061E-01  0.67557307335E-01  0.51100000000E-03 0.  1.
</event>
<event>
 8    1  0.1131349E+005  0.1043930E+01  0.7957747E-01            NaN
         13   -1    0    0    0    0  0.00000000000E+00  0.00000000000E+00  0.74505805969E-08  0.10566000000E+00  0.10566000000E+00 0. -1.
     999900   -1    0    0    0    0 -0.00000000000E+00 -0.00000000000E+00 -0.74505805969E-08  0.93827000000E+00  0.93827000000E+00 0. -1.
     999902    2    1    2    0    0  0.66483440991E-02 -0.28112641332E-02  0.22518635229E-01  0.10202827461E+01  0.10200086712E+01 0.  0.
     999903    2    3    3    0    0 -0.30525166872E-01  0.11452228340E+00  0.52392935238E-01  0.13121497302E+00  0.20620627410E-01 0.  0.
         14    1    1    2    0    0 -0.66483440991E-02  0.28112641332E-02 -0.22518635229E-01  0.23647253918E-01  0.00000000000E+00 0.  1.
     999901    1    3    3    0    0  0.37173510971E-01 -0.11733354753E+00 -0.29874300009E-01  0.88906777306E+00  0.88000000000E+00 0. -1.
        -11    1    4    4    0    0 -0.44749496338E-02  0.20513830994E-01  0.11770237227E-02  0.21035421130E-01  0.51100000000E-03 0.  1.
         11    1    4    4    0    0 -0.26050217238E-01  0.94008452405E-01  0.51215911515E-01  0.11017955189E+00  0.51100000000E-03 0. -1.
</event>
<event>
 8    1  0.1131349E+005  0.1043930E+01  0.7957747E-01            NaN
         13   -1    0    0    0    0  0.00000000000E+00  0.00000000000E+00  0.74505805969E-08  0.10566000000E+00  0.10566000000E+00 0.  1.
     999900   -1    0    0    0    0 -0.00000000000E+00 -0.00000000000E+00 -0.74505805969E-08  0.93827000000E+00  0.93827000000E+00 0.  1.
     999902    2    1    2    0    0 -0.21004718185E-01  0.54115355749E-02  0.23881952918E-02  0.10221083048E+01  0.10218753351E+01 0.  0.
     999903    2    3    3    0    0 -0.10715973498E+00 -0.21016988585E-01 -0.75137612305E-01  0.13411539683E+00  0.20404810065E-01 0.  0.
         14    1    1    2    0    0  0.21004718185E-01 -0.54115355749E-02 -0.23881952918E-02  0.21821695169E-01  0.00000000000E+00 0. -1.
     999901    1    3    3    0    0  0.86155016800E-01  0.26428524160E-01  0.77525807597E-01  0.88799290800E+00  0.88000000000E+00 0. -1.
        -11    1    4    4    0    0 -0.64387844882E-01 -0.22708122293E-01 -0.46870798540E-01  0.82816582056E-01  0.51100000000E-03 0.  1.
         11    1    4    4    0    0 -0.42771890103E-01  0.16911337085E-02 -0.28266813766E-01  0.51298814778E-01  0.51100000000E-03 0. -1.
</event>
<event>
 8    1  0.1131349E+005  0.1043930E+01  0.7957747E-01            NaN
         13   -1    0    0    0    0  0.00000000000E+00  0.00000000000E+00  0.74505805969E-08  0.10566000000E+00  0.10566000000E+00 0.  1.
     999900   -1    0    0    0    0 -0.00000000000E+00 -0.00000000000E+00 -0.74505805969E-08  0.93827000000E+00  0.93827000000E+00 0.  1.
     999902    2    1    2    0    0 -0.11432029183E-01 -0.19710294116E-01  0.65706365691E-02  0.10202158639E+01  0.10199402182E+01 0.  0.
     999903    2    3    3    0    0 -0.57404287903E-01  0.10187632413E+00  0.51977532743E-01  0.12950909930E+00  0.19922479869E-01 0.  0.
         14    1    1    2    0    0  0.11432029183E-01  0.19710294116E-01 -0.65706365691E-02  0.23714136086E-01  0.00000000000E+00 0. -1.
     999901    1    3    3    0    0  0.45972258720E-01 -0.12158661824E+00 -0.45406896174E-01  0.89070676461E+00  0.88000000000E+00 0. -1.
        -11    1    4    4    0    0 -0.17476601325E-01  0.31484180718E-01  0.26334404731E-01  0.44614428416E-01  0.51100000000E-03 0.  1.
         11    1    4    4    0    0 -0.39927686578E-01  0.70392143411E-01  0.25643128011E-01  0.84894670885E-01  0.51100000000E-03 0. -1.
</event>
<event>
 8    1  0.1131349E+005  0.1043930E+01  0.7957747E-01            NaN
         13   -1    0    0    0    0  0.00000000000E+00  0.00000000000E+00  0.74505805969E-08  0.10566000000E+00  0.10566000000E+00 0. -1.
     999900   -1    0    0    0    0 -0.00000000000E+00 -0.00000000000E+00 -0.74505805969E-08  0.93827000000E+00  0.93827000000E+00 0.  1.
     999902    2    1    2    0    0  0.70264592644E-02  0.10250642087E-01  0.11140498836E-01  0.10272399578E+01  0.10271043635E+01 0.  0.
     999903    2    3    3    0    0  0.61149584879E-02  0.13591691382E+00 -0.11591279732E-01  0.13802143777E+00  0.20118631640E-01 0.  0.
         14    1    1    2    0    0 -0.70264592644E-02 -0.10250642087E-01 -0.11140498836E-01  0.16690042160E-01  0.00000000000E+00 0.  1.
     999901    1    3    3    0    0  0.91150077648E-03 -0.12566627173E+00  0.22731778569E-01  0.88921852007E+00  0.88000000000E+00 0.  1.
        -11    1    4    4    0    0 -0.62405757130E-02  0.80961795464E-01 -0.65812118637E-02  0.81469813922E-01  0.51100000000E-03 0.  1.
         11    1    4    4    0    0  0.12355534201E-01  0.54955118351E-01 -0.50100678688E-02  0.56551623845E-01  0.51100000000E-03 0. -1.
</event>
<event>
 8    1  0.1131349E+005  0.1043930E+01  0.7957747E-01            NaN
         13   -1    0    0    0    0  0.00000000000E+00  0.00000000000E+00  0.74505805969E-08  0.10566000000E+00  0.10566000000E+00 0.  1.
     999900   -1    0    0    0    0 -0.00000000000E+00 -0.00000000000E+00 -0.74505805969E-08  0.93827000000E+00  0.93827000000E+00 0. -1.
     999902    2    1    2    0    0  0.15746938584E-01  0.17638954782E-01  0.65144034744E-03  0.10202757578E+01  0.10200015190E+01 0.  0.
     999903    2    3    3    0    0 -0.13925742145E-01  0.69936570189E-01  0.10872998359E+00  0.13162707575E+00  0.20455502837E-01 0.  0.
         14    1    1    2    0    0 -0.15746938584E-01 -0.17638954782E-01 -0.65144034744E-03  0.23654242222E-01  0.00000000000E+00 0.  1.
     999901    1    3    3    0    0  0.29672680729E-01 -0.52297615407E-01 -0.10807854324E+00  0.88864868203E+00  0.88000000000E+00 0. -1.
        -11    1    4    4    0    0 -0.12672405052E-01  0.19826410936E-01  0.42283744368E-01  0.48392691382E-01  0.51100000000E-03 0. -1.
         11    1    4    4    0    0 -0.12533370927E-02  0.50110159253E-01  0.66446239217E-01  0.83234384369E-01  0.51100000000E-03 0.  1.
</event>
<event>
 8    1  0.1131349E+005  0.1043930E+01  0.7957747E-01            NaN
         13   -1    0    0    0    0  0.00000000000E+00  0.00000000000E+00  0.74505805969E-08  0.10566000000E+00  0.10566000000E+00 0.  1.
     999900   -1    0    0    0    0 -0.00000000000E+00 -0.00000000000E+00 -0.74505805969E-08  0.93827000000E+00  0.93827000000E+00 0. -1.
     999902    2    1    2    0    0 -0.14486373119E-01  0.12724478207E-01  0.13234063153E-01  0.10205439405E+01  0.10202759561E+01 0.  0.
     999903    2    3    3    0    0  0.62183808893E-01 -0.91181829389E-01  0.65002940823E-01  0.12961473216E+00  0.19840473216E-01 0.  0.
         14    1    1    2    0    0  0.14486373119E-01 -0.12724478207E-01 -0.13234063153E-01  0.23386059508E-01  0.00000000000E+00 0. -1.
     999901    1    3    3    0    0 -0.76670182013E-01  0.10390630760E+00 -0.51768877670E-01  0.89092920833E+00  0.88000000000E+00 0. -1.
        -11    1    4    4    0    0  0.12681622309E-01 -0.35051357197E-01  0.20589008501E-01  0.42586260435E-01  0.51100000000E-03 0. -1.
         11    1    4    4    0    0  0.49502186584E-01 -0.56130472191E-01  0.44413932322E-01  0.87028471723E-01  0.51100000000E-03 0.  1.
</event>
<event>
 8    1  0.1131349E+005  0.1043930E+01  0.7957747E-01            NaN
         13   -1    0    0    0    0  0.00000000000E+00  0.00000000000E+00  0.74505805969E-08  0.10566000000E+00  0.10566000000E+00 0.  1.
     999900   -1    0    0    0    0 -0.00000000000E+00 -0.00000000000E+00 -0.74505805969E-08  0.93827000000E+00  0.93827000000E+00 0. -1.
     999902    2    1    2    0    0 -0.18824776811E-01 -0.91154096425E-02  0.26035299073E-02  0.10228529679E+01  0.10226357869E+01 0.  0.
     999903    2    3    3    0    0 -0.77534755695E-01 -0.90641304087E-01 -0.59816048804E-01  0.13493994461E+00  0.20083441188E-01 0.  0.
         14    1    1    2    0    0  0.18824776811E-01  0.91154096425E-02 -0.26035299073E-02  0.21077032118E-01  0.00000000000E+00 0. -1.
     999901    1    3    3    0    0  0.58709978884E-01  0.81525894445E-01  0.62419578712E-01  0.88791302327E+00  0.88000000000E+00 0. -1.
        -11    1    4    4    0    0 -0.18905516540E-01 -0.27479406646E-01 -0.26270014311E-01  0.42460700867E-01  0.51100000000E-03 0.  1.
         11    1    4    4    0    0 -0.58629239155E-01 -0.63161897441E-01 -0.33546034493E-01  0.92479243744E-01  0.51100000000E-03 0. -1.
</event>
<event>
 8    1  0.1131349E+005  0.1043930E+01  0.7957747E-01            NaN
         13   -1    0    0    0    0  0.00000000000E+00  0.00000000000E+00  0.74505805969E-08  0.10566000000E+00  0.10566000000E+00 0.  1.
     999900   -1    0    0    0    0 -0.00000000000E+00 -0.00000000000E+00 -0.74505805969E-08  0.93827000000E+00  0.93827000000E+00 0.  1.
     999902    2    1    2    0    0 -0.16015068317E-01 -0.98130960944E-02 -0.10210880864E-01  0.10225514744E+01  0.10223279691E+01 0.  0.
     999903    2    3    3    0    0 -0.76484454233E-01  0.99700475895E-01  0.37178744007E-01  0.13244162410E+00  0.19195524355E-01 0.  0.
         14    1    1    2    0    0  0.16015068317E-01  0.98130960944E-02  0.10210880864E-01  0.21378525584E-01  0.00000000000E+00 0.  1.
     999901    1    3    3    0    0  0.60469385916E-01 -0.10951357199E+00 -0.47389624870E-01  0.89010985032E+00  0.88000000000E+00 0.  1.
        -11    1    4    4    0    0 -0.63143785386E-01  0.91484336274E-01  0.29627532629E-01  0.11504161520E+00  0.51100000000E-03 0.  1.
         11    1    4    4    0    0 -0.13340668848E-01  0.82161396212E-02  0.75512113775E-02  0.17400008904E-01  0.51100000000E-03 0. -1.
</event>
<event>
 8    1  0.1382412E+005  0.1043930E+01  0.7957747E-01            NaN
         13   -1    0    0    0    0  0.00000000000E+00  0.00000000000E+00  0.74505805969E-08  0.10566000000E+00  0.10566000000E+00 0. -1.
     999900   -1    0    0    0    0 -0.00000000000E+00 -0.00000000000E+00 -0.74505805969E-08  0.93827000000E+00  0.93827000000E+00 0.  1.
     999902    2    1    2    0    0 -0.26302475109E-02  0.22752352552E-01 -0.30566660717E-01  0.10057343393E+01  0.10050087824E+01 0.  0.
     999903    2    3    3    0    0  0.63732699879E-01  0.38828567546E-01 -0.92540022937E-01  0.12091617544E+00  0.22080555856E-01 0.  0.
         14    1    1    2    0    0  0.26302475109E-02 -0.22752352552E-01  0.30566660717E-01  0.38195660696E-01  0.00000000000E+00 0. -1.
     999901    1    3    3    0    0 -0.66362947390E-01 -0.16076214994E-01  0.61973362220E-01  0.88481816386E+00  0.88000000000E+00 0.  1.
        -11    1    4    4    0    0  0.17884622192E-01  0.62637774685E-02 -0.38539268655E-01  0.42949167263E-01  0.51100000000E-03 0. -1.
         11    1    4    4    0    0  0.45848077688E-01  0.32564790077E-01 -0.54000754281E-01  0.77967008179E-01  0.51100000000E-03 0.  1.
</event>
<event>
 8    1  0.1131349E+005  0.1043930E+01  0.7957747E-01            NaN
         13   -1    0    0    0    0  0.00000000000E+00  0.00000000000E+00  0.74505805969E-08  0.10566000000E+00  0.10566000000E+00 0. -1.
     999900   -1    0    0    0    0 -0.00000000000E+00 -0.00000000000E+00 -0.74505805969E-08  0.93827000000E+00  0.93827000000E+00 0. -1.
     999902    2    1    2    0    0 -0.20577898351E-01  0.10686171408E-01  0.29352383186E-02  0.10205577989E+01  0.10202901358E+01 0.  0.
     999903    2    3    3    0    0 -0.13062777911E+00 -0.43698864977E-03 -0.14821047151E-01  0.13345578301E+00  0.22955934824E-01 0.  0.
         14    1    1    2    0    0  0.20577898351E-01 -0.10686171408E-01 -0.29352383186E-02  0.23372201092E-01  0.00000000000E+00 0. -1.
     999901    1    3    3    0    0  0.11004988076E+00  0.11123160058E-01  0.17756285470E-01  0.88710201590E+00  0.88000000000E+00 0. -1.
        -11    1    4    4    0    0 -0.18195286679E-01  0.78794352251E-02 -0.35898154503E-02  0.20156930639E-01  0.51100000000E-03 0.  1.
         11    1    4    4    0    0 -0.11243249243E+00 -0.83164238749E-02 -0.11231231701E-01  0.11329885237E+00  0.51100000000E-03 0. -1.
</event>
<event>
 8    1  0.1131349E+005  0.1043930E+01  0.7957747E-01            NaN
         13   -1    0    0    0    0  0.00000000000E+00  0.00000000000E+00  0.74505805969E-08  0.10566000000E+00  0.10566000000E+00 0.  1.
     999900   -1    0    0    0    0 -0.00000000000E+00 -0.00000000000E+00 -0.74505805969E-08  0.93827000000E+00  0.93827000000E+00 0. -1.
     999902    2    1    2    0    0  0.12426893497E-01  0.98120736575E-02  0.19188018294E-01  0.10190526103E+01  0.10187489083E+01 0.  0.
     999903    2    3    3    0    0  0.27256709599E-01  0.11188628234E+00 -0.55596139140E-01  0.12987785937E+00  0.22712535585E-01 0.  0.
         14    1    1    2    0    0 -0.12426893497E-01 -0.98120736575E-02 -0.19188018294E-01  0.24877389684E-01  0.00000000000E+00 0. -1.
     999901    1    3    3    0    0 -0.14829816103E-01 -0.10207420868E+00  0.74784157434E-01  0.88917475095E+00  0.88000000000E+00 0. -1.
        -11    1    4    4    0    0  0.11936776939E-01  0.66904243823E-01 -0.43996569215E-01  0.80960630611E-01  0.51100000000E-03 0. -1.
         11    1    4    4    0    0  0.15319932660E-01  0.44982038515E-01 -0.11599569925E-01  0.48917228755E-01  0.51100000000E-03 0.  1.
</event>
<event>
 8    1  0.1131349E+005  0.1043930E+01  0.7957747E-01            NaN
         13   -1    0    0    0    0  0.00000000000E+00  0.00000000000E+00  0.74505805969E-08  0.10566000000E+00  0.10566000000E+00 0. -1.
     999900   -1    0    0    0    0 -0.00000000000E+00 -0.00000000000E+00 -0.74505805969E-08  0.93827000000E+00  0.93827000000E+00 0.  1.
     999902    2    1    2    0    0 -0.41432061337E-02 -0.12323137654E-01 -0.19987808507E-01  0.10200859574E+01  0.10198072475E+01 0.  0.
     999903    2    3    3    0    0 -0.20813944805E-01  0.82274944527E-01  0.93615743081E-01  0.12759927536E+00  0.17756151743E-01 0.  0.
         14    1    1    2    0    0  0.41432061337E-02  0.12323137654E-01  0.19987808507E-01  0.23844042602E-01  0.00000000000E+00 0. -1.
     999901    1    3    3    0    0  0.16670738671E-01 -0.94598082181E-01 -0.11360355159E+00  0.89248668204E+00  0.88000000000E+00 0.  1.
        -11    1    4    4    0    0 -0.19334814824E-01  0.40551210662E-01  0.50012773592E-01  0.67229267390E-01  0.51100000000E-03 0. -1.
         11    1    4    4    0    0 -0.14791299808E-02  0.41723733864E-01  0.43602969489E-01  0.60370007970E-01  0.51100000000E-03 0.  1.
</event>
<event>
 8    1  0.1131349E+005  0.1043930E+01  0.7957747E-01            NaN
         13   -1    0    0    0    0  0.00000000000E+00  0.00000000000E+00  0.74505805969E-08  0.10566000000E+00  0.10566000000E+00 0.  1.
     999900   -1    0    0    0    0 -0.00000000000E+00 -0.00000000000E+00 -0.74505805969E-08  0.93827000000E+00  0.93827000000E+00 0. -1.
     999902    2    1    2    0    0  0.10193688792E-01  0.19420726200E-01  0.82209719088E-02  0.10205065016E+01  0.10202376486E+01 0.  0.
     999903    2    3    3    0    0 -0.59360059366E-01  0.11593039530E+00  0.11060822997E-01  0.13249754622E+00  0.21674518360E-01 0.  0.
         14    1    1    2    0    0 -0.10193688792E-01 -0.19420726200E-01 -0.82209719088E-02  0.23423498382E-01  0.00000000000E+00 0.  1.
     999901    1    3    3    0    0  0.69553748158E-01 -0.96509669102E-01 -0.28398510886E-02  0.88800895540E+00  0.88000000000E+00 0.  1.
        -11    1    4    4    0    0 -0.98574585413E-02  0.15502506307E-01 -0.57928905438E-02  0.19269558701E-01  0.51100000000E-03 0. -1.
         11    1    4    4    0    0 -0.49502600825E-01  0.10042788899E+00  0.16853713541E-01  0.11322798752E+00  0.51100000000E-03 0.  1.
</event>
<event>
 8    1  0.1131349E+005  0.1043930E+01  0.7957747E-01            NaN
         13   -1    0    0    0    0  0.00000000000E+00  0.00000000000E+00  0.74505805969E-08  0.10566000000E+00  0.10566000000E+00 0. -1.
     999900   -1    0    0    0    0 -0.00000000000E+00 -0.00000000000E+00 -0.74505805969E-08  0.93827000000E+00  0.93827000000E+00 0.  1.
     999902    2    1    2    0    0  0.24404037855E-02 -0.22301911853E-01 -0.82063872625E-02  0.10200411818E+01  0.10197614118E+01 0.  0.
     999903    2    3    3    0    0  0.67184920368E-01  0.78968203545E-01  0.72527592771E-01  0.12820853818E+00  0.20673336764E-01 0.  0.
         14    1    1    2    0    0 -0.24404037855E-02  0.22301911853E-01  0.82063872625E-02  0.23888818197E-01  0.00000000000E+00 0. -1.
     999901    1    3    3    0    0 -0.64744516582E-01 -0.10127011540E+00 -0.80733980034E-01  0.89183264362E+00  0.88000000000E+00 0.  1.
        -11    1    4    4    0    0  0.30874525354E-01  0.51510333394E-01  0.37984408345E-01  0.71060728680E-01  0.51100000000E-03 0. -1.
         11    1    4    4    0    0  0.36310395014E-01  0.27457870151E-01  0.34543184426E-01  0.57147809500E-01  0.51100000000E-03 0.  1.
</event>
<event>
 8    1  0.1131349E+005  0.1043930E+01  0.7957747E-01            NaN
         13   -1    0    0    0    0  0.00000000000E+00  0.00000000000E+00  0.74505805969E-08  0.10566000000E+00  0.10566000000E+00 0.  1.
     999900   -1    0    0    0    0 -0.00000000000E+00 -0.00000000000E+00 -0.74505805969E-08  0.93827000000E+00  0.93827000000E+00 0.  1.
     999902    2    1    2    0    0 -0.15325344602E-01  0.43714786464E-03  0.17931123076E-01  0.10203380001E+01  0.10200652195E+01 0.  0.
     999903    2    3    3    0    0 -0.11831725912E+00  0.28698321325E-01  0.50407017401E-01  0.13328630368E+00  0.20045046555E-01 0.  0.
         14    1    1    2    0    0  0.15325344602E-01 -0.43714786464E-03 -0.17931123076E-01  0.23591999919E-01  0.00000000000E+00 0. -1.
     999901    1    3    3    0    0  0.10299191452E+00 -0.28261173460E-01 -0.32475894325E-01  0.88705169640E+00  0.88000000000E+00 0.  1.
        -11    1    4    4    0    0 -0.23938131041E-01  0.19558986773E-02  0.17848982655E-01  0.29928363808E-01  0.51100000000E-03 0. -1.
         11    1    4    4    0    0 -0.94379128081E-01  0.26742422647E-01  0.32558034746E-01  0.10335793987E+00  0.51100000000E-03 0.  1.
</event>
<event>
 8    1  0.1131349E+005  0.1043930E+01  0.7957747E-01            NaN
         13   -1    0    0    0    0  0.00000000000E+00  0.00000000000E+00  0.74505805969E-08  0.10566000000E+00  0.10566000000E+00 0.  1.
     999900   -1    0    0    0    0 -0.00000000000E+00 -0.00000000000E+00 -0.74505805969E-08  0.93827000000E+00  0.93827000000E+00 0. -1.
     999902    2    1    2    0    0 -0.16983892800E-01 -0.15741400669E-01 -0.23615207049E-02  0.10206529493E+01  0.10203874861E+01 0.  0.
     999903    2    3    3    0    0  0.98021543765E-01 -0.95739862692E-02 -0.81939158146E-01  0.12958791922E+00  0.19470976200E-01 0.  0.
         14    1    1    2    0    0  0.16983892800E-01  0.15741400669E-01  0.23615207049E-02  0.23277050709E-01  0.00000000000E+00 0. -1.
     999901    1    3    3    0    0 -0.11500543657E+00 -0.61674144003E-02  0.79577637441E-01  0.89106503007E+00  0.88000000000E+00 0.  1.
        -11    1    4    4    0    0  0.53539604262E-01  0.55299123460E-03 -0.54227840137E-01  0.76208364310E-01  0.51100000000E-03 0.  1.
         11    1    4    4    0    0  0.44481939503E-01 -0.10126977504E-01 -0.27711318008E-01  0.53379554907E-01  0.51100000000E-03 0. -1.
</event>
<event>
 8    1  0.1131349E+005  0.1043930E+01  0.7957747E-01            NaN
         13   -1    0    0    0    0  0.00000000000E+00  0.00000000000E+00  0.74505805969E-08  0.10566000000E+00  0.10566000000E+00 0.  1.
     999900   -1    0    0    0    0 -0.00000000000E+00 -0.00000000000E+00 -0.74505805969E-08  0.93827000000E+00  0.93827000000E+00 0.  1.
     999902    2    1    2    0    0 -0.11343130808E-01 -0.19618119194E-01 -0.90288227982E-02  0.10195362127E+01  0.10192443437E+01 0.  0.
     999903    2    3    3    0    0  0.34759836931E-01 -0.10646699337E+00  0.67150134760E-01  0.13078909223E+00  0.72924007486E-02 0.  0.
         14    1    1    2    0    0  0.11343130808E-01  0.19618119194E-01  0.90288227982E-02  0.24393787290E-01  0.00000000000E+00 0.  1.
     999901    1    3    3    0    0 -0.46102967740E-01  0.86848874174E-01 -0.76178957558E-01  0.88874712048E+00  0.88000000000E+00 0.  1.
        -11    1    4    4    0    0  0.13187987810E-01 -0.46235146632E-01  0.32414332402E-01  0.57987601025E-01  0.51100000000E-03 0. -1.
         11    1    4    4    0    0  0.21571849122E-01 -0.60231846736E-01  0.34735802358E-01  0.72801491209E-01  0.51100000000E-03 0.  1.
</event>
<event>
 8    1  0.1131349E+005  0.1043930E+01  0.7957747E-01            NaN
         13   -1    0    0    0    0  0.00000000000E+00  0.00000000000E+00  0.74505805969E-08  0.10566000000E+00  0.10566000000E+00 0. -1.
     999900   -1    0    0    0    0 -0.00000000000E+00 -0.00000000000E+00 -0.74505805969E-08  0.93827000000E+00  0.93827000000E+00 0.  1.
     999902    2    1    2    0    0 -0.76666604158E-02 -0.12048640940E-01 -0.20198629883E-01  0.10191927390E+01  0.10188924905E+01 0.  0.
     999903    2    3    3    0    0 -0.79536215698E-02  0.10421437859E+00 -0.74481437938E-01  0.12988750724E+00  0.19984572565E-01 0.  0.
         14    1    1    2    0    0  0.76666604158E-02  0.12048640940E-01  0.20198629883E-01  0.24737260955E-01  0.00000000000E+00 0. -1.
     999901    1    3    3    0    0  0.28696115407E-03 -0.11626301953E+00  0.54282808055E-01  0.88930523180E+00  0.88000000000E+00 0.  1.
        -11    1    4    4    0    0 -0.27717606106E-02  0.77565658999E-01 -0.64633029859E-01  0.10100397904E+00  0.51100000000E-03 0. -1.
         11    1    4    4    0    0 -0.51818609592E-02  0.26648719588E-01 -0.98484080794E-02  0.28883528202E-01  0.51100000000E-03 0.  1.
</event>
<event>
 8    1  0.1131349E+005  0.1043930E+01  0.7957747E-01            NaN
         13   -1    0    0    0    0  0.00000000000E+00  0.00000000000E+00  0.74505805969E-08  0.10566000000E+00  0.10566000000E+00 0.  1.
     999900   -1    0    0    0    0 -0.00000000000E+00 -0.00000000000E+00 -0.74505805969E-08  0.93827000000E+00  0.93827000000E+00 0.  1.
     999902    2    1    2    0    0 -0.19856887511E-01  0.48531545656E-03 -0.12647567568E-01  0.10203823360E+01  0.10201105917E+01 0.  0.
     999903    2    3    3    0    0  0.86303435402E-01 -0.16465424703E-01 -0.93851113041E-01  0.13012880049E+00  0.20151429864E-01 0.  0.
         14    1    1    2    0    0  0.19856887511E-01 -0.48531545656E-03  0.12647567568E-01  0.23547663963E-01  0.00000000000E+00 0.  1.
     999901    1    3    3    0    0 -0.10616032291E+00  0.16950740160E-01  0.81203545473E-01  0.89025353555E+00  0.88000000000E+00 0. -1.
        -11    1    4    4    0    0  0.61027155259E-01 -0.11990328300E-01 -0.52190717536E-01  0.81192448970E-01  0.51100000000E-03 0. -1.
         11    1    4    4    0    0  0.25276280143E-01 -0.44750964031E-02 -0.41660395505E-01  0.48936351522E-01  0.51100000000E-03 0.  1.
</event>
<event>
 8    1  0.1131349E+005  0.1043930E+01  0.7957747E-01            NaN
         13   -1    0    0    0    0  0.00000000000E+00  0.00000000000E+00  0.74505805969E-08  0.10566000000E+00  0.10566000000E+00 0.  1.
     999900   -1    0    0    0    0 -0.00000000000E+00 -0.00000000000E+00 -0.74505805969E-08  0.93827000000E+00  0.93827000000E+00 0. -1.
     999902    2    1    2    0    0 -0.54623981622E-02  0.22095140495E-01  0.63199695517E-02  0.10203085047E+01  0.10200350335E+01 0.  0.
     999903    2    3    3    0    0 -0.12093947019E+00  0.48696598540E-01  0.83176300459E-02  0.13236335861E+00  0.21287592000E-01 0.  0.
         14    1    1    2    0    0  0.54623981622E-02 -0.22095140495E-01 -0.63199695517E-02  0.23621495345E-01  0.00000000000E+00 0. -1.
     999901    1    3    3    0    0  0.11547707203E+00 -0.26601458044E-01 -0.19976604943E-02  0.88794514604E+00  0.88000000000E+00 0. -1.
        -11    1    4    4    0    0 -0.70108181807E-01  0.38888919310E-01  0.82028499451E-02  0.80591892084E-01  0.51100000000E-03 0.  1.
         11    1    4    4    0    0 -0.50831288387E-01  0.98076792294E-02  0.11478010085E-03  0.51771466528E-01  0.51100000000E-03 0. -1.
</event>
<event>
 8    1  0.1131349E+005  0.1043930E+01  0.7957747E-01            NaN
         13   -1    0    0    0    0  0.00000000000E+00  0.00000000000E+00  0.74505805969E-08  0.10566000000E+00  0.10566000000E+00 0.  1.
     999900   -1    0    0    0    0 -0.00000000000E+00 -0.00000000000E+00 -0.74505805969E-08  0.93827000000E+00  0.93827000000E+00 0.  1.
     999902    2    1    2    0    0 -0.20293222963E-01  0.13622826576E-01 -0.23466314041E-02  0.10193759172E+01  0.10190801527E+01 0.  0.
     999903    2    3    3    0    0  0.17502886224E-01 -0.12059072917E+00 -0.32538597733E-01  0.12788650099E+00  0.21159437736E-01 0.  0.
         14    1    1    2    0    0  0.20293222963E-01 -0.13622826576E-01  0.23466314041E-02  0.24554082778E-01  0.00000000000E+00 0.  1.
     999901    1    3    3    0    0 -0.37796109187E-01  0.13421355575E+00  0.30191966329E-01  0.89148941623E+00  0.88000000000E+00 0.  1.
        -11    1    4    4    0    0  0.12381736030E-01 -0.27308782669E-01 -0.11534114690E-01  0.32130576102E-01  0.51100000000E-03 0.  1.
         11    1    4    4    0    0  0.51211501933E-02 -0.93281946504E-01 -0.21004483043E-01  0.95755924891E-01  0.51100000000E-03 0. -1.
</event>
<event>
 8    1  0.1154666E+005  0.1043930E+01  0.7957747E-01            NaN
         13   -1    0    0    0    0  0.00000000000E+00  0.00000000000E+00  0.74505805969E-08  0.10566000000E+00  0.10566000000E+00 0. -1.
     999900   -1    0    0    0    0 -0.00000000000E+00 -0.00000000000E+00 -0.74505805969E-08  0.93827000000E+00  0.93827000000E+00 0. -1.
     999902    2    1    2    0    0 -0.24594221813E-01 -0.36733100948E-02  0.62758716105E-02  0.10182832552E+01  0.10179602312E+01 0.  0.
     999903    2    3    3    0    0 -0.12690014298E-02 -0.17778956415E-01 -0.12524171309E+00  0.12809231488E+00  0.20111011397E-01 0.  0.
         14    1    1    2    0    0  0.24594221813E-01  0.36733100948E-02 -0.62758716105E-02  0.25646744786E-01  0.00000000000E+00 0.  1.
     999901    1    3    3    0    0 -0.23325220383E-01  0.14105646320E-01  0.13151758470E+00  0.89019094033E+00  0.88000000000E+00 0.  1.
        -11    1    4    4    0    0  0.32232513209E-02 -0.59249858307E-03 -0.69655553853E-01  0.69734480045E-01  0.51100000000E-03 0.  1.
         11    1    4    4    0    0 -0.44922527508E-02 -0.17186457832E-01 -0.55586159233E-01  0.58357834837E-01  0.51100000000E-03 0. -1.
</event>
<event>
 8    1  0.1131349E+005  0.1043930E+01  0.7957747E-01            NaN
         13   -1    0    0    0    0  0.00000000000E+00  0.00000000000E+00  0.74505805969E-08  0.10566000000E+00  0.10566000000E+00 0.  1.
     999900   -1    0    0    0    0 -0.00000000000E+00 -0.00000000000E+00 -0.74505805969E-08  0.93827000000E+00  0.93827000000E+00 0. -1.
     999902    2    1    2    0    0  0.13554687040E-01 -0.89454624731E-02 -0.17833307869E-01  0.10198099314E+01  0.10195246532E+01 0.  0.
     999903    2    3    3    0    0  0.78018392555E-01  0.96525643538E-01  0.31424587384E-01  0.12980652479E+00  0.21404666526E-01 0.  0.
         14    1    1    2    0    0 -0.13554687040E-01  0.89454624731E-02  0.17833307869E-01  0.24120068598E-01  0.00000000000E+00 0. -1.
     999901    1    3    3    0    0 -0.64463705514E-01 -0.10547110601E+00 -0.49257895253E-01  0.89000340661E+00  0.88000000000E+00 0. -1.
        -11    1    4    4    0    0  0.34866728745E-01  0.37316092979E-01  0.23146089166E-01  0.56073007171E-01  0.51100000000E-03 0.  1.
         11    1    4    4    0    0  0.43151663810E-01  0.59209550560E-01  0.82784982187E-02  0.73733517621E-01  0.51100000000E-03 0. -1.
</event>
<event>
 8    1  0.1131349E+005  0.1043930E+01  0.7957747E-01            NaN
         13   -1    0    0    0    0  0.00000000000E+00  0.00000000000E+00  0.74505805969E-08  0.10566000000E+00  0.10566000000E+00 0.  1.
     999900   -1    0    0    0    0 -0.00000000000E+00 -0.00000000000E+00 -0.74505805969E-08  0.93827000000E+00  0.93827000000E+00 0.  1.
     999902    2    1    2    0    0  0.45454277603E-02 -0.18788156352E-01 -0.14621384983E-01  0.10196928254E+01  0.10194047369E+01 0.  0.
     999903    2    3    3    0    0 -0.92367962056E-01  0.80405583336E-01  0.29551991219E-01  0.12773829167E+00  0.21138891355E-01 0.  0.
         14    1    1    2    0    0 -0.45454277603E-02  0.18788156352E-01  0.14621384983E-01  0.24237174576E-01  0.00000000000E+00 0.  1.
     999901    1    3    3    0    0  0.96913389816E-01 -0.99193739689E-01 -0.44173376202E-01  0.89195453375E+00  0.88000000000E+00 0.  1.
        -11    1    4    4    0    0 -0.18888246459E-01  0.13149165605E-01  0.13930008178E-01  0.26906740034E-01  0.51100000000E-03 0.  1.
         11    1    4    4    0    0 -0.73479715596E-01  0.67256417731E-01  0.15621983041E-01  0.10083155164E+00  0.51100000000E-03 0. -1.
</event>
<event>
 8    1  0.1131349E+005  0.1043930E+01  0.7957747E-01            NaN
         13   -1    0    0    0    0  0.00000000000E+00  0.00000000000E+00  0.74505805969E-08  0.10566000000E+00  0.10566000000E+00 0. -1.
     999900   -1    0    0    0    0 -0.00000000000E+00 -0.00000000000E+00 -0.74505805969E-08  0.93827000000E+00  0.93827000000E+00 0.  1.
     999902    2    1    2    0    0  0.13337309506E-01  0.18552579176E-01 -0.47445872593E-02  0.10205934808E+01  0.10203266438E+01 0.  0.
     999903    2    3    3    0    0  0.60892686186E-01 -0.54939337369E-01  0.99103465380E-01  0.13017392035E+00  0.19937468904E-01 0.  0.
         14    1    1    2    0    0 -0.13337309506E-01 -0.18552579176E-01  0.47445872593E-02  0.23336519175E-01  0.00000000000E+00 0. -1.
     999901    1    3    3    0    0 -0.47555376680E-01  0.73491916544E-01 -0.10384805264E+00  0.89041956048E+00  0.88000000000E+00 0.  1.
        -11    1    4    4    0    0  0.40378415598E-01 -0.25810993447E-01  0.47605217827E-01  0.67551030445E-01  0.51100000000E-03 0. -1.
         11    1    4    4    0    0  0.20514270589E-01 -0.29128343922E-01  0.51498247553E-01  0.62622889900E-01  0.51100000000E-03 0.  1.
</event>
<event>
 8    1  0.1131349E+005  0.1043930E+01  0.7957747E-01            NaN
         13   -1    0    0    0    0  0.00000000000E+00  0.00000000000E+00  0.74505805969E-08  0.10566000000E+00  0.10566000000E+00 0.  1.
     999900   -1    0    0    0    0 -0.00000000000E+00 -0.00000000000E+00 -0.74505805969E-08  0.93827000000E+00  0.93827000000E+00 0. -1.
     999902    2    1    2    0    0  0.76019672571E-02  0.94826299526E-02  0.20509546978E-01  0.10200898722E+01  0.10198112549E+01 0.  0.
     999903    2    3    3    0    0 -0.11086602499E+00  0.29730590576E-01  0.60017411785E-01  0.13104233888E+00  0.19870111965E-01 0.  0.
         14    1    1    2    0    0 -0.76019672571E-02 -0.94826299526E-02 -0.20509546978E-01  0.23840127815E-01  0.00000000000E+00 0. -1.
     999901    1    3    3    0    0  0.11846799224E+00 -0.20247960623E-01 -0.39507864807E-01  0.88904753331E+00  0.88000000000E+00 0. -1.
        -11    1    4    4    0    0 -0.26217625966E-01  0.15420541662E-01  0.12226687391E-01  0.32785820441E-01  0.51100000000E-03 0. -1.
         11    1    4    4    0    0 -0.84648399019E-01  0.14310048914E-01  0.47790724394E-01  0.98256518438E-01  0.51100000000E-03 0.  1.
</event>
<event>
 8    1  0.1131349E+005  0.1043930E+01  0.7957747E-01            NaN
         13   -1    0    0    0    0  0.00000000000E+00  0.00000000000E+00  0.74505805969E-08  0.10566000000E+00  0.10566000000E+00 0. -1.
     999900   -1    0    0    0    0 -0.00000000000E+00 -0.00000000000E+00 -0.74505805969E-08  0.93827000000E+00  0.93827000000E+00 0. -1.
     999902    2    1    2    0    0 -0.17283703836E-01  0.10382073511E-01 -0.12783652806E-01  0.10200566750E+01  0.10197772720E+01 0.  0.
     999903    2    3    3    0    0  0.31889388835E-01 -0.12266858097E+00 -0.13184348367E-01  0.12869780771E+00  0.18021786543E-01 0.  0.
         14    1    1    2    0    0  0.17283703836E-01 -0.10382073511E-01  0.12783652806E-01  0.23873325025E-01  0.00000000000E+00 0.  1.
     999901    1    3    3    0    0 -0.49173092671E-01  0.13305065448E+00  0.40069556083E-03  0.89135886727E+00  0.88000000000E+00 0. -1.
        -11    1    4    4    0    0  0.24375302087E-01 -0.59486136099E-01 -0.91994121099E-02  0.64943406471E-01  0.51100000000E-03 0.  1.
         11    1    4    4    0    0  0.75140867478E-02 -0.63182444868E-01 -0.39849362568E-02  0.63754401237E-01  0.51100000000E-03 0. -1.
</event>
<event>
 8    1  0.1131349E+005  0.1043930E+01  0.7957747E-01            NaN
         13   -1    0    0    0    0  0.00000000000E+00  0.00000000000E+00  0.74505805969E-08  0.10566000000E+00  0.10566000000E+00 0. -1.
     999900   -1    0    0    0    0 -0.00000000000E+00 -0.00000000000E+00 -0.74505805969E-08  0.93827000000E+00  0.93827000000E+00 0. -1.
     999902    2    1    2    0    0 -0.14315322682E-01  0.15450789870E-02  0.89379032446E-02  0.10269829694E+01  0.10268431319E+01 0.  0.
     999903    2    3    3    0    0  0.74583073519E-01  0.10768957824E+00 -0.27735297675E-01  0.13540318986E+00  0.20127020899E-01 0.  0.
         14    1    1    2    0    0  0.14315322682E-01 -0.15450789870E-02 -0.89379032446E-02  0.16947030624E-01  0.00000000000E+00 0.  1.
     999901    1    3    3    0    0 -0.88898396201E-01 -0.10614449926E+00  0.36673200920E-01  0.89157977951E+00  0.88000000000E+00 0.  1.
        -11    1    4    4    0    0  0.32988782137E-01  0.37315644127E-01 -0.18502124165E-01  0.53134798043E-01  0.51100000000E-03 0.  1.
         11    1    4    4    0    0  0.41594291382E-01  0.70373934117E-01 -0.92331735102E-02  0.82268391821E-01  0.51100000000E-03 0. -1.
</event>
<event>
 8    1  0.1131349E+005  0.1043930E+01  0.7957747E-01            NaN
         13   -1    0    0    0    0  0.00000000000E+00  0.00000000000E+00  0.74505805969E-08  0.10566000000E+00  0.10566000000E+00 0.  1.
     999900   -1    0    0    0    0 -0.00000000000E+00 -0.00000000000E+00 -0.74505805969E-08  0.93827000000E+00  0.93827000000E+00 0.  1.
     999902    2    1    2    0    0 -0.20940450056E-01  0.10343495723E-01 -0.20963938148E-02  0.10204803685E+01  0.10202109082E+01 0.  0.
     999903    2    3    3    0    0  0.61812411974E-01 -0.89549268456E-01 -0.65690963778E-01  0.12870076013E+00  0.20217249573E-01 0.  0.
         14    1    1    2    0    0  0.20940450056E-01 -0.10343495723E-01  0.20963938148E-02  0.23449631540E-01  0.00000000000E+00 0.  1.
     999901    1    3    3    0    0 -0.82752862030E-01  0.99892764179E-01  0.63594569963E-01  0.89177960833E+00  0.88000000000E+00 0.  1.
        -11    1    4    4    0    0  0.18969570714E-03 -0.98934646283E-02 -0.70599582174E-02  0.12166378173E-01  0.51100000000E-03 0. -1.
         11    1    4    4    0    0  0.61622716267E-01 -0.79655803828E-01 -0.58631005560E-01  0.11653438195E+00  0.51100000000E-03 0.  1.
</event>
<event>
 8    1  0.1131349E+005  0.1043930E+01  0.7957747E-01            NaN
         13   -1    0    0    0    0  0.00000000000E+00  0.00000000000E+00  0.74505805969E-08  0.10566000000E+00  0.10566000000E+00 0. -1.
     999900   -1    0    0    0    0 -0.00000000000E+00 -0.00000000000E+00 -0.74505805969E-08  0.93827000000E+00  0.93827000000E+00 0.  1.
     999902    2    1    2    0    0 -0.14714632775E-01  0.15088054550E-01 -0.11149128006E-01  0.10200873310E+01  0.10198086537E+01 0.  0.
     999903    2    3    3    0    0 -0.51289818858E-01 -0.78985445645E-01  0.85813560767E-01  0.12902654148E+00  0.20360133913E-01 0.  0.
         14    1    1    2    0    0  0.14714632775E-01 -0.15088054550E-01  0.11149128006E-01  0.23842668959E-01  0.00000000000E+00 0. -1.
     999901    1    3    3    0    0  0.36575186084E-01  0.94073500195E-01 -0.96962688773E-01  0.89106078956E+00  0.88000000000E+00 0.  1.
        -11    1    4    4    0    0 -0.96304345955E-02 -0.10888585916E-01  0.48694230496E-02  0.15338806198E-01  0.51100000000E-03 0. -1.
         11    1    4    4    0    0 -0.41659384263E-01 -0.68096859729E-01  0.80944137718E-01  0.11368773528E+00  0.51100000000E-03 0.  1.
</event>
<event>
 8    1  0.1131349E+005  0.1043930E+01  0.7957747E-01            NaN
         13   -1    0    0    0    0  0.00000000000E+00  0.00000000000E+00  0.74505805969E-08  0.10566000000E+00  0.10566000000E+00 0. -1.
     999900   -1    0    0    0    0 -0.00000000000E+00 -0.00000000000E+00 -0.74505805969E-08  0.93827000000E+00  0.93827000000E+00 0. -1.
     999902    2    1    2    0    0 -0.17608993850E-01 -0.20228809137E-02  0.13676470499E-01  0.10215421784E+01  0.10212968264E+01 0.  0.
     999903    2    3    3    0    0 -0.21539092185E-01 -0.12261286237E+00  0.41635791631E-01  0.13286950920E+00  0.20565038820E-01 0.  0.
         14    1    1    2    0    0  0.17608993850E-01  0.20228809137E-02 -0.13676470499E-01  0.22387821621E-01  0.00000000000E+00 0.  1.
     999901    1    3    3    0    0  0.39300983346E-02  0.12058998145E+00 -0.27959321133E-01  0.88867266917E+00  0.88000000000E+00 0.  1.
        -11    1    4    4    0    0 -0.10429784539E-01 -0.71652077710E-01  0.34552830588E-01  0.80230666632E-01  0.51100000000E-03 0.  1.
         11    1    4    4    0    0 -0.11109307646E-01 -0.50960784657E-01  0.70829610436E-02  0.52638842572E-01  0.51100000000E-03 0. -1.
</event>
<event>
 8    1  0.1131349E+005  0.1043930E+01  0.7957747E-01            NaN
         13   -1    0    0    0    0  0.00000000000E+00  0.00000000000E+00  0.74505805969E-08  0.10566000000E+00  0.10566000000E+00 0. -1.
     999900   -1    0    0    0    0 -0.00000000000E+00 -0.00000000000E+00 -0.74505805969E-08  0.93827000000E+00  0.93827000000E+00 0.  1.
     999902    2    1    2    0    0 -0.33844362484E-02 -0.98088758658E-02  0.20707668800E-01  0.10207680484E+01  0.10205052340E+01 0.  0.
     999903    2    3    3    0    0  0.26275474050E-01  0.24514284958E-01  0.12802996780E+00  0.13308800159E+00  0.54215135066E-02 0.  0.
         14    1    1    2    0    0  0.33844362484E-02  0.98088758658E-02 -0.20707668800E-01  0.23161951593E-01  0.00000000000E+00 0.  1.
     999901    1    3    3    0    0 -0.29659910299E-01 -0.34323160824E-01 -0.10732229900E+00  0.88768004681E+00  0.88000000000E+00 0.  1.
        -11    1    4    4    0    0  0.14520452258E-01  0.11519897417E-01  0.73878118086E-01  0.76169475665E-01  0.51100000000E-03 0. -1.
         11    1    4    4    0    0  0.11755021792E-01  0.12994387542E-01  0.54151849718E-01  0.56918525928E-01  0.51100000000E-03 0.  1.
</event>
<event>
 8    1  0.1131349E+005  0.1043930E+01  0.7957747E-01            NaN
         13   -1    0    0    0    0  0.00000000000E+00  0.00000000000E+00  0.74505805969E-08  0.10566000000E+00  0.10566000000E+00 0. -1.
     999900   -1    0    0    0    0 -0.00000000000E+00 -0.00000000000E+00 -0.74505805969E-08  0.93827000000E+00  0.93827000000E+00 0.  1.
     999902    2    1    2    0    0  0.17067412855E-01  0.14035285672E-01 -0.93533789028E-02  0.10199347604E+01  0.10196524624E+01 0.  0.
     999903    2    3    3    0    0 -0.99593155107E-01 -0.76644595048E-01 -0.99972063878E-02  0.12761590295E+00  0.19816257372E-01 0.  0.
         14    1    1    2    0    0 -0.17067412855E-01 -0.14035285672E-01  0.93533789028E-02  0.23995239577E-01  0.00000000000E+00 0. -1.
     999901    1    3    3    0    0  0.11666056796E+00  0.90679880721E-01  0.64382748493E-03  0.89231885747E+00  0.88000000000E+00 0.  1.
        -11    1    4    4    0    0 -0.58409870698E-01 -0.41223586323E-01  0.37114131532E-02  0.71590032637E-01  0.51100000000E-03 0.  1.
         11    1    4    4    0    0 -0.41183284409E-01 -0.35421008725E-01 -0.13708619541E-01  0.56025870315E-01  0.51100000000E-03 0. -1.
</event>
<event>
 8    1  0.1131349E+005  0.1043930E+01  0.7957747E-01            NaN
         13   -1    0    0    0    0  0.00000000000E+00  0.00000000000E+00  0.74505805969E-08  0.10566000000E+00  0.10566000000E+00 0. -1.
     999900   -1    0    0    0    0 -0.00000000000E+00 -0.00000000000E+00 -0.74505805969E-08  0.93827000000E+00  0.93827000000E+00 0.  1.
     999902    2    1    2    0    0  0.83477445899E-02  0.12665505586E-01 -0.17901246462E-01  0.10204661023E+01  0.10201963102E+01 0.  0.
     999903    2    3    3    0    0 -0.30352215648E-01 -0.12301367413E+00  0.10989186100E-01  0.12875920883E+00  0.20113443959E-01 0.  0.
         14    1    1    2    0    0 -0.83477445899E-02 -0.12665505586E-01  0.17901246462E-01  0.23463897724E-01  0.00000000000E+00 0. -1.
     999901    1    3    3    0    0  0.38699960238E-01  0.13567917972E+00 -0.28890432563E-01  0.89170689345E+00  0.88000000000E+00 0.  1.
        -11    1    4    4    0    0 -0.14047787389E-01 -0.39911362026E-01 -0.48868497505E-02  0.42595769400E-01  0.51100000000E-03 0. -1.
         11    1    4    4    0    0 -0.16304428260E-01 -0.83102312107E-01  0.15876035851E-01  0.86163439426E-01  0.51100000000E-03 0.  1.
</event>
<event>
 8    1  0.1131349E+005  0.1043930E+01  0.7957747E-01            NaN
         13   -1    0    0    0    0  0.00000000000E+00  0.00000000000E+00  0.74505805969E-08  0.10566000000E+00  0.10566000000E+00 0.  1.
     999900   -1    0    0    0    0 -0.00000000000E+00 -0.00000000000E+00 -0.74505805969E-08  0.93827000000E+00  0.93827000000E+00 0. -1.
     999902    2    1    2    0    0 -0.22714153935E-01 -0.83098631250E-02  0.11765015272E-01  0.10170338628E+01  0.10166781574E+01 0.  0.
     999903    2    3    3    0    0 -0.53351110719E-01  0.10943159897E+00 -0.32393511796E-01  0.12756680292E+00  0.20058258509E-01 0.  0.
         14    1    1    2    0    0  0.22714153935E-01  0.83098631250E-02 -0.11765015272E-01  0.26896137241E-01  0.00000000000E+00 0.  1.
     999901    1    3    3    0    0  0.30636956784E-01 -0.11774146209E+00  0.44158527068E-01  0.88946705983E+00  0.88000000000E+00 0.  1.
        -11    1    4    4    0    0 -0.42927060801E-01  0.66123160268E-01 -0.20586296421E-01  0.81480436880E-01  0.51100000000E-03 0.  1.
         11    1    4    4    0    0 -0.10424049918E-01  0.43308438700E-01 -0.11807215375E-01  0.46086366045E-01  0.51100000000E-03 0. -1.
</event>
<event>
 8    1  0.1131349E+005  0.1043930E+01  0.7957747E-01            NaN
         13   -1    0    0    0    0  0.00000000000E+00  0.00000000000E+00  0.74505805969E-08  0.10566000000E+00  0.10566000000E+00 0.  1.
     999900   -1    0    0    0    0 -0.00000000000E+00 -0.00000000000E+00 -0.74505805969E-08  0.93827000000E+00  0.93827000000E+00 0. -1.
     999902    2    1    2    0    0  0.22695977916E-01  0.38644390737E-02 -0.48610761207E-02  0.10203997776E+01  0.10201284404E+01 0.  0.
     999903    2    3    3    0    0  0.10748849318E-01 -0.31368171022E-01  0.12436294023E+00  0.13018468168E+00  0.19555319626E-01 0.  0.
         14    1    1    2    0    0 -0.22695977916E-01 -0.38644390737E-02  0.48610761207E-02  0.23530222352E-01  0.00000000000E+00 0. -1.
     999901    1    3    3    0    0  0.11947128598E-01  0.35232610096E-01 -0.12922401635E+00  0.89021509597E+00  0.88000000000E+00 0. -1.
        -11    1    4    4    0    0 -0.57054279533E-02 -0.90539116254E-02  0.31695043692E-01  0.33456869840E-01  0.51100000000E-03 0.  1.
         11    1    4    4    0    0  0.16454277271E-01 -0.22314259397E-01  0.92667896537E-01  0.96727811835E-01  0.51100000000E-03 0. -1.
</event>
<event>
 8    1  0.1131349E+005  0.1043930E+01  0.7957747E-01            NaN
         13   -1    0    0    0    0  0.00000000000E+00  0.00000000000E+00  0.74505805969E-08  0.10566000000E+00  0.10566000000E+00 0. -1.
     999900   -1    0    0    0    0 -0.00000000000E+00 -0.00000000000E+00 -0.74505805969E-08  0.93827000000E+00  0.93827000000E+00 0.  1.
     999902    2    1    2    0    0 -0.15287967878E-01  0.44765879145E-03  0.19124991471E-01  0.10194414790E+01  0.10191473110E+01 0.  0.
     999903    2    3    3    0    0  0.69752110538E-01  0.76375161177E-01  0.76688553446E-01  0.13022251600E+00  0.19448580267E-01 0.  0.
         14    1    1    2    0    0  0.15287967878E-01 -0.44765879145E-03 -0.19124991471E-01  0.24488520964E-01  0.00000000000E+00 0.  1.
     999901    1    3    3    0    0 -0.85040078416E-01 -0.75927502386E-01 -0.57563561975E-01  0.88921896304E+00  0.88000000000E+00 0. -1.
        -11    1    4    4    0    0  0.46164944303E-01  0.63062631249E-01  0.56729901291E-01  0.96574532688E-01  0.51100000000E-03 0.  1.
         11    1    4    4    0    0  0.23587166235E-01  0.13312529928E-01  0.19958652155E-01  0.33647983312E-01  0.51100000000E-03 0. -1.
</event>
<event>
 8    1  0.1131349E+005  0.1043930E+01  0.7957747E-01            NaN
         13   -1    0    0    0    0  0.00000000000E+00  0.00000000000E+00  0.74505805969E-08  0.10566000000E+00  0.10566000000E+00 0. -1.
     999900   -1    0    0    0    0 -0.00000000000E+00 -0.00000000000E+00 -0.74505805969E-08  0.93827000000E+00  0.93827000000E+00 0.  1.
     999902    2    1    2    0    0  0.64816729643E-02  0.19837866715E-01  0.10834218731E-01  0.10204154654E+01  0.10201444941E+01 0.  0.
     999903    2    3    3    0    0 -0.30773027115E-02  0.48659282764E-01 -0.11930605087E+00  0.13032640371E+00  0.19334997741E-01 0.  0.
         14    1    1    2    0    0 -0.64816729643E-02 -0.19837866715E-01 -0.10834218731E-01  0.23514534563E-01  0.00000000000E+00 0.  1.
     999901    1    3    3    0    0  0.95589756758E-02 -0.28821416049E-01  0.13014026960E+00  0.89008906173E+00  0.88000000000E+00 0. -1.
        -11    1    4    4    0    0 -0.50765846735E-02  0.35260986870E-01 -0.10372582634E+00  0.10967414043E+00  0.51100000000E-03 0. -1.
         11    1    4    4    0    0  0.19992819620E-02  0.13398295894E-01 -0.15580224530E-01  0.20652263281E-01  0.51100000000E-03 0.  1.
</event>
<event>
 8    1  0.1131349E+005  0.1043930E+01  0.7957747E-01            NaN
         13   -1    0    0    0    0  0.00000000000E+00  0.00000000000E+00  0.74505805969E-08  0.10566000000E+00  0.10566000000E+00 0.  1.
     999900   -1    0    0    0    0 -0.00000000000E+00 -0.00000000000E+00 -0.74505805969E-08  0.93827000000E+00  0.93827000000E+00 0.  1.
     999902    2    1    2    0    0  0.18227889297E-01 -0.13481980201E-01 -0.33102410477E-02  0.10210176140E+01  0.10207604962E+01 0.  0.
     999903    2    3    3    0    0 -0.76255369404E-01  0.51446493942E-03 -0.10354732084E+00  0.13019189654E+00  0.20315910884E-01 0.  0.
         14    1    1    2    0    0 -0.18227889297E-01  0.13481980201E-01  0.33102410477E-02  0.22912386042E-01  0.00000000000E+00 0. -1.
     999901    1    3    3    0    0  0.94483258700E-01 -0.13996445141E-01  0.10023707979E+00  0.89082571742E+00  0.88000000000E+00 0. -1.
        -11    1    4    4    0    0 -0.29843398957E-01 -0.28794308547E-02 -0.56794962169E-01  0.64224982928E-01  0.51100000000E-03 0.  1.
         11    1    4    4    0    0 -0.46411970446E-01  0.33938957942E-02 -0.46752358666E-01  0.65966913610E-01  0.51100000000E-03 0. -1.
</event>
<event>
 8    1  0.1131349E+005  0.1043930E+01  0.7957747E-01            NaN
         13   -1    0    0    0    0  0.00000000000E+00  0.00000000000E+00  0.74505805969E-08  0.10566000000E+00  0.10566000000E+00 0.  1.
     999900   -1    0    0    0    0 -0.00000000000E+00 -0.00000000000E+00 -0.74505805969E-08  0.93827000000E+00  0.93827000000E+00 0.  1.
     999902    2    1    2    0    0 -0.75114531616E-02  0.97362842236E-02  0.20642607748E-01  0.10199022158E+01  0.10196191423E+01 0.  0.
     999903    2    3    3    0    0  0.34847063445E-01 -0.10732430296E+00  0.61666005749E-01  0.13019420516E+00  0.20371817713E-01 0.  0.
         14    1    1    2    0    0  0.75114531616E-02 -0.97362842236E-02 -0.20642607748E-01  0.24027784204E-01  0.00000000000E+00 0. -1.
     999901    1    3    3    0    0 -0.42358516606E-01  0.11706058718E+00 -0.41023398001E-01  0.88970801063E+00  0.88000000000E+00 0.  1.
        -11    1    4    4    0    0  0.14864901033E-01 -0.31687381387E-01  0.98742631674E-02  0.36370559743E-01  0.51100000000E-03 0. -1.
         11    1    4    4    0    0  0.19982162411E-01 -0.75636921571E-01  0.51791742582E-01  0.93823645421E-01  0.51100000000E-03 0.  1.
</event>
<event>
 8    1  0.1131349E+005  0.1043930E+01  0.7957747E-01            NaN
         13   -1    0    0    0    0  0.00000000000E+00  0.00000000000E+00  0.74505805969E-08  0.10566000000E+00  0.10566000000E+00 0.  1.
     999900   -1    0    0    0    0 -0.00000000000E+00 -0.00000000000E+00 -0.74505805969E-08  0.93827000000E+00  0.93827000000E+00 0. -1.
     999902    2    1    2    0    0 -0.79049909289E-02 -0.21718223257E-01 -0.71963633692E-02  0.10197234358E+01  0.10194360833E+01 0.  0.
     999903    2    3    3    0    0  0.15145154820E-01 -0.11444181832E+00  0.59954193264E-01  0.13200829483E+00  0.22480638764E-01 0.  0.
         14    1    1    2    0    0  0.79049909289E-02  0.21718223257E-01  0.71963633692E-02  0.24206564167E-01  0.00000000000E+00 0.  1.
     999901    1    3    3    0    0 -0.23050145749E-01  0.92723595068E-01 -0.67150556634E-01  0.88771514100E+00  0.88000000000E+00 0.  1.
        -11    1    4    4    0    0 -0.44306682599E-02 -0.36946010374E-01  0.13684621247E-01  0.39650579863E-01  0.51100000000E-03 0. -1.
         11    1    4    4    0    0  0.19575823080E-01 -0.77495807951E-01  0.46269572018E-01  0.92357714972E-01  0.51100000000E-03 0.  1.
</event>
<event>
 8    1  0.1131349E+005  0.1043930E+01  0.7957747E-01            NaN
         13   -1    0    0    0    0  0.00000000000E+00  0.00000000000E+00  0.74505805969E-08  0.10566000000E+00  0.10566000000E+00 0. -1.
     999900   -1    0    0    0    0 -0.00000000000E+00 -0.00000000000E+00 -0.74505805969E-08  0.93827000000E+00  0.93827000000E+00 0. -1.
     999902    2    1    2    0    0  0.18242304097E-01 -0.16018001140E-01 -0.81544649161E-02  0.10183203667E+01  0.10179982888E+01 0.  0.
     999903    2    3    3    0    0  0.12584733479E+00 -0.22908517959E-01  0.21709238629E-01  0.13123628803E+00  0.19731203314E-01 0.  0.
         14    1    1    2    0    0 -0.18242304097E-01  0.16018001140E-01  0.81544649161E-02  0.25609633292E-01  0.00000000000E+00 0. -1.
     999901    1    3    3    0    0 -0.10760503070E+00  0.68905168185E-02 -0.29863703545E-01  0.88708407868E+00  0.88000000000E+00 0. -1.
        -11    1    4    4    0    0  0.39702738747E-01 -0.86616374080E-02 -0.22202769945E-02  0.40700395299E-01  0.51100000000E-03 0.  1.
         11    1    4    4    0    0  0.86144596047E-01 -0.14246880551E-01  0.23929515624E-01  0.90535892731E-01  0.51100000000E-03 0. -1.
</event>
<event>
 8    1  0.1131349E+005  0.1043930E+01  0.7957747E-01            NaN
         13   -1    0    0    0    0  0.00000000000E+00  0.00000000000E+00  0.74505805969E-08  0.10566000000E+00  0.10566000000E+00 0.  1.
     999900   -1    0    0    0    0 -0.00000000000E+00 -0.00000000000E+00 -0.74505805969E-08  0.93827000000E+00  0.93827000000E+00 0. -1.
     999902    2    1    2    0    0 -0.11252025837E-01  0.20011940768E-01  0.58890318712E-02  0.10202283850E+01  0.10199530337E+01 0.  0.
     999903    2    3    3    0    0  0.46939611083E-02 -0.20222076502E-02  0.12954755513E+00  0.13116640256E+00  0.19898078422E-01 0.  0.
         14    1    1    2    0    0  0.11252025837E-01 -0.20011940768E-01 -0.58890318712E-02  0.23701615031E-01  0.00000000000E+00 0. -1.
     999901    1    3    3    0    0 -0.15945986945E-01  0.22034148418E-01 -0.12365852326E+00  0.88906198241E+00  0.88000000000E+00 0. -1.
        -11    1    4    4    0    0  0.10461821372E-01  0.39434802650E-02  0.93771920555E-01  0.94437465809E-01  0.51100000000E-03 0.  1.
         11    1    4    4    0    0 -0.57678602635E-02 -0.59656879152E-02  0.35775634575E-01  0.36728936747E-01  0.51100000000E-03 0. -1.
</event>
<event>
 8    1  0.1131349E+005  0.1043930E+01  0.7957747E-01            NaN
         13   -1    0    0    0    0  0.00000000000E+00  0.00000000000E+00  0.74505805969E-08  0.10566000000E+00  0.10566000000E+00 0.  1.
     999900   -1    0    0    0    0 -0.00000000000E+00 -0.00000000000E+00 -0.74505805969E-08  0.93827000000E+00  0.93827000000E+00 0. -1.
     999902    2    1    2    0    0 -0.70704670811E-02  0.20226426221E-01  0.77258197460E-02  0.10211530794E+01  0.10208990270E+01 0.  0.
     999903    2    3    3    0    0 -0.32602643754E-01  0.10372501495E+00 -0.74081738727E-01  0.13305602219E+00  0.19849179324E-01 0.  0.
         14    1    1    2    0    0  0.70704670811E-02 -0.20226426221E-01 -0.77258197460E-02  0.22776920625E-01  0.00000000000E+00 0.  1.
     999901    1    3    3    0    0  0.25532176673E-01 -0.83498588734E-01  0.81807558473E-01  0.88809705719E+00  0.88000000000E+00 0.  1.
        -11    1    4    4    0    0 -0.14362925370E-01  0.62003547936E-01 -0.32845978568E-01  0.71622992195E-01  0.51100000000E-03 0.  1.
         11    1    4    4    0    0 -0.18239718383E-01  0.41721467018E-01 -0.41235760159E-01  0.61433029990E-01  0.51100000000E-03 0. -1.
</event>
<event>
 8    1  0.1131349E+005  0.1043930E+01  0.7957747E-01            NaN
         13   -1    0    0    0    0  0.00000000000E+00  0.00000000000E+00  0.74505805969E-08  0.10566000000E+00  0.10566000000E+00 0.  1.
     999900   -1    0    0    0    0 -0.00000000000E+00 -0.00000000000E+00 -0.74505805969E-08  0.93827000000E+00  0.93827000000E+00 0.  1.
     999902    2    1    2    0    0 -0.20862695316E-01  0.68127414972E-02 -0.95622293302E-02  0.10199904567E+01  0.10197094832E+01 0.  0.
     999903    2    3    3    0    0 -0.69246802180E-01  0.11101017894E+00 -0.56016136010E-02  0.13251436451E+00  0.20255845779E-01 0.  0.
         14    1    1    2    0    0  0.20862695316E-01 -0.68127414972E-02  0.95622293302E-02  0.23939543277E-01  0.00000000000E+00 0.  1.
     999901    1    3    3    0    0  0.48384106864E-01 -0.10419743744E+00 -0.39606157292E-02  0.88747609221E+00  0.88000000000E+00 0. -1.
        -11    1    4    4    0    0 -0.33687513852E-01  0.55433601521E-01 -0.12872940561E-01  0.66134004013E-01  0.51100000000E-03 0. -1.
         11    1    4    4    0    0 -0.35559288328E-01  0.55576577414E-01  0.72713269598E-02  0.66380360501E-01  0.51100000000E-03 0.  1.
</event>
<event>
 8    1  0.1131349E+005  0.1043930E+01  0.7957747E-01            NaN
         13   -1    0    0    0    0  0.00000000000E+00  0.00000000000E+00  0.74505805969E-08  0.10566000000E+00  0.10566000000E+00 0. -1.
     999900   -1    0    0    0    0 -0.00000000000E+00 -0.00000000000E+00 -0.74505805969E-08  0.93827000000E+00  0.93827000000E+00 0.  1.
     999902    2    1    2    0    0  0.12080481219E-01 -0.16664060057E-01 -0.12156480080E-01  0.10200258386E+01  0.10197457048E+01 0.  0.
     999903    2    3    3    0    0  0.87833305150E-01  0.40915134591E-01  0.83913861173E-01  0.12969816608E+00  0.19782326867E-01 0.  0.
         14    1    1    2    0    0 -0.12080481219E-01  0.16664060057E-01  0.12156480080E-01  0.23904161395E-01  0.00000000000E+00 0. -1.
     999901    1    3    3    0    0 -0.75752823931E-01 -0.57579194648E-01 -0.96070341252E-01  0.89032767252E+00  0.88000000000E+00 0. -1.
        -11    1    4    4    0    0  0.50337946716E-01  0.12602817952E-01  0.45106521517E-01  0.68757539981E-01  0.51100000000E-03 0. -1.
         11    1    4    4    0    0  0.37495358434E-01  0.28312316639E-01  0.38807339656E-01  0.60940626102E-01  0.51100000000E-03 0.  1.
</event>
<event>
 8    1  0.1131349E+005  0.1043930E+01  0.7957747E-01            NaN
         13   -1    0    0    0    0  0.00000000000E+00  0.00000000000E+00  0.74505805969E-08  0.10566000000E+00  0.10566000000E+00 0. -1.
     999900   -1    0    0    0    0 -0.00000000000E+00 -0.00000000000E+00 -0.74505805969E-08  0.93827000000E+00  0.93827000000E+00 0.  1.
     999902    2    1    2    0    0 -0.89488081357E-02 -0.93921184322E-03  0.19820354138E-01  0.10221628292E+01  0.10219310347E+01 0.  0.
     999903    2    3    3    0    0 -0.41017373459E-01 -0.94404018704E-01  0.83968248337E-01  0.13431204483E+00  0.19862401266E-01 0.  0.
         14    1    1    2    0    0  0.89488081357E-02  0.93921184322E-03 -0.19820354138E-01  0.21767170787E-01  0.00000000000E+00 0.  1.
     999901    1    3    3    0    0  0.32068565324E-01  0.93464806861E-01 -0.64147894199E-01  0.88785078439E+00  0.88000000000E+00 0.  1.
        -11    1    4    4    0    0  0.11055913050E-02 -0.22969032422E-02  0.58534880166E-02  0.64048840425E-02  0.51100000000E-03 0.  1.
         11    1    4    4    0    0 -0.42122964764E-01 -0.92107115462E-01  0.78114760320E-01  0.12790716078E+00  0.51100000000E-03 0. -1.
</event>
<event>
 8    1  0.1131349E+005  0.1043930E+01  0.7957747E-01            NaN
         13   -1    0    0    0    0  0.00000000000E+00  0.00000000000E+00  0.74505805969E-08  0.10566000000E+00  0.10566000000E+00 0.  1.
     999900   -1    0    0    0    0 -0.00000000000E+00 -0.00000000000E+00 -0.74505805969E-08  0.93827000000E+00  0.93827000000E+00 0. -1.
     999902    2    1    2    0    0  0.15226439437E-01 -0.15590326008E-01 -0.95820215072E-02  0.10201241633E+01  0.10198463565E+01 0.  0.
     999903    2    3    3    0    0 -0.11954173900E+00 -0.33095782242E-01 -0.31069655255E-01  0.12943307137E+00  0.20050893250E-01 0.  0.
         14    1    1    2    0    0 -0.15226439437E-01  0.15590326008E-01  0.95820215072E-02  0.23805836661E-01  0.00000000000E+00 0. -1.
     999901    1    3    3    0    0  0.13476817844E+00  0.17505456234E-01  0.21487633748E-01  0.89069109197E+00  0.88000000000E+00 0.  1.
        -11    1    4    4    0    0 -0.48444819752E-01 -0.33052310455E-02 -0.11769864225E-01  0.49966147920E-01  0.51100000000E-03 0.  1.
         11    1    4    4    0    0 -0.71096919247E-01 -0.29790551197E-01 -0.19299791030E-01  0.79466923445E-01  0.51100000000E-03 0. -1.
</event>
<event>
 8    1  0.1131349E+005  0.1043930E+01  0.7957747E-01            NaN
         13   -1    0    0    0    0  0.00000000000E+00  0.00000000000E+00  0.74505805969E-08  0.10566000000E+00  0.10566000000E+00 0. -1.
     999900   -1    0    0    0    0 -0.00000000000E+00 -0.00000000000E+00 -0.74505805969E-08  0.93827000000E+00  0.93827000000E+00 0.  1.
     999902    2    1    2    0    0 -0.83165594839E-02  0.17146686078E-01 -0.13872506414E-01  0.10203583976E+01  0.10200860940E+01 0.  0.
     999903    2    3    3    0    0  0.38591825381E-01  0.12343333615E+00 -0.21308142425E-01  0.13269149092E+00  0.20685196866E-01 0.  0.
         14    1    1    2    0    0  0.83165594839E-02 -0.17146686078E-01  0.13872506414E-01  0.23571602392E-01  0.00000000000E+00 0.  1.
     999901    1    3    3    0    0 -0.46908384865E-01 -0.10628665007E+00  0.74356360108E-02  0.88766690669E+00  0.88000000000E+00 0. -1.
        -11    1    4    4    0    0  0.24947711138E-02  0.66179577505E-02 -0.63403938820E-02  0.95122533228E-02  0.51100000000E-03 0.  1.
         11    1    4    4    0    0  0.36097054267E-01  0.11681537840E+00 -0.14967748543E-01  0.12317923759E+00  0.51100000000E-03 0. -1.
</event>
<event>
 8    1  0.1131349E+005  0.1043930E+01  0.7957747E-01            NaN
         13   -1    0    0    0    0  0.00000000000E+00  0.00000000000E+00  0.74505805969E-08  0.10566000000E+00  0.10566000000E+00 0.  1.
     999900   -1    0    0    0    0 -0.00000000000E+00 -0.00000000000E+00 -0.74505805969E-08  0.93827000000E+00  0.93827000000E+00 0. -1.
     999902    2    1    2    0    0  0.16511620883E-01  0.11104627502E-01 -0.13772064941E-01  0.10197304928E+01  0.10194433097E+01 0.  0.
     999903    2    3    3    0    0 -0.45194397729E-02  0.54400777879E-01  0.11520139061E+00  0.12902795301E+00  0.19924414374E-01 0.  0.
         14    1    1    2    0    0 -0.16511620883E-01 -0.11104627502E-01  0.13772064941E-01  0.24199507203E-01  0.00000000000E+00 0.  1.
     999901    1    3    3    0    0  0.21031060656E-01 -0.43296150377E-01 -0.12897345556E+00  0.89070253979E+00  0.88000000000E+00 0. -1.
        -11    1    4    4    0    0 -0.97291130103E-02  0.30816702337E-01  0.50429508000E-01  0.59897589109E-01  0.51100000000E-03 0.  1.
         11    1    4    4    0    0  0.52096732375E-02  0.23584075542E-01  0.64771882614E-01  0.69130363899E-01  0.51100000000E-03 0. -1.
</event>
<event>
 8    1  0.1131349E+005  0.1043930E+01  0.7957747E-01            NaN
         13   -1    0    0    0    0  0.00000000000E+00  0.00000000000E+00  0.74505805969E-08  0.10566000000E+00  0.10566000000E+00 0.  1.
     999900   -1    0    0    0    0 -0.00000000000E+00 -0.00000000000E+00 -0.74505805969E-08  0.93827000000E+00  0.93827000000E+00 0. -1.
     999902    2    1    2    0    0 -0.20665560257E-02  0.12266028245E-01 -0.20215412926E-01  0.10201941827E+01  0.10199180268E+01 0.  0.
     999903    2    3    3    0    0  0.12581842890E+00 -0.51135033398E-02 -0.28934090576E-01  0.13073781344E+00  0.19969208774E-01 0.  0.
         14    1    1    2    0    0  0.20665560257E-02 -0.12266028245E-01  0.20215412926E-01  0.23735817291E-01  0.00000000000E+00 0.  1.
     999901    1    3    3    0    0 -0.12788498493E+00  0.17379531585E-01  0.87186776507E-02  0.88945636927E+00  0.88000000000E+00 0. -1.
        -11    1    4    4    0    0  0.30522324283E-01 -0.13750237590E-02  0.15969746033E-02  0.30599255201E-01  0.51100000000E-03 0.  1.
         11    1    4    4    0    0  0.95296104617E-01 -0.37384795807E-02 -0.30531065180E-01  0.10013855824E+00  0.51100000000E-03 0. -1.
</event>
<event>
 8    1  0.1131349E+005  0.1043930E+01  0.7957747E-01            NaN
         13   -1    0    0    0    0  0.00000000000E+00  0.00000000000E+00  0.74505805969E-08  0.10566000000E+00  0.10566000000E+00 0. -1.
     999900   -1    0    0    0    0 -0.00000000000E+00 -0.00000000000E+00 -0.74505805969E-08  0.93827000000E+00  0.93827000000E+00 0. -1.
     999902    2    1    2    0    0 -0.15731647526E-01  0.17723449214E-01  0.20365213228E-02  0.10201444413E+01  0.10198671130E+01 0.  0.
     999903    2    3    3    0    0 -0.24104842633E-02 -0.10962983893E+00  0.64396374937E-01  0.12869334066E+00  0.19762864347E-01 0.  0.
         14    1    1    2    0    0  0.15731647526E-01 -0.17723449214E-01 -0.20365213228E-02  0.23785558750E-01  0.00000000000E+00 0. -1.
     999901    1    3    3    0    0 -0.13321163263E-01  0.12735328815E+00 -0.62359853614E-01  0.89145110059E+00  0.88000000000E+00 0.  1.
        -11    1    4    4    0    0  0.25304063530E-02 -0.25262761012E-01  0.63816541896E-02  0.26183901189E-01  0.51100000000E-03 0. -1.
         11    1    4    4    0    0 -0.49408906163E-02 -0.84367077922E-01  0.58014720748E-01  0.10250943948E+00  0.51100000000E-03 0.  1.
</event>
<event>
 8    1  0.1131349E+005  0.1043930E+01  0.7957747E-01            NaN
         13   -1    0    0    0    0  0.00000000000E+00  0.00000000000E+00  0.74505805969E-08  0.10566000000E+00  0.10566000000E+00 0.  1.
     999900   -1    0    0    0    0 -0.00000000000E+00 -0.00000000000E+00 -0.74505805969E-08  0.93827000000E+00  0.93827000000E+00 0.  1.
     999902    2    1    2    0    0  0.18978004202E-01 -0.66845209305E-02 -0.31337971409E-01  0.10066886800E+01  0.10059995937E+01 0.  0.
     999903    2    3    3    0    0  0.58730505939E-01  0.78817823531E-01 -0.67630175237E-01  0.12090764816E+00  0.19577976069E-01 0.  0.
         14    1    1    2    0    0 -0.18978004202E-01  0.66845209305E-02  0.31337971409E-01  0.37241320003E-01  0.00000000000E+00 0.  1.
     999901    1    3    3    0    0 -0.39752501737E-01 -0.85502344461E-01  0.36292203828E-01  0.88578103184E+00  0.88000000000E+00 0.  1.
        -11    1    4    4    0    0  0.36533016727E-01  0.58664042805E-01 -0.38546815744E-01  0.79134375302E-01  0.51100000000E-03 0.  1.
         11    1    4    4    0    0  0.22197489213E-01  0.20153780726E-01 -0.29083359493E-01  0.41773272858E-01  0.51100000000E-03 0. -1.
</event>
<event>
 8    1  0.1131349E+005  0.1043930E+01  0.7957747E-01            NaN
         13   -1    0    0    0    0  0.00000000000E+00  0.00000000000E+00  0.74505805969E-08  0.10566000000E+00  0.10566000000E+00 0. -1.
     999900   -1    0    0    0    0 -0.00000000000E+00 -0.00000000000E+00 -0.74505805969E-08  0.93827000000E+00  0.93827000000E+00 0.  1.
     999902    2    1    2    0    0 -0.21380222017E-01  0.94288766784E-02  0.53991054604E-03  0.10205567437E+01  0.10202890561E+01 0.  0.
     999903    2    3    3    0    0  0.53669362672E-01 -0.90074524222E-01  0.71414572579E-01  0.12895336509E+00  0.23132418527E-01 0.  0.
         14    1    1    2    0    0  0.21380222017E-01 -0.94288766784E-02 -0.53991054604E-03  0.23373256348E-01  0.00000000000E+00 0.  1.
     999901    1    3    3    0    0 -0.75049584689E-01  0.99503400900E-01 -0.70874662033E-01  0.89160337857E+00  0.88000000000E+00 0.  1.
        -11    1    4    4    0    0  0.27304939564E-01 -0.33761648527E-01  0.41043959673E-01  0.59751789785E-01  0.51100000000E-03 0. -1.
         11    1    4    4    0    0  0.26364423108E-01 -0.56312875694E-01  0.30370612905E-01  0.69201575300E-01  0.51100000000E-03 0.  1.
</event>
<event>
 8    1  0.1131349E+005  0.1043930E+01  0.7957747E-01            NaN
         13   -1    0    0    0    0  0.00000000000E+00  0.00000000000E+00  0.74505805969E-08  0.10566000000E+00  0.10566000000E+00 0.  1.
     999900   -1    0    0    0    0 -0.00000000000E+00 -0.00000000000E+00 -0.74505805969E-08  0.93827000000E+00  0.93827000000E+00 0. -1.
     999902    2    1    2    0    0  0.29688052940E-03 -0.15186837926E-01 -0.17060873154E-01  0.10210870235E+01  0.10208314787E+01 0.  0.
     999903    2    3    3    0    0 -0.24193991699E-01 -0.12430854504E+00  0.33204566944E-01  0.13258605877E+00  0.20941731331E-01 0.  0.
         14    1    1    2    0    0 -0.29688052940E-03  0.15186837926E-01  0.17060873154E-01  0.22842976536E-01  0.00000000000E+00 0.  1.
     999901    1    3    3    0    0  0.24490872229E-01  0.10912170711E+00 -0.50265440098E-01  0.88850096469E+00  0.88000000000E+00 0.  1.
        -11    1    4    4    0    0 -0.24231292251E-02 -0.20341417671E-01  0.13531795462E-01  0.24556372646E-01  0.51100000000E-03 0. -1.
         11    1    4    4    0    0 -0.21770862474E-01 -0.10396712737E+00  0.19672771482E-01  0.10802968613E+00  0.51100000000E-03 0.  1.
</event>
<event>
 8    1  0.1131349E+005  0.1043930E+01  0.7957747E-01            NaN
         13   -1    0    0    0    0  0.00000000000E+00  0.00000000000E+00  0.74505805969E-08  0.10566000000E+00  0.10566000000E+00 0.  1.
     999900   -1    0    0    0    0 -0.00000000000E+00 -0.00000000000E+00 -0.74505805969E-08  0.93827000000E+00  0.93827000000E+00 0. -1.
     999902    2    1    2    0    0  0.14800782899E-01 -0.16351477544E-01 -0.72288213455E-02  0.10207203070E+01  0.10204563956E+01 0.  0.
     999903    2    3    3    0    0 -0.69222594317E-01  0.45280613171E-01  0.96239708793E-01  0.12855206093E+00  0.20529231041E-01 0.  0.
         14    1    1    2    0    0 -0.14800782899E-01  0.16351477544E-01  0.72288213455E-02  0.23209693026E-01  0.00000000000E+00 0.  1.
     999901    1    3    3    0    0  0.84023377217E-01 -0.61632090714E-01 -0.10346853014E+00  0.89216824605E+00  0.88000000000E+00 0. -1.
        -11    1    4    4    0    0 -0.98343509771E-02  0.12259897601E-02  0.20087355636E-01  0.22404921055E-01  0.51100000000E-03 0. -1.
         11    1    4    4    0    0 -0.59388243340E-01  0.44054623410E-01  0.76152353157E-01  0.10614713987E+00  0.51100000000E-03 0.  1.
</event>
<event>
 8    1  0.1131349E+005  0.1043930E+01  0.7957747E-01            NaN
         13   -1    0    0    0    0  0.00000000000E+00  0.00000000000E+00  0.74505805969E-08  0.10566000000E+00  0.10566000000E+00 0. -1.
     999900   -1    0    0    0    0 -0.00000000000E+00 -0.00000000000E+00 -0.74505805969E-08  0.93827000000E+00  0.93827000000E+00 0. -1.
     999902    2    1    2    0    0 -0.72995108848E-02 -0.10472475887E-01  0.19939406176E-01  0.10202543685E+01  0.10199796277E+01 0.  0.
     999903    2    3    3    0    0  0.74450136275E-01  0.80854524033E-01 -0.62736264801E-01  0.12792097095E+00  0.18645617201E-01 0.  0.
         14    1    1    2    0    0  0.72995108848E-02  0.10472475887E-01 -0.19939406176E-01  0.23675631544E-01  0.00000000000E+00 0. -1.
     999901    1    3    3    0    0 -0.81749647160E-01 -0.91326999920E-01  0.82675670977E-01  0.89233339750E+00  0.88000000000E+00 0.  1.
        -11    1    4    4    0    0  0.13724614221E-01  0.18752803950E-01 -0.21921057861E-01  0.31950376997E-01  0.51100000000E-03 0.  1.
         11    1    4    4    0    0  0.60725522054E-01  0.62101720082E-01 -0.40815206940E-01  0.95970593957E-01  0.51100000000E-03 0. -1.
</event>
<event>
 8    1  0.1131349E+005  0.1043930E+01  0.7957747E-01            NaN
         13   -1    0    0    0    0  0.00000000000E+00  0.00000000000E+00  0.74505805969E-08  0.10566000000E+00  0.10566000000E+00 0. -1.
     999900   -1    0    0    0    0 -0.00000000000E+00 -0.00000000000E+00 -0.74505805969E-08  0.93827000000E+00  0.93827000000E+00 0.  1.
     999902    2    1    2    0    0  0.13526547905E-01 -0.11494169320E-01 -0.32663728771E-02  0.10258813818E+01  0.10257226023E+01 0.  0.
     999903    2    3    3    0    0 -0.11080461681E+00 -0.61970354457E-01  0.42146548213E-01  0.13455180350E+00  0.14486834004E-01 0.  0.
         14    1    1    2    0    0 -0.13526547905E-01  0.11494169320E-01  0.32663728771E-02  0.18048618184E-01  0.00000000000E+00 0.  1.
     999901    1    3    3    0    0  0.12433116472E+00  0.50476185137E-01 -0.45412921090E-01  0.89132957832E+00  0.88000000000E+00 0.  1.
        -11    1    4    4    0    0 -0.22593884716E-01 -0.68874859070E-02  0.52434100910E-02  0.24200734680E-01  0.51100000000E-03 0. -1.
         11    1    4    4    0    0 -0.88210732096E-01 -0.55082868550E-01  0.36903138122E-01  0.11035106882E+00  0.51100000000E-03 0.  1.
</event>
<event>
 8    1  0.1131349E+005  0.1043930E+01  0.7957747E-01            NaN
         13   -1    0    0    0    0  0.00000000000E+00  0.00000000000E+00  0.74505805969E-08  0.10566000000E+00  0.10566000000E+00 0. -1.
     999900   -1    0    0    0    0 -0.00000000000E+00 -0.00000000000E+00 -0.74505805969E-08  0.93827000000E+00  0.93827000000E+00 0. -1.
     999902    2    1    2    0    0  0.54856223780E-02  0.97502373020E-02 -0.21035296491E-01  0.10201047428E+01  0.10198264771E+01 0.  0.
     999903    2    3    3    0    0 -0.21534534252E-01  0.12793757487E+00 -0.11734756911E-01  0.13174398523E+00  0.19672668770E-01 0.  0.
         14    1    1    2    0    0 -0.54856223780E-02 -0.97502373020E-02  0.21035296491E-01  0.23825257161E-01  0.00000000000E+00 0. -1.
     999901    1    3    3    0    0  0.27020156630E-01 -0.11818733756E+00 -0.93005395804E-02  0.88836075761E+00  0.88000000000E+00 0. -1.
        -11    1    4    4    0    0 -0.69867534367E-02  0.26299647174E-01 -0.10176852305E-01  0.29057109438E-01  0.51100000000E-03 0.  1.
         11    1    4    4    0    0 -0.14547780815E-01  0.10163792769E+00 -0.15579046060E-02  0.10268687579E+00  0.51100000000E-03 0. -1.
</event>
<event>
 8    1  0.1131349E+005  0.1043930E+01  0.7957747E-01            NaN
         13   -1    0    0    0    0  0.00000000000E+00  0.00000000000E+00  0.74505805969E-08  0.10566000000E+00  0.10566000000E+00 0.  1.
     999900   -1    0    0    0    0 -0.00000000000E+00 -0.00000000000E+00 -0.74505805969E-08  0.93827000000E+00  0.93827000000E+00 0. -1.
     999902    2    1    2    0    0  0.10371741235E-01 -0.20311761564E-01  0.11690157079E-01  0.10183018817E+01  0.10179793327E+01 0.  0.
     999903    2    3    3    0    0  0.77739818922E-01 -0.36934089409E-01 -0.93666662198E-01  0.12930535808E+00  0.23212617565E-01 0.  0.
         14    1    1    2    0    0 -0.10371741235E-01  0.20311761564E-01 -0.11690157079E-01  0.25628118281E-01  0.00000000000E+00 0. -1.
     999901    1    3    3    0    0 -0.67368077687E-01  0.16622327845E-01  0.10535681928E+00  0.88899652364E+00  0.88000000000E+00 0.  1.
        -11    1    4    4    0    0  0.12777029788E-01 -0.16832254161E-01 -0.22033447094E-01  0.30533771175E-01  0.51100000000E-03 0. -1.
         11    1    4    4    0    0  0.64962789134E-01 -0.20101835248E-01 -0.71633215104E-01  0.98771586904E-01  0.51100000000E-03 0.  1.
</event>
<event>
 7    1  0.1322785E+005  0.1043930E+01  0.7957747E-01            NaN
         13   -1    0    0    0    0  0.00000000000E+00  0.00000000000E+00  0.74505805969E-08  0.10566000000E+00  0.10566000000E+00 0. -1.
     999900   -1    0    0    0    0 -0.00000000000E+00 -0.00000000000E+00 -0.74505805969E-08  0.93827000000E+00  0.93827000000E+00 0. -1.
     999903    2    1    2    0    0 -0.38583083378E-01  0.46968311432E-02  0.10241565252E+00  0.11139577109E+00  0.20232088156E-01 0.  0.
         14    1    1    2    0    0  0.18928940251E-01 -0.41803136997E-01 -0.45592752111E-02  0.46115008753E-01  0.00000000000E+00 0.  1.
     999901    1    1    2    0    0  0.19654143127E-01  0.37106305854E-01 -0.97856377308E-01  0.88641922015E+00  0.88000000000E+00 0. -1.
        -11    1    3    3    0    0 -0.26385922902E-01 -0.43902453654E-02  0.48687051757E-01  0.55553409540E-01  0.51100000000E-03 0.  1.
         11    1    3    3    0    0 -0.12197160476E-01  0.90870765086E-02  0.53728600761E-01  0.55842361554E-01  0.51100000000E-03 0. -1.
</event>
<event>
 8    1  0.1131349E+005  0.1043930E+01  0.7957747E-01            NaN
         13   -1    0    0    0    0  0.00000000000E+00  0.00000000000E+00  0.74505805969E-08  0.10566000000E+00  0.10566000000E+00 0. -1.
     999900   -1    0    0    0    0 -0.00000000000E+00 -0.00000000000E+00 -0.74505805969E-08  0.93827000000E+00  0.93827000000E+00 0. -1.
     999902    2    1    2    0    0 -0.36969757284E-01 -0.28395027493E-02 -0.13827978482E-02  0.10068255817E+01  0.10061416471E+01 0.  0.
     999903    2    3    3    0    0 -0.10141399210E+00  0.44009924987E-01 -0.48019525344E-01  0.12199626896E+00  0.18855862084E-01 0.  0.
         14    1    1    2    0    0  0.36969757284E-01  0.28395027493E-02  0.13827978482E-02  0.37104418327E-01  0.00000000000E+00 0.  1.
     999901    1    3    3    0    0  0.64444234819E-01 -0.46849427736E-01  0.46636727496E-01  0.88482931271E+00  0.88000000000E+00 0.  1.
        -11    1    4    4    0    0 -0.33772907374E-01  0.11741856045E-01 -0.24868368522E-01  0.43556599154E-01  0.51100000000E-03 0. -1.
         11    1    4    4    0    0 -0.67641084729E-01  0.32268068942E-01 -0.23151156821E-01  0.78439669809E-01  0.51100000000E-03 0.  1.
</event>
<event>
 8    1  0.1131349E+005  0.1043930E+01  0.7957747E-01            NaN
         13   -1    0    0    0    0  0.00000000000E+00  0.00000000000E+00  0.74505805969E-08  0.10566000000E+00  0.10566000000E+00 0. -1.
     999900   -1    0    0    0    0 -0.00000000000E+00 -0.00000000000E+00 -0.74505805969E-08  0.93827000000E+00  0.93827000000E+00 0. -1.
     999902    2    1    2    0    0  0.97615004390E-02 -0.19685064159E-01 -0.80164895135E-02  0.10205408413E+01  0.10202727851E+01 0.  0.
     999903    2    3    3    0    0 -0.93919727594E-02 -0.75780283083E-01  0.10517831711E+00  0.13131275278E+00  0.18700272653E-01 0.  0.
         14    1    1    2    0    0 -0.97615004390E-02  0.19685064159E-01  0.80164895135E-02  0.23389158725E-01  0.00000000000E+00 0.  1.
     999901    1    3    3    0    0  0.19153473198E-01  0.56095218924E-01 -0.11319480662E+00  0.88922808849E+00  0.88000000000E+00 0. -1.
        -11    1    4    4    0    0  0.54898728498E-02 -0.22400930019E-01  0.27550726700E-01  0.35933884180E-01  0.51100000000E-03 0.  1.
         11    1    4    4    0    0 -0.14881845609E-01 -0.53379353064E-01  0.77627590405E-01  0.95378868600E-01  0.51100000000E-03 0. -1.
</event>
<event>
 8    1  0.1131349E+005  0.1043930E+01  0.7957747E-01            NaN
         13   -1    0    0    0    0  0.00000000000E+00  0.00000000000E+00  0.74505805969E-08  0.10566000000E+00  0.10566000000E+00 0.  1.
     999900   -1    0    0    0    0 -0.00000000000E+00 -0.00000000000E+00 -0.74505805969E-08  0.93827000000E+00  0.93827000000E+00 0.  1.
     999902    2    1    2    0    0  0.11003557486E-01  0.19802301107E-01  0.71798299288E-02  0.10201653337E+01  0.10198884982E+01 0.  0.
     999903    2    3    3    0    0 -0.11057078435E+00  0.55190346175E-01 -0.35239757943E-01  0.13009114816E+00  0.20248299355E-01 0.  0.
         14    1    1    2    0    0 -0.11003557486E-01 -0.19802301107E-01 -0.71798299288E-02  0.23764666299E-01  0.00000000000E+00 0.  1.
     999901    1    3    3    0    0  0.12157434184E+00 -0.35388045068E-01  0.42419587871E-01  0.89007418554E+00  0.88000000000E+00 0.  1.
        -11    1    4    4    0    0 -0.25006679231E-01  0.11079176108E-01  0.61869776235E-03  0.27362859086E-01  0.51100000000E-03 0. -1.
         11    1    4    4    0    0 -0.85564105123E-01  0.44111170066E-01 -0.35858455705E-01  0.10272828908E+00  0.51100000000E-03 0.  1.
</event>
<event>
 8    1  0.1131349E+005  0.1043930E+01  0.7957747E-01            NaN
         13   -1    0    0    0    0  0.00000000000E+00  0.00000000000E+00  0.74505805969E-08  0.10566000000E+00  0.10566000000E+00 0. -1.
     999900   -1    0    0    0    0 -0.00000000000E+00 -0.00000000000E+00 -0.74505805969E-08  0.93827000000E+00  0.93827000000E+00 0.  1.
     999902    2    1    2    0    0 -0.22092013697E-01  0.69537061146E-02 -0.64766129161E-02  0.10198809332E+01  0.10195973521E+01 0.  0.
     999903    2    3    3    0    0  0.59257538509E-01  0.20517542932E-01  0.11016528970E+00  0.12836140974E+00  0.20194925503E-01 0.  0.
         14    1    1    2    0    0  0.22092013697E-01 -0.69537061146E-02  0.64766129161E-02  0.24049066775E-01  0.00000000000E+00 0.  1.
     999901    1    3    3    0    0 -0.81349552206E-01 -0.13563836818E-01 -0.11664190262E+00  0.89151952349E+00  0.88000000000E+00 0.  1.
        -11    1    4    4    0    0  0.20650685429E-01  0.80340280062E-02  0.21627952359E-01  0.30968142646E-01  0.51100000000E-03 0.  1.
         11    1    4    4    0    0  0.38606853081E-01  0.12483514926E-01  0.88537337344E-01  0.97393267091E-01  0.51100000000E-03 0. -1.
</event>
<event>
 8    1  0.1131349E+005  0.1043930E+01  0.7957747E-01            NaN
         13   -1    0    0    0    0  0.00000000000E+00  0.00000000000E+00  0.74505805969E-08  0.10566000000E+00  0.10566000000E+00 0. -1.
     999900   -1    0    0    0    0 -0.00000000000E+00 -0.00000000000E+00 -0.74505805969E-08  0.93827000000E+00  0.93827000000E+00 0. -1.
     999902    2    1    2    0    0  0.21920833655E-01  0.44144932277E-02  0.79559959249E-02  0.10201958775E+01  0.10199197615E+01 0.  0.
     999903    2    3    3    0    0 -0.10801243799E+00  0.46638176203E-01 -0.46188063337E-01  0.12800919659E+00  0.20278337598E-01 0.  0.
         14    1    1    2    0    0 -0.21920833655E-01 -0.44144932277E-02 -0.79559959249E-02  0.23734122477E-01  0.00000000000E+00 0. -1.
     999901    1    3    3    0    0  0.12993327165E+00 -0.42223682975E-01  0.54144059262E-01  0.89218668094E+00  0.88000000000E+00 0.  1.
        -11    1    4    4    0    0 -0.81691207655E-01  0.40369228055E-01 -0.43002247359E-01  0.10076002372E+00  0.51100000000E-03 0.  1.
         11    1    4    4    0    0 -0.26321230337E-01  0.62689481473E-02 -0.31858159786E-02  0.27249172864E-01  0.51100000000E-03 0. -1.
</event>
<event>
 8    1  0.1131349E+005  0.1043930E+01  0.7957747E-01            NaN
         13   -1    0    0    0    0  0.00000000000E+00  0.00000000000E+00  0.74505805969E-08  0.10566000000E+00  0.10566000000E+00 0.  1.
     999900   -1    0    0    0    0 -0.00000000000E+00 -0.00000000000E+00 -0.74505805969E-08  0.93827000000E+00  0.93827000000E+00 0. -1.
     999902    2    1    2    0    0 -0.21184237442E-01 -0.58840242709E-02  0.94272309315E-02  0.10200079110E+01  0.10197273519E+01 0.  0.
     999903    2    3    3    0    0  0.47800041330E-01  0.11197801988E+00  0.37807150716E-01  0.12902210193E+00  0.19834345337E-01 0.  0.
         14    1    1    2    0    0  0.21184237442E-01  0.58840242709E-02 -0.94272309315E-02  0.23922088970E-01  0.00000000000E+00 0. -1.
     999901    1    3    3    0    0 -0.68984278773E-01 -0.11786204415E+00 -0.28379919784E-01  0.89098580910E+00  0.88000000000E+00 0. -1.
        -11    1    4    4    0    0  0.33961434698E-01  0.87536360519E-01  0.36989467749E-01  0.10091816142E+00  0.51100000000E-03 0. -1.
         11    1    4    4    0    0  0.13838606633E-01  0.24441659357E-01  0.81768296700E-03  0.28103940508E-01  0.51100000000E-03 0.  1.
</event>
<event>
 8    1  0.1131349E+005  0.1043930E+01  0.7957747E-01            NaN
         13   -1    0    0    0    0  0.00000000000E+00  0.00000000000E+00  0.74505805969E-08  0.10566000000E+00  0.10566000000E+00 0. -1.
     999900   -1    0    0    0    0 -0.00000000000E+00 -0.00000000000E+00 -0.74505805969E-08  0.93827000000E+00  0.93827000000E+00 0.  1.
     999902    2    1    2    0    0 -0.16212664844E-01  0.15889506592E-01  0.65987038043E-02  0.10202895725E+01  0.10200156577E+01 0.  0.
     999903    2    3    3    0    0 -0.51822568625E-01  0.12102537562E+00 -0.56766207235E-03  0.13328733292E+00  0.20795930216E-01 0.  0.
         14    1    1    2    0    0  0.16212664844E-01 -0.15889506592E-01 -0.65987038043E-02  0.23640427512E-01  0.00000000000E+00 0.  1.
     999901    1    3    3    0    0  0.35609903781E-01 -0.10513586903E+00  0.71663658766E-02  0.88700223957E+00  0.88000000000E+00 0. -1.
        -11    1    4    4    0    0 -0.33147604834E-01  0.85310644706E-01 -0.94571778236E-02  0.92012874859E-01  0.51100000000E-03 0.  1.
         11    1    4    4    0    0 -0.18674963791E-01  0.35714730912E-01  0.88895157512E-02  0.41274458058E-01  0.51100000000E-03 0. -1.
</event>
<event>
 8    1  0.1131349E+005  0.1043930E+01  0.7957747E-01            NaN
         13   -1    0    0    0    0  0.00000000000E+00  0.00000000000E+00  0.74505805969E-08  0.10566000000E+00  0.10566000000E+00 0. -1.
     999900   -1    0    0    0    0 -0.00000000000E+00 -0.00000000000E+00 -0.74505805969E-08  0.93827000000E+00  0.93827000000E+00 0.  1.
     999902    2    1    2    0    0 -0.12436977218E-01  0.19809661149E-01 -0.52196382786E-02  0.10199644893E+01  0.10196828987E+01 0.  0.
     999903    2    3    3    0    0 -0.75131228521E-01  0.10376559023E+00  0.30910032041E-01  0.13301211168E+00  0.18022002012E-01 0.  0.
         14    1    1    2    0    0  0.12436977218E-01 -0.19809661149E-01  0.52196382786E-02  0.23965510655E-01  0.00000000000E+00 0. -1.
     999901    1    3    3    0    0  0.62694251303E-01 -0.83955929083E-01 -0.36129670320E-01  0.88695237767E+00  0.88000000000E+00 0.  1.
        -11    1    4    4    0    0 -0.52195263862E-01  0.57277940352E-01  0.16979187424E-01  0.79332603305E-01  0.51100000000E-03 0. -1.
         11    1    4    4    0    0 -0.22935964659E-01  0.46487649881E-01  0.13930844617E-01  0.53679508371E-01  0.51100000000E-03 0.  1.
</event>
<event>
 8    1  0.1131349E+005  0.1043930E+01  0.7957747E-01            NaN
         13   -1    0    0    0    0  0.00000000000E+00  0.00000000000E+00  0.74505805969E-08  0.10566000000E+00  0.10566000000E+00 0. -1.
     999900   -1    0    0    0    0 -0.00000000000E+00 -0.00000000000E+00 -0.74505805969E-08  0.93827000000E+00  0.93827000000E+00 0.  1.
     999902    2    1    2    0    0 -0.31920232628E-01  0.26702676512E-02 -0.56612648409E-02  0.10114018353E+01  0.10108786232E+01 0.  0.
     999903    2    3    3    0    0 -0.10197376244E+00  0.39604918924E-01 -0.59604167667E-01  0.12620044448E+00  0.20166743796E-01 0.  0.
         14    1    1    2    0    0  0.31920232628E-01 -0.26702676512E-02  0.56612648409E-02  0.32528164719E-01  0.00000000000E+00 0.  1.
     999901    1    3    3    0    0  0.70053529813E-01 -0.36934651272E-01  0.53942902826E-01  0.88520139080E+00  0.88000000000E+00 0.  1.
        -11    1    4    4    0    0 -0.69906360504E-01  0.17534203137E-01 -0.42554521924E-01  0.83698840946E-01  0.51100000000E-03 0.  1.
         11    1    4    4    0    0 -0.32067401938E-01  0.22070715786E-01 -0.17049645742E-01  0.42501603538E-01  0.51100000000E-03 0. -1.
</event>
<event>
 8    1  0.1131349E+005  0.1043930E+01  0.7957747E-01            NaN
         13   -1    0    0    0    0  0.00000000000E+00  0.00000000000E+00  0.74505805969E-08  0.10566000000E+00  0.10566000000E+00 0.  1.
     999900   -1    0    0    0    0 -0.00000000000E+00 -0.00000000000E+00 -0.74505805969E-08  0.93827000000E+00  0.93827000000E+00 0. -1.
     999902    2    1    2    0    0 -0.22080885532E-01  0.77378735518E-02  0.20490121747E-02  0.10204430112E+01  0.10201726817E+01 0.  0.
     999903    2    3    3    0    0 -0.68143535943E-01  0.10976423944E+00  0.24686426371E-01  0.13306282230E+00  0.20113808214E-01 0.  0.
         14    1    1    2    0    0  0.22080885532E-01 -0.77378735518E-02 -0.20490121747E-02  0.23486988821E-01  0.00000000000E+00 0.  1.
     999901    1    3    3    0    0  0.46062650411E-01 -0.10202636588E+00 -0.22637414196E-01  0.88738018888E+00  0.88000000000E+00 0. -1.
        -11    1    4    4    0    0 -0.16413038379E-01  0.15386029238E-01  0.92697518810E-02  0.24337361104E-01  0.51100000000E-03 0. -1.
         11    1    4    4    0    0 -0.51730497563E-01  0.94378210198E-01  0.15416674490E-01  0.10872546119E+00  0.51100000000E-03 0.  1.
</event>
<event>
 8    1  0.1131349E+005  0.1043930E+01  0.7957747E-01            NaN
         13   -1    0    0    0    0  0.00000000000E+00  0.00000000000E+00  0.74505805969E-08  0.10566000000E+00  0.10566000000E+00 0.  1.
     999900   -1    0    0    0    0 -0.00000000000E+00 -0.00000000000E+00 -0.74505805969E-08  0.93827000000E+00  0.93827000000E+00 0.  1.
     999902    2    1    2    0    0 -0.17656963096E-02 -0.27664510921E-01 -0.16268255549E-01  0.10117881428E+01  0.10112774826E+01 0.  0.
     999903    2    3    3    0    0  0.62884239551E-01 -0.10630411023E+00 -0.12689508474E-01  0.12591196168E+00  0.20923838850E-01 0.  0.
         14    1    1    2    0    0  0.17656963096E-02  0.27664510921E-01  0.16268255549E-01  0.32141857236E-01  0.00000000000E+00 0. -1.
     999901    1    3    3    0    0 -0.64649935860E-01  0.78639599311E-01 -0.35787470755E-02  0.88587618109E+00  0.88000000000E+00 0. -1.
        -11    1    4    4    0    0  0.45125717289E-01 -0.79563847647E-01 -0.18401202952E-01  0.93303813450E-01  0.51100000000E-03 0. -1.
         11    1    4    4    0    0  0.17758522262E-01 -0.26740262585E-01  0.57116944787E-02  0.32608148228E-01  0.51100000000E-03 0.  1.
</event>
<event>
 8    1  0.1131349E+005  0.1043930E+01  0.7957747E-01            NaN
         13   -1    0    0    0    0  0.00000000000E+00  0.00000000000E+00  0.74505805969E-08  0.10566000000E+00  0.10566000000E+00 0. -1.
     999900   -1    0    0    0    0 -0.00000000000E+00 -0.00000000000E+00 -0.74505805969E-08  0.93827000000E+00  0.93827000000E+00 0. -1.
     999902    2    1    2    0    0  0.95293968450E-03  0.42072528686E-02  0.23110035476E-01  0.10204207931E+01  0.10201499459E+01 0.  0.
     999903    2    3    3    0    0 -0.16028180311E-01 -0.32225595635E-01  0.12687227212E+00  0.13341328880E+00  0.20177725744E-01 0.  0.
         14    1    1    2    0    0 -0.95293968450E-03 -0.42072528686E-02 -0.23110035476E-01  0.23509206929E-01  0.00000000000E+00 0.  1.
     999901    1    3    3    0    0  0.16981119995E-01  0.36432848503E-01 -0.10376223664E+00  0.88700750427E+00  0.88000000000E+00 0. -1.
        -11    1    4    4    0    0  0.52162678012E-03 -0.18202421822E-01  0.75101592293E-01  0.77279431550E-01  0.51100000000E-03 0. -1.
         11    1    4    4    0    0 -0.16549807091E-01 -0.14023173813E-01  0.51770679827E-01  0.56133857246E-01  0.51100000000E-03 0.  1.
</event>
<event>
 8    1  0.1131349E+005  0.1043930E+01  0.7957747E-01            NaN
         13   -1    0    0    0    0  0.00000000000E+00  0.00000000000E+00  0.74505805969E-08  0.10566000000E+00  0.10566000000E+00 0.  1.
     999900   -1    0    0    0    0 -0.00000000000E+00 -0.00000000000E+00 -0.74505805969E-08  0.93827000000E+00  0.93827000000E+00 0.  1.
     999902    2    1    2    0    0 -0.43291515086E-02 -0.22568138824E-01 -0.73265368403E-03  0.10209387142E+01  0.10206798023E+01 0.  0.
     999903    2    3    3    0    0 -0.81697966973E-01  0.43753563507E-01 -0.89736574485E-01  0.13059821766E+00  0.20354594771E-01 0.  0.
         14    1    1    2    0    0  0.43291515086E-02  0.22568138824E-01  0.73265368403E-03  0.22991285832E-01  0.00000000000E+00 0. -1.
     999901    1    3    3    0    0  0.77368815464E-01 -0.66321702331E-01  0.89003920801E-01  0.89034049651E+00  0.88000000000E+00 0. -1.
        -11    1    4    4    0    0 -0.61824964371E-01  0.27660691202E-01 -0.75089098254E-01  0.10112405181E+00  0.51100000000E-03 0.  1.
         11    1    4    4    0    0 -0.19873002602E-01  0.16092872305E-01 -0.14647476231E-01  0.29474165847E-01  0.51100000000E-03 0. -1.
</event>
<event>
 8    1  0.1131349E+005  0.1043930E+01  0.7957747E-01            NaN
         13   -1    0    0    0    0  0.00000000000E+00  0.00000000000E+00  0.74505805969E-08  0.10566000000E+00  0.10566000000E+00 0.  1.
     999900   -1    0    0    0    0 -0.00000000000E+00 -0.00000000000E+00 -0.74505805969E-08  0.93827000000E+00  0.93827000000E+00 0. -1.
     999902    2    1    2    0    0  0.20033232232E-01 -0.48013379458E-02  0.63990731712E-02  0.10223584591E+01  0.10221308563E+01 0.  0.
     999903    2    3    3    0    0 -0.50620156885E-01  0.11850271067E+00  0.11993733086E-01  0.13093987615E+00  0.19902482585E-01 0.  0.
         14    1    1    2    0    0 -0.20033232232E-01  0.48013379458E-02 -0.63990731712E-02  0.21571540909E-01  0.00000000000E+00 0. -1.
     999901    1    3    3    0    0  0.70653389116E-01 -0.12330404862E+00 -0.55946599148E-02  0.89141858294E+00  0.88000000000E+00 0. -1.
        -11    1    4    4    0    0 -0.23530350481E-01  0.43291584280E-01  0.13108090929E-01  0.50989428630E-01  0.51100000000E-03 0.  1.
         11    1    4    4    0    0 -0.27089806403E-01  0.75211126390E-01 -0.11143578427E-02  0.79950447517E-01  0.51100000000E-03 0. -1.
</event>
<event>
 8    1  0.1131349E+005  0.1043930E+01  0.7957747E-01            NaN
         13   -1    0    0    0    0  0.00000000000E+00  0.00000000000E+00  0.74505805969E-08  0.10566000000E+00  0.10566000000E+00 0.  1.
     999900   -1    0    0    0    0 -0.00000000000E+00 -0.00000000000E+00 -0.74505805969E-08  0.93827000000E+00  0.93827000000E+00 0. -1.
     999902    2    1    2    0    0 -0.37401557953E-02  0.41533381990E-02  0.23293724064E-01  0.10199751140E+01  0.10196937759E+01 0.  0.
     999903    2    3    3    0    0 -0.87935907211E-01 -0.29463773228E-01 -0.86589778591E-01  0.12851932770E+00  0.20459475200E-01 0.  0.
         14    1    1    2    0    0  0.37401557953E-02 -0.41533381990E-02 -0.23293724064E-01  0.23954886022E-01  0.00000000000E+00 0. -1.
     999901    1    3    3    0    0  0.84195751416E-01  0.33617111427E-01  0.10988350265E+00  0.89145578628E+00  0.88000000000E+00 0.  1.
        -11    1    4    4    0    0 -0.33647850674E-01 -0.13449149643E-02 -0.27318358252E-01  0.43365198833E-01  0.51100000000E-03 0.  1.
         11    1    4    4    0    0 -0.54288056537E-01 -0.28118858264E-01 -0.59271420339E-01  0.85154128864E-01  0.51100000000E-03 0. -1.
</event>
<event>
 8    1  0.1131349E+005  0.1043930E+01  0.7957747E-01            NaN
         13   -1    0    0    0    0  0.00000000000E+00  0.00000000000E+00  0.74505805969E-08  0.10566000000E+00  0.10566000000E+00 0. -1.
     999900   -1    0    0    0    0 -0.00000000000E+00 -0.00000000000E+00 -0.74505805969E-08  0.93827000000E+00  0.93827000000E+00 0.  1.
     999902    2    1    2    0    0  0.26737529635E-02  0.13675371658E-01 -0.24026189500E-01  0.10161555058E+01  0.10157758559E+01 0.  0.
     999903    2    3    3    0    0 -0.12891195068E-01 -0.11068736025E+00 -0.56781018494E-01  0.12667181541E+00  0.20094529808E-01 0.  0.
         14    1    1    2    0    0 -0.26737529635E-02 -0.13675371658E-01  0.24026189500E-01  0.27774494177E-01  0.00000000000E+00 0. -1.
     999901    1    3    3    0    0  0.15564948031E-01  0.12436273191E+00  0.32754828994E-01  0.88948369042E+00  0.88000000000E+00 0.  1.
        -11    1    4    4    0    0 -0.73155395413E-02 -0.97798118641E-01 -0.55173978775E-01  0.11252741081E+00  0.51100000000E-03 0.  1.
         11    1    4    4    0    0 -0.55756555266E-02 -0.12889241607E-01 -0.16070397186E-02  0.14144404598E-01  0.51100000000E-03 0. -1.
</event>
<event>
 8    1  0.1131349E+005  0.1043930E+01  0.7957747E-01            NaN
         13   -1    0    0    0    0  0.00000000000E+00  0.00000000000E+00  0.74505805969E-08  0.10566000000E+00  0.10566000000E+00 0.  1.
     999900   -1    0    0    0    0 -0.00000000000E+00 -0.00000000000E+00 -0.74505805969E-08  0.93827000000E+00  0.93827000000E+00 0. -1.
     999902    2    1    2    0    0  0.20795533599E-01  0.27506737438E-01 -0.56421095352E-02  0.10089885029E+01  0.10083833054E+01 0.  0.
     999903    2    3    3    0    0  0.11306263036E+00  0.37050191869E-01 -0.27778160163E-01  0.12383636938E+00  0.20197650822E-01 0.  0.
         14    1    1    2    0    0 -0.20795533599E-01 -0.27506737438E-01  0.56421095352E-02  0.34941497137E-01  0.00000000000E+00 0.  1.
     999901    1    3    3    0    0 -0.92267096759E-01 -0.95434544305E-02  0.22136050628E-01  0.88515213348E+00  0.88000000000E+00 0.  1.
        -11    1    4    4    0    0  0.79381734139E-01  0.17501248315E-01 -0.23716409116E-01  0.84678702103E-01  0.51100000000E-03 0.  1.
         11    1    4    4    0    0  0.33680896220E-01  0.19548943554E-01 -0.40617510472E-02  0.39157667280E-01  0.51100000000E-03 0. -1.
</event>
<event>
 8    1  0.1131349E+005  0.1043930E+01  0.7957747E-01            NaN
         13   -1    0    0    0    0  0.00000000000E+00  0.00000000000E+00  0.74505805969E-08  0.10566000000E+00  0.10566000000E+00 0. -1.
     999900   -1    0    0    0    0 -0.00000000000E+00 -0.00000000000E+00 -0.74505805969E-08  0.93827000000E+00  0.93827000000E+00 0.  1.
     999902    2    1    2    0    0 -0.14358386312E-01 -0.19550581530E-01 -0.46302412206E-02  0.10192353117E+01  0.10189361084E+01 0.  0.
     999903    2    3    3    0    0 -0.14355615430E-01 -0.12066729861E+00  0.47316613485E-01  0.13192304076E+00  0.19953599238E-01 0.  0.
         14    1    1    2    0    0  0.14358386312E-01  0.19550581530E-01  0.46302412206E-02  0.24694688283E-01  0.00000000000E+00 0.  1.
     999901    1    3    3    0    0 -0.27708820989E-05  0.10111671708E+00 -0.51946854705E-01  0.88731227096E+00  0.88000000000E+00 0. -1.
        -11    1    4    4    0    0 -0.86398365481E-02 -0.15879927689E-01  0.90143266323E-02  0.20207376985E-01  0.51100000000E-03 0. -1.
         11    1    4    4    0    0 -0.57157788822E-02 -0.10478737092E+00  0.38302286852E-01  0.11171566377E+00  0.51100000000E-03 0.  1.
</event>
<event>
 8    1  0.1131349E+005  0.1043930E+01  0.7957747E-01            NaN
         13   -1    0    0    0    0  0.00000000000E+00  0.00000000000E+00  0.74505805969E-08  0.10566000000E+00  0.10566000000E+00 0.  1.
     999900   -1    0    0    0    0 -0.00000000000E+00 -0.00000000000E+00 -0.74505805969E-08  0.93827000000E+00  0.93827000000E+00 0. -1.
     999902    2    1    2    0    0 -0.62685390384E-02 -0.99760798420E-02 -0.18956527134E-01  0.10216103523E+01  0.10213665088E+01 0.  0.
     999903    2    3    3    0    0 -0.11354342046E+00 -0.38871788989E-01 -0.55851826026E-01  0.13385806410E+00  0.19885435503E-01 0.  0.
         14    1    1    2    0    0  0.62685390384E-02  0.99760798420E-02  0.18956527134E-01  0.22319647660E-01  0.00000000000E+00 0.  1.
     999901    1    3    3    0    0  0.10727488142E+00  0.28895709147E-01  0.36895298892E-01  0.88775228824E+00  0.88000000000E+00 0. -1.
        -11    1    4    4    0    0 -0.75575721576E-01 -0.32133528565E-01 -0.30011790406E-01  0.87436960343E-01  0.51100000000E-03 0. -1.
         11    1    4    4    0    0 -0.37967698887E-01 -0.67382604243E-02 -0.25840035621E-01  0.46421103759E-01  0.51100000000E-03 0.  1.
</event>
<event>
 8    1  0.1131349E+005  0.1043930E+01  0.7957747E-01            NaN
         13   -1    0    0    0    0  0.00000000000E+00  0.00000000000E+00  0.74505805969E-08  0.10566000000E+00  0.10566000000E+00 0.  1.
     999900   -1    0    0    0    0 -0.00000000000E+00 -0.00000000000E+00 -0.74505805969E-08  0.93827000000E+00  0.93827000000E+00 0.  1.
     999902    2    1    2    0    0 -0.11221650642E-01  0.58504487529E-02  0.19697595334E-01  0.10205174295E+01  0.10202488302E+01 0.  0.
     999903    2    3    3    0    0  0.67004946091E-02  0.87215856851E-01  0.98746768881E-01  0.13305458256E+00  0.17352096748E-01 0.  0.
         14    1    1    2    0    0  0.11221650642E-01 -0.58504487529E-02 -0.19697595334E-01  0.23412570463E-01  0.00000000000E+00 0. -1.
     999901    1    3    3    0    0 -0.17922145251E-01 -0.81365408098E-01 -0.79049173547E-01  0.88746284698E+00  0.88000000000E+00 0.  1.
        -11    1    4    4    0    0 -0.20376705910E-02  0.31242539524E-01  0.46008596516E-01  0.55653395689E-01  0.51100000000E-03 0. -1.
         11    1    4    4    0    0  0.87381652001E-02  0.55973317327E-01  0.52738172365E-01  0.77401186871E-01  0.51100000000E-03 0.  1.
</event>
<event>
 8    1  0.1131349E+005  0.1043930E+01  0.7957747E-01            NaN
         13   -1    0    0    0    0  0.00000000000E+00  0.00000000000E+00  0.74505805969E-08  0.10566000000E+00  0.10566000000E+00 0.  1.
     999900   -1    0    0    0    0 -0.00000000000E+00 -0.00000000000E+00 -0.74505805969E-08  0.93827000000E+00  0.93827000000E+00 0. -1.
     999902    2    1    2    0    0 -0.22250093914E-01 -0.88914603400E-02 -0.36690654148E-02  0.10196898105E+01  0.10194016494E+01 0.  0.
     999903    2    3    3    0    0 -0.63678312525E-01 -0.66904712016E-01 -0.92587777183E-01  0.13234074053E+00  0.20258507947E-01 0.  0.
         14    1    1    2    0    0  0.22250093914E-01  0.88914603400E-02  0.36690654148E-02  0.24240189504E-01  0.00000000000E+00 0. -1.
     999901    1    3    3    0    0  0.41428218610E-01  0.58013251676E-01  0.88918711769E-01  0.88734906997E+00  0.88000000000E+00 0.  1.
        -11    1    4    4    0    0 -0.60729931177E-02 -0.16262192955E-01 -0.22636602091E-01  0.28530983866E-01  0.51100000000E-03 0.  1.
         11    1    4    4    0    0 -0.57605319407E-01 -0.50642519061E-01 -0.69951175092E-01  0.10380975666E+00  0.51100000000E-03 0. -1.
</event>
<event>
 8    1  0.1131349E+005  0.1043930E+01  0.7957747E-01            NaN
         13   -1    0    0    0    0  0.00000000000E+00  0.00000000000E+00  0.74505805969E-08  0.10566000000E+00  0.10566000000E+00 0.  1.
     999900   -1    0    0    0    0 -0.00000000000E+00 -0.00000000000E+00 -0.74505805969E-08  0.93827000000E+00  0.93827000000E+00 0.  1.
     999902    2    1    2    0    0 -0.20821578349E-01  0.10513653500E-01  0.60364622764E-02  0.10198361437E+01  0.10195514926E+01 0.  0.
     999903    2    3    3    0    0  0.10039691390E+00 -0.56613253341E-01  0.49171742536E-01  0.12795016618E+00  0.25860858193E-01 0.  0.
         14    1    1    2    0    0  0.20821578349E-01 -0.10513653500E-01 -0.60364622764E-02  0.24093856306E-01  0.00000000000E+00 0.  1.
     999901    1    3    3    0    0 -0.12121849225E+00  0.67126906840E-01 -0.43135280259E-01  0.89188597752E+00  0.88000000000E+00 0. -1.
        -11    1    4    4    0    0  0.68800104888E-01 -0.31307728835E-01  0.43095946452E-01  0.87012355668E-01  0.51100000000E-03 0. -1.
         11    1    4    4    0    0  0.31596809013E-01 -0.25305524506E-01  0.60757960842E-02  0.40937810510E-01  0.51100000000E-03 0.  1.
</event>
<event>
 8    1  0.1131349E+005  0.1043930E+01  0.7957747E-01            NaN
         13   -1    0    0    0    0  0.00000000000E+00  0.00000000000E+00  0.74505805969E-08  0.10566000000E+00  0.10566000000E+00 0.  1.
     999900   -1    0    0    0    0 -0.00000000000E+00 -0.00000000000E+00 -0.74505805969E-08  0.93827000000E+00  0.93827000000E+00 0. -1.
     999902    2    1    2    0    0  0.11665730944E-01 -0.17078662644E-01 -0.11744039192E-01  0.10201457100E+01  0.10198684117E+01 0.  0.
     999903    2    3    3    0    0 -0.13760880738E-02  0.12080206706E+00  0.36698671978E-01  0.12799780690E+00  0.21014590680E-01 0.  0.
         14    1    1    2    0    0 -0.11665730944E-01  0.17078662644E-01  0.11744039192E-01  0.23784290040E-01  0.00000000000E+00 0. -1.
     999901    1    3    3    0    0  0.13041819018E-01 -0.13788072971E+00 -0.48442711170E-01  0.89214790306E+00  0.88000000000E+00 0. -1.
        -11    1    4    4    0    0 -0.73497106347E-02  0.94189407525E-01  0.34689222007E-01  0.10064425458E+00  0.51100000000E-03 0. -1.
         11    1    4    4    0    0  0.59736225609E-02  0.26612659537E-01  0.20094499717E-02  0.27353552316E-01  0.51100000000E-03 0.  1.
</event>
<event>
 8    1  0.1131349E+005  0.1043930E+01  0.7957747E-01            NaN
         13   -1    0    0    0    0  0.00000000000E+00  0.00000000000E+00  0.74505805969E-08  0.10566000000E+00  0.10566000000E+00 0. -1.
     999900   -1    0    0    0    0 -0.00000000000E+00 -0.00000000000E+00 -0.74505805969E-08  0.93827000000E+00  0.93827000000E+00 0.  1.
     999902    2    1    2    0    0  0.18815356714E-01 -0.92733933729E-02  0.80110256184E-02  0.10214758243E+01  0.10212289996E+01 0.  0.
     999903    2    3    3    0    0  0.16265220164E-01  0.12393250178E+00  0.33549613888E-01  0.13108123025E+00  0.20806007485E-01 0.  0.
         14    1    1    2    0    0 -0.18815356714E-01  0.92733933729E-02 -0.80110256184E-02  0.22454175656E-01  0.00000000000E+00 0.  1.
     999901    1    3    3    0    0  0.25501365492E-02 -0.13320589515E+00 -0.25538588270E-01  0.89039459409E+00  0.88000000000E+00 0.  1.
        -11    1    4    4    0    0  0.14183497252E-01  0.97896704303E-01  0.17601161554E-01  0.10047386883E+00  0.51100000000E-03 0.  1.
         11    1    4    4    0    0  0.20817229126E-02  0.26035797478E-01  0.15948452334E-01  0.30607361426E-01  0.51100000000E-03 0. -1.
</event>
<event>
 8    1  0.1131349E+005  0.1043930E+01  0.7957747E-01            NaN
         13   -1    0    0    0    0  0.00000000000E+00  0.00000000000E+00  0.74505805969E-08  0.10566000000E+00  0.10566000000E+00 0.  1.
     999900   -1    0    0    0    0 -0.00000000000E+00 -0.00000000000E+00 -0.74505805969E-08  0.93827000000E+00  0.93827000000E+00 0. -1.
     999902    2    1    2    0    0 -0.13068050767E-01 -0.95666262459E-02  0.17585558403E-01  0.10200229685E+01  0.10197427667E+01 0.  0.
     999903    2    3    3    0    0  0.83671471337E-01 -0.57043413087E-01 -0.76237102058E-01  0.12849883985E+00  0.21094786586E-01 0.  0.
         14    1    1    2    0    0  0.13068050767E-01  0.95666262459E-02 -0.17585558403E-01  0.23907031454E-01  0.00000000000E+00 0. -1.
     999901    1    3    3    0    0 -0.96739522104E-01  0.47476786841E-01  0.93822660461E-01  0.89152412869E+00  0.88000000000E+00 0.  1.
        -11    1    4    4    0    0  0.27893816980E-01 -0.92367884570E-02 -0.28161788540E-01  0.40702957405E-01  0.51100000000E-03 0. -1.
         11    1    4    4    0    0  0.55777654357E-01 -0.47806624630E-01 -0.48075313518E-01  0.87795882449E-01  0.51100000000E-03 0.  1.
</event>
<event>
 8    1  0.1131349E+005  0.1043930E+01  0.7957747E-01            NaN
         13   -1    0    0    0    0  0.00000000000E+00  0.00000000000E+00  0.74505805969E-08  0.10566000000E+00  0.10566000000E+00 0. -1.
     999900   -1    0    0    0    0 -0.00000000000E+00 -0.00000000000E+00 -0.74505805969E-08  0.93827000000E+00  0.93827000000E+00 0.  1.
     999902    2    1    2    0    0  0.71037791160E-03  0.18193643712E-01  0.16074833777E-01  0.10196418632E+01  0.10193525473E+01 0.  0.
     999903    2    3    3    0    0  0.12609176926E+00 -0.22754659373E-01  0.21466741205E-02  0.12970296055E+00  0.20033496139E-01 0.  0.
         14    1    1    2    0    0 -0.71037791160E-03 -0.18193643712E-01 -0.16074833777E-01  0.24288136801E-01  0.00000000000E+00 0.  1.
     999901    1    3    3    0    0 -0.12538139135E+00  0.40948303085E-01  0.13928159657E-01  0.88993890265E+00  0.88000000000E+00 0. -1.
        -11    1    4    4    0    0  0.33292305356E-01 -0.74002450739E-02 -0.81783262045E-02  0.35075452436E-01  0.51100000000E-03 0. -1.
         11    1    4    4    0    0  0.92799463901E-01 -0.15354414299E-01  0.10325000325E-01  0.94627508112E-01  0.51100000000E-03 0.  1.
</event>
<event>
 8    1  0.1131349E+005  0.1043930E+01  0.7957747E-01            NaN
         13   -1    0    0    0    0  0.00000000000E+00  0.00000000000E+00  0.74505805969E-08  0.10566000000E+00  0.10566000000E+00 0. -1.
     999900   -1    0    0    0    0 -0.00000000000E+00 -0.00000000000E+00 -0.74505805969E-08  0.93827000000E+00  0.93827000000E+00 0. -1.
     999902    2    1    2    0    0 -0.53117563542E-02  0.15949923683E-01 -0.18228952140E-01  0.10191326308E+01  0.10188309034E+01 0.  0.
     999903    2    3    3    0    0  0.15445006861E-01 -0.11043104826E+00  0.56935832495E-01  0.12669062257E+00  0.19371633081E-01 0.  0.
         14    1    1    2    0    0  0.53117563542E-02 -0.15949923683E-01  0.18228952140E-01  0.24797369158E-01  0.00000000000E+00 0. -1.
     999901    1    3    3    0    0 -0.20756763215E-01  0.12638097194E+00 -0.75164784635E-01  0.89244200828E+00  0.88000000000E+00 0. -1.
        -11    1    4    4    0    0 -0.38505440115E-03 -0.63532424918E-01  0.35114791720E-01  0.72593574105E-01  0.51100000000E-03 0.  1.
         11    1    4    4    0    0  0.15830061262E-01 -0.46898623338E-01  0.21821040775E-01  0.54097048460E-01  0.51100000000E-03 0. -1.
</event>
<event>
 8    1  0.1131349E+005  0.1043930E+01  0.7957747E-01            NaN
         13   -1    0    0    0    0  0.00000000000E+00  0.00000000000E+00  0.74505805969E-08  0.10566000000E+00  0.10566000000E+00 0.  1.
     999900   -1    0    0    0    0 -0.00000000000E+00 -0.00000000000E+00 -0.74505805969E-08  0.93827000000E+00  0.93827000000E+00 0. -1.
     999902    2    1    2    0    0 -0.23256317659E-01  0.37920478038E-02 -0.57614925459E-02  0.10196724087E+01  0.10193838288E+01 0.  0.
     999903    2    3    3    0    0 -0.24581755367E-01 -0.10268143454E+00 -0.73695870061E-01  0.13065416434E+00  0.22174077159E-01 0.  0.
         14    1    1    2    0    0  0.23256317659E-01 -0.37920478038E-02  0.57614925459E-02  0.24257591264E-01  0.00000000000E+00 0. -1.
     999901    1    3    3    0    0  0.13254377082E-02  0.10647348235E+00  0.67934377515E-01  0.88901824440E+00  0.88000000000E+00 0.  1.
        -11    1    4    4    0    0 -0.61102990113E-02 -0.68292961928E-01 -0.51429360130E-01  0.85711753029E-01  0.51100000000E-03 0.  1.
         11    1    4    4    0    0 -0.18471456356E-01 -0.34388472614E-01 -0.22266509931E-01  0.44942411307E-01  0.51100000000E-03 0. -1.
</event>
<event>
 8    1  0.1131349E+005  0.1043930E+01  0.7957747E-01            NaN
         13   -1    0    0    0    0  0.00000000000E+00  0.00000000000E+00  0.74505805969E-08  0.10566000000E+00  0.10566000000E+00 0. -1.
     999900   -1    0    0    0    0 -0.00000000000E+00 -0.00000000000E+00 -0.74505805969E-08  0.93827000000E+00  0.93827000000E+00 0.  1.
     999902    2    1    2    0    0 -0.51871792699E-02 -0.13584970606E-01 -0.18635020823E-01  0.10202926935E+01  0.10200188519E+01 0.  0.
     999903    2    3    3    0    0  0.98072578274E-01  0.70716299972E-01  0.37685426079E-01  0.12847361185E+00  0.21592867140E-01 0.  0.
         14    1    1    2    0    0  0.51871792699E-02  0.13584970606E-01  0.18635020823E-01  0.23637306450E-01  0.00000000000E+00 0. -1.
     999901    1    3    3    0    0 -0.10325975754E+00 -0.84301270578E-01 -0.56320446902E-01  0.89181908170E+00  0.88000000000E+00 0. -1.
        -11    1    4    4    0    0  0.70642385594E-01  0.55621807146E-01  0.18645717310E-01  0.91826227014E-01  0.51100000000E-03 0. -1.
         11    1    4    4    0    0  0.27430192680E-01  0.15094492826E-01  0.19039708769E-01  0.36647384834E-01  0.51100000000E-03 0.  1.
</event>
<event>
 8    1  0.1131349E+005  0.1043930E+01  0.7957747E-01            NaN
         13   -1    0    0    0    0  0.00000000000E+00  0.00000000000E+00  0.74505805969E-08  0.10566000000E+00  0.10566000000E+00 0. -1.
     999900   -1    0    0    0    0 -0.00000000000E+00 -0.00000000000E+00 -0.74505805969E-08  0.93827000000E+00  0.93827000000E+00 0. -1.
     999902    2    1    2    0    0 -0.12316381963E-01 -0.19905354090E-01 -0.32204248588E-02  0.10203018913E+01  0.10200282652E+01 0.  0.
     999903    2    3    3    0    0  0.59846151510E-01  0.11120014267E+00 -0.18517976645E-02  0.12766649220E+00  0.18662006796E-01 0.  0.
         14    1    1    2    0    0  0.12316381963E-01  0.19905354090E-01  0.32204248588E-02  0.23628108734E-01  0.00000000000E+00 0. -1.
     999901    1    3    3    0    0 -0.72162533473E-01 -0.13110549676E+00 -0.13686271943E-02  0.89263539906E+00  0.88000000000E+00 0. -1.
        -11    1    4    4    0    0  0.52834451973E-02  0.24776967836E-01 -0.24517336776E-02  0.25457514555E-01  0.51100000000E-03 0. -1.
         11    1    4    4    0    0  0.54562706313E-01  0.86423174831E-01  0.59993601308E-03  0.10220897765E+00  0.51100000000E-03 0.  1.
</event>
<event>
 8    1  0.1131349E+005  0.1043930E+01  0.7957747E-01            NaN
         13   -1    0    0    0    0  0.00000000000E+00  0.00000000000E+00  0.74505805969E-08  0.10566000000E+00  0.10566000000E+00 0. -1.
     999900   -1    0    0    0    0 -0.00000000000E+00 -0.00000000000E+00 -0.74505805969E-08  0.93827000000E+00  0.93827000000E+00 0.  1.
     999902    2    1    2    0    0 -0.41961774933E-02  0.12732817373E-01  0.19268508954E-01  0.10204564408E+01  0.10201864239E+01 0.  0.
     999903    2    3    3    0    0  0.29390599139E-01  0.12710270756E+00 -0.47313430695E-02  0.13209585172E+00  0.20199575436E-01 0.  0.
         14    1    1    2    0    0  0.41961774933E-02 -0.12732817373E-01 -0.19268508954E-01  0.23473559192E-01  0.00000000000E+00 0.  1.
     999901    1    3    3    0    0 -0.33586776632E-01 -0.11436989019E+00  0.23999852024E-01  0.88836058909E+00  0.88000000000E+00 0.  1.
        -11    1    4    4    0    0  0.89317485170E-02  0.77328388273E-01 -0.75181011816E-02  0.78206385487E-01  0.51100000000E-03 0.  1.
         11    1    4    4    0    0  0.20458850622E-01  0.49774319287E-01  0.27867581121E-02  0.53889466234E-01  0.51100000000E-03 0. -1.
</event>
<event>
 8    1  0.1131349E+005  0.1043930E+01  0.7957747E-01            NaN
         13   -1    0    0    0    0  0.00000000000E+00  0.00000000000E+00  0.74505805969E-08  0.10566000000E+00  0.10566000000E+00 0.  1.
     999900   -1    0    0    0    0 -0.00000000000E+00 -0.00000000000E+00 -0.74505805969E-08  0.93827000000E+00  0.93827000000E+00 0.  1.
     999902    2    1    2    0    0  0.21487112919E-01  0.97579025529E-03  0.62198754644E-02  0.10215394877E+01  0.10212940762E+01 0.  0.
     999903    2    3    3    0    0  0.12933189032E+00 -0.10216031325E-01  0.22543239954E-01  0.13473499683E+00  0.28534480095E-01 0.  0.
         14    1    1    2    0    0 -0.21487112919E-01 -0.97579025529E-03 -0.62198754644E-02  0.22390512254E-01  0.00000000000E+00 0. -1.
     999901    1    3    3    0    0 -0.10784477740E+00  0.11191821581E-01 -0.16323364490E-01  0.88680449092E+00  0.88000000000E+00 0.  1.
        -11    1    4    4    0    0  0.35184080360E-01 -0.14214340456E-01  0.12554415293E-01  0.39973009016E-01  0.51100000000E-03 0. -1.
         11    1    4    4    0    0  0.94147809955E-01  0.39983091307E-02  0.99888246607E-02  0.94761987814E-01  0.51100000000E-03 0.  1.
</event>
<event>
 8    1  0.1131349E+005  0.1043930E+01  0.7957747E-01            NaN
         13   -1    0    0    0    0  0.00000000000E+00  0.00000000000E+00  0.74505805969E-08  0.10566000000E+00  0.10566000000E+00 0. -1.
     999900   -1    0    0    0    0 -0.00000000000E+00 -0.00000000000E+00 -0.74505805969E-08  0.93827000000E+00  0.93827000000E+00 0.  1.
     999902    2    1    2    0    0  0.32806097242E-02 -0.25586576885E-01  0.22133184311E-02  0.10180391890E+01  0.10177099077E+01 0.  0.
     999903    2    3    3    0    0 -0.12478990885E+00 -0.13915515454E-01 -0.17855014864E-01  0.12846569038E+00  0.20456518005E-01 0.  0.
         14    1    1    2    0    0 -0.32806097242E-02  0.25586576885E-01 -0.22133184311E-02  0.25890811021E-01  0.00000000000E+00 0. -1.
     999901    1    3    3    0    0  0.12807051857E+00 -0.11671061431E-01  0.20068333295E-01  0.88957349860E+00  0.88000000000E+00 0.  1.
        -11    1    4    4    0    0 -0.45795323432E-01 -0.11024212115E-01  0.13174622178E-02  0.47124746458E-01  0.51100000000E-03 0. -1.
         11    1    4    4    0    0 -0.78994585417E-01 -0.28913033385E-02 -0.19172477082E-01  0.81340943926E-01  0.51100000000E-03 0.  1.
</event>
<event>
 8    1  0.1131349E+005  0.1043930E+01  0.7957747E-01            NaN
         13   -1    0    0    0    0  0.00000000000E+00  0.00000000000E+00  0.74505805969E-08  0.10566000000E+00  0.10566000000E+00 0.  1.
     999900   -1    0    0    0    0 -0.00000000000E+00 -0.00000000000E+00 -0.74505805969E-08  0.93827000000E+00  0.93827000000E+00 0. -1.
     999902    2    1    2    0    0 -0.13031896868E-01  0.10863435502E-01 -0.16412722723E-01  0.10203244491E+01  0.10200513513E+01 0.  0.
     999903    2    3    3    0    0 -0.62754146524E-01  0.28138400160E-02 -0.11585939301E+00  0.13329190271E+00  0.19933182817E-01 0.  0.
         14    1    1    2    0    0  0.13031896868E-01 -0.10863435502E-01  0.16412722723E-01  0.23605550916E-01  0.00000000000E+00 0. -1.
     999901    1    3    3    0    0  0.49722249655E-01  0.80495954856E-02  0.99446670288E-01  0.88703254638E+00  0.88000000000E+00 0.  1.
        -11    1    4    4    0    0 -0.10069810902E-01 -0.79312323304E-03 -0.37190080969E-01  0.38540801491E-01  0.51100000000E-03 0.  1.
         11    1    4    4    0    0 -0.52684335622E-01  0.36069632491E-02 -0.78669312041E-01  0.94751101217E-01  0.51100000000E-03 0. -1.
</event>
<event>
 8    1  0.1131349E+005  0.1043930E+01  0.7957747E-01            NaN
         13   -1    0    0    0    0  0.00000000000E+00  0.00000000000E+00  0.74505805969E-08  0.10566000000E+00  0.10566000000E+00 0.  1.
     999900   -1    0    0    0    0 -0.00000000000E+00 -0.00000000000E+00 -0.74505805969E-08  0.93827000000E+00  0.93827000000E+00 0. -1.
     999902    2    1    2    0    0  0.65660758825E-02  0.22044217684E-01  0.62157485964E-02  0.10201036193E+01  0.10198253271E+01 0.  0.
     999903    2    3    3    0    0 -0.54126410328E-01 -0.17307472114E-01 -0.11420088984E+00  0.12896260905E+00  0.18981422673E-01 0.  0.
         14    1    1    2    0    0 -0.65660758825E-02 -0.22044217684E-01 -0.62157485964E-02  0.23826380682E-01  0.00000000000E+00 0.  1.
     999901    1    3    3    0    0  0.60692486210E-01  0.39351689799E-01  0.12041663843E+00  0.89114101027E+00  0.88000000000E+00 0.  1.
        -11    1    4    4    0    0 -0.48518320672E-01 -0.83906128707E-02 -0.90721399196E-01  0.10322336566E+00  0.51100000000E-03 0. -1.
         11    1    4    4    0    0 -0.56080896560E-02 -0.89168592437E-02 -0.23479490642E-01  0.25739243388E-01  0.51100000000E-03 0.  1.
</event>
<event>
 8    1  0.1131349E+005  0.1043930E+01  0.7957747E-01            NaN
         13   -1    0    0    0    0  0.00000000000E+00  0.00000000000E+00  0.74505805969E-08  0.10566000000E+00  0.10566000000E+00 0.  1.
     999900   -1    0    0    0    0 -0.00000000000E+00 -0.00000000000E+00 -0.74505805969E-08  0.93827000000E+00  0.93827000000E+00 0. -1.
     999902    2    1    2    0    0  0.17768393700E-02 -0.16246591143E-01 -0.17856450567E-01  0.10197233540E+01  0.10194359995E+01 0.  0.
     999903    2    3    3    0    0  0.26865499205E-01  0.98530751482E-01 -0.74684842909E-01  0.13009829514E+00  0.30293177515E-01 0.  0.
         14    1    1    2    0    0 -0.17768393700E-02  0.16246591143E-01  0.17856450567E-01  0.24206645963E-01  0.00000000000E+00 0.  1.
     999901    1    3    3    0    0 -0.25088659835E-01 -0.11477734263E+00  0.56828392342E-01  0.88962505889E+00  0.88000000000E+00 0.  1.
        -11    1    4    4    0    0  0.25422738224E-01  0.60817407855E-01 -0.32509327943E-01  0.73499593477E-01  0.51100000000E-03 0.  1.
         11    1    4    4    0    0  0.14427609816E-02  0.37713343627E-01 -0.42175514966E-01  0.56598701668E-01  0.51100000000E-03 0. -1.
</event>
<event>
 8    1  0.1131349E+005  0.1043930E+01  0.7957747E-01            NaN
         13   -1    0    0    0    0  0.00000000000E+00  0.00000000000E+00  0.74505805969E-08  0.10566000000E+00  0.10566000000E+00 0.  1.
     999900   -1    0    0    0    0 -0.00000000000E+00 -0.00000000000E+00 -0.74505805969E-08  0.93827000000E+00  0.93827000000E+00 0.  1.
     999902    2    1    2    0    0  0.14102798238E-03 -0.17710133785E-01  0.16220316443E-01  0.10199140180E+01  0.10196312258E+01 0.  0.
     999903    2    3    3    0    0 -0.99609881183E-01 -0.83195013047E-01  0.11109919937E-01  0.13184609858E+00  0.20406488287E-01 0.  0.
         14    1    1    2    0    0 -0.14102798238E-03  0.17710133785E-01 -0.16220316443E-01  0.24015982034E-01  0.00000000000E+00 0. -1.
     999901    1    3    3    0    0  0.99750909165E-01  0.65484879262E-01  0.51103965059E-02  0.88806791939E+00  0.88000000000E+00 0.  1.
        -11    1    4    4    0    0 -0.30688003969E-01 -0.30285287873E-01 -0.52239048818E-02  0.43433887143E-01  0.51100000000E-03 0. -1.
         11    1    4    4    0    0 -0.68921877214E-01 -0.52909725174E-01  0.16333824819E-01  0.88412211436E-01  0.51100000000E-03 0.  1.
</event>
<event>
 8    1  0.1131349E+005  0.1043930E+01  0.7957747E-01            NaN
         13   -1    0    0    0    0  0.00000000000E+00  0.00000000000E+00  0.74505805969E-08  0.10566000000E+00  0.10566000000E+00 0.  1.
     999900   -1    0    0    0    0 -0.00000000000E+00 -0.00000000000E+00 -0.74505805969E-08  0.93827000000E+00  0.93827000000E+00 0. -1.
     999902    2    1    2    0    0 -0.15811963055E-01  0.19466872309E-01  0.14150428954E-03  0.10188501811E+01  0.10185414543E+01 0.  0.
     999903    2    3    3    0    0 -0.15904151449E-01 -0.25556583048E-01  0.12390680636E+00  0.12904965849E+00  0.19870498822E-01 0.  0.
         14    1    1    2    0    0  0.15811963055E-01 -0.19466872309E-01 -0.14150428954E-03  0.25079818911E-01  0.00000000000E+00 0. -1.
     999901    1    3    3    0    0  0.92188393767E-04  0.45023455356E-01 -0.12376530207E+00  0.88980052260E+00  0.88000000000E+00 0. -1.
        -11    1    4    4    0    0 -0.14498852457E-01 -0.52260942651E-02  0.61182286271E-01  0.63095657998E-01  0.51100000000E-03 0.  1.
         11    1    4    4    0    0 -0.14052989917E-02 -0.20330488782E-01  0.62724520085E-01  0.65954000487E-01  0.51100000000E-03 0. -1.
</event>
<event>
 8    1  0.1131349E+005  0.1043930E+01  0.7957747E-01            NaN
         13   -1    0    0    0    0  0.00000000000E+00  0.00000000000E+00  0.74505805969E-08  0.10566000000E+00  0.10566000000E+00 0.  1.
     999900   -1    0    0    0    0 -0.00000000000E+00 -0.00000000000E+00 -0.74505805969E-08  0.93827000000E+00  0.93827000000E+00 0. -1.
     999902    2    1    2    0    0  0.28518399621E-01 -0.63208475424E-02  0.71531097870E-02  0.10138564367E+01  0.10134103093E+01 0.  0.
     999903    2    3    3    0    0  0.10312968677E+00 -0.46536036120E-01 -0.55423294649E-01  0.12757210762E+00  0.20039114321E-01 0.  0.
         14    1    1    2    0    0 -0.28518399621E-01  0.63208475424E-02 -0.71531097870E-02  0.30073563311E-01  0.00000000000E+00 0.  1.
     999901    1    3    3    0    0 -0.74611287144E-01  0.40215188577E-01  0.62576404436E-01  0.88628432907E+00  0.88000000000E+00 0.  1.
        -11    1    4    4    0    0  0.41433741979E-01 -0.27142750554E-01 -0.17141674884E-01  0.52417382812E-01  0.51100000000E-03 0.  1.
         11    1    4    4    0    0  0.61695944786E-01 -0.19393285566E-01 -0.38281619765E-01  0.75154724808E-01  0.51100000000E-03 0. -1.
</event>
<event>
 8    1  0.1131349E+005  0.1043930E+01  0.7957747E-01            NaN
         13   -1    0    0    0    0  0.00000000000E+00  0.00000000000E+00  0.74505805969E-08  0.10566000000E+00  0.10566000000E+00 0. -1.
     999900   -1    0    0    0    0 -0.00000000000E+00 -0.00000000000E+00 -0.74505805969E-08  0.93827000000E+00  0.93827000000E+00 0. -1.
     999902    2    1    2    0    0 -0.51382624855E-03 -0.80445005172E-02  0.23153134105E-01  0.10194137681E+01  0.10191189259E+01 0.  0.
     999903    2    3    3    0    0  0.11260618772E+00 -0.61903476226E-01 -0.18053468881E-02  0.13018946988E+00  0.20828944030E-01 0.  0.
         14    1    1    2    0    0  0.51382624855E-03  0.80445005172E-02 -0.23153134105E-01  0.24516231865E-01  0.00000000000E+00 0.  1.
     999901    1    3    3    0    0 -0.11312001397E+00  0.53858975709E-01  0.24958480993E-01  0.88922429825E+00  0.88000000000E+00 0. -1.
        -11    1    4    4    0    0  0.48883742797E-01 -0.18650572928E-01 -0.79669766436E-02  0.52926345219E-01  0.51100000000E-03 0.  1.
         11    1    4    4    0    0  0.63722444924E-01 -0.43252903298E-01  0.61616297555E-02  0.77263124665E-01  0.51100000000E-03 0. -1.
</event>
<event>
 8    1  0.1131349E+005  0.1043930E+01  0.7957747E-01            NaN
         13   -1    0    0    0    0  0.00000000000E+00  0.00000000000E+00  0.74505805969E-08  0.10566000000E+00  0.10566000000E+00 0. -1.
     999900   -1    0    0    0    0 -0.00000000000E+00 -0.00000000000E+00 -0.74505805969E-08  0.93827000000E+00  0.93827000000E+00 0. -1.
     999902    2    1    2    0    0 -0.59996418263E-02  0.53005764395E-02 -0.21612511580E-01  0.10208823869E+01  0.10206221903E+01 0.  0.
     999903    2    3    3    0    0 -0.11395130093E+00 -0.21805754329E-01  0.57487831129E-01  0.13035154629E+00  0.15042771875E-01 0.  0.
         14    1    1    2    0    0  0.59996418263E-02 -0.53005764395E-02  0.21612511580E-01  0.23047613096E-01  0.00000000000E+00 0. -1.
     999901    1    3    3    0    0  0.10795165911E+00  0.27106330769E-01 -0.79100342709E-01  0.89053084062E+00  0.88000000000E+00 0. -1.
        -11    1    4    4    0    0 -0.51729143325E-01 -0.13511780821E-01  0.19134950804E-01  0.56788026496E-01  0.51100000000E-03 0.  1.
         11    1    4    4    0    0 -0.62222157607E-01 -0.82939735082E-02  0.38352880326E-01  0.73563519792E-01  0.51100000000E-03 0. -1.
</event>
<event>
 8    1  0.1131349E+005  0.1043930E+01  0.7957747E-01            NaN
         13   -1    0    0    0    0  0.00000000000E+00  0.00000000000E+00  0.74505805969E-08  0.10566000000E+00  0.10566000000E+00 0. -1.
     999900   -1    0    0    0    0 -0.00000000000E+00 -0.00000000000E+00 -0.74505805969E-08  0.93827000000E+00  0.93827000000E+00 0.  1.
     999902    2    1    2    0    0 -0.17338237884E-01 -0.10774681360E-01  0.13593115451E-01  0.10194048896E+01  0.10191098312E+01 0.  0.
     999903    2    3    3    0    0 -0.10408034537E+00  0.34023905577E-01  0.71152218894E-01  0.13213708507E+00  0.20179855160E-01 0.  0.
         14    1    1    2    0    0  0.17338237884E-01  0.10774681360E-01 -0.13593115451E-01  0.24525110377E-01  0.00000000000E+00 0.  1.
     999901    1    3    3    0    0  0.86742107489E-01 -0.44798586938E-01 -0.57559103443E-01  0.88726780455E+00  0.88000000000E+00 0.  1.
        -11    1    4    4    0    0 -0.30544844290E-01  0.13989681785E-01  0.32219724840E-01  0.46551804465E-01  0.51100000000E-03 0. -1.
         11    1    4    4    0    0 -0.73535501083E-01  0.20034223792E-01  0.38932494053E-01  0.85585280608E-01  0.51100000000E-03 0.  1.
</event>
<event>
 8    1  0.1131349E+005  0.1043930E+01  0.7957747E-01            NaN
         13   -1    0    0    0    0  0.00000000000E+00  0.00000000000E+00  0.74505805969E-08  0.10566000000E+00  0.10566000000E+00 0.  1.
     999900   -1    0    0    0    0 -0.00000000000E+00 -0.00000000000E+00 -0.74505805969E-08  0.93827000000E+00  0.93827000000E+00 0.  1.
     999902    2    1    2    0    0 -0.22627389171E-01 -0.73277416050E-02 -0.56319108246E-02  0.10194879674E+01  0.10191949287E+01 0.  0.
     999903    2    3    3    0    0  0.39094394856E-01 -0.10124771252E+00 -0.68780493441E-01  0.13009588118E+00  0.20364454867E-01 0.  0.
         14    1    1    2    0    0  0.22627389171E-01  0.73277416050E-02  0.56319108246E-02  0.24442032592E-01  0.00000000000E+00 0.  1.
     999901    1    3    3    0    0 -0.61721784026E-01  0.93919970915E-01  0.63148582616E-01  0.88939208623E+00  0.88000000000E+00 0. -1.
        -11    1    4    4    0    0  0.32018557628E-01 -0.56497749414E-01 -0.36875947285E-01  0.74681191277E-01  0.51100000000E-03 0. -1.
         11    1    4    4    0    0  0.70758372278E-02 -0.44749963106E-01 -0.31904546156E-01  0.55414689902E-01  0.51100000000E-03 0.  1.
</event>
<event>
 8    1  0.1131349E+005  0.1043930E+01  0.7957747E-01            NaN
         13   -1    0    0    0    0  0.00000000000E+00  0.00000000000E+00  0.74505805969E-08  0.10566000000E+00  0.10566000000E+00 0.  1.
     999900   -1    0    0    0    0 -0.00000000000E+00 -0.00000000000E+00 -0.74505805969E-08  0.93827000000E+00  0.93827000000E+00 0. -1.
     999902    2    1    2    0    0 -0.93588145308E-02 -0.15319176451E-01 -0.16662315973E-01  0.10194371980E+01  0.10191429258E+01 0.  0.
     999903    2    3    3    0    0 -0.52367267125E-01 -0.78972703979E-01 -0.90941247366E-01  0.13297295269E+00  0.20796082166E-01 0.  0.
         14    1    1    2    0    0  0.93588145308E-02  0.15319176451E-01  0.16662315973E-01  0.24492802007E-01  0.00000000000E+00 0.  1.
     999901    1    3    3    0    0  0.43008452594E-01  0.63653527529E-01  0.74278931393E-01  0.88646424531E+00  0.88000000000E+00 0.  1.
        -11    1    4    4    0    0 -0.22093497415E-01 -0.48923106942E-01 -0.58360921639E-01  0.79295972890E-01  0.51100000000E-03 0. -1.
         11    1    4    4    0    0 -0.30273769710E-01 -0.30049597037E-01 -0.32580325726E-01  0.53676979796E-01  0.51100000000E-03 0.  1.
</event>
<event>
 8    1  0.1131349E+005  0.1043930E+01  0.7957747E-01            NaN
         13   -1    0    0    0    0  0.00000000000E+00  0.00000000000E+00  0.74505805969E-08  0.10566000000E+00  0.10566000000E+00 0.  1.
     999900   -1    0    0    0    0 -0.00000000000E+00 -0.00000000000E+00 -0.74505805969E-08  0.93827000000E+00  0.93827000000E+00 0. -1.
     999902    2    1    2    0    0  0.21844205258E-01  0.83307526838E-02  0.13558122161E-02  0.10205118666E+01  0.10202431382E+01 0.  0.
     999903    2    3    3    0    0 -0.37603094140E-01 -0.12191261415E+00  0.74008951097E-02  0.12892123241E+00  0.17006843868E-01 0.  0.
         14    1    1    2    0    0 -0.21844205258E-01 -0.83307526838E-02 -0.13558122161E-02  0.23418133367E-01  0.00000000000E+00 0.  1.
     999901    1    3    3    0    0  0.59447299398E-01  0.13024336684E+00 -0.60450828937E-02  0.89159063423E+00  0.88000000000E+00 0. -1.
        -11    1    4    4    0    0 -0.18511686174E-01 -0.85458648561E-01  0.75467850540E-02  0.87767181933E-01  0.51100000000E-03 0.  1.
         11    1    4    4    0    0 -0.19091407966E-01 -0.36453965593E-01 -0.14588994430E-03  0.41154050475E-01  0.51100000000E-03 0. -1.
</event>
<event>
 8    1  0.1131349E+005  0.1043930E+01  0.7957747E-01            NaN
         13   -1    0    0    0    0  0.00000000000E+00  0.00000000000E+00  0.74505805969E-08  0.10566000000E+00  0.10566000000E+00 0.  1.
     999900   -1    0    0    0    0 -0.00000000000E+00 -0.00000000000E+00 -0.74505805969E-08  0.93827000000E+00  0.93827000000E+00 0.  1.
     999902    2    1    2    0    0 -0.21424037877E-01 -0.94916484341E-02 -0.26436258210E-02  0.10203488731E+01  0.10200763468E+01 0.  0.
     999903    2    3    3    0    0 -0.88382465025E-01 -0.45649596509E-01  0.86062343630E-01  0.13262167558E+00  0.16924421936E-01 0.  0.
         14    1    1    2    0    0  0.21424037877E-01  0.94916484341E-02  0.26436258210E-02  0.23581126912E-01  0.00000000000E+00 0. -1.
     999901    1    3    3    0    0  0.66958427147E-01  0.36157948075E-01 -0.88705969451E-01  0.88772719751E+00  0.88000000000E+00 0.  1.
        -11    1    4    4    0    0 -0.53555983287E-01 -0.21260728537E-01  0.57459143004E-01  0.81376139989E-01  0.51100000000E-03 0.  1.
         11    1    4    4    0    0 -0.34826481737E-01 -0.24388867972E-01  0.28603200626E-01  0.51245535593E-01  0.51100000000E-03 0. -1.
</event>
<event>
 8    1  0.1131349E+005  0.1043930E+01  0.7957747E-01            NaN
         13   -1    0    0    0    0  0.00000000000E+00  0.00000000000E+00  0.74505805969E-08  0.10566000000E+00  0.10566000000E+00 0.  1.
     999900   -1    0    0    0    0 -0.00000000000E+00 -0.00000000000E+00 -0.74505805969E-08  0.93827000000E+00  0.93827000000E+00 0.  1.
     999902    2    1    2    0    0 -0.19540768262E-01 -0.35620648119E-03 -0.13374216125E-01  0.10202479780E+01  0.10199730872E+01 0.  0.
     999903    2    3    3    0    0 -0.12995392128E+00  0.15676389070E-01 -0.14501307774E-01  0.13320266983E+00  0.19972293071E-01 0.  0.
         14    1    1    2    0    0  0.19540768262E-01  0.35620648119E-03  0.13374216125E-01  0.23682021963E-01  0.00000000000E+00 0.  1.
     999901    1    3    3    0    0  0.11041315302E+00 -0.16032595551E-01  0.11270916496E-02  0.88704530821E+00  0.88000000000E+00 0.  1.
        -11    1    4    4    0    0 -0.85775969566E-02  0.21182102447E-02  0.39373058164E-02  0.96863554696E-02  0.51100000000E-03 0. -1.
         11    1    4    4    0    0 -0.12137632433E+00  0.13558178825E-01 -0.18438613591E-01  0.12351631436E+00  0.51100000000E-03 0.  1.
</event>
<event>
 8    1  0.1131349E+005  0.1043930E+01  0.7957747E-01            NaN
         13   -1    0    0    0    0  0.00000000000E+00  0.00000000000E+00  0.74505805969E-08  0.10566000000E+00  0.10566000000E+00 0.  1.
     999900   -1    0    0    0    0 -0.00000000000E+00 -0.00000000000E+00 -0.74505805969E-08  0.93827000000E+00  0.93827000000E+00 0.  1.
     999902    2    1    2    0    0 -0.45999692890E-03  0.23067333730E-01 -0.34013488395E-02  0.10206087081E+01  0.10203422232E+01 0.  0.
     999903    2    3    3    0    0  0.11265359934E+00  0.66362131866E-01 -0.41844308488E-02  0.13231273352E+00  0.19859103749E-01 0.  0.
         14    1    1    2    0    0  0.45999692890E-03 -0.23067333730E-01  0.34013488395E-02  0.23321291914E-01  0.00000000000E+00 0. -1.
     999901    1    3    3    0    0 -0.11311359627E+00 -0.43294798136E-01  0.78308200932E-03  0.88829597456E+00  0.88000000000E+00 0.  1.
        -11    1    4    4    0    0  0.26769450789E-01  0.18538912959E-01  0.72014419900E-02  0.33352911072E-01  0.51100000000E-03 0. -1.
         11    1    4    4    0    0  0.85884148549E-01  0.47823218907E-01 -0.11385872839E-01  0.98959822452E-01  0.51100000000E-03 0.  1.
</event>
<event>
 8    1  0.1131349E+005  0.1043930E+01  0.7957747E-01            NaN
         13   -1    0    0    0    0  0.00000000000E+00  0.00000000000E+00  0.74505805969E-08  0.10566000000E+00  0.10566000000E+00 0.  1.
     999900   -1    0    0    0    0 -0.00000000000E+00 -0.00000000000E+00 -0.74505805969E-08  0.93827000000E+00  0.93827000000E+00 0. -1.
     999902    2    1    2    0    0 -0.12703772084E-01 -0.14149144231E-01 -0.14590343665E-01  0.10199620582E+01  0.10196804097E+01 0.  0.
     999903    2    3    3    0    0  0.74171578613E-01 -0.51193819516E-01  0.89679183038E-01  0.12878768200E+00  0.20534871192E-01 0.  0.
         14    1    1    2    0    0  0.12703772084E-01  0.14149144231E-01  0.14590343665E-01  0.23967941836E-01  0.00000000000E+00 0. -1.
     999901    1    3    3    0    0 -0.86875350697E-01  0.37044675285E-01 -0.10426952670E+00  0.89117437616E+00  0.88000000000E+00 0. -1.
        -11    1    4    4    0    0  0.36440634331E-01 -0.13609648020E-01  0.33015865407E-01  0.51024022179E-01  0.51100000000E-03 0.  1.
         11    1    4    4    0    0  0.37730944282E-01 -0.37584171496E-01  0.56663317630E-01  0.77763659825E-01  0.51100000000E-03 0. -1.
</event>
<event>
 8    1  0.1131349E+005  0.1043930E+01  0.7957747E-01            NaN
         13   -1    0    0    0    0  0.00000000000E+00  0.00000000000E+00  0.74505805969E-08  0.10566000000E+00  0.10566000000E+00 0. -1.
     999900   -1    0    0    0    0 -0.00000000000E+00 -0.00000000000E+00 -0.74505805969E-08  0.93827000000E+00  0.93827000000E+00 0.  1.
     999902    2    1    2    0    0 -0.52808940712E-02 -0.19879743016E-01  0.11464104155E-01  0.10203818003E+01  0.10201100434E+01 0.  0.
     999903    2    3    3    0    0 -0.15253363252E-01  0.11487843968E+00  0.53493313311E-01  0.12907620044E+00  0.19220040482E-01 0.  0.
         14    1    1    2    0    0  0.52808940712E-02  0.19879743016E-01 -0.11464104155E-01  0.23548199690E-01  0.00000000000E+00 0. -1.
     999901    1    3    3    0    0  0.99724691804E-02 -0.13475818270E+00 -0.42029209156E-01  0.89130559987E+00  0.88000000000E+00 0.  1.
        -11    1    4    4    0    0 -0.19496988594E-01  0.80826445803E-01  0.38359664247E-01  0.91568399940E-01  0.51100000000E-03 0.  1.
         11    1    4    4    0    0  0.42436253428E-02  0.34051993877E-01  0.15133649064E-01  0.37507800495E-01  0.51100000000E-03 0. -1.
</event>
<event>
 8    1  0.1131349E+005  0.1043930E+01  0.7957747E-01            NaN
         13   -1    0    0    0    0  0.00000000000E+00  0.00000000000E+00  0.74505805969E-08  0.10566000000E+00  0.10566000000E+00 0.  1.
     999900   -1    0    0    0    0 -0.00000000000E+00 -0.00000000000E+00 -0.74505805969E-08  0.93827000000E+00  0.93827000000E+00 0. -1.
     999902    2    1    2    0    0 -0.23109600006E-01 -0.46587597912E-02  0.35382614853E-02  0.10200914399E+01  0.10198128597E+01 0.  0.
     999903    2    3    3    0    0  0.24775389123E-01 -0.11506664971E+00 -0.52318536659E-01  0.13014601668E+00  0.18617266083E-01 0.  0.
         14    1    1    2    0    0  0.23109600006E-01  0.46587597912E-02 -0.35382614853E-02  0.23838560141E-01  0.00000000000E+00 0.  1.
     999901    1    3    3    0    0 -0.47884989129E-01  0.11040788992E+00  0.55856798145E-01  0.88994542318E+00  0.88000000000E+00 0.  1.
        -11    1    4    4    0    0 -0.12182405019E-02 -0.17426495209E-01 -0.30826995622E-02  0.17746295466E-01  0.51100000000E-03 0.  1.
         11    1    4    4    0    0  0.25993629625E-01 -0.97640154506E-01 -0.49235837097E-01  0.11239972121E+00  0.51100000000E-03 0. -1.
</event>
<event>
 8    1  0.1131349E+005  0.1043930E+01  0.7957747E-01            NaN
         13   -1    0    0    0    0  0.00000000000E+00  0.00000000000E+00  0.74505805969E-08  0.10566000000E+00  0.10566000000E+00 0.  1.
     999900   -1    0    0    0    0 -0.00000000000E+00 -0.00000000000E+00 -0.74505805969E-08  0.93827000000E+00  0.93827000000E+00 0. -1.
     999902    2    1    2    0    0 -0.49980800544E-02 -0.67338068398E-02 -0.23221140478E-01  0.10192410080E+01  0.10189419444E+01 0.  0.
     999903    2    3    3    0    0  0.33214485428E-02  0.33734230030E-01  0.12038188313E+00  0.12664439985E+00  0.19949334105E-01 0.  0.
         14    1    1    2    0    0  0.49980800544E-02  0.67338068398E-02  0.23221140478E-01  0.24688991958E-01  0.00000000000E+00 0.  1.
     999901    1    3    3    0    0 -0.83195285972E-02 -0.40468036869E-01 -0.14360302361E+00  0.89259660819E+00  0.88000000000E+00 0. -1.
        -11    1    4    4    0    0  0.97397000364E-03 -0.25275615584E-02  0.12692446760E-01  0.12988322092E-01  0.51100000000E-03 0.  1.
         11    1    4    4    0    0  0.23474785392E-02  0.36261791588E-01  0.10768943637E+00  0.11365607776E+00  0.51100000000E-03 0. -1.
</event>
<event>
 8    1  0.1131349E+005  0.1043930E+01  0.7957747E-01            NaN
         13   -1    0    0    0    0  0.00000000000E+00  0.00000000000E+00  0.74505805969E-08  0.10566000000E+00  0.10566000000E+00 0. -1.
     999900   -1    0    0    0    0 -0.00000000000E+00 -0.00000000000E+00 -0.74505805969E-08  0.93827000000E+00  0.93827000000E+00 0.  1.
     999902    2    1    2    0    0 -0.75754652890E-02 -0.21262912825E-01  0.68985477567E-02  0.10203272650E+01  0.10200542332E+01 0.  0.
     999903    2    3    3    0    0  0.46602417474E-01  0.69352372196E-01  0.95987949842E-01  0.12955047234E+00  0.24250804626E-01 0.  0.
         14    1    1    2    0    0  0.75754652890E-02  0.21262912825E-01 -0.68985477567E-02  0.23602734954E-01  0.00000000000E+00 0.  1.
     999901    1    3    3    0    0 -0.54177882763E-01 -0.90615285021E-01 -0.89089402085E-01  0.89077679271E+00  0.88000000000E+00 0.  1.
        -11    1    4    4    0    0  0.21692509322E-01  0.44597673165E-01  0.70312307528E-01  0.86044169607E-01  0.51100000000E-03 0. -1.
         11    1    4    4    0    0  0.24909908153E-01  0.24754699031E-01  0.25675642314E-01  0.43506302733E-01  0.51100000000E-03 0.  1.
</event>
<event>
 8    1  0.1131349E+005  0.1043930E+01  0.7957747E-01            NaN
         13   -1    0    0    0    0  0.00000000000E+00  0.00000000000E+00  0.74505805969E-08  0.10566000000E+00  0.10566000000E+00 0.  1.
     999900   -1    0    0    0    0 -0.00000000000E+00 -0.00000000000E+00 -0.74505805969E-08  0.93827000000E+00  0.93827000000E+00 0. -1.
     999902    2    1    2    0    0  0.19257372908E-01 -0.10255907273E-01 -0.10412691748E-01  0.10197545125E+01  0.10194679061E+01 0.  0.
     999903    2    3    3    0    0 -0.74667537090E-01  0.18333383872E-01  0.99730234251E-01  0.12747053282E+00  0.19780370432E-01 0.  0.
         14    1    1    2    0    0 -0.19257372908E-01  0.10255907273E-01  0.10412691748E-01  0.24175487477E-01  0.00000000000E+00 0.  1.
     999901    1    3    3    0    0  0.93924909998E-01 -0.28589291146E-01 -0.11014292600E+00  0.89228397970E+00  0.88000000000E+00 0. -1.
        -11    1    4    4    0    0 -0.40799898430E-01  0.15491738981E-01  0.69018115869E-01  0.81660193042E-01  0.51100000000E-03 0. -1.
         11    1    4    4    0    0 -0.33867638659E-01  0.28416448913E-02  0.30712118382E-01  0.45810339778E-01  0.51100000000E-03 0.  1.
</event>
<event>
 8    1  0.1131349E+005  0.1043930E+01  0.7957747E-01            NaN
         13   -1    0    0    0    0  0.00000000000E+00  0.00000000000E+00  0.74505805969E-08  0.10566000000E+00  0.10566000000E+00 0.  1.
     999900   -1    0    0    0    0 -0.00000000000E+00 -0.00000000000E+00 -0.74505805969E-08  0.93827000000E+00  0.93827000000E+00 0. -1.
     999902    2    1    2    0    0  0.17931476085E-01  0.12144909414E-01 -0.83815686697E-02  0.10207074387E+01  0.10204432312E+01 0.  0.
     999903    2    3    3    0    0 -0.48052478363E-02  0.32303862723E-01  0.12213040729E+00  0.13056322687E+00  0.32623455841E-01 0.  0.
         14    1    1    2    0    0 -0.17931476085E-01 -0.12144909414E-01  0.83815686697E-02  0.23222561285E-01  0.00000000000E+00 0.  1.
     999901    1    3    3    0    0  0.22736723921E-01 -0.20158953308E-01 -0.13051197596E+00  0.89014421185E+00  0.88000000000E+00 0. -1.
        -11    1    4    4    0    0  0.72906844799E-02  0.24152578203E-01  0.41095790753E-01  0.48224747305E-01  0.51100000000E-03 0. -1.
         11    1    4    4    0    0 -0.12095932316E-01  0.81512845199E-02  0.81034616542E-01  0.82338479564E-01  0.51100000000E-03 0.  1.
</event>
<event>
 8    1  0.1131349E+005  0.1043930E+01  0.7957747E-01            NaN
         13   -1    0    0    0    0  0.00000000000E+00  0.00000000000E+00  0.74505805969E-08  0.10566000000E+00  0.10566000000E+00 0. -1.
     999900   -1    0    0    0    0 -0.00000000000E+00 -0.00000000000E+00 -0.74505805969E-08  0.93827000000E+00  0.93827000000E+00 0. -1.
     999902    2    1    2    0    0 -0.51834910962E-02  0.35354400625E-02  0.23217239392E-01  0.10198798831E+01  0.10195962769E+01 0.  0.
     999903    2    3    3    0    0 -0.22941726284E-01  0.12714300556E+00  0.34154170635E-02  0.13084315873E+00  0.20410792356E-01 0.  0.
         14    1    1    2    0    0  0.51834910962E-02 -0.35354400625E-02 -0.23217239392E-01  0.24050116868E-01  0.00000000000E+00 0.  1.
     999901    1    3    3    0    0  0.17758235187E-01 -0.12360756550E+00  0.19801822328E-01  0.88903672440E+00  0.88000000000E+00 0.  1.
        -11    1    4    4    0    0 -0.54310574772E-02  0.73959658307E-01  0.83638313430E-02  0.74630705731E-01  0.51100000000E-03 0.  1.
         11    1    4    4    0    0 -0.17510668806E-01  0.53183347256E-01 -0.49484142795E-02  0.56212453000E-01  0.51100000000E-03 0. -1.
</event>
<event>
 8    1  0.1131349E+005  0.1043930E+01  0.7957747E-01            NaN
         13   -1    0    0    0    0  0.00000000000E+00  0.00000000000E+00  0.74505805969E-08  0.10566000000E+00  0.10566000000E+00 0. -1.
     999900   -1    0    0    0    0 -0.00000000000E+00 -0.00000000000E+00 -0.74505805969E-08  0.93827000000E+00  0.93827000000E+00 0.  1.
     999902    2    1    2    0    0  0.17923255204E-01  0.98375438537E-02 -0.11665242275E-01  0.10203907089E+01  0.10201191600E+01 0.  0.
     999903    2    3    3    0    0 -0.85158332749E-01  0.84290752526E-01  0.45275689074E-01  0.12942978740E+00  0.18582498397E-01 0.  0.
         14    1    1    2    0    0 -0.17923255204E-01 -0.98375438537E-02  0.11665242275E-01  0.23539291058E-01  0.00000000000E+00 0. -1.
     999901    1    3    3    0    0  0.10308158795E+00 -0.74453208672E-01 -0.56940931349E-01  0.89096092154E+00  0.88000000000E+00 0.  1.
        -11    1    4    4    0    0 -0.58922075716E-01  0.49259597813E-01  0.35358889486E-01  0.84550760908E-01  0.51100000000E-03 0.  1.
         11    1    4    4    0    0 -0.26236257033E-01  0.35031154713E-01  0.99167995886E-02  0.44879026490E-01  0.51100000000E-03 0. -1.
</event>
<event>
 8    1  0.1131349E+005  0.1043930E+01  0.7957747E-01            NaN
         13   -1    0    0    0    0  0.00000000000E+00  0.00000000000E+00  0.74505805969E-08  0.10566000000E+00  0.10566000000E+00 0.  1.
     999900   -1    0    0    0    0 -0.00000000000E+00 -0.00000000000E+00 -0.74505805969E-08  0.93827000000E+00  0.93827000000E+00 0.  1.
     999902    2    1    2    0    0  0.31938848627E-02 -0.31514822600E-02 -0.23271160705E-01  0.10202302181E+01  0.10199549099E+01 0.  0.
     999903    2    3    3    0    0 -0.10888066314E+00 -0.56306711494E-01 -0.42880134626E-01  0.13131475837E+00  0.19478584523E-01 0.  0.
         14    1    1    2    0    0 -0.31938848627E-02  0.31514822600E-02  0.23271160705E-01  0.23699781888E-01  0.00000000000E+00 0.  1.
     999901    1    3    3    0    0  0.11207454801E+00  0.53155229234E-01  0.19608973920E-01  0.88891545974E+00  0.88000000000E+00 0. -1.
        -11    1    4    4    0    0 -0.50537551249E-01 -0.23250606758E-01 -0.96078500293E-02  0.56455351421E-01  0.51100000000E-03 0. -1.
         11    1    4    4    0    0 -0.58343111895E-01 -0.33056104737E-01 -0.33272284597E-01  0.74859406952E-01  0.51100000000E-03 0.  1.
</event>
<event>
 8    1  0.1131349E+005  0.1043930E+01  0.7957747E-01            NaN
         13   -1    0    0    0    0  0.00000000000E+00  0.00000000000E+00  0.74505805969E-08  0.10566000000E+00  0.10566000000E+00 0. -1.
     999900   -1    0    0    0    0 -0.00000000000E+00 -0.00000000000E+00 -0.74505805969E-08  0.93827000000E+00  0.93827000000E+00 0.  1.
     999902    2    1    2    0    0  0.15448993343E-01 -0.12177397057E-01  0.69021683240E-02  0.10230829301E+01  0.10228705107E+01 0.  0.
     999903    2    3    3    0    0 -0.32817268589E-01 -0.12030833327E+00  0.45227918607E-01  0.13432492340E+00  0.21131782992E-01 0.  0.
         14    1    1    2    0    0 -0.15448993343E-01  0.12177397057E-01 -0.69021683240E-02  0.20847069865E-01  0.00000000000E+00 0.  1.
     999901    1    3    3    0    0  0.48266261931E-01  0.10813093621E+00 -0.38325750283E-01  0.88875800674E+00  0.88000000000E+00 0.  1.
        -11    1    4    4    0    0 -0.12832053435E-01 -0.48019664959E-01  0.71772125271E-02  0.50222737070E-01  0.51100000000E-03 0. -1.
         11    1    4    4    0    0 -0.19985215154E-01 -0.72288668309E-01  0.38050706080E-01  0.84102186326E-01  0.51100000000E-03 0.  1.
</event>
<event>
 8    1  0.1131349E+005  0.1043930E+01  0.7957747E-01            NaN
         13   -1    0    0    0    0  0.00000000000E+00  0.00000000000E+00  0.74505805969E-08  0.10566000000E+00  0.10566000000E+00 0. -1.
     999900   -1    0    0    0    0 -0.00000000000E+00 -0.00000000000E+00 -0.74505805969E-08  0.93827000000E+00  0.93827000000E+00 0.  1.
     999902    2    1    2    0    0  0.89004969472E-02  0.16507246292E-01 -0.14401069759E-01  0.10202847291E+01  0.10200107007E+01 0.  0.
     999903    2    3    3    0    0 -0.11315892539E+00  0.59437417217E-01  0.15700547488E-01  0.13031416244E+00  0.19938023465E-01 0.  0.
         14    1    1    2    0    0 -0.89004969472E-02 -0.16507246292E-01  0.14401069759E-01  0.23645270907E-01  0.00000000000E+00 0. -1.
     999901    1    3    3    0    0  0.12205942233E+00 -0.42930170924E-01 -0.30101617247E-01  0.88997056666E+00  0.88000000000E+00 0.  1.
        -11    1    4    4    0    0 -0.25048925675E-01  0.21627616401E-01 -0.34500019990E-03  0.33099586324E-01  0.51100000000E-03 0.  1.
         11    1    4    4    0    0 -0.88109999712E-01  0.37809800816E-01  0.16045547688E-01  0.97214576112E-01  0.51100000000E-03 0. -1.
</event>
<event>
 8    1  0.1131349E+005  0.1043930E+01  0.7957747E-01            NaN
         13   -1    0    0    0    0  0.00000000000E+00  0.00000000000E+00  0.74505805969E-08  0.10566000000E+00  0.10566000000E+00 0. -1.
     999900   -1    0    0    0    0 -0.00000000000E+00 -0.00000000000E+00 -0.74505805969E-08  0.93827000000E+00  0.93827000000E+00 0. -1.
     999902    2    1    2    0    0  0.20415805992E-01  0.94778312934E-02 -0.68124197273E-02  0.10204131234E+01  0.10201420975E+01 0.  0.
     999903    2    3    3    0    0 -0.66261266307E-01 -0.15349242973E-01 -0.10892333098E+00  0.12993238998E+00  0.19798466150E-01 0.  0.
         14    1    1    2    0    0 -0.20415805992E-01 -0.94778312934E-02  0.68124197273E-02  0.23516876554E-01  0.00000000000E+00 0.  1.
     999901    1    3    3    0    0  0.86677072299E-01  0.24827074266E-01  0.10211091125E+00  0.89048073347E+00  0.88000000000E+00 0.  1.
        -11    1    4    4    0    0 -0.23527522017E-01 -0.14005010844E-01 -0.33892725228E-01  0.43573645308E-01  0.51100000000E-03 0. -1.
         11    1    4    4    0    0 -0.42733744290E-01 -0.13442321290E-02 -0.75030605749E-01  0.86358744671E-01  0.51100000000E-03 0.  1.
</event>
<event>
 8    1  0.1131349E+005  0.1043930E+01  0.7957747E-01            NaN
         13   -1    0    0    0    0  0.00000000000E+00  0.00000000000E+00  0.74505805969E-08  0.10566000000E+00  0.10566000000E+00 0.  1.
     999900   -1    0    0    0    0 -0.00000000000E+00 -0.00000000000E+00 -0.74505805969E-08  0.93827000000E+00  0.93827000000E+00 0.  1.
     999902    2    1    2    0    0 -0.13848162794E-01  0.12766991074E-01 -0.13034852579E-01  0.10210242135E+01  0.10207672455E+01 0.  0.
     999903    2    3    3    0    0 -0.10700103415E+00  0.13445090145E-01  0.74118199456E-01  0.13182593878E+00  0.15955528423E-01 0.  0.
         14    1    1    2    0    0  0.13848162794E-01 -0.12766991074E-01  0.13034852579E-01  0.22905786509E-01  0.00000000000E+00 0.  1.
     999901    1    3    3    0    0  0.93152871358E-01 -0.67809907131E-03 -0.87153052035E-01  0.88919827471E+00  0.88000000000E+00 0.  1.
        -11    1    4    4    0    0 -0.24876783311E-01 -0.12764004468E-02  0.23428634898E-01  0.34200081874E-01  0.51100000000E-03 0. -1.
         11    1    4    4    0    0 -0.82124250842E-01  0.14721490592E-01  0.50689564558E-01  0.97625856911E-01  0.51100000000E-03 0.  1.
</event>
<event>
 8    1  0.1131349E+005  0.1043930E+01  0.7957747E-01            NaN
         13   -1    0    0    0    0  0.00000000000E+00  0.00000000000E+00  0.74505805969E-08  0.10566000000E+00  0.10566000000E+00 0. -1.
     999900   -1    0    0    0    0 -0.00000000000E+00 -0.00000000000E+00 -0.74505805969E-08  0.93827000000E+00  0.93827000000E+00 0. -1.
     999902    2    1    2    0    0  0.22311758609E-01 -0.36959594645E-02  0.43691012670E-02  0.10208960309E+01  0.10206361458E+01 0.  0.
     999903    2    3    3    0    0 -0.11308602477E+00 -0.70862650452E-02 -0.56931652253E-01  0.12842651525E+00  0.20334518443E-01 0.  0.
         14    1    1    2    0    0 -0.22311758609E-01  0.36959594645E-02 -0.43691012670E-02  0.23033969143E-01  0.00000000000E+00 0. -1.
     999901    1    3    3    0    0  0.13539778337E+00  0.33903055807E-02  0.61300753520E-01  0.89246951561E+00  0.88000000000E+00 0.  1.
        -11    1    4    4    0    0 -0.52525972579E-01 -0.27408555749E-02 -0.15206423666E-01  0.54753872250E-01  0.51100000000E-03 0. -1.
         11    1    4    4    0    0 -0.60560052186E-01 -0.43454094703E-02 -0.41725228587E-01  0.73672642995E-01  0.51100000000E-03 0.  1.
</event>
<event>
 8    1  0.1131349E+005  0.1043930E+01  0.7957747E-01            NaN
         13   -1    0    0    0    0  0.00000000000E+00  0.00000000000E+00  0.74505805969E-08  0.10566000000E+00  0.10566000000E+00 0.  1.
     999900   -1    0    0    0    0 -0.00000000000E+00 -0.00000000000E+00 -0.74505805969E-08  0.93827000000E+00  0.93827000000E+00 0. -1.
     999902    2    1    2    0    0 -0.23202945469E-01 -0.61288442047E-02 -0.42378557492E-02  0.10195599604E+01  0.10192686662E+01 0.  0.
     999903    2    3    3    0    0 -0.84327595620E-01  0.81094351476E-01 -0.56813613164E-01  0.13158005127E+00  0.19952093281E-01 0.  0.
         14    1    1    2    0    0  0.23202945469E-01  0.61288442047E-02  0.42378557492E-02  0.24370039620E-01  0.00000000000E+00 0.  1.
     999901    1    3    3    0    0  0.61124650151E-01 -0.87223195681E-01  0.52575757415E-01  0.88797990911E+00  0.88000000000E+00 0.  1.
        -11    1    4    4    0    0 -0.22886643014E-01  0.30569961081E-01 -0.26342888498E-01  0.46395364471E-01  0.51100000000E-03 0.  1.
         11    1    4    4    0    0 -0.61440952606E-01  0.50524390394E-01 -0.30470724666E-01  0.85184686796E-01  0.51100000000E-03 0. -1.
</event>
<event>
 8    1  0.1131349E+005  0.1043930E+01  0.7957747E-01            NaN
         13   -1    0    0    0    0  0.00000000000E+00  0.00000000000E+00  0.74505805969E-08  0.10566000000E+00  0.10566000000E+00 0. -1.
     999900   -1    0    0    0    0 -0.00000000000E+00 -0.00000000000E+00 -0.74505805969E-08  0.93827000000E+00  0.93827000000E+00 0. -1.
     999902    2    1    2    0    0  0.95349724917E-03  0.23400751136E-01 -0.29854700521E-02  0.10203203125E+01  0.10200471179E+01 0.  0.
     999903    2    3    3    0    0 -0.12575522504E+00 -0.95366803578E-02 -0.25034009053E-01  0.13036182318E+00  0.21498335703E-01 0.  0.
         14    1    1    2    0    0 -0.95349724917E-03 -0.23400751136E-01  0.29854700521E-02  0.23609687465E-01  0.00000000000E+00 0. -1.
     999901    1    3    3    0    0  0.12670872229E+00  0.32937431494E-01  0.22048539001E-01  0.88995848935E+00  0.88000000000E+00 0.  1.
        -11    1    4    4    0    0 -0.71341903989E-01 -0.12100558831E-01 -0.58188960092E-02  0.72596222081E-01  0.51100000000E-03 0.  1.
         11    1    4    4    0    0 -0.54413321049E-01  0.25638784732E-02 -0.19215113043E-01  0.57765601102E-01  0.51100000000E-03 0. -1.
</event>
<event>
 8    1  0.1131349E+005  0.1043930E+01  0.7957747E-01            NaN
         13   -1    0    0    0    0  0.00000000000E+00  0.00000000000E+00  0.74505805969E-08  0.10566000000E+00  0.10566000000E+00 0.  1.
     999900   -1    0    0    0    0 -0.00000000000E+00 -0.00000000000E+00 -0.74505805969E-08  0.93827000000E+00  0.93827000000E+00 0. -1.
     999902    2    1    2    0    0  0.60270024006E-02  0.13506365147E-01 -0.18044178653E-01  0.10205989254E+01  0.10203322143E+01 0.  0.
     999903    2    3    3    0    0 -0.76357480327E-01  0.48315019373E-01  0.90319408444E-01  0.12945274639E+00  0.20871322616E-01 0.  0.
         14    1    1    2    0    0 -0.60270024006E-02 -0.13506365147E-01  0.18044178653E-01  0.23331074572E-01  0.00000000000E+00 0.  1.
     999901    1    3    3    0    0  0.82384482727E-01 -0.34808654226E-01 -0.10836358710E+00  0.89114617904E+00  0.88000000000E+00 0.  1.
        -11    1    4    4    0    0 -0.55394670001E-01  0.43902686214E-01  0.62622796108E-01  0.94434586009E-01  0.51100000000E-03 0. -1.
         11    1    4    4    0    0 -0.20962810325E-01  0.44123331586E-02  0.27696612337E-01  0.35018160383E-01  0.51100000000E-03 0.  1.
</event>
<event>
 8    1  0.1131349E+005  0.1043930E+01  0.7957747E-01            NaN
         13   -1    0    0    0    0  0.00000000000E+00  0.00000000000E+00  0.74505805969E-08  0.10566000000E+00  0.10566000000E+00 0. -1.
     999900   -1    0    0    0    0 -0.00000000000E+00 -0.00000000000E+00 -0.74505805969E-08  0.93827000000E+00  0.93827000000E+00 0. -1.
     999902    2    1    2    0    0 -0.93045196873E-02  0.27681327072E-01  0.22540302025E-01  0.10070396873E+01  0.10063637695E+01 0.  0.
     999903    2    3    3    0    0 -0.29566254207E-01 -0.90453490639E-01 -0.60188773149E-01  0.11506969178E+00  0.23713881947E-01 0.  0.
         14    1    1    2    0    0  0.93045196873E-02 -0.27681327072E-01 -0.22540302025E-01  0.36890312691E-01  0.00000000000E+00 0.  1.
     999901    1    3    3    0    0  0.20261734519E-01  0.11813481771E+00  0.82729075173E-01  0.89196999553E+00  0.88000000000E+00 0.  1.
        -11    1    4    4    0    0  0.22717611068E-02 -0.22685072064E-01 -0.98222131721E-02  0.24829627176E-01  0.51100000000E-03 0.  1.
         11    1    4    4    0    0 -0.31838015314E-01 -0.67768418575E-01 -0.50366559977E-01  0.90240064606E-01  0.51100000000E-03 0. -1.
</event>
<event>
 8    1  0.1131349E+005  0.1043930E+01  0.7957747E-01            NaN
         13   -1    0    0    0    0  0.00000000000E+00  0.00000000000E+00  0.74505805969E-08  0.10566000000E+00  0.10566000000E+00 0. -1.
     999900   -1    0    0    0    0 -0.00000000000E+00 -0.00000000000E+00 -0.74505805969E-08  0.93827000000E+00  0.93827000000E+00 0. -1.
     999902    2    1    2    0    0  0.18059177207E-01  0.39931406702E-02  0.15072965218E-01  0.10200705504E+01  0.10197914760E+01 0.  0.
     999903    2    3    3    0    0 -0.11677855818E+00 -0.29497549770E-01 -0.40504216222E-01  0.12743867539E+00  0.96274274386E-02 0.  0.
         14    1    1    2    0    0 -0.18059177207E-01 -0.39931406702E-02 -0.15072965218E-01  0.23859449580E-01  0.00000000000E+00 0. -1.
     999901    1    3    3    0    0  0.13483773539E+00  0.33490690441E-01  0.55577181440E-01  0.89263187503E+00  0.88000000000E+00 0.  1.
        -11    1    4    4    0    0 -0.26953981091E-01 -0.91840495744E-02 -0.13137332520E-01  0.31364223089E-01  0.51100000000E-03 0. -1.
         11    1    4    4    0    0 -0.89824577089E-01 -0.20313500196E-01 -0.27366883703E-01  0.96074452296E-01  0.51100000000E-03 0.  1.
</event>
<event>
 8    1  0.1131349E+005  0.1043930E+01  0.7957747E-01            NaN
         13   -1    0    0    0    0  0.00000000000E+00  0.00000000000E+00  0.74505805969E-08  0.10566000000E+00  0.10566000000E+00 0. -1.
     999900   -1    0    0    0    0 -0.00000000000E+00 -0.00000000000E+00 -0.74505805969E-08  0.93827000000E+00  0.93827000000E+00 0. -1.
     999902    2    1    2    0    0 -0.10464049746E-01  0.14477845311E-01 -0.17474509218E-01  0.10189407460E+01  0.10186342725E+01 0.  0.
     999903    2    3    3    0    0  0.58117897740E-01  0.97357192474E-01  0.58695574337E-01  0.12912371352E+00  0.19278225584E-01 0.  0.
         14    1    1    2    0    0  0.10464049746E-01 -0.14477845311E-01  0.17474509218E-01  0.24989253977E-01  0.00000000000E+00 0. -1.
     999901    1    3    3    0    0 -0.68581947485E-01 -0.82879347163E-01 -0.76170083555E-01  0.88981703250E+00  0.88000000000E+00 0. -1.
        -11    1    4    4    0    0  0.37740064500E-01  0.57247765395E-01  0.25286948405E-01  0.73084266377E-01  0.51100000000E-03 0. -1.
         11    1    4    4    0    0  0.20377833240E-01  0.40109427079E-01  0.33408625933E-01  0.56039447141E-01  0.51100000000E-03 0.  1.
</event>
<event>
 8    1  0.1131349E+005  0.1043930E+01  0.7957747E-01            NaN
         13   -1    0    0    0    0  0.00000000000E+00  0.00000000000E+00  0.74505805969E-08  0.10566000000E+00  0.10566000000E+00 0. -1.
     999900   -1    0    0    0    0 -0.00000000000E+00 -0.00000000000E+00 -0.74505805969E-08  0.93827000000E+00  0.93827000000E+00 0. -1.
     999902    2    1    2    0    0 -0.91079183579E-04 -0.23834746060E-01  0.17757672061E-02  0.10200290217E+01  0.10197489634E+01 0.  0.
     999903    2    3    3    0    0  0.96499159389E-01  0.12735470836E-01  0.85133897905E-01  0.13007642019E+00  0.14064655618E-01 0.  0.
         14    1    1    2    0    0  0.91079183579E-04  0.23834746060E-01 -0.17757672061E-02  0.23900978313E-01  0.00000000000E+00 0. -1.
     999901    1    3    3    0    0 -0.96590238572E-01 -0.36570216896E-01 -0.83358130699E-01  0.88995260149E+00  0.88000000000E+00 0.  1.
        -11    1    4    4    0    0  0.30895121001E-01  0.35945596163E-02  0.18877629781E-01  0.36387571885E-01  0.51100000000E-03 0.  1.
         11    1    4    4    0    0  0.65604038387E-01  0.91409112200E-02  0.66256268124E-01  0.93688848308E-01  0.51100000000E-03 0. -1.
</event>
<event>
 8    1  0.1131349E+005  0.1043930E+01  0.7957747E-01            NaN
         13   -1    0    0    0    0  0.00000000000E+00  0.00000000000E+00  0.74505805969E-08  0.10566000000E+00  0.10566000000E+00 0. -1.
     999900   -1    0    0    0    0 -0.00000000000E+00 -0.00000000000E+00 -0.74505805969E-08  0.93827000000E+00  0.93827000000E+00 0. -1.
     999902    2    1    2    0    0  0.30772886708E-03  0.15629287509E-01  0.17804458614E-01  0.10202367927E+01  0.10199616390E+01 0.  0.
     999903    2    3    3    0    0  0.12235501155E+00 -0.36925646981E-01  0.15529447167E-01  0.13025772777E+00  0.19790393093E-01 0.  0.
         14    1    1    2    0    0 -0.30772886708E-03 -0.15629287509E-01 -0.17804458614E-01  0.23693207289E-01  0.00000000000E+00 0.  1.
     999901    1    3    3    0    0 -0.12204728268E+00  0.52554934490E-01  0.22750114477E-02  0.88997906494E+00  0.88000000000E+00 0.  1.
        -11    1    4    4    0    0  0.87513294473E-01 -0.35190826698E-01  0.88919510288E-02  0.94743331730E-01  0.51100000000E-03 0. -1.
         11    1    4    4    0    0  0.34841717078E-01 -0.17348202834E-02  0.66374961380E-02  0.35514396043E-01  0.51100000000E-03 0.  1.
</event>
<event>
 8    1  0.1131349E+005  0.1043930E+01  0.7957747E-01            NaN
         13   -1    0    0    0    0  0.00000000000E+00  0.00000000000E+00  0.74505805969E-08  0.10566000000E+00  0.10566000000E+00 0. -1.
     999900   -1    0    0    0    0 -0.00000000000E+00 -0.00000000000E+00 -0.74505805969E-08  0.93827000000E+00  0.93827000000E+00 0. -1.
     999902    2    1    2    0    0 -0.18982002743E-01 -0.24727957675E-02 -0.15885617350E-01  0.10190546309E+01  0.10187509788E+01 0.  0.
     999903    2    3    3    0    0  0.12926605655E-01 -0.51509735111E-01  0.11356052396E+00  0.12766297504E+00  0.24114158691E-01 0.  0.
         14    1    1    2    0    0  0.18982002743E-01  0.24727957675E-02  0.15885617350E-01  0.24875369055E-01  0.00000000000E+00 0. -1.
     999901    1    3    3    0    0 -0.31908608398E-01  0.49036939344E-01 -0.12944614131E+00  0.89139165590E+00  0.88000000000E+00 0. -1.
        -11    1    4    4    0    0 -0.51095891047E-02 -0.24218463032E-01  0.38377023727E-01  0.45669452850E-01  0.51100000000E-03 0.  1.
         11    1    4    4    0    0  0.18036194759E-01 -0.27291272079E-01  0.75183500235E-01  0.81993522193E-01  0.51100000000E-03 0. -1.
</event>
<event>
 8    1  0.1131349E+005  0.1043930E+01  0.7957747E-01            NaN
         13   -1    0    0    0    0  0.00000000000E+00  0.00000000000E+00  0.74505805969E-08  0.10566000000E+00  0.10566000000E+00 0.  1.
     999900   -1    0    0    0    0 -0.00000000000E+00 -0.00000000000E+00 -0.74505805969E-08  0.93827000000E+00  0.93827000000E+00 0.  1.
     999902    2    1    2    0    0 -0.28737621301E-01 -0.53623924206E-02 -0.17344906306E-02  0.10146449426E+01  0.10142222364E+01 0.  0.
     999903    2    3    3    0    0  0.39741191001E-01  0.72511696820E-01  0.90022164594E-01  0.12381779588E+00  0.19736970919E-01 0.  0.
         14    1    1    2    0    0  0.28737621301E-01  0.53623924206E-02  0.17344906306E-02  0.29285057423E-01  0.00000000000E+00 0. -1.
     999901    1    3    3    0    0 -0.68478812302E-01 -0.77874089241E-01 -0.91756655225E-01  0.89082714669E+00  0.88000000000E+00 0.  1.
        -11    1    4    4    0    0  0.34554977132E-01  0.71386874707E-01  0.81179582389E-01  0.11349236998E+00  0.51100000000E-03 0. -1.
         11    1    4    4    0    0  0.51862138696E-02  0.11248221131E-02  0.88425822050E-02  0.10325425906E-01  0.51100000000E-03 0.  1.
</event>
<event>
 8    1  0.1131349E+005  0.1043930E+01  0.7957747E-01            NaN
         13   -1    0    0    0    0  0.00000000000E+00  0.00000000000E+00  0.74505805969E-08  0.10566000000E+00  0.10566000000E+00 0. -1.
     999900   -1    0    0    0    0 -0.00000000000E+00 -0.00000000000E+00 -0.74505805969E-08  0.93827000000E+00  0.93827000000E+00 0. -1.
     999902    2    1    2    0    0 -0.43961053835E-02 -0.22958608876E-01 -0.44027485102E-02  0.10201432882E+01  0.10198659328E+01 0.  0.
     999903    2    3    3    0    0 -0.41068703591E-01 -0.80663911087E-01  0.94133822821E-01  0.13200802977E+00  0.19277924139E-01 0.  0.
         14    1    1    2    0    0  0.43961053835E-02  0.22958608876E-01  0.44027485102E-02  0.23786711805E-01  0.00000000000E+00 0. -1.
     999901    1    3    3    0    0  0.36672598208E-01  0.57705302211E-01 -0.98536571331E-01  0.88813525842E+00  0.88000000000E+00 0. -1.
        -11    1    4    4    0    0 -0.34772648389E-02 -0.22897276370E-01  0.18206376554E-01  0.29463704861E-01  0.51100000000E-03 0.  1.
         11    1    4    4    0    0 -0.37591438752E-01 -0.57766634717E-01  0.75927446267E-01  0.10254432491E+00  0.51100000000E-03 0. -1.
</event>
<event>
 8    1  0.1131349E+005  0.1043930E+01  0.7957747E-01            NaN
         13   -1    0    0    0    0  0.00000000000E+00  0.00000000000E+00  0.74505805969E-08  0.10566000000E+00  0.10566000000E+00 0. -1.
     999900   -1    0    0    0    0 -0.00000000000E+00 -0.00000000000E+00 -0.74505805969E-08  0.93827000000E+00  0.93827000000E+00 0. -1.
     999902    2    1    2    0    0  0.91168047771E-02 -0.14711424778E-01 -0.15814383061E-01  0.10204856647E+01  0.10202163275E+01 0.  0.
     999903    2    3    3    0    0 -0.95112484940E-01  0.99698897759E-02  0.83481896681E-01  0.12844717709E+00  0.19587412669E-01 0.  0.
         14    1    1    2    0    0 -0.91168047771E-02  0.14711424778E-01  0.15814383061E-01  0.23444335348E-01  0.00000000000E+00 0. -1.
     999901    1    3    3    0    0  0.10422928972E+00 -0.24681314554E-01 -0.99296279742E-01  0.89203848756E+00  0.88000000000E+00 0. -1.
        -11    1    4    4    0    0 -0.27641745141E-01 -0.59028709186E-02  0.25751251281E-01  0.38240005532E-01  0.51100000000E-03 0. -1.
         11    1    4    4    0    0 -0.67470739799E-01  0.15872760694E-01  0.57730645400E-01  0.90207171557E-01  0.51100000000E-03 0.  1.
</event>
<event>
 8    1  0.1131349E+005  0.1043930E+01  0.7957747E-01            NaN
         13   -1    0    0    0    0  0.00000000000E+00  0.00000000000E+00  0.74505805969E-08  0.10566000000E+00  0.10566000000E+00 0. -1.
     999900   -1    0    0    0    0 -0.00000000000E+00 -0.00000000000E+00 -0.74505805969E-08  0.93827000000E+00  0.93827000000E+00 0. -1.
     999902    2    1    2    0    0  0.19929395888E-01  0.93588973932E-02  0.84084175429E-02  0.10203615621E+01  0.10200893324E+01 0.  0.
     999903    2    3    3    0    0 -0.95625462384E-01  0.31165931646E-01  0.79399533096E-01  0.12970550584E+00  0.20091989387E-01 0.  0.
         14    1    1    2    0    0 -0.19929395888E-01 -0.93588973932E-02 -0.84084175429E-02  0.23568437930E-01  0.00000000000E+00 0.  1.
     999901    1    3    3    0    0  0.11555485827E+00 -0.21807034253E-01 -0.70991115553E-01  0.89065605623E+00  0.88000000000E+00 0. -1.
        -11    1    4    4    0    0 -0.20901884719E-01  0.29613693492E-02  0.26588309145E-01  0.33953759695E-01  0.51100000000E-03 0.  1.
         11    1    4    4    0    0 -0.74723577665E-01  0.28204562297E-01  0.52811223951E-01  0.95751746144E-01  0.51100000000E-03 0. -1.
</event>
<event>
 8    1  0.1131349E+005  0.1043930E+01  0.7957747E-01            NaN
         13   -1    0    0    0    0  0.00000000000E+00  0.00000000000E+00  0.74505805969E-08  0.10566000000E+00  0.10566000000E+00 0. -1.
     999900   -1    0    0    0    0 -0.00000000000E+00 -0.00000000000E+00 -0.74505805969E-08  0.93827000000E+00  0.93827000000E+00 0. -1.
     999902    2    1    2    0    0  0.92743068836E-02 -0.12867843069E-01 -0.17601052820E-01  0.10202363043E+01  0.10199611392E+01 0.  0.
     999903    2    3    3    0    0  0.11706945075E+00 -0.54797226356E-01  0.17903698210E-01  0.13195793943E+00  0.19605179299E-01 0.  0.
         14    1    1    2    0    0 -0.92743068836E-02  0.12867843069E-01  0.17601052820E-01  0.23693695655E-01  0.00000000000E+00 0.  1.
     999901    1    3    3    0    0 -0.10779514386E+00  0.41929383287E-01 -0.35504751030E-01  0.88827836491E+00  0.88000000000E+00 0.  1.
        -11    1    4    4    0    0  0.84052720563E-01 -0.30332581237E-01  0.16273470407E-01  0.90829578215E-01  0.51100000000E-03 0. -1.
         11    1    4    4    0    0  0.33016730184E-01 -0.24464645119E-01  0.16302278029E-02  0.41128361219E-01  0.51100000000E-03 0.  1.
</event>
<event>
 8    1  0.1131349E+005  0.1043930E+01  0.7957747E-01            NaN
         13   -1    0    0    0    0  0.00000000000E+00  0.00000000000E+00  0.74505805969E-08  0.10566000000E+00  0.10566000000E+00 0. -1.
     999900   -1    0    0    0    0 -0.00000000000E+00 -0.00000000000E+00 -0.74505805969E-08  0.93827000000E+00  0.93827000000E+00 0.  1.
     999902    2    1    2    0    0  0.21206199125E-02  0.15898509199E-01 -0.16671221261E-01  0.10207958425E+01  0.10205336657E+01 0.  0.
     999903    2    3    3    0    0  0.85770527060E-01 -0.35087631883E-01 -0.91989381526E-01  0.13216221790E+00  0.20422544026E-01 0.  0.
         14    1    1    2    0    0 -0.21206199125E-02 -0.15898509199E-01  0.16671221261E-01  0.23134157471E-01  0.00000000000E+00 0. -1.
     999901    1    3    3    0    0 -0.83649907147E-01  0.50986141082E-01  0.75318160266E-01  0.88863362462E+00  0.88000000000E+00 0. -1.
        -11    1    4    4    0    0  0.66805719273E-01 -0.17617055928E-01 -0.67907072046E-01  0.96876190790E-01  0.51100000000E-03 0.  1.
         11    1    4    4    0    0  0.18964807787E-01 -0.17470575955E-01 -0.24082309481E-01  0.35286027114E-01  0.51100000000E-03 0. -1.
</event>
<event>
 8    1  0.1131349E+005  0.1043930E+01  0.7957747E-01            NaN
         13   -1    0    0    0    0  0.00000000000E+00  0.00000000000E+00  0.74505805969E-08  0.10566000000E+00  0.10566000000E+00 0. -1.
     999900   -1    0    0    0    0 -0.00000000000E+00 -0.00000000000E+00 -0.74505805969E-08  0.93827000000E+00  0.93827000000E+00 0. -1.
     999902    2    1    2    0    0 -0.20997700273E-01 -0.92089217172E-02  0.60416863035E-02  0.10202190399E+01  0.10199434689E+01 0.  0.
     999903    2    3    3    0    0  0.78136199579E-01  0.99260535233E-01  0.61980195901E-02  0.12803454236E+00  0.19912535034E-01 0.  0.
         14    1    1    2    0    0  0.20997700273E-01  0.92089217172E-02 -0.60416863035E-02  0.23710960110E-01  0.00000000000E+00 0. -1.
     999901    1    3    3    0    0 -0.99133899852E-01 -0.10846945695E+00 -0.15633328667E-03  0.89218449753E+00  0.88000000000E+00 0.  1.
        -11    1    4    4    0    0  0.24703692574E-01  0.45911325965E-01 -0.13082636267E-02  0.52154529558E-01  0.51100000000E-03 0.  1.
         11    1    4    4    0    0  0.53432507005E-01  0.53349209267E-01  0.75062832169E-02  0.75880012803E-01  0.51100000000E-03 0. -1.
</event>
<event>
 8    1  0.1131349E+005  0.1043930E+01  0.7957747E-01            NaN
         13   -1    0    0    0    0  0.00000000000E+00  0.00000000000E+00  0.74505805969E-08  0.10566000000E+00  0.10566000000E+00 0.  1.
     999900   -1    0    0    0    0 -0.00000000000E+00 -0.00000000000E+00 -0.74505805969E-08  0.93827000000E+00  0.93827000000E+00 0.  1.
     999902    2    1    2    0    0 -0.12344350086E-01  0.19426267009E-01  0.65848762849E-02  0.10199900037E+01  0.10197090194E+01 0.  0.
     999903    2    3    3    0    0  0.86393751296E-01  0.95285361360E-01 -0.11682344270E-01  0.13103696429E+00  0.22159162678E-01 0.  0.
         14    1    1    2    0    0  0.12344350086E-01 -0.19426267009E-01 -0.65848762849E-02  0.23939996337E-01  0.00000000000E+00 0. -1.
     999901    1    3    3    0    0 -0.98738101382E-01 -0.75859094352E-01  0.18267220555E-01  0.88895303937E+00  0.88000000000E+00 0. -1.
        -11    1    4    4    0    0  0.54346091764E-01  0.66285380060E-01  0.18705570051E-02  0.85738027760E-01  0.51100000000E-03 0. -1.
         11    1    4    4    0    0  0.32047659533E-01  0.28999981300E-01 -0.13552901275E-01  0.45298936532E-01  0.51100000000E-03 0.  1.
</event>
<event>
 8    1  0.1131349E+005  0.1043930E+01  0.7957747E-01            NaN
         13   -1    0    0    0    0  0.00000000000E+00  0.00000000000E+00  0.74505805969E-08  0.10566000000E+00  0.10566000000E+00 0.  1.
     999900   -1    0    0    0    0 -0.00000000000E+00 -0.00000000000E+00 -0.74505805969E-08  0.93827000000E+00  0.93827000000E+00 0.  1.
     999902    2    1    2    0    0 -0.15567267923E-01 -0.18014217151E-01  0.10522161889E-03  0.10201211167E+01  0.10198432379E+01 0.  0.
     999903    2    3    3    0    0 -0.11073831037E+00  0.56905985413E-01  0.35316750431E-01  0.13112706962E+00  0.21113288815E-01 0.  0.
         14    1    1    2    0    0  0.15567267923E-01  0.18014217151E-01 -0.10522161889E-03  0.23808883253E-01  0.00000000000E+00 0. -1.
     999901    1    3    3    0    0  0.95171042451E-01 -0.74920202564E-01 -0.35211528812E-01  0.88899404713E+00  0.88000000000E+00 0.  1.
        -11    1    4    4    0    0 -0.96478289485E-01  0.51669372635E-01  0.23660906036E-01  0.11197269313E+00  0.51100000000E-03 0. -1.
         11    1    4    4    0    0 -0.14260020889E-01  0.52366127781E-02  0.11655844395E-01  0.19154376489E-01  0.51100000000E-03 0.  1.
</event>
<event>
 8    1  0.1131349E+005  0.1043930E+01  0.7957747E-01            NaN
         13   -1    0    0    0    0  0.00000000000E+00  0.00000000000E+00  0.74505805969E-08  0.10566000000E+00  0.10566000000E+00 0. -1.
     999900   -1    0    0    0    0 -0.00000000000E+00 -0.00000000000E+00 -0.74505805969E-08  0.93827000000E+00  0.93827000000E+00 0.  1.
     999902    2    1    2    0    0 -0.88428175193E-02  0.31427937178E-02 -0.20551333076E-01  0.10213373050E+01  0.10210873914E+01 0.  0.
     999903    2    3    3    0    0 -0.19711028817E-01 -0.61740321372E-02 -0.13115361002E+00  0.13429853198E+00  0.20203537795E-01 0.  0.
         14    1    1    2    0    0  0.88428175193E-02 -0.31427937178E-02  0.20551333076E-01  0.22592694953E-01  0.00000000000E+00 0. -1.
     999901    1    3    3    0    0  0.10868211298E-01  0.93168258550E-02  0.11060227695E+00  0.88703877307E+00  0.88000000000E+00 0. -1.
        -11    1    4    4    0    0 -0.80268809231E-02 -0.74223702981E-02 -0.10562752291E+00  0.10619301820E+00  0.51100000000E-03 0.  1.
         11    1    4    4    0    0 -0.11684147894E-01  0.12483381608E-02 -0.25526087114E-01  0.28105513775E-01  0.51100000000E-03 0. -1.
</event>
<event>
 8    1  0.1131349E+005  0.1043930E+01  0.7957747E-01            NaN
         13   -1    0    0    0    0  0.00000000000E+00  0.00000000000E+00  0.74505805969E-08  0.10566000000E+00  0.10566000000E+00 0. -1.
     999900   -1    0    0    0    0 -0.00000000000E+00 -0.00000000000E+00 -0.74505805969E-08  0.93827000000E+00  0.93827000000E+00 0.  1.
     999902    2    1    2    0    0 -0.17305531674E-01  0.79316655893E-02 -0.10632370466E-01  0.10221254122E+01  0.10218928116E+01 0.  0.
     999903    2    3    3    0    0 -0.11622319207E+00 -0.59323627257E-01 -0.22709105074E-01  0.13395097810E+00  0.20000948848E-01 0.  0.
         14    1    1    2    0    0  0.17305531674E-01 -0.79316655893E-02  0.10632370466E-01  0.21804587757E-01  0.00000000000E+00 0. -1.
     999901    1    3    3    0    0  0.98917660392E-01  0.67255292846E-01  0.12076734608E-01  0.88817443415E+00  0.88000000000E+00 0.  1.
        -11    1    4    4    0    0 -0.84650485838E-01 -0.43532251692E-01 -0.74225823937E-02  0.95478361634E-01  0.51100000000E-03 0. -1.
         11    1    4    4    0    0 -0.31572706228E-01 -0.15791375565E-01 -0.15286522680E-01  0.38472616462E-01  0.51100000000E-03 0.  1.
</event>
<event>
 8    1  0.1131349E+005  0.1043930E+01  0.7957747E-01            NaN
         13   -1    0    0    0    0  0.00000000000E+00  0.00000000000E+00  0.74505805969E-08  0.10566000000E+00  0.10566000000E+00 0. -1.
     999900   -1    0    0    0    0 -0.00000000000E+00 -0.00000000000E+00 -0.74505805969E-08  0.93827000000E+00  0.93827000000E+00 0.  1.
     999902    2    1    2    0    0  0.14274623775E-02 -0.19834002629E-02 -0.22841321823E-01  0.10209583325E+01  0.10206998673E+01 0.  0.
     999903    2    3    3    0    0  0.32789004128E-01 -0.93263654112E-01  0.82049441362E-01  0.12948892570E+00  0.16187744794E-01 0.  0.
         14    1    1    2    0    0 -0.14274623775E-02  0.19834002629E-02  0.22841321823E-01  0.22971667507E-01  0.00000000000E+00 0. -1.
     999901    1    3    3    0    0 -0.31361541751E-01  0.91280253849E-01 -0.10489076318E+00  0.89146940679E+00  0.88000000000E+00 0.  1.
        -11    1    4    4    0    0  0.17107817002E-01 -0.38390486244E-01  0.44267361613E-01  0.61043978096E-01  0.51100000000E-03 0. -1.
         11    1    4    4    0    0  0.15681187126E-01 -0.54873167869E-01  0.37782079749E-01  0.68444947606E-01  0.51100000000E-03 0.  1.
</event>
<event>
 8    1  0.1131349E+005  0.1043930E+01  0.7957747E-01            NaN
         13   -1    0    0    0    0  0.00000000000E+00  0.00000000000E+00  0.74505805969E-08  0.10566000000E+00  0.10566000000E+00 0. -1.
     999900   -1    0    0    0    0 -0.00000000000E+00 -0.00000000000E+00 -0.74505805969E-08  0.93827000000E+00  0.93827000000E+00 0.  1.
     999902    2    1    2    0    0  0.77117324333E-02  0.20447869011E-01 -0.10183062877E-01  0.10198202316E+01  0.10195351999E+01 0.  0.
     999903    2    3    3    0    0 -0.34163273628E-01 -0.18403898078E-01 -0.12293750025E+00  0.13078899529E+00  0.22052201493E-01 0.  0.
         14    1    1    2    0    0 -0.77117324333E-02 -0.20447869011E-01  0.10183062877E-01  0.24109768431E-01  0.00000000000E+00 0. -1.
     999901    1    3    3    0    0  0.41875006061E-01  0.38851767089E-01  0.11275443737E+00  0.88903123628E+00  0.88000000000E+00 0. -1.
        -11    1    4    4    0    0 -0.11557701611E-01 -0.10363269436E-01 -0.21329167524E-01  0.26385077756E-01  0.51100000000E-03 0.  1.
         11    1    4    4    0    0 -0.22605572017E-01 -0.80406286419E-02 -0.10160833273E+00  0.10440391753E+00  0.51100000000E-03 0. -1.
</event>
<event>
 8    1  0.1131349E+005  0.1043930E+01  0.7957747E-01            NaN
         13   -1    0    0    0    0  0.00000000000E+00  0.00000000000E+00  0.74505805969E-08  0.10566000000E+00  0.10566000000E+00 0.  1.
     999900   -1    0    0    0    0 -0.00000000000E+00 -0.00000000000E+00 -0.74505805969E-08  0.93827000000E+00  0.93827000000E+00 0. -1.
     999902    2    1    2    0    0 -0.69647846620E-02  0.15865628696E-01  0.23777120018E-01  0.10145092958E+01  0.10140826068E+01 0.  0.
     999903    2    3    3    0    0 -0.62869959184E-01 -0.28907004542E-01 -0.99642646391E-01  0.12301481126E+00  0.20389706469E-01 0.  0.
         14    1    1    2    0    0  0.69647846620E-02 -0.15865628696E-01 -0.23777120018E-01  0.29420704200E-01  0.00000000000E+00 0. -1.
     999901    1    3    3    0    0  0.55905174522E-01  0.44772633238E-01  0.12341976641E+00  0.89149448454E+00  0.88000000000E+00 0.  1.
        -11    1    4    4    0    0 -0.35630324685E-01 -0.92619006644E-02 -0.38613908333E-01  0.53353517961E-01  0.51100000000E-03 0.  1.
         11    1    4    4    0    0 -0.27239634500E-01 -0.19645103877E-01 -0.61028738058E-01  0.69661293298E-01  0.51100000000E-03 0. -1.
</event>
<event>
 8    1  0.1131349E+005  0.1043930E+01  0.7957747E-01            NaN
         13   -1    0    0    0    0  0.00000000000E+00  0.00000000000E+00  0.74505805969E-08  0.10566000000E+00  0.10566000000E+00 0. -1.
     999900   -1    0    0    0    0 -0.00000000000E+00 -0.00000000000E+00 -0.74505805969E-08  0.93827000000E+00  0.93827000000E+00 0.  1.
     999902    2    1    2    0    0  0.43831781109E-02 -0.19700892462E-01 -0.12274958549E-01  0.10203077219E+01  0.10200342325E+01 0.  0.
     999903    2    3    3    0    0  0.12371727138E+00  0.11161224951E-01  0.35761080186E-01  0.13041977554E+00  0.17318395249E-01 0.  0.
         14    1    1    2    0    0 -0.43831781109E-02  0.19700892462E-01  0.12274958549E-01  0.23622278077E-01  0.00000000000E+00 0. -1.
     999901    1    3    3    0    0 -0.11933409327E+00 -0.30862117413E-01 -0.48036038735E-01  0.88988794639E+00  0.88000000000E+00 0. -1.
        -11    1    4    4    0    0  0.35529525056E-01 -0.14131246615E-02  0.16859395212E-01  0.39355360497E-01  0.51100000000E-03 0. -1.
         11    1    4    4    0    0  0.88187746327E-01  0.12574349613E-01  0.18901684974E-01  0.91064415038E-01  0.51100000000E-03 0.  1.
</event>
<event>
 8    1  0.1131349E+005  0.1043930E+01  0.7957747E-01            NaN
         13   -1    0    0    0    0  0.00000000000E+00  0.00000000000E+00  0.74505805969E-08  0.10566000000E+00  0.10566000000E+00 0. -1.
     999900   -1    0    0    0    0 -0.00000000000E+00 -0.00000000000E+00 -0.74505805969E-08  0.93827000000E+00  0.93827000000E+00 0. -1.
     999902    2    1    2    0    0  0.15006324945E-01 -0.15736108867E-01  0.10517841556E-01  0.10197754994E+01  0.10194893963E+01 0.  0.
     999903    2    3    3    0    0 -0.18549985872E-01  0.21346354721E-01  0.12615841268E+00  0.13080200324E+00  0.19835577280E-01 0.  0.
         14    1    1    2    0    0 -0.15006324945E-01  0.15736108867E-01 -0.10517841556E-01  0.24154500650E-01  0.00000000000E+00 0.  1.
     999901    1    3    3    0    0  0.33556310817E-01 -0.37082463588E-01 -0.11564057112E+00  0.88897349611E+00  0.88000000000E+00 0. -1.
        -11    1    4    4    0    0  0.29965185677E-02  0.22826047590E-02  0.50414088994E-02  0.63139791497E-02  0.51100000000E-03 0.  1.
         11    1    4    4    0    0 -0.21546504440E-01  0.19063749962E-01  0.12111700378E+00  0.12448802409E+00  0.51100000000E-03 0. -1.
</event>
<event>
 8    1  0.1131349E+005  0.1043930E+01  0.7957747E-01            NaN
         13   -1    0    0    0    0  0.00000000000E+00  0.00000000000E+00  0.74505805969E-08  0.10566000000E+00  0.10566000000E+00 0. -1.
     999900   -1    0    0    0    0 -0.00000000000E+00 -0.00000000000E+00 -0.74505805969E-08  0.93827000000E+00  0.93827000000E+00 0. -1.
     999902    2    1    2    0    0 -0.19411666451E-01  0.13001313183E-02 -0.14783484804E-01  0.10194953001E+01  0.10192024394E+01 0.  0.
     999903    2    3    3    0    0 -0.45609216369E-01  0.10645040142E+00 -0.59781448068E-01  0.13170720173E+00  0.19002022877E-01 0.  0.
         14    1    1    2    0    0  0.19411666451E-01 -0.13001313183E-02  0.14783484804E-01  0.24434699892E-01  0.00000000000E+00 0. -1.
     999901    1    3    3    0    0  0.26197549918E-01 -0.10515027010E+00  0.44997963264E-01  0.88778809838E+00  0.88000000000E+00 0. -1.
        -11    1    4    4    0    0 -0.73462011473E-02  0.32252904755E-01 -0.24034920637E-01  0.40891992706E-01  0.51100000000E-03 0. -1.
         11    1    4    4    0    0 -0.38263015222E-01  0.74197496667E-01 -0.35746527431E-01  0.90815209023E-01  0.51100000000E-03 0.  1.
</event>
<event>
 8    1  0.1131349E+005  0.1043930E+01  0.7957747E-01            NaN
         13   -1    0    0    0    0  0.00000000000E+00  0.00000000000E+00  0.74505805969E-08  0.10566000000E+00  0.10566000000E+00 0.  1.
     999900   -1    0    0    0    0 -0.00000000000E+00 -0.00000000000E+00 -0.74505805969E-08  0.93827000000E+00  0.93827000000E+00 0.  1.
     999902    2    1    2    0    0  0.23337873261E-01 -0.50624697358E-03 -0.61091495627E-03  0.10205786439E+01  0.10203114635E+01 0.  0.
     999903    2    3    3    0    0 -0.71460930560E-01  0.59253950326E-01 -0.87565569674E-01  0.12922057536E+00  0.20310905397E-01 0.  0.
         14    1    1    2    0    0 -0.23337873261E-01  0.50624697358E-03  0.61091495627E-03  0.23351356094E-01  0.00000000000E+00 0. -1.
     999901    1    3    3    0    0  0.94798803821E-01 -0.59760197300E-01  0.86954654718E-01  0.89135806855E+00  0.88000000000E+00 0.  1.
        -11    1    4    4    0    0  0.10080694096E-02  0.32412740666E-02 -0.32734172670E-02  0.47432523772E-02  0.51100000000E-03 0. -1.
         11    1    4    4    0    0 -0.72468999970E-01  0.56012676260E-01 -0.84292152407E-01  0.12447732298E+00  0.51100000000E-03 0.  1.
</event>
<event>
 8    1  0.1131349E+005  0.1043930E+01  0.7957747E-01            NaN
         13   -1    0    0    0    0  0.00000000000E+00  0.00000000000E+00  0.74505805969E-08  0.10566000000E+00  0.10566000000E+00 0.  1.
     999900   -1    0    0    0    0 -0.00000000000E+00 -0.00000000000E+00 -0.74505805969E-08  0.93827000000E+00  0.93827000000E+00 0.  1.
     999902    2    1    2    0    0  0.72108361290E-02 -0.10355692496E-02  0.22593796877E-01  0.10201908294E+01  0.10199145946E+01 0.  0.
     999903    2    3    3    0    0 -0.10523967284E+00  0.45939382258E-01 -0.54531467221E-01  0.12845091815E+00  0.18442935644E-01 0.  0.
         14    1    1    2    0    0 -0.72108361290E-02  0.10355692496E-02 -0.22593796877E-01  0.23739170556E-01  0.00000000000E+00 0. -1.
     999901    1    3    3    0    0  0.11245050896E+00 -0.46974951508E-01  0.77125264098E-01  0.89173991130E+00  0.88000000000E+00 0. -1.
        -11    1    4    4    0    0 -0.46179762523E-01  0.29435457024E-01 -0.29590118114E-01  0.62248315704E-01  0.51100000000E-03 0. -1.
         11    1    4    4    0    0 -0.59059910312E-01  0.16503925234E-01 -0.24941349107E-01  0.66202602445E-01  0.51100000000E-03 0.  1.
</event>
<event>
 8    1  0.1131349E+005  0.1043930E+01  0.7957747E-01            NaN
         13   -1    0    0    0    0  0.00000000000E+00  0.00000000000E+00  0.74505805969E-08  0.10566000000E+00  0.10566000000E+00 0.  1.
     999900   -1    0    0    0    0 -0.00000000000E+00 -0.00000000000E+00 -0.74505805969E-08  0.93827000000E+00  0.93827000000E+00 0. -1.
     999902    2    1    2    0    0  0.24631837557E-02 -0.23392521345E-01 -0.82547165920E-03  0.10203936721E+01  0.10201221923E+01 0.  0.
     999903    2    3    3    0    0 -0.44001227354E-01 -0.17687816918E-01  0.12032856922E+00  0.13086020627E+00  0.19911357006E-01 0.  0.
         14    1    1    2    0    0 -0.24631837557E-02  0.23392521345E-01  0.82547165920E-03  0.23536327932E-01  0.00000000000E+00 0.  1.
     999901    1    3    3    0    0  0.46464411109E-01 -0.57047044268E-02 -0.12115404088E+00  0.88953346580E+00  0.88000000000E+00 0. -1.
        -11    1    4    4    0    0 -0.33761399803E-01 -0.21950921262E-01  0.96781693863E-01  0.10482667814E+00  0.51100000000E-03 0.  1.
         11    1    4    4    0    0 -0.10239827551E-01  0.42631043439E-02  0.23546875360E-01  0.26033528134E-01  0.51100000000E-03 0. -1.
</event>
<event>
 8    1  0.1131349E+005  0.1043930E+01  0.7957747E-01            NaN
         13   -1    0    0    0    0  0.00000000000E+00  0.00000000000E+00  0.74505805969E-08  0.10566000000E+00  0.10566000000E+00 0. -1.
     999900   -1    0    0    0    0 -0.00000000000E+00 -0.00000000000E+00 -0.74505805969E-08  0.93827000000E+00  0.93827000000E+00 0.  1.
     999902    2    1    2    0    0  0.11431069329E-01  0.18282425961E-01  0.80524554713E-02  0.10209135171E+01  0.10206540310E+01 0.  0.
     999903    2    3    3    0    0  0.10965879013E+00 -0.37678350964E-01  0.60024230105E-01  0.13216081865E+00  0.20466201461E-01 0.  0.
         14    1    1    2    0    0 -0.11431069329E-01 -0.18282425961E-01 -0.80524554713E-02  0.23016482880E-01  0.00000000000E+00 0. -1.
     999901    1    3    3    0    0 -0.98227720796E-01  0.55960776926E-01 -0.51971774633E-01  0.88875269847E+00  0.88000000000E+00 0.  1.
        -11    1    4    4    0    0  0.46593096035E-01 -0.58934296074E-02  0.20701291418E-01  0.51326929560E-01  0.51100000000E-03 0.  1.
         11    1    4    4    0    0  0.63065694090E-01 -0.31784921357E-01  0.39322938686E-01  0.80833889085E-01  0.51100000000E-03 0. -1.
</event>
<event>
 8    1  0.1131349E+005  0.1043930E+01  0.7957747E-01            NaN
         13   -1    0    0    0    0  0.00000000000E+00  0.00000000000E+00  0.74505805969E-08  0.10566000000E+00  0.10566000000E+00 0.  1.
     999900   -1    0    0    0    0 -0.00000000000E+00 -0.00000000000E+00 -0.74505805969E-08  0.93827000000E+00  0.93827000000E+00 0.  1.
     999902    2    1    2    0    0  0.12311077714E-01  0.20346417979E-01 -0.10262692757E-02  0.10201267946E+01  0.10198490498E+01 0.  0.
     999903    2    3    3    0    0 -0.29337212798E-02 -0.11642490584E+00  0.51109443248E-01  0.12790656873E+00  0.13584907598E-01 0.  0.
         14    1    1    2    0    0 -0.12311077714E-01 -0.20346417979E-01  0.10262692757E-02  0.23803205408E-01  0.00000000000E+00 0.  1.
     999901    1    3    3    0    0  0.15244798994E-01  0.13677132382E+00 -0.52135712523E-01  0.89222022586E+00  0.88000000000E+00 0.  1.
        -11    1    4    4    0    0  0.21670439756E-03 -0.61043388683E-01  0.33889514912E-01  0.69821934982E-01  0.51100000000E-03 0. -1.
         11    1    4    4    0    0 -0.31504256773E-02 -0.55381517159E-01  0.17219928336E-01  0.58084633748E-01  0.51100000000E-03 0.  1.
</event>
<event>
 8    1  0.1131349E+005  0.1043930E+01  0.7957747E-01            NaN
         13   -1    0    0    0    0  0.00000000000E+00  0.00000000000E+00  0.74505805969E-08  0.10566000000E+00  0.10566000000E+00 0. -1.
     999900   -1    0    0    0    0 -0.00000000000E+00 -0.00000000000E+00 -0.74505805969E-08  0.93827000000E+00  0.93827000000E+00 0.  1.
     999902    2    1    2    0    0  0.18723753437E-01  0.13206563271E-01  0.42853871870E-02  0.10206199850E+01  0.10203537607E+01 0.  0.
     999903    2    3    3    0    0 -0.49623255668E-01 -0.91043788425E-01 -0.74892857583E-01  0.12831474354E+00  0.10212461948E-01 0.  0.
         14    1    1    2    0    0 -0.18723753437E-01 -0.13206563271E-01 -0.42853871870E-02  0.23310015005E-01  0.00000000000E+00 0. -1.
     999901    1    3    3    0    0  0.68347009105E-01  0.10425035170E+00  0.79178244770E-01  0.89230524145E+00  0.88000000000E+00 0. -1.
        -11    1    4    4    0    0 -0.31644348155E-01 -0.47541346041E-01 -0.41653915061E-01  0.70688429848E-01  0.51100000000E-03 0. -1.
         11    1    4    4    0    0 -0.17978907512E-01 -0.43502442384E-01 -0.33238942523E-01  0.57626313692E-01  0.51100000000E-03 0.  1.
</event>
<event>
 8    1  0.1131349E+005  0.1043930E+01  0.7957747E-01            NaN
         13   -1    0    0    0    0  0.00000000000E+00  0.00000000000E+00  0.74505805969E-08  0.10566000000E+00  0.10566000000E+00 0. -1.
     999900   -1    0    0    0    0 -0.00000000000E+00 -0.00000000000E+00 -0.74505805969E-08  0.93827000000E+00  0.93827000000E+00 0. -1.
     999902    2    1    2    0    0 -0.57754153435E-02  0.17032746961E-01  0.15645654827E-01  0.10200918707E+01  0.10198133007E+01 0.  0.
     999903    2    3    3    0    0 -0.24385627623E-01  0.16857819676E-01  0.12732525780E+00  0.13283840960E+00  0.23568556846E-01 0.  0.
         14    1    1    2    0    0  0.57754153435E-02 -0.17032746961E-01 -0.15645654827E-01  0.23838129255E-01  0.00000000000E+00 0.  1.
     999901    1    3    3    0    0  0.18610212280E-01  0.17492728467E-03 -0.11167960297E+00  0.88725346115E+00  0.88000000000E+00 0. -1.
        -11    1    4    4    0    0 -0.16146914294E-03  0.71555824253E-02  0.63185701022E-01  0.63591841983E-01  0.51100000000E-03 0. -1.
         11    1    4    4    0    0 -0.24224158481E-01  0.97022372507E-02  0.64139556777E-01  0.69246567614E-01  0.51100000000E-03 0.  1.
</event>
<event>
 8    1  0.1131349E+005  0.1043930E+01  0.7957747E-01            NaN
         13   -1    0    0    0    0  0.00000000000E+00  0.00000000000E+00  0.74505805969E-08  0.10566000000E+00  0.10566000000E+00 0. -1.
     999900   -1    0    0    0    0 -0.00000000000E+00 -0.00000000000E+00 -0.74505805969E-08  0.93827000000E+00  0.93827000000E+00 0. -1.
     999902    2    1    2    0    0  0.45686016439E-02  0.20797751361E-01 -0.10234119082E-01  0.10203046793E+01  0.10200311186E+01 0.  0.
     999903    2    3    3    0    0  0.52363654175E-01  0.87822856151E-01 -0.82639562806E-01  0.13350183767E+00  0.23208554026E-01 0.  0.
         14    1    1    2    0    0 -0.45686016439E-02 -0.20797751361E-01  0.10234119082E-01  0.23625320655E-01  0.00000000000E+00 0. -1.
     999901    1    3    3    0    0 -0.47795052531E-01 -0.67025104790E-01  0.72405443725E-01  0.88680284167E+00  0.88000000000E+00 0.  1.
        -11    1    4    4    0    0  0.26976574834E-01  0.36628666761E-01 -0.50374946417E-01  0.67877029737E-01  0.51100000000E-03 0. -1.
         11    1    4    4    0    0  0.25387079341E-01  0.51194189390E-01 -0.32264616390E-01  0.65624807935E-01  0.51100000000E-03 0.  1.
</event>
<event>
 8    1  0.1131349E+005  0.1043930E+01  0.7957747E-01            NaN
         13   -1    0    0    0    0  0.00000000000E+00  0.00000000000E+00  0.74505805969E-08  0.10566000000E+00  0.10566000000E+00 0.  1.
     999900   -1    0    0    0    0 -0.00000000000E+00 -0.00000000000E+00 -0.74505805969E-08  0.93827000000E+00  0.93827000000E+00 0. -1.
     999902    2    1    2    0    0  0.67801947956E-02  0.11068728509E-01  0.21819809675E-01  0.10185411858E+01  0.10182247077E+01 0.  0.
     999903    2    3    3    0    0  0.76543679452E-01  0.98886193820E-01  0.34534725390E-01  0.13133178544E+00  0.20444471537E-01 0.  0.
         14    1    1    2    0    0 -0.67801947956E-02 -0.11068728509E-01 -0.21819809675E-01  0.25388814201E-01  0.00000000000E+00 0.  1.
     999901    1    3    3    0    0 -0.69763484656E-01 -0.87817465311E-01 -0.12714915715E-01  0.88720940036E+00  0.88000000000E+00 0. -1.
        -11    1    4    4    0    0  0.22521867744E-01  0.29496772441E-01  0.74408951122E-03  0.37122889183E-01  0.51100000000E-03 0. -1.
         11    1    4    4    0    0  0.54021811708E-01  0.69389421380E-01  0.33790635879E-01  0.94208896256E-01  0.51100000000E-03 0.  1.
</event>
<event>
 8    1  0.1131349E+005  0.1043930E+01  0.7957747E-01            NaN
         13   -1    0    0    0    0  0.00000000000E+00  0.00000000000E+00  0.74505805969E-08  0.10566000000E+00  0.10566000000E+00 0. -1.
     999900   -1    0    0    0    0 -0.00000000000E+00 -0.00000000000E+00 -0.74505805969E-08  0.93827000000E+00  0.93827000000E+00 0. -1.
     999902    2    1    2    0    0 -0.16333461096E-02  0.19360425586E-01 -0.13840265618E-01  0.10200752971E+01  0.10197963350E+01 0.  0.
     999903    2    3    3    0    0  0.17721906026E-01 -0.23717654313E-01 -0.12651509172E+00  0.13163511161E+00  0.21098367139E-01 0.  0.
         14    1    1    2    0    0  0.16333461096E-02 -0.19360425586E-01  0.13840265618E-01  0.23854702906E-01  0.00000000000E+00 0. -1.
     999901    1    3    3    0    0 -0.19355252135E-01  0.43078079898E-01  0.11267482610E+00  0.88844018549E+00  0.88000000000E+00 0.  1.
        -11    1    4    4    0    0  0.19303075452E-02 -0.12975423163E-01 -0.84061068924E-01  0.85080033634E-01  0.51100000000E-03 0. -1.
         11    1    4    4    0    0  0.15791598480E-01 -0.10742231150E-01 -0.42454022793E-01  0.46555077972E-01  0.51100000000E-03 0.  1.
</event>
<event>
 8    1  0.1131349E+005  0.1043930E+01  0.7957747E-01            NaN
         13   -1    0    0    0    0  0.00000000000E+00  0.00000000000E+00  0.74505805969E-08  0.10566000000E+00  0.10566000000E+00 0.  1.
     999900   -1    0    0    0    0 -0.00000000000E+00 -0.00000000000E+00 -0.74505805969E-08  0.93827000000E+00  0.93827000000E+00 0. -1.
     999902    2    1    2    0    0 -0.14900333539E-01  0.28205866142E-01 -0.49848194619E-02  0.10116431722E+01  0.10111278201E+01 0.  0.
     999903    2    3    3    0    0 -0.59228993560E-01 -0.82906546765E-01 -0.63358588826E-01  0.12163278161E+00  0.19966311885E-01 0.  0.
         14    1    1    2    0    0  0.14900333539E-01 -0.28205866142E-01  0.49848194619E-02  0.32286827801E-01  0.00000000000E+00 0. -1.
     999901    1    3    3    0    0  0.44328660022E-01  0.11111241291E+00  0.58373769364E-01  0.89001039059E+00  0.88000000000E+00 0.  1.
        -11    1    4    4    0    0 -0.37650404109E-01 -0.52293246670E-01 -0.28484639313E-01  0.70454044416E-01  0.51100000000E-03 0.  1.
         11    1    4    4    0    0 -0.21578589452E-01 -0.30613300095E-01 -0.34873949513E-01  0.51178737197E-01  0.51100000000E-03 0. -1.
</event>
<event>
 8    1  0.1131349E+005  0.1043930E+01  0.7957747E-01            NaN
         13   -1    0    0    0    0  0.00000000000E+00  0.00000000000E+00  0.74505805969E-08  0.10566000000E+00  0.10566000000E+00 0. -1.
     999900   -1    0    0    0    0 -0.00000000000E+00 -0.00000000000E+00 -0.74505805969E-08  0.93827000000E+00  0.93827000000E+00 0. -1.
     999902    2    1    2    0    0 -0.10674780044E-01 -0.38001589915E-02  0.20886909554E-01  0.10201675269E+01  0.10198907431E+01 0.  0.
     999903    2    3    3    0    0  0.12117328948E+00 -0.13805808674E-01  0.40539957954E-01  0.13007187542E+00  0.20040911851E-01 0.  0.
         14    1    1    2    0    0  0.10674780044E-01  0.38001589915E-02 -0.20886909554E-01  0.23762473105E-01  0.00000000000E+00 0.  1.
     999901    1    3    3    0    0 -0.13184806952E+00  0.10005649682E-01 -0.19653048400E-01  0.89009565147E+00  0.88000000000E+00 0. -1.
        -11    1    4    4    0    0  0.98714806299E-01 -0.33247803447E-02  0.33581415362E-01  0.10432468416E+00  0.51100000000E-03 0. -1.
         11    1    4    4    0    0  0.22458483182E-01 -0.10481028329E-01  0.69585425918E-02  0.25747191258E-01  0.51100000000E-03 0.  1.
</event>
<event>
 8    1  0.1131349E+005  0.1043930E+01  0.7957747E-01            NaN
         13   -1    0    0    0    0  0.00000000000E+00  0.00000000000E+00  0.74505805969E-08  0.10566000000E+00  0.10566000000E+00 0. -1.
     999900   -1    0    0    0    0 -0.00000000000E+00 -0.00000000000E+00 -0.74505805969E-08  0.93827000000E+00  0.93827000000E+00 0.  1.
     999902    2    1    2    0    0  0.13346765977E-01 -0.41021641893E-02  0.19857950791E-01  0.10196544542E+01  0.10193654418E+01 0.  0.
     999903    2    3    3    0    0  0.11058922244E+00 -0.59312766797E-01  0.37038241986E-01  0.13241183330E+00  0.20324413997E-01 0.  0.
         14    1    1    2    0    0 -0.13346765977E-01  0.41021641893E-02 -0.19857950791E-01  0.24275545775E-01  0.00000000000E+00 0.  1.
     999901    1    3    3    0    0 -0.97242456461E-01  0.55210602607E-01 -0.17180291196E-01  0.88724262092E+00  0.88000000000E+00 0.  1.
        -11    1    4    4    0    0  0.22213910237E-01 -0.14532058630E-01  0.16411795352E-01  0.31212924947E-01  0.51100000000E-03 0.  1.
         11    1    4    4    0    0  0.88375312200E-01 -0.44780708166E-01  0.20626446635E-01  0.10119890835E+00  0.51100000000E-03 0. -1.
</event>
<event>
 8    1  0.1131349E+005  0.1043930E+01  0.7957747E-01            NaN
         13   -1    0    0    0    0  0.00000000000E+00  0.00000000000E+00  0.74505805969E-08  0.10566000000E+00  0.10566000000E+00 0.  1.
     999900   -1    0    0    0    0 -0.00000000000E+00 -0.00000000000E+00 -0.74505805969E-08  0.93827000000E+00  0.93827000000E+00 0. -1.
     999902    2    1    2    0    0 -0.94682442255E-02 -0.14690671685E-01 -0.15299257759E-01  0.10207021983E+01  0.10204378702E+01 0.  0.
     999903    2    3    3    0    0  0.79440029914E-01  0.95940676430E-01  0.25577170329E-01  0.12839347440E+00  0.17758403077E-01 0.  0.
         14    1    1    2    0    0  0.94682442255E-02  0.14690671685E-01  0.15299257759E-01  0.23227801688E-01  0.00000000000E+00 0.  1.
     999901    1    3    3    0    0 -0.88908274139E-01 -0.11063134812E+00 -0.40876428088E-01  0.89230872391E+00  0.88000000000E+00 0.  1.
        -11    1    4    4    0    0  0.51431962612E-01  0.72213613700E-01  0.22994901389E-01  0.91591917726E-01  0.51100000000E-03 0.  1.
         11    1    4    4    0    0  0.28008067301E-01  0.23727062730E-01  0.25822689397E-02  0.36801556674E-01  0.51100000000E-03 0. -1.
</event>
<event>
 8    1  0.1131349E+005  0.1043930E+01  0.7957747E-01            NaN
         13   -1    0    0    0    0  0.00000000000E+00  0.00000000000E+00  0.74505805969E-08  0.10566000000E+00  0.10566000000E+00 0. -1.
     999900   -1    0    0    0    0 -0.00000000000E+00 -0.00000000000E+00 -0.74505805969E-08  0.93827000000E+00  0.93827000000E+00 0.  1.
     999902    2    1    2    0    0 -0.85719109167E-02  0.20737090663E-01 -0.85857485825E-02  0.10199046038E+01  0.10196215872E+01 0.  0.
     999903    2    3    3    0    0  0.34858437935E-02  0.14852653506E-02  0.12760272265E+00  0.12913902184E+00  0.19495512696E-01 0.  0.
         14    1    1    2    0    0  0.85719109167E-02 -0.20737090663E-01  0.85857485825E-02  0.24025396244E-01  0.00000000000E+00 0. -1.
     999901    1    3    3    0    0 -0.12057754710E-01  0.19251825313E-01 -0.13618847123E+00  0.89076558191E+00  0.88000000000E+00 0.  1.
        -11    1    4    4    0    0  0.72142167118E-02  0.81605819069E-02  0.50924625224E-01  0.52078964996E-01  0.51100000000E-03 0.  1.
         11    1    4    4    0    0 -0.37283729183E-02 -0.66753165563E-02  0.76678097423E-01  0.77060056846E-01  0.51100000000E-03 0. -1.
</event>
<event>
 8    1  0.1131349E+005  0.1043930E+01  0.7957747E-01            NaN
         13   -1    0    0    0    0  0.00000000000E+00  0.00000000000E+00  0.74505805969E-08  0.10566000000E+00  0.10566000000E+00 0.  1.
     999900   -1    0    0    0    0 -0.00000000000E+00 -0.00000000000E+00 -0.74505805969E-08  0.93827000000E+00  0.93827000000E+00 0. -1.
     999902    2    1    2    0    0  0.23356390113E-01  0.23488671856E-03 -0.68661714408E-02  0.10195841494E+01  0.10192934402E+01 0.  0.
     999903    2    3    3    0    0 -0.92631727013E-01  0.81205948170E-02  0.84568185005E-01  0.12724135135E+00  0.19799057261E-01 0.  0.
         14    1    1    2    0    0 -0.23356390113E-01 -0.23488671856E-03  0.68661714408E-02  0.24345850593E-01  0.00000000000E+00 0.  1.
     999901    1    3    3    0    0  0.11598811713E+00 -0.78857080984E-02 -0.91434356446E-01  0.89234279806E+00  0.88000000000E+00 0. -1.
        -11    1    4    4    0    0 -0.37093544769E-01 -0.91150153722E-03  0.22205572183E-01  0.43244773737E-01  0.51100000000E-03 0.  1.
         11    1    4    4    0    0 -0.55538182244E-01  0.90320963542E-02  0.62362612822E-01  0.83996577612E-01  0.51100000000E-03 0. -1.
</event>
<event>
 8    1  0.1131349E+005  0.1043930E+01  0.7957747E-01            NaN
         13   -1    0    0    0    0  0.00000000000E+00  0.00000000000E+00  0.74505805969E-08  0.10566000000E+00  0.10566000000E+00 0. -1.
     999900   -1    0    0    0    0 -0.00000000000E+00 -0.00000000000E+00 -0.74505805969E-08  0.93827000000E+00  0.93827000000E+00 0. -1.
     999902    2    1    2    0    0  0.21464080639E-01  0.41840849736E-03 -0.55406085014E-02  0.10217583928E+01  0.10215178085E+01 0.  0.
     999903    2    3    3    0    0 -0.55256445544E-01 -0.23212081109E-01 -0.11522562408E+00  0.13132297020E+00  0.19408827187E-01 0.  0.
         14    1    1    2    0    0 -0.21464080639E-01 -0.41840849736E-03  0.55406085014E-02  0.22171607202E-01  0.00000000000E+00 0.  1.
     999901    1    3    3    0    0  0.76720526184E-01  0.23630489606E-01  0.10968501558E+00  0.89043542260E+00  0.88000000000E+00 0.  1.
        -11    1    4    4    0    0 -0.33719733011E-01 -0.15055238245E-01 -0.89336948061E-01  0.96669705714E-01  0.51100000000E-03 0.  1.
         11    1    4    4    0    0 -0.21536712533E-01 -0.81568428642E-02 -0.25888676022E-01  0.34653264484E-01  0.51100000000E-03 0. -1.
</event>
<event>
 8    1  0.1131349E+005  0.1043930E+01  0.7957747E-01            NaN
         13   -1    0    0    0    0  0.00000000000E+00  0.00000000000E+00  0.74505805969E-08  0.10566000000E+00  0.10566000000E+00 0. -1.
     999900   -1    0    0    0    0 -0.00000000000E+00 -0.00000000000E+00 -0.74505805969E-08  0.93827000000E+00  0.93827000000E+00 0.  1.
     999902    2    1    2    0    0 -0.20566563750E-01  0.12197676218E-01 -0.15009450783E-01  0.10156979179E+01  0.10153054761E+01 0.  0.
     999903    2    3    3    0    0 -0.11634459627E+00 -0.48452892089E-01 -0.11981642249E-01  0.12842057081E+00  0.21553083874E-01 0.  0.
         14    1    1    2    0    0  0.20566563750E-01 -0.12197676218E-01  0.15009450783E-01  0.28232082148E-01  0.00000000000E+00 0. -1.
     999901    1    3    3    0    0  0.95778032516E-01  0.60650568307E-01 -0.30278085339E-02  0.88727734704E+00  0.88000000000E+00 0.  1.
        -11    1    4    4    0    0 -0.76126280481E-01 -0.23425739481E-01 -0.14592498197E-01  0.80976403814E-01  0.51100000000E-03 0.  1.
         11    1    4    4    0    0 -0.40218315785E-01 -0.25027152608E-01  0.26108559480E-02  0.47444166997E-01  0.51100000000E-03 0. -1.
</event>
<event>
 8    1  0.1131349E+005  0.1043930E+01  0.7957747E-01            NaN
         13   -1    0    0    0    0  0.00000000000E+00  0.00000000000E+00  0.74505805969E-08  0.10566000000E+00  0.10566000000E+00 0.  1.
     999900   -1    0    0    0    0 -0.00000000000E+00 -0.00000000000E+00 -0.74505805969E-08  0.93827000000E+00  0.93827000000E+00 0.  1.
     999902    2    1    2    0    0 -0.12471735512E-01  0.17080891993E-01 -0.11015430788E-01  0.10200838101E+01  0.10198050494E+01 0.  0.
     999903    2    3    3    0    0 -0.86209527148E-01  0.43774081346E-02 -0.98609267213E-01  0.13257531965E+00  0.20029566315E-01 0.  0.
         14    1    1    2    0    0  0.12471735512E-01 -0.17080891993E-01  0.11015430788E-01  0.23846189914E-01  0.00000000000E+00 0.  1.
     999901    1    3    3    0    0  0.73737791636E-01  0.12703483859E-01  0.87593836425E-01  0.88750849044E+00  0.88000000000E+00 0. -1.
        -11    1    4    4    0    0 -0.56610954935E-01  0.11574501788E-01 -0.70154300301E-01  0.90888152594E-01  0.51100000000E-03 0.  1.
         11    1    4    4    0    0 -0.29598572213E-01 -0.71970936533E-02 -0.28454966912E-01  0.41687167055E-01  0.51100000000E-03 0. -1.
</event>
<event>
 8    1  0.1131349E+005  0.1043930E+01  0.7957747E-01            NaN
         13   -1    0    0    0    0  0.00000000000E+00  0.00000000000E+00  0.74505805969E-08  0.10566000000E+00  0.10566000000E+00 0.  1.
     999900   -1    0    0    0    0 -0.00000000000E+00 -0.00000000000E+00 -0.74505805969E-08  0.93827000000E+00  0.93827000000E+00 0. -1.
     999902    2    1    2    0    0 -0.22188206988E-01  0.27542515355E-02 -0.54456503948E-02  0.10209178828E+01  0.10206584962E+01 0.  0.
     999903    2    3    3    0    0  0.78455922804E-01  0.56367363861E-01 -0.84761521473E-01  0.13002248259E+00  0.19715956077E-01 0.  0.
         14    1    1    2    0    0  0.22188206988E-01 -0.27542515355E-02  0.54456503948E-02  0.23012117223E-01  0.00000000000E+00 0. -1.
     999901    1    3    3    0    0 -0.10064412979E+00 -0.53613112325E-01  0.79315871078E-01  0.89089540019E+00  0.88000000000E+00 0.  1.
        -11    1    4    4    0    0  0.14795104609E-01  0.48179583261E-02 -0.21386030589E-01  0.26452434069E-01  0.51100000000E-03 0. -1.
         11    1    4    4    0    0  0.63660818196E-01  0.51549405535E-01 -0.63375490884E-01  0.10357004852E+00  0.51100000000E-03 0.  1.
</event>
<event>
 8    1  0.1131349E+005  0.1043930E+01  0.7957747E-01            NaN
         13   -1    0    0    0    0  0.00000000000E+00  0.00000000000E+00  0.74505805969E-08  0.10566000000E+00  0.10566000000E+00 0.  1.
     999900   -1    0    0    0    0 -0.00000000000E+00 -0.00000000000E+00 -0.74505805969E-08  0.93827000000E+00  0.93827000000E+00 0.  1.
     999902    2    1    2    0    0 -0.15797445448E-02 -0.21757792313E-02  0.23887977784E-01  0.10198911753E+01  0.10196078386E+01 0.  0.
     999903    2    3    3    0    0 -0.62159769928E-01  0.95056684454E-01  0.63142348815E-01  0.13159786956E+00  0.20770960518E-01 0.  0.
         14    1    1    2    0    0  0.15797445448E-02  0.21757792313E-02 -0.23887977784E-01  0.24038824653E-01  0.00000000000E+00 0. -1.
     999901    1    3    3    0    0  0.60580025383E-01 -0.97232463685E-01 -0.39254371031E-01  0.88829330579E+00  0.88000000000E+00 0. -1.
        -11    1    4    4    0    0 -0.47397867287E-01  0.54662645248E-01  0.36964379409E-01  0.81247701967E-01  0.51100000000E-03 0. -1.
         11    1    4    4    0    0 -0.14761902641E-01  0.40394039206E-01  0.26177969406E-01  0.50350167588E-01  0.51100000000E-03 0.  1.
</event>
<event>
 8    1  0.1131349E+005  0.1043930E+01  0.7957747E-01            NaN
         13   -1    0    0    0    0  0.00000000000E+00  0.00000000000E+00  0.74505805969E-08  0.10566000000E+00  0.10566000000E+00 0.  1.
     999900   -1    0    0    0    0 -0.00000000000E+00 -0.00000000000E+00 -0.74505805969E-08  0.93827000000E+00  0.93827000000E+00 0.  1.
     999902    2    1    2    0    0  0.78201678419E-02 -0.10757820727E-01 -0.20401740342E-01  0.10195760118E+01  0.10192851059E+01 0.  0.
     999903    2    3    3    0    0 -0.83681613248E-01  0.73562781348E-01  0.58382215063E-01  0.12733756189E+00  0.19805969749E-01 0.  0.
         14    1    1    2    0    0 -0.78201678419E-02  0.10757820727E-01  0.20401740342E-01  0.24353988192E-01  0.00000000000E+00 0.  1.
     999901    1    3    3    0    0  0.91501781090E-01 -0.84320602076E-01 -0.78783955405E-01  0.89223844991E+00  0.88000000000E+00 0.  1.
        -11    1    4    4    0    0 -0.13938357132E-01  0.12570381350E-01  0.18843847834E-01  0.26601579070E-01  0.51100000000E-03 0.  1.
         11    1    4    4    0    0 -0.69743256116E-01  0.60992399999E-01  0.39538367230E-01  0.10073598282E+00  0.51100000000E-03 0. -1.
</event>
<event>
 8    1  0.1131349E+005  0.1043930E+01  0.7957747E-01            NaN
         13   -1    0    0    0    0  0.00000000000E+00  0.00000000000E+00  0.74505805969E-08  0.10566000000E+00  0.10566000000E+00 0.  1.
     999900   -1    0    0    0    0 -0.00000000000E+00 -0.00000000000E+00 -0.74505805969E-08  0.93827000000E+00  0.93827000000E+00 0.  1.
     999902    2    1    2    0    0  0.33617955894E-02  0.18917751736E-01 -0.12811148899E-01  0.10208365261E+01  0.10205752812E+01 0.  0.
     999903    2    3    3    0    0  0.31856245732E-02  0.80046982090E-01 -0.10597066688E+00  0.13381030912E+00  0.16054564501E-01 0.  0.
         14    1    1    2    0    0 -0.33617955894E-02 -0.18917751736E-01  0.12811148899E-01  0.23093473893E-01  0.00000000000E+00 0.  1.
     999901    1    3    3    0    0  0.17617101618E-03 -0.61129230353E-01  0.93159517979E-01  0.88702621699E+00  0.88000000000E+00 0. -1.
        -11    1    4    4    0    0  0.69101868901E-02  0.70711328508E-01 -0.86913545959E-01  0.11225893396E+00  0.51100000000E-03 0.  1.
         11    1    4    4    0    0 -0.37245623169E-02  0.93356535818E-02 -0.19057120919E-01  0.21551375153E-01  0.51100000000E-03 0. -1.
</event>
<event>
 8    1  0.1131349E+005  0.1043930E+01  0.7957747E-01            NaN
         13   -1    0    0    0    0  0.00000000000E+00  0.00000000000E+00  0.74505805969E-08  0.10566000000E+00  0.10566000000E+00 0.  1.
     999900   -1    0    0    0    0 -0.00000000000E+00 -0.00000000000E+00 -0.74505805969E-08  0.93827000000E+00  0.93827000000E+00 0.  1.
     999902    2    1    2    0    0 -0.14409222963E-01 -0.20274885173E-01 -0.16460598986E-02  0.10190019799E+01  0.10186970250E+01 0.  0.
     999903    2    3    3    0    0  0.94401918496E-02  0.97944503475E-01 -0.78662138289E-01  0.12744374016E+00  0.19285536615E-01 0.  0.
         14    1    1    2    0    0  0.14409222963E-01  0.20274885173E-01  0.16460598986E-02  0.24928020145E-01  0.00000000000E+00 0.  1.
     999901    1    3    3    0    0 -0.23849414812E-01 -0.11821938865E+00  0.77016078390E-01  0.89155823970E+00  0.88000000000E+00 0. -1.
        -11    1    4    4    0    0 -0.22020254805E-02  0.52949823040E-01 -0.49849988873E-01  0.72758609029E-01  0.51100000000E-03 0. -1.
         11    1    4    4    0    0  0.11642217330E-01  0.44994680435E-01 -0.28812149416E-01  0.54685131131E-01  0.51100000000E-03 0.  1.
</event>
<event>
 8    1  0.1131349E+005  0.1043930E+01  0.7957747E-01            NaN
         13   -1    0    0    0    0  0.00000000000E+00  0.00000000000E+00  0.74505805969E-08  0.10566000000E+00  0.10566000000E+00 0.  1.
     999900   -1    0    0    0    0 -0.00000000000E+00 -0.00000000000E+00 -0.74505805969E-08  0.93827000000E+00  0.93827000000E+00 0. -1.
     999902    2    1    2    0    0 -0.14831899340E-01 -0.11025806430E-02 -0.21942542310E-01  0.10174219619E+01  0.10170765814E+01 0.  0.
     999903    2    3    3    0    0 -0.15157935507E-01  0.11650304056E+00 -0.49775556722E-01  0.12916194075E+00  0.20061889848E-01 0.  0.
         14    1    1    2    0    0  0.14831899340E-01  0.11025806430E-02  0.21942542310E-01  0.26508038123E-01  0.00000000000E+00 0.  1.
     999901    1    3    3    0    0  0.32603616718E-03 -0.11760562120E+00  0.27833014412E-01  0.88826002112E+00  0.88000000000E+00 0. -1.
        -11    1    4    4    0    0 -0.12905774639E-01  0.96738892133E-01 -0.49099181172E-01  0.10925183286E+00  0.51100000000E-03 0.  1.
         11    1    4    4    0    0 -0.22521608681E-02  0.19764148423E-01 -0.67637555022E-03  0.19910107894E-01  0.51100000000E-03 0. -1.
</event>
<event>
 8    1  0.1131349E+005  0.1043930E+01  0.7957747E-01            NaN
         13   -1    0    0    0    0  0.00000000000E+00  0.00000000000E+00  0.74505805969E-08  0.10566000000E+00  0.10566000000E+00 0. -1.
     999900   -1    0    0    0    0 -0.00000000000E+00 -0.00000000000E+00 -0.74505805969E-08  0.93827000000E+00  0.93827000000E+00 0. -1.
     999902    2    1    2    0    0  0.57355192428E-02 -0.14205739416E-01 -0.17844302363E-01  0.10204115319E+01  0.10201404688E+01 0.  0.
     999903    2    3    3    0    0  0.11046902405E+00  0.28971714260E-01  0.58470178856E-01  0.12987388558E+00  0.20141967055E-01 0.  0.
         14    1    1    2    0    0 -0.57355192428E-02  0.14205739416E-01  0.17844302363E-01  0.23518468066E-01  0.00000000000E+00 0. -1.
     999901    1    3    3    0    0 -0.10473350481E+00 -0.43177453676E-01 -0.76314481219E-01  0.89053764636E+00  0.88000000000E+00 0. -1.
        -11    1    4    4    0    0  0.53374562112E-01  0.24334988192E-01  0.28369327695E-01  0.65162223764E-01  0.51100000000E-03 0.  1.
         11    1    4    4    0    0  0.57094461942E-01  0.46367260686E-02  0.30100851160E-01  0.64711661813E-01  0.51100000000E-03 0. -1.
</event>
<event>
 8    1  0.1131349E+005  0.1043930E+01  0.7957747E-01            NaN
         13   -1    0    0    0    0  0.00000000000E+00  0.00000000000E+00  0.74505805969E-08  0.10566000000E+00  0.10566000000E+00 0.  1.
     999900   -1    0    0    0    0 -0.00000000000E+00 -0.00000000000E+00 -0.74505805969E-08  0.93827000000E+00  0.93827000000E+00 0. -1.
     999902    2    1    2    0    0  0.31062465443E-04  0.10619893898E-01 -0.21255665288E-01  0.10201689727E+01  0.10198922230E+01 0.  0.
     999903    2    3    3    0    0  0.98871620242E-02 -0.87134030348E-01 -0.95947387318E-01  0.13155666931E+00  0.20277102588E-01 0.  0.
         14    1    1    2    0    0 -0.31062465443E-04 -0.10619893898E-01  0.21255665288E-01  0.23761027295E-01  0.00000000000E+00 0.  1.
     999901    1    3    3    0    0 -0.98560995588E-02  0.97753924246E-01  0.74691722030E-01  0.88861230339E+00  0.88000000000E+00 0.  1.
        -11    1    4    4    0    0  0.10614351979E-01 -0.64951343546E-01 -0.58668499022E-01  0.88167995298E-01  0.51100000000E-03 0. -1.
         11    1    4    4    0    0 -0.72718995474E-03 -0.22182686802E-01 -0.37278888296E-01  0.43388674013E-01  0.51100000000E-03 0.  1.
</event>
<event>
 8    1  0.1131349E+005  0.1043930E+01  0.7957747E-01            NaN
         13   -1    0    0    0    0  0.00000000000E+00  0.00000000000E+00  0.74505805969E-08  0.10566000000E+00  0.10566000000E+00 0. -1.
     999900   -1    0    0    0    0 -0.00000000000E+00 -0.00000000000E+00 -0.74505805969E-08  0.93827000000E+00  0.93827000000E+00 0.  1.
     999902    2    1    2    0    0 -0.14961081725E-02 -0.20829296762E-01 -0.97187766629E-02  0.10208962734E+01  0.10206363938E+01 0.  0.
     999903    2    3    3    0    0 -0.10902810265E+00 -0.19245664191E-01 -0.69610022164E-01  0.13232854999E+00  0.20193246375E-01 0.  0.
         14    1    1    2    0    0  0.14961081725E-02  0.20829296762E-01  0.97187766629E-02  0.23033726644E-01  0.00000000000E+00 0.  1.
     999901    1    3    3    0    0  0.10753199447E+00 -0.15836325710E-02  0.59891245501E-01  0.88856772337E+00  0.88000000000E+00 0.  1.
        -11    1    4    4    0    0 -0.63777033301E-01 -0.20582677564E-01 -0.37203916920E-01  0.76652130744E-01  0.51100000000E-03 0.  1.
         11    1    4    4    0    0 -0.45251069345E-01  0.13370133723E-02 -0.32406105244E-01  0.55676419243E-01  0.51100000000E-03 0. -1.
</event>
<event>
 8    1  0.1131349E+005  0.1043930E+01  0.7957747E-01            NaN
         13   -1    0    0    0    0  0.00000000000E+00  0.00000000000E+00  0.74505805969E-08  0.10566000000E+00  0.10566000000E+00 0. -1.
     999900   -1    0    0    0    0 -0.00000000000E+00 -0.00000000000E+00 -0.74505805969E-08  0.93827000000E+00  0.93827000000E+00 0. -1.
     999902    2    1    2    0    0 -0.33054441910E-02 -0.18298249886E-01 -0.19611223925E-01  0.10169049743E+01  0.10165458055E+01 0.  0.
     999903    2    3    3    0    0 -0.17588149860E-01  0.11789895422E+00  0.31649191048E-01  0.12483922323E+00  0.19330130403E-01 0.  0.
         14    1    1    2    0    0  0.33054441910E-02  0.18298249886E-01  0.19611223925E-01  0.27025025699E-01  0.00000000000E+00 0. -1.
     999901    1    3    3    0    0  0.14282705669E-01 -0.13619720411E+00 -0.51260414973E-01  0.89206575107E+00  0.88000000000E+00 0. -1.
        -11    1    4    4    0    0 -0.70828634533E-02  0.89114835074E-01  0.29415326371E-01  0.94112397332E-01  0.51100000000E-03 0. -1.
         11    1    4    4    0    0 -0.10505286407E-01  0.28784119146E-01  0.22338646775E-02  0.30726825900E-01  0.51100000000E-03 0.  1.
</event>
<event>
 8    1  0.1131349E+005  0.1043930E+01  0.7957747E-01            NaN
         13   -1    0    0    0    0  0.00000000000E+00  0.00000000000E+00  0.74505805969E-08  0.10566000000E+00  0.10566000000E+00 0.  1.
     999900   -1    0    0    0    0 -0.00000000000E+00 -0.00000000000E+00 -0.74505805969E-08  0.93827000000E+00  0.93827000000E+00 0.  1.
     999902    2    1    2    0    0 -0.11388125442E-01 -0.49527007076E-02  0.20476053742E-01  0.10199824026E+01  0.10197012377E+01 0.  0.
     999903    2    3    3    0    0 -0.11309578318E+00  0.43799982919E-01 -0.43928214633E-01  0.13044927695E+00  0.19448165482E-01 0.  0.
         14    1    1    2    0    0  0.11388125442E-01  0.49527007076E-02 -0.20476053742E-01  0.23947597420E-01  0.00000000000E+00 0. -1.
     999901    1    3    3    0    0  0.10170765773E+00 -0.48752683626E-01  0.64404268375E-01  0.88953312563E+00  0.88000000000E+00 0. -1.
        -11    1    4    4    0    0 -0.97606507823E-01  0.44310757493E-01 -0.36349687554E-01  0.11319025800E+00  0.51100000000E-03 0.  1.
         11    1    4    4    0    0 -0.15489275354E-01 -0.51077457444E-03 -0.75785270789E-02  0.17259018956E-01  0.51100000000E-03 0. -1.
</event>
<event>
 8    1  0.1131349E+005  0.1043930E+01  0.7957747E-01            NaN
         13   -1    0    0    0    0  0.00000000000E+00  0.00000000000E+00  0.74505805969E-08  0.10566000000E+00  0.10566000000E+00 0.  1.
     999900   -1    0    0    0    0 -0.00000000000E+00 -0.00000000000E+00 -0.74505805969E-08  0.93827000000E+00  0.93827000000E+00 0.  1.
     999902    2    1    2    0    0 -0.25198059234E-02 -0.23117840202E-01  0.44235723363E-02  0.10202582457E+01  0.10199835960E+01 0.  0.
     999903    2    3    3    0    0  0.49833390085E-01 -0.70328146250E-01 -0.97631812116E-01  0.13155977515E+00  0.18616894982E-01 0.  0.
         14    1    1    2    0    0  0.25198059234E-02  0.23117840202E-01 -0.44235723363E-02  0.23671754260E-01  0.00000000000E+00 0.  1.
     999901    1    3    3    0    0 -0.52353196008E-01  0.47210306048E-01  0.10205538445E+00  0.88869847059E+00  0.88000000000E+00 0. -1.
        -11    1    4    4    0    0  0.17901761454E-01 -0.23497755634E-01 -0.47227902811E-01  0.55707750878E-01  0.51100000000E-03 0. -1.
         11    1    4    4    0    0  0.31931628631E-01 -0.46830390616E-01 -0.50403909305E-01  0.75852024274E-01  0.51100000000E-03 0.  1.
</event>
<event>
 8    1  0.1131349E+005  0.1043930E+01  0.7957747E-01            NaN
         13   -1    0    0    0    0  0.00000000000E+00  0.00000000000E+00  0.74505805969E-08  0.10566000000E+00  0.10566000000E+00 0. -1.
     999900   -1    0    0    0    0 -0.00000000000E+00 -0.00000000000E+00 -0.74505805969E-08  0.93827000000E+00  0.93827000000E+00 0. -1.
     999902    2    1    2    0    0  0.40152204100E-02 -0.18342974253E-01 -0.15321404541E-01  0.10196950637E+01  0.10194070290E+01 0.  0.
     999903    2    3    3    0    0  0.59189773404E-01 -0.68639170966E-01  0.91038713287E-01  0.13015225229E+00  0.20899674466E-01 0.  0.
         14    1    1    2    0    0 -0.40152204100E-02  0.18342974253E-01  0.15321404541E-01  0.24234936280E-01  0.00000000000E+00 0. -1.
     999901    1    3    3    0    0 -0.55174552994E-01  0.50296196713E-01 -0.10636011783E+00  0.88954281143E+00  0.88000000000E+00 0. -1.
        -11    1    4    4    0    0  0.50491709764E-01 -0.49229084027E-01  0.60402168508E-01  0.92852563511E-01  0.51100000000E-03 0.  1.
         11    1    4    4    0    0  0.86980636398E-02 -0.19410086939E-01  0.30636544779E-01  0.37299688780E-01  0.51100000000E-03 0. -1.
</event>
<event>
 8    1  0.1131349E+005  0.1043930E+01  0.7957747E-01            NaN
         13   -1    0    0    0    0  0.00000000000E+00  0.00000000000E+00  0.74505805969E-08  0.10566000000E+00  0.10566000000E+00 0. -1.
     999900   -1    0    0    0    0 -0.00000000000E+00 -0.00000000000E+00 -0.74505805969E-08  0.93827000000E+00  0.93827000000E+00 0. -1.
     999902    2    1    2    0    0 -0.14874031072E-01 -0.13256855444E-01  0.13932675828E-02  0.10239569629E+01  0.10237621499E+01 0.  0.
     999903    2    3    3    0    0 -0.59745166598E-01 -0.82639142592E-01  0.87252475019E-01  0.13592592511E+00  0.21544138400E-01 0.  0.
         14    1    1    2    0    0  0.14874031072E-01  0.13256855444E-01 -0.13932675828E-02  0.19973037104E-01  0.00000000000E+00 0. -1.
     999901    1    3    3    0    0  0.44871135526E-01  0.69382287148E-01 -0.85859207436E-01  0.88803103779E+00  0.88000000000E+00 0. -1.
        -11    1    4    4    0    0 -0.26433850742E-01 -0.22889652087E-01  0.37920831436E-01  0.51584253562E-01  0.51100000000E-03 0. -1.
         11    1    4    4    0    0 -0.33311315856E-01 -0.59749490505E-01  0.49331643583E-01  0.84341671546E-01  0.51100000000E-03 0.  1.
</event>
<event>
 8    1  0.1131349E+005  0.1043930E+01  0.7957747E-01            NaN
         13   -1    0    0    0    0  0.00000000000E+00  0.00000000000E+00  0.74505805969E-08  0.10566000000E+00  0.10566000000E+00 0.  1.
     999900   -1    0    0    0    0 -0.00000000000E+00 -0.00000000000E+00 -0.74505805969E-08  0.93827000000E+00  0.93827000000E+00 0. -1.
     999902    2    1    2    0    0 -0.95702775691E-02 -0.18901181617E-01 -0.87892772352E-02  0.10209932113E+01  0.10207355394E+01 0.  0.
     999903    2    3    3    0    0  0.11293572889E+00 -0.30657119220E-01  0.52612912822E-01  0.13031024158E+00  0.22766261157E-01 0.  0.
         14    1    1    2    0    0  0.95702775691E-02  0.18901181617E-01  0.87892772352E-02  0.22936788650E-01  0.00000000000E+00 0.  1.
     999901    1    3    3    0    0 -0.12250600646E+00  0.11755937603E-01 -0.61402190057E-01  0.89068296977E+00  0.88000000000E+00 0. -1.
        -11    1    4    4    0    0  0.24436454679E-01 -0.16674069940E-01  0.14342940905E-01  0.32880784670E-01  0.51100000000E-03 0.  1.
         11    1    4    4    0    0  0.88499274211E-01 -0.13983049279E-01  0.38269971916E-01  0.97429456914E-01  0.51100000000E-03 0. -1.
</event>
<event>
 8    1  0.1131349E+005  0.1043930E+01  0.7957747E-01            NaN
         13   -1    0    0    0    0  0.00000000000E+00  0.00000000000E+00  0.74505805969E-08  0.10566000000E+00  0.10566000000E+00 0. -1.
     999900   -1    0    0    0    0 -0.00000000000E+00 -0.00000000000E+00 -0.74505805969E-08  0.93827000000E+00  0.93827000000E+00 0. -1.
     999902    2    1    2    0    0  0.10500957786E-01  0.54936171311E-02 -0.20469818495E-01  0.10202770211E+01  0.10200028119E+01 0.  0.
     999903    2    3    3    0    0  0.10512212650E+00  0.27074411210E-01 -0.74564811656E-01  0.13329045717E+00  0.20560875777E-01 0.  0.
         14    1    1    2    0    0 -0.10500957786E-01 -0.54936171311E-02  0.20469818495E-01  0.23652978942E-01  0.00000000000E+00 0. -1.
     999901    1    3    3    0    0 -0.94621168709E-01 -0.21580794079E-01  0.54094993161E-01  0.88698656389E+00  0.88000000000E+00 0.  1.
        -11    1    4    4    0    0  0.29315732822E-01 -0.16431080168E-03 -0.26279842525E-01  0.39374235651E-01  0.51100000000E-03 0.  1.
         11    1    4    4    0    0  0.75806393673E-01  0.27238722011E-01 -0.48284969131E-01  0.93916221515E-01  0.51100000000E-03 0. -1.
</event>
<event>
 8    1  0.1131349E+005  0.1043930E+01  0.7957747E-01            NaN
         13   -1    0    0    0    0  0.00000000000E+00  0.00000000000E+00  0.74505805969E-08  0.10566000000E+00  0.10566000000E+00 0. -1.
     999900   -1    0    0    0    0 -0.00000000000E+00 -0.00000000000E+00 -0.74505805969E-08  0.93827000000E+00  0.93827000000E+00 0.  1.
     999902    2    1    2    0    0  0.16963157042E-03 -0.31409917980E-02  0.24037463711E-01  0.10196875936E+01  0.10193993792E+01 0.  0.
     999903    2    3    3    0    0 -0.51146720649E-01 -0.24797320111E-01  0.11842553954E+00  0.13288915351E+00  0.20100362848E-01 0.  0.
         14    1    1    2    0    0 -0.16963157042E-03  0.31409917980E-02 -0.24037463711E-01  0.24242406357E-01  0.00000000000E+00 0.  1.
     999901    1    3    3    0    0  0.51316352220E-01  0.21656328313E-01 -0.94388075833E-01  0.88679844013E+00  0.88000000000E+00 0.  1.
        -11    1    4    4    0    0 -0.65984769540E-02 -0.37541990185E-02  0.36534586854E-01  0.37318508356E-01  0.51100000000E-03 0. -1.
         11    1    4    4    0    0 -0.44548243695E-01 -0.21043121092E-01  0.81890952691E-01  0.95570645154E-01  0.51100000000E-03 0.  1.
</event>
<event>
 8    1  0.1131349E+005  0.1043930E+01  0.7957747E-01            NaN
         13   -1    0    0    0    0  0.00000000000E+00  0.00000000000E+00  0.74505805969E-08  0.10566000000E+00  0.10566000000E+00 0.  1.
     999900   -1    0    0    0    0 -0.00000000000E+00 -0.00000000000E+00 -0.74505805969E-08  0.93827000000E+00  0.93827000000E+00 0. -1.
     999902    2    1    2    0    0  0.13024559473E-01  0.14123119227E-01  0.13384847824E-01  0.10205151373E+01  0.10202464847E+01 0.  0.
     999903    2    3    3    0    0  0.33597219518E-02  0.96276952412E-01 -0.86166219212E-01  0.13104727592E+00  0.21638666694E-01 0.  0.
         14    1    1    2    0    0 -0.13024559473E-01 -0.14123119227E-01 -0.13384847824E-01  0.23414862747E-01  0.00000000000E+00 0. -1.
     999901    1    3    3    0    0  0.96648375208E-02 -0.82153833184E-01  0.99551067036E-01  0.88946786133E+00  0.88000000000E+00 0.  1.
        -11    1    4    4    0    0  0.91267473469E-02  0.39345092142E-01 -0.26135573653E-01  0.48110945989E-01  0.51100000000E-03 0.  1.
         11    1    4    4    0    0 -0.57670253952E-02  0.56931860269E-01 -0.60030645559E-01  0.82936329934E-01  0.51100000000E-03 0. -1.
</event>
<event>
 8    1  0.1131349E+005  0.1043930E+01  0.7957747E-01            NaN
         13   -1    0    0    0    0  0.00000000000E+00  0.00000000000E+00  0.74505805969E-08  0.10566000000E+00  0.10566000000E+00 0.  1.
     999900   -1    0    0    0    0 -0.00000000000E+00 -0.00000000000E+00 -0.74505805969E-08  0.93827000000E+00  0.93827000000E+00 0. -1.
     999902    2    1    2    0    0 -0.13248083816E-01  0.27617063158E-03  0.20199655952E-01  0.10197718938E+01  0.10194857043E+01 0.  0.
     999903    2    3    3    0    0 -0.12322923058E+00  0.22261973083E-01 -0.33511233414E-01  0.13102891194E+00  0.19092780915E-01 0.  0.
         14    1    1    2    0    0  0.13248083816E-01 -0.27617063158E-03 -0.20199655952E-01  0.24158106209E-01  0.00000000000E+00 0. -1.
     999901    1    3    3    0    0  0.10998114677E+00 -0.21985802451E-01  0.53710889366E-01  0.88874298185E+00  0.88000000000E+00 0.  1.
        -11    1    4    4    0    0 -0.12445095650E-01 -0.33883803775E-02 -0.23467118887E-02  0.13119821074E-01  0.51100000000E-03 0.  1.
         11    1    4    4    0    0 -0.11078413493E+00  0.25650353460E-01 -0.31164521525E-01  0.11790909087E+00  0.51100000000E-03 0. -1.
</event>
<event>
 8    1  0.1131349E+005  0.1043930E+01  0.7957747E-01            NaN
         13   -1    0    0    0    0  0.00000000000E+00  0.00000000000E+00  0.74505805969E-08  0.10566000000E+00  0.10566000000E+00 0. -1.
     999900   -1    0    0    0    0 -0.00000000000E+00 -0.00000000000E+00 -0.74505805969E-08  0.93827000000E+00  0.93827000000E+00 0.  1.
     999902    2    1    2    0    0  0.72370080750E-02 -0.17910285491E-01  0.11697888231E-01  0.10213469709E+01  0.10210972735E+01 0.  0.
     999903    2    3    3    0    0 -0.52578190087E-01 -0.79736385727E-01  0.91189137610E-01  0.13358620175E+00  0.20185569031E-01 0.  0.
         14    1    1    2    0    0 -0.72370080750E-02  0.17910285491E-01 -0.11697888231E-01  0.22583029055E-01  0.00000000000E+00 0.  1.
     999901    1    3    3    0    0  0.59815198162E-01  0.61826100236E-01 -0.79491249379E-01  0.88776076920E+00  0.88000000000E+00 0.  1.
        -11    1    4    4    0    0 -0.37305434163E-01 -0.58913921793E-01  0.53481374439E-01  0.87880965698E-01  0.51100000000E-03 0. -1.
         11    1    4    4    0    0 -0.15272755924E-01 -0.20822463933E-01  0.37707763171E-01  0.45705236048E-01  0.51100000000E-03 0.  1.
</event>
<event>
 8    1  0.1131349E+005  0.1043930E+01  0.7957747E-01            NaN
         13   -1    0    0    0    0  0.00000000000E+00  0.00000000000E+00  0.74505805969E-08  0.10566000000E+00  0.10566000000E+00 0.  1.
     999900   -1    0    0    0    0 -0.00000000000E+00 -0.00000000000E+00 -0.74505805969E-08  0.93827000000E+00  0.93827000000E+00 0.  1.
     999902    2    1    2    0    0  0.10717835055E-01 -0.20736653655E-01 -0.71245041608E-03  0.10205764483E+01  0.10203092170E+01 0.  0.
     999903    2    3    3    0    0 -0.63214971170E-01 -0.81961774636E-01 -0.78365599075E-01  0.13195696459E+00  0.23613731237E-01 0.  0.
         14    1    1    2    0    0 -0.10717835055E-01  0.20736653655E-01  0.71245041608E-03  0.23353551735E-01  0.00000000000E+00 0.  1.
     999901    1    3    3    0    0  0.73932806226E-01  0.61225120982E-01  0.77653148659E-01  0.88861948368E+00  0.88000000000E+00 0. -1.
        -11    1    4    4    0    0 -0.19934107269E-01 -0.40717990512E-01 -0.43034174115E-01  0.62510196342E-01  0.51100000000E-03 0. -1.
         11    1    4    4    0    0 -0.43280863901E-01 -0.41243784125E-01 -0.35331424959E-01  0.69446768245E-01  0.51100000000E-03 0.  1.
</event>
