<event>
 8    1  0.2183582E+004  0.1043930E+01  0.7957747E-01            NaN
         13   -1    0    0    0    0  0.00000000000E+00  0.00000000000E+00  0.74505805969E-08  0.10566000000E+00  0.10566000000E+00 0.  1.
     999900   -1    0    0    0    0 -0.00000000000E+00 -0.00000000000E+00 -0.74505805969E-08  0.93827000000E+00  0.93827000000E+00 0.  1.
     999902    2    1    2    0    0 -0.11920729413E-01 -0.13558730006E-02  0.70688883934E-02  0.10300047939E+01  0.10299106583E+01 0.  0.
     999903    2    3    3    0    0 -0.90899644636E-01 -0.48669154125E-01  0.86274550314E-01  0.14166378254E+00  0.44653077078E-01 0.  0.
         14    1    1    2    0    0  0.11920729413E-01  0.13558730006E-02 -0.70688883934E-02  0.13925206083E-01  0.00000000000E+00 0.  1.
     999901    1    3    3    0    0  0.78978915224E-01  0.47313281125E-01 -0.79205661920E-01  0.88834101138E+00  0.88000000000E+00 0.  1.
        -11    1    4    4    0    0 -0.35282915442E-01 -0.10270460835E-01  0.57423522550E-01  0.68176891619E-01  0.51100000000E-03 0.  1.
         11    1    4    4    0    0 -0.55616729194E-01 -0.38398693290E-01  0.28851027764E-01  0.73486890918E-01  0.51100000000E-03 0. -1.
</event>
<event>
 8    1  0.2183582E+004  0.1043930E+01  0.7957747E-01            NaN
         13   -1    0    0    0    0  0.00000000000E+00  0.00000000000E+00  0.74505805969E-08  0.10566000000E+00  0.10566000000E+00 0. -1.
     999900   -1    0    0    0    0 -0.00000000000E+00 -0.00000000000E+00 -0.74505805969E-08  0.93827000000E+00  0.93827000000E+00 0. -1.
     999902    2    1    2    0    0 -0.11219805407E-01 -0.85991192613E-02  0.55779445538E-02  0.10287332125E+01  0.10286209604E+01 0.  0.
     999903    2    3    3    0    0  0.69306820475E-01  0.10891834190E+00  0.10836665625E-01  0.13726108992E+00  0.45349012302E-01 0.  0.
         14    1    1    2    0    0  0.11219805407E-01  0.85991192613E-02 -0.55779445538E-02  0.15196787519E-01  0.00000000000E+00 0. -1.
     999901    1    3    3    0    0 -0.80526625882E-01 -0.11751746117E+00 -0.52587210709E-02  0.89147212256E+00  0.88000000000E+00 0. -1.
        -11    1    4    4    0    0  0.33454842141E-01  0.87845622423E-01 -0.10451429457E-02  0.94007623554E-01  0.51100000000E-03 0.  1.
         11    1    4    4    0    0  0.35851978334E-01  0.21072719482E-01  0.11881808570E-01  0.43253466366E-01  0.51100000000E-03 0. -1.
</event>
<event>
 8    1  0.2183582E+004  0.1043930E+01  0.7957747E-01            NaN
         13   -1    0    0    0    0  0.00000000000E+00  0.00000000000E+00  0.74505805969E-08  0.10566000000E+00  0.10566000000E+00 0. -1.
     999900   -1    0    0    0    0 -0.00000000000E+00 -0.00000000000E+00 -0.74505805969E-08  0.93827000000E+00  0.93827000000E+00 0.  1.
     999902    2    1    2    0    0 -0.93023020168E-02 -0.48038602598E-02  0.98838421917E-02  0.10295320754E+01  0.10294313936E+01 0.  0.
     999903    2    3    3    0    0  0.12087563356E+00  0.41162176863E-01  0.29648230919E-01  0.13854958257E+00  0.44852264590E-01 0.  0.
         14    1    1    2    0    0  0.93023020168E-02  0.48038602598E-02 -0.98838421917E-02  0.14397924596E-01  0.00000000000E+00 0. -1.
     999901    1    3    3    0    0 -0.13017793558E+00 -0.45966037123E-01 -0.19764388728E-01  0.89098249284E+00  0.88000000000E+00 0. -1.
        -11    1    4    4    0    0  0.30622918042E-01  0.31865375817E-01  0.46774281161E-02  0.44444400549E-01  0.51100000000E-03 0.  1.
         11    1    4    4    0    0  0.90252715522E-01  0.92968010464E-02  0.24970802803E-01  0.94105182017E-01  0.51100000000E-03 0. -1.
</event>
<event>
 7    1  0.2183582E+004  0.1043930E+01  0.7957747E-01            NaN
         13   -1    0    0    0    0  0.00000000000E+00  0.00000000000E+00  0.74505805969E-08  0.10566000000E+00  0.10566000000E+00 0.  1.
     999900   -1    0    0    0    0 -0.00000000000E+00 -0.00000000000E+00 -0.74505805969E-08  0.93827000000E+00  0.93827000000E+00 0.  1.
     999902    2    1    2    0    0 -0.42274102653E-02 -0.71910546513E-02  0.10023947103E-01  0.10308892262E+01  0.10308067399E+01 0.  0.
         14    1    1    2    0    0  0.42274102653E-02  0.71910546513E-02 -0.10023947103E-01  0.13040773753E-01  0.00000000000E+00 0. -1.
     999901    1    3    3    0    0 -0.16529935233E-01 -0.12024119577E+00 -0.27594096992E-01  0.88875903264E+00  0.88000000000E+00 0.  1.
        -11    1    3    3    0    0 -0.13054034941E-01  0.90293508518E-01 -0.18874605586E-03  0.91233887645E-01  0.51100000000E-03 0. -1.
         11    1    3    3    0    0  0.25356559908E-01  0.22756632598E-01  0.37806790151E-01  0.50896305957E-01  0.51100000000E-03 0.  1.
</event>
<event>
 8    1  0.2183582E+004  0.1043930E+01  0.7957747E-01            NaN
         13   -1    0    0    0    0  0.00000000000E+00  0.00000000000E+00  0.74505805969E-08  0.10566000000E+00  0.10566000000E+00 0.  1.
     999900   -1    0    0    0    0 -0.00000000000E+00 -0.00000000000E+00 -0.74505805969E-08  0.93827000000E+00  0.93827000000E+00 0. -1.
     999902    2    1    2    0    0 -0.11452739847E-03 -0.11900566572E-01 -0.55754593973E-02  0.10307876125E+01  0.10307038274E+01 0.  0.
     999903    2    3    3    0    0  0.57393036371E-01 -0.73169494142E-02 -0.12095278914E+00  0.14138328508E+00  0.44857081132E-01 0.  0.
         14    1    1    2    0    0  0.11452739847E-03  0.11900566572E-01  0.55754593973E-02  0.13142387483E-01  0.00000000000E+00 0.  1.
     999901    1    3    3    0    0 -0.57507563770E-01 -0.45836171574E-02  0.11537732974E+00  0.88940432743E+00  0.88000000000E+00 0.  1.
        -11    1    4    4    0    0  0.22275784554E-01 -0.25018801634E-01 -0.48541485675E-01  0.58980403231E-01  0.51100000000E-03 0. -1.
         11    1    4    4    0    0  0.35117251817E-01  0.17701852220E-01 -0.72411303466E-01  0.82402881854E-01  0.51100000000E-03 0.  1.
</event>
<event>
 8    1  0.2183582E+004  0.1043930E+01  0.7957747E-01            NaN
         13   -1    0    0    0    0  0.00000000000E+00  0.00000000000E+00  0.74505805969E-08  0.10566000000E+00  0.10566000000E+00 0.  1.
     999900   -1    0    0    0    0 -0.00000000000E+00 -0.00000000000E+00 -0.74505805969E-08  0.93827000000E+00  0.93827000000E+00 0.  1.
     999902    2    1    2    0    0  0.99670223082E-02  0.54255856101E-03 -0.94266958162E-02  0.10302005245E+01  0.10301090341E+01 0.  0.
     999903    2    3    3    0    0 -0.21669094209E-01  0.64254661160E-01  0.11261628136E+00  0.13893481543E+00  0.44969378316E-01 0.  0.
         14    1    1    2    0    0 -0.99670223082E-02 -0.54255856101E-03  0.94266958162E-02  0.13729475500E-01  0.00000000000E+00 0.  1.
     999901    1    3    3    0    0  0.31636116517E-01 -0.63712102599E-01 -0.12204297718E+00  0.89126570907E+00  0.88000000000E+00 0.  1.
        -11    1    4    4    0    0  0.12184121725E-01  0.21776419689E-01  0.51090427183E-01  0.56860866573E-01  0.51100000000E-03 0.  1.
         11    1    4    4    0    0 -0.33853215933E-01  0.42478241471E-01  0.61525854179E-01  0.82073948857E-01  0.51100000000E-03 0. -1.
</event>
<event>
 8    1  0.2183582E+004  0.1043930E+01  0.7957747E-01            NaN
         13   -1    0    0    0    0  0.00000000000E+00  0.00000000000E+00  0.74505805969E-08  0.10566000000E+00  0.10566000000E+00 0. -1.
     999900   -1    0    0    0    0 -0.00000000000E+00 -0.00000000000E+00 -0.74505805969E-08  0.93827000000E+00  0.93827000000E+00 0.  1.
     999902    2    1    2    0    0 -0.16769042213E-01 -0.28380704551E-02 -0.34249383843E-02  0.10265810628E+01  0.10264344562E+01 0.  0.
     999903    2    3    3    0    0  0.89802730257E-01 -0.86134464390E-01 -0.31988815105E-01  0.13578831077E+00  0.43948887734E-01 0.  0.
         14    1    1    2    0    0  0.16769042213E-01  0.28380704551E-02  0.34249383843E-02  0.17348937247E-01  0.00000000000E+00 0.  1.
     999901    1    3    3    0    0 -0.10657177247E+00  0.83296393935E-01  0.28563876721E-01  0.89079275198E+00  0.88000000000E+00 0. -1.
        -11    1    4    4    0    0  0.44271598288E-01 -0.59345826312E-01 -0.36906934137E-01  0.82730190523E-01  0.51100000000E-03 0.  1.
         11    1    4    4    0    0  0.45531131969E-01 -0.26788638078E-01  0.49181190323E-02  0.53058120249E-01  0.51100000000E-03 0. -1.
</event>
<event>
 8    1  0.2183582E+004  0.1043930E+01  0.7957747E-01            NaN
         13   -1    0    0    0    0  0.00000000000E+00  0.00000000000E+00  0.74505805969E-08  0.10566000000E+00  0.10566000000E+00 0.  1.
     999900   -1    0    0    0    0 -0.00000000000E+00 -0.00000000000E+00 -0.74505805969E-08  0.93827000000E+00  0.93827000000E+00 0. -1.
     999902    2    1    2    0    0 -0.99326974466E-02 -0.88668288660E-02  0.43341300676E-02  0.10299277210E+01  0.10298325333E+01 0.  0.
     999903    2    3    3    0    0 -0.96978565525E-01 -0.51074683136E-01  0.77450624633E-01  0.14161217581E+00  0.45187870646E-01 0.  0.
         14    1    1    2    0    0  0.99326974466E-02  0.88668288660E-02 -0.43341300676E-02  0.14002278963E-01  0.00000000000E+00 0. -1.
     999901    1    3    3    0    0  0.87045868078E-01  0.42207854270E-01 -0.73116494565E-01  0.88831554523E+00  0.88000000000E+00 0. -1.
        -11    1    4    4    0    0 -0.31769964850E-01 -0.27673295843E-01  0.53946082429E-01  0.68451317736E-01  0.51100000000E-03 0.  1.
         11    1    4    4    0    0 -0.65208600674E-01 -0.23401387293E-01  0.23504542204E-01  0.73160858076E-01  0.51100000000E-03 0. -1.
</event>
<event>
 8    1  0.2183582E+004  0.1043930E+01  0.7957747E-01            NaN
         13   -1    0    0    0    0  0.00000000000E+00  0.00000000000E+00  0.74505805969E-08  0.10566000000E+00  0.10566000000E+00 0.  1.
     999900   -1    0    0    0    0 -0.00000000000E+00 -0.00000000000E+00 -0.74505805969E-08  0.93827000000E+00  0.93827000000E+00 0.  1.
     999902    2    1    2    0    0  0.12354302461E-01  0.10533498349E-01  0.53675206436E-03  0.10276858786E+01  0.10275574892E+01 0.  0.
     999903    2    3    3    0    0 -0.30342623070E-01 -0.31628386763E-01 -0.12429079082E+00  0.13685336491E+00  0.36872932903E-01 0.  0.
         14    1    1    2    0    0 -0.12354302461E-01 -0.10533498349E-01 -0.53675206436E-03  0.16244121384E-01  0.00000000000E+00 0.  1.
     999901    1    3    3    0    0  0.42696925531E-01  0.42161885112E-01  0.12482754289E+00  0.89083251370E+00  0.88000000000E+00 0. -1.
        -11    1    4    4    0    0 -0.21007992867E-01 -0.36824506156E-01 -0.72653233158E-01  0.84119756462E-01  0.51100000000E-03 0.  1.
         11    1    4    4    0    0 -0.93346302032E-02  0.51961193927E-02 -0.51637557664E-01  0.52733608451E-01  0.51100000000E-03 0. -1.
</event>
<event>
 8    1  0.2183582E+004  0.1043930E+01  0.7957747E-01            NaN
         13   -1    0    0    0    0  0.00000000000E+00  0.00000000000E+00  0.74505805969E-08  0.10566000000E+00  0.10566000000E+00 0. -1.
     999900   -1    0    0    0    0 -0.00000000000E+00 -0.00000000000E+00 -0.74505805969E-08  0.93827000000E+00  0.93827000000E+00 0. -1.
     999902    2    1    2    0    0 -0.59497391721E-02  0.13647422083E-01  0.50726070707E-02  0.10282015904E+01  0.10280812846E+01 0.  0.
     999903    2    3    3    0    0  0.56277743856E-01 -0.10814889414E+00  0.42679486913E-01  0.13684258322E+00  0.45177275495E-01 0.  0.
         14    1    1    2    0    0  0.59497391721E-02 -0.13647422083E-01 -0.50726070707E-02  0.15728409589E-01  0.00000000000E+00 0.  1.
     999901    1    3    3    0    0 -0.62227483028E-01  0.12179631623E+00 -0.37606879842E-01  0.89135900719E+00  0.88000000000E+00 0.  1.
        -11    1    4    4    0    0  0.29143904503E-01 -0.19801857259E-01  0.47690830591E-03  0.35241584572E-01  0.51100000000E-03 0.  1.
         11    1    4    4    0    0  0.27133839353E-01 -0.88347036883E-01  0.42202578607E-01  0.10160099865E+00  0.51100000000E-03 0. -1.
</event>
<event>
 8    1  0.2183582E+004  0.1043930E+01  0.7957747E-01            NaN
         13   -1    0    0    0    0  0.00000000000E+00  0.00000000000E+00  0.74505805969E-08  0.10566000000E+00  0.10566000000E+00 0. -1.
     999900   -1    0    0    0    0 -0.00000000000E+00 -0.00000000000E+00 -0.74505805969E-08  0.93827000000E+00  0.93827000000E+00 0. -1.
     999902    2    1    2    0    0 -0.10573183323E-02  0.53857217102E-02 -0.12694109127E-01  0.10301001653E+01  0.10300073234E+01 0.  0.
     999903    2    3    3    0    0  0.16304307501E-02  0.86993031631E-01  0.10007314944E+00  0.13915491919E+00  0.42178317144E-01 0.  0.
         14    1    1    2    0    0  0.10573183323E-02 -0.53857217102E-02  0.12694109127E-01  0.13829834667E-01  0.00000000000E+00 0. -1.
     999901    1    3    3    0    0 -0.26877490824E-02 -0.81607309921E-01 -0.11276725857E+00  0.89094524615E+00  0.88000000000E+00 0. -1.
        -11    1    4    4    0    0 -0.16966510545E-01  0.17322828496E-01  0.30332861410E-01  0.38836663985E-01  0.51100000000E-03 0.  1.
         11    1    4    4    0    0  0.18596941295E-01  0.69670203135E-01  0.69740288034E-01  0.10031825520E+00  0.51100000000E-03 0. -1.
</event>
<event>
 8    1  0.2183582E+004  0.1043930E+01  0.7957747E-01            NaN
         13   -1    0    0    0    0  0.00000000000E+00  0.00000000000E+00  0.74505805969E-08  0.10566000000E+00  0.10566000000E+00 0. -1.
     999900   -1    0    0    0    0 -0.00000000000E+00 -0.00000000000E+00 -0.74505805969E-08  0.93827000000E+00  0.93827000000E+00 0. -1.
     999902    2    1    2    0    0  0.36807631861E-02 -0.11901272546E-01  0.10439523456E-01  0.10276766325E+01  0.10275480957E+01 0.  0.
     999903    2    3    3    0    0 -0.21203824095E-01  0.12706995866E+00 -0.47158120645E-02  0.13629459879E+00  0.44244798857E-01 0.  0.
         14    1    1    2    0    0 -0.36807631861E-02  0.11901272546E-01 -0.10439523456E-01  0.16253367523E-01  0.00000000000E+00 0.  1.
     999901    1    3    3    0    0  0.24884587281E-01 -0.13897123121E+00  0.15155335520E-01  0.89138203369E+00  0.88000000000E+00 0.  1.
        -11    1    4    4    0    0 -0.23025396379E-01  0.51870749908E-01 -0.18755378015E-01  0.59772643408E-01  0.51100000000E-03 0.  1.
         11    1    4    4    0    0  0.18215722842E-02  0.75199208751E-01  0.14039565951E-01  0.76521955381E-01  0.51100000000E-03 0. -1.
</event>
<event>
 8    1  0.2183582E+004  0.1043930E+01  0.7957747E-01            NaN
         13   -1    0    0    0    0  0.00000000000E+00  0.00000000000E+00  0.74505805969E-08  0.10566000000E+00  0.10566000000E+00 0. -1.
     999900   -1    0    0    0    0 -0.00000000000E+00 -0.00000000000E+00 -0.74505805969E-08  0.93827000000E+00  0.93827000000E+00 0. -1.
     999902    2    1    2    0    0  0.31616777188E-02 -0.74806021615E-02 -0.10491661410E-01  0.10306623486E+01  0.10305769482E+01 0.  0.
     999903    2    3    3    0    0 -0.25374623092E-01 -0.13170379105E+00 -0.60443629690E-02  0.14146861291E+00  0.44576608668E-01 0.  0.
         14    1    1    2    0    0 -0.31616777188E-02  0.74806021615E-02  0.10491661410E-01  0.13267651406E-01  0.00000000000E+00 0. -1.
     999901    1    3    3    0    0  0.28536300811E-01  0.12422318889E+00 -0.44472984412E-02  0.88919373569E+00  0.88000000000E+00 0. -1.
        -11    1    4    4    0    0 -0.37481810309E-01 -0.10162653341E+00  0.82395979249E-03  0.10832256657E+00  0.51100000000E-03 0.  1.
         11    1    4    4    0    0  0.12107187217E-01 -0.30077257639E-01 -0.68683227615E-02  0.33146046340E-01  0.51100000000E-03 0. -1.
</event>
<event>
 8    1  0.2183582E+004  0.1043930E+01  0.7957747E-01            NaN
         13   -1    0    0    0    0  0.00000000000E+00  0.00000000000E+00  0.74505805969E-08  0.10566000000E+00  0.10566000000E+00 0.  1.
     999900   -1    0    0    0    0 -0.00000000000E+00 -0.00000000000E+00 -0.74505805969E-08  0.93827000000E+00  0.93827000000E+00 0.  1.
     999902    2    1    2    0    0 -0.11430375200E-01  0.11242601900E-01  0.35632442858E-04  0.10278971947E+01  0.10277721499E+01 0.  0.
     999903    2    3    3    0    0 -0.90408976162E-01 -0.64134267610E-01 -0.69687023689E-01  0.13841389493E+00  0.44890286113E-01 0.  0.
         14    1    1    2    0    0  0.11430375200E-01 -0.11242601900E-01 -0.35632442858E-04  0.16032805255E-01  0.00000000000E+00 0. -1.
     999901    1    3    3    0    0  0.78978600962E-01  0.75376869510E-01  0.69722656132E-01  0.88948329981E+00  0.88000000000E+00 0.  1.
        -11    1    4    4    0    0 -0.50190334691E-01 -0.12965091812E-01 -0.45512453050E-01  0.68984112705E-01  0.51100000000E-03 0. -1.
         11    1    4    4    0    0 -0.40218641471E-01 -0.51169175798E-01 -0.24174570639E-01  0.69429782228E-01  0.51100000000E-03 0.  1.
</event>
<event>
 8    1  0.2183582E+004  0.1043930E+01  0.7957747E-01            NaN
         13   -1    0    0    0    0  0.00000000000E+00  0.00000000000E+00  0.74505805969E-08  0.10566000000E+00  0.10566000000E+00 0.  1.
     999900   -1    0    0    0    0 -0.00000000000E+00 -0.00000000000E+00 -0.74505805969E-08  0.93827000000E+00  0.93827000000E+00 0.  1.
     999902    2    1    2    0    0 -0.23381708977E-02  0.12108200370E-01  0.56234619115E-02  0.10303764439E+01  0.10302872984E+01 0.  0.
     999903    2    3    3    0    0  0.90886220361E-01  0.92345882661E-01 -0.32932497800E-01  0.14098595889E+00  0.44770795123E-01 0.  0.
         14    1    1    2    0    0  0.23381708977E-02 -0.12108200370E-01 -0.56234619115E-02  0.13553556110E-01  0.00000000000E+00 0. -1.
     999901    1    3    3    0    0 -0.93224391259E-01 -0.80237682290E-01  0.38555959711E-01  0.88939048500E+00  0.88000000000E+00 0. -1.
        -11    1    4    4    0    0  0.16365838720E-01  0.20268976298E-01  0.11131998436E-01  0.28334688764E-01  0.51100000000E-03 0.  1.
         11    1    4    4    0    0  0.74520381641E-01  0.72076906363E-01 -0.44064496236E-01  0.11265127012E+00  0.51100000000E-03 0. -1.
</event>
<event>
 8    1  0.2183582E+004  0.1043930E+01  0.7957747E-01            NaN
         13   -1    0    0    0    0  0.00000000000E+00  0.00000000000E+00  0.74505805969E-08  0.10566000000E+00  0.10566000000E+00 0.  1.
     999900   -1    0    0    0    0 -0.00000000000E+00 -0.00000000000E+00 -0.74505805969E-08  0.93827000000E+00  0.93827000000E+00 0. -1.
     999902    2    1    2    0    0  0.89096429948E-02  0.80729957433E-02  0.92135424672E-02  0.10287825790E+01  0.10286710604E+01 0.  0.
     999903    2    3    3    0    0  0.10235267505E+00 -0.70611381038E-01 -0.41990957055E-01  0.13886981238E+00  0.45382233251E-01 0.  0.
         14    1    1    2    0    0 -0.89096429948E-02 -0.80729957433E-02 -0.92135424672E-02  0.15147421013E-01  0.00000000000E+00 0. -1.
     999901    1    3    3    0    0 -0.93443032057E-01  0.78684376782E-01  0.51204499523E-01  0.88991276660E+00  0.88000000000E+00 0. -1.
        -11    1    4    4    0    0  0.97403677901E-01 -0.54951997709E-01 -0.47547978604E-01  0.12152477077E+00  0.51100000000E-03 0.  1.
         11    1    4    4    0    0  0.49489971507E-02 -0.15659383329E-01  0.55570215484E-02  0.17345041612E-01  0.51100000000E-03 0. -1.
</event>
<event>
 8    1  0.2183582E+004  0.1043930E+01  0.7957747E-01            NaN
         13   -1    0    0    0    0  0.00000000000E+00  0.00000000000E+00  0.74505805969E-08  0.10566000000E+00  0.10566000000E+00 0. -1.
     999900   -1    0    0    0    0 -0.00000000000E+00 -0.00000000000E+00 -0.74505805969E-08  0.93827000000E+00  0.93827000000E+00 0. -1.
     999902    2    1    2    0    0  0.73375330957E-02  0.68041957280E-02  0.87257323078E-02  0.10306531451E+01  0.10305676255E+01 0.  0.
     999903    2    3    3    0    0 -0.91196355761E-01 -0.99017034460E-02  0.97078655624E-01  0.14060019535E+00  0.43924145063E-01 0.  0.
         14    1    1    2    0    0 -0.73375330957E-02 -0.68041957280E-02 -0.87257323078E-02  0.13276854889E-01  0.00000000000E+00 0.  1.
     999901    1    3    3    0    0  0.98533888856E-01  0.16705899174E-01 -0.88352923316E-01  0.89005294976E+00  0.88000000000E+00 0. -1.
        -11    1    4    4    0    0 -0.60621272329E-01  0.31729751895E-02  0.34736804128E-01  0.69942212664E-01  0.51100000000E-03 0. -1.
         11    1    4    4    0    0 -0.30575083432E-01 -0.13074678636E-01  0.62341851496E-01  0.70657982686E-01  0.51100000000E-03 0.  1.
</event>
<event>
 8    1  0.2183582E+004  0.1043930E+01  0.7957747E-01            NaN
         13   -1    0    0    0    0  0.00000000000E+00  0.00000000000E+00  0.74505805969E-08  0.10566000000E+00  0.10566000000E+00 0.  1.
     999900   -1    0    0    0    0 -0.00000000000E+00 -0.00000000000E+00 -0.74505805969E-08  0.93827000000E+00  0.93827000000E+00 0.  1.
     999902    2    1    2    0    0  0.33722896294E-02 -0.19003089747E-02 -0.13211244807E-01  0.10301633555E+01  0.10300713657E+01 0.  0.
     999903    2    3    3    0    0  0.10732619198E+00 -0.56221539716E-01 -0.57366312301E-01  0.14128379115E+00  0.44614379311E-01 0.  0.
         14    1    1    2    0    0 -0.33722896294E-02  0.19003089747E-02  0.13211244807E-01  0.13766644504E-01  0.00000000000E+00 0.  1.
     999901    1    3    3    0    0 -0.10395390236E+00  0.54321230741E-01  0.44155067494E-01  0.88887956434E+00  0.88000000000E+00 0.  1.
        -11    1    4    4    0    0  0.46019116077E-02  0.18820702906E-02 -0.15130344083E-01  0.15934497548E-01  0.51100000000E-03 0. -1.
         11    1    4    4    0    0  0.10272428038E+00 -0.58103610006E-01 -0.42235968217E-01  0.12534929360E+00  0.51100000000E-03 0.  1.
</event>
<event>
 8    1  0.2183582E+004  0.1043930E+01  0.7957747E-01            NaN
         13   -1    0    0    0    0  0.00000000000E+00  0.00000000000E+00  0.74505805969E-08  0.10566000000E+00  0.10566000000E+00 0.  1.
     999900   -1    0    0    0    0 -0.00000000000E+00 -0.00000000000E+00 -0.74505805969E-08  0.93827000000E+00  0.93827000000E+00 0.  1.
     999902    2    1    2    0    0  0.94502578003E-02  0.57472359049E-02 -0.79324878079E-02  0.10303188848E+01  0.10302289755E+01 0.  0.
     999903    2    3    3    0    0  0.80890048694E-01  0.85093319957E-01 -0.65648585462E-01  0.14198865756E+00  0.45463931009E-01 0.  0.
         14    1    1    2    0    0 -0.94502578003E-02 -0.57472359049E-02  0.79324878079E-02  0.13611115159E-01  0.00000000000E+00 0.  1.
     999901    1    3    3    0    0 -0.71439790894E-01 -0.79346084052E-01  0.57716097654E-01  0.88833022728E+00  0.88000000000E+00 0. -1.
        -11    1    4    4    0    0  0.35922805664E-01  0.54682238993E-01 -0.13694019633E-01  0.66845961155E-01  0.51100000000E-03 0. -1.
         11    1    4    4    0    0  0.44967243031E-01  0.30411080964E-01 -0.51954565829E-01  0.75142696402E-01  0.51100000000E-03 0.  1.
</event>
<event>
 8    1  0.2183582E+004  0.1043930E+01  0.7957747E-01            NaN
         13   -1    0    0    0    0  0.00000000000E+00  0.00000000000E+00  0.74505805969E-08  0.10566000000E+00  0.10566000000E+00 0. -1.
     999900   -1    0    0    0    0 -0.00000000000E+00 -0.00000000000E+00 -0.74505805969E-08  0.93827000000E+00  0.93827000000E+00 0.  1.
     999902    2    1    2    0    0  0.14536523894E-01 -0.18015477702E-02  0.37914291141E-02  0.10287995329E+01  0.10286882656E+01 0.  0.
     999903    2    3    3    0    0 -0.75319520547E-01 -0.50174029208E-01 -0.92528137588E-01  0.13768143484E+00  0.46949524718E-01 0.  0.
         14    1    1    2    0    0 -0.14536523894E-01  0.18015477702E-02 -0.37914291141E-02  0.15130467145E-01  0.00000000000E+00 0.  1.
     999901    1    3    3    0    0  0.89856044441E-01  0.48372481438E-01  0.96319566702E-01  0.89111809802E+00  0.88000000000E+00 0. -1.
        -11    1    4    4    0    0 -0.34281029930E-01 -0.48147456568E-01 -0.41776981454E-01  0.72380549096E-01  0.51100000000E-03 0. -1.
         11    1    4    4    0    0 -0.41038490617E-01 -0.20265726402E-02 -0.50751156134E-01  0.65300885742E-01  0.51100000000E-03 0.  1.
</event>
<event>
 8    1  0.2183582E+004  0.1043930E+01  0.7957747E-01            NaN
         13   -1    0    0    0    0  0.00000000000E+00  0.00000000000E+00  0.74505805969E-08  0.10566000000E+00  0.10566000000E+00 0.  1.
     999900   -1    0    0    0    0 -0.00000000000E+00 -0.00000000000E+00 -0.74505805969E-08  0.93827000000E+00  0.93827000000E+00 0.  1.
     999902    2    1    2    0    0  0.21565172631E-02 -0.74953304980E-02  0.10602563783E-01  0.10307677470E+01  0.10306837067E+01 0.  0.
     999903    2    3    3    0    0 -0.32271491296E-01  0.12137550958E-01 -0.12698514322E+00  0.13919547569E+00  0.45402473060E-01 0.  0.
         14    1    1    2    0    0 -0.21565172631E-02  0.74953304980E-02 -0.10602563783E-01  0.13162253027E-01  0.00000000000E+00 0. -1.
     999901    1    3    3    0    0  0.34428008559E-01 -0.19632881456E-01  0.13758770700E+00  0.89157227129E+00  0.88000000000E+00 0. -1.
        -11    1    4    4    0    0  0.33939175648E-02 -0.12910196222E-01 -0.32712425186E-01  0.35334908030E-01  0.51100000000E-03 0.  1.
         11    1    4    4    0    0 -0.35665408861E-01  0.25047747180E-01 -0.94272718032E-01  0.10386056766E+00  0.51100000000E-03 0. -1.
</event>
<event>
 8    1  0.2183582E+004  0.1043930E+01  0.7957747E-01            NaN
         13   -1    0    0    0    0  0.00000000000E+00  0.00000000000E+00  0.74505805969E-08  0.10566000000E+00  0.10566000000E+00 0.  1.
     999900   -1    0    0    0    0 -0.00000000000E+00 -0.00000000000E+00 -0.74505805969E-08  0.93827000000E+00  0.93827000000E+00 0.  1.
     999902    2    1    2    0    0  0.53407211754E-02  0.94826773354E-02  0.89342259540E-02  0.10298493443E+01  0.10297530806E+01 0.  0.
     999903    2    3    3    0    0 -0.98801783834E-01 -0.73355693267E-01  0.46002324622E-01  0.13907333375E+00  0.45632532986E-01 0.  0.
         14    1    1    2    0    0 -0.53407211754E-02 -0.94826773354E-02 -0.89342259540E-02  0.14080655720E-01  0.00000000000E+00 0. -1.
     999901    1    3    3    0    0  0.10414250501E+00  0.82838370603E-01 -0.37068098668E-01  0.89077601053E+00  0.88000000000E+00 0.  1.
        -11    1    4    4    0    0 -0.51696857165E-01 -0.46550002406E-01  0.25659919160E-02  0.69615466674E-01  0.51100000000E-03 0.  1.
         11    1    4    4    0    0 -0.47104926669E-01 -0.26805690861E-01  0.43436332706E-01  0.69457867077E-01  0.51100000000E-03 0. -1.
</event>
<event>
 8    1  0.2183582E+004  0.1043930E+01  0.7957747E-01            NaN
         13   -1    0    0    0    0  0.00000000000E+00  0.00000000000E+00  0.74505805969E-08  0.10566000000E+00  0.10566000000E+00 0.  1.
     999900   -1    0    0    0    0 -0.00000000000E+00 -0.00000000000E+00 -0.74505805969E-08  0.93827000000E+00  0.93827000000E+00 0.  1.
     999902    2    1    2    0    0 -0.73436337575E-02 -0.99439175454E-02  0.64499961089E-02  0.10299867973E+01  0.10298924165E+01 0.  0.
     999903    2    3    3    0    0 -0.57261832613E-01 -0.21545950046E-01  0.11871929351E+00  0.14137505478E+00  0.46362592952E-01 0.  0.
         14    1    1    2    0    0  0.73436337575E-02  0.99439175454E-02 -0.64499961089E-02  0.13943202742E-01  0.00000000000E+00 0. -1.
     999901    1    3    3    0    0  0.49918198855E-01  0.11602032500E-01 -0.11226929740E+00  0.88861174248E+00  0.88000000000E+00 0.  1.
        -11    1    4    4    0    0 -0.24394550179E-01 -0.33679279890E-01  0.68596574540E-01  0.80219318945E-01  0.51100000000E-03 0.  1.
         11    1    4    4    0    0 -0.32867282434E-01  0.12133329844E-01  0.50122718966E-01  0.61155735833E-01  0.51100000000E-03 0. -1.
</event>
<event>
 8    1  0.2183582E+004  0.1043930E+01  0.7957747E-01            NaN
         13   -1    0    0    0    0  0.00000000000E+00  0.00000000000E+00  0.74505805969E-08  0.10566000000E+00  0.10566000000E+00 0.  1.
     999900   -1    0    0    0    0 -0.00000000000E+00 -0.00000000000E+00 -0.74505805969E-08  0.93827000000E+00  0.93827000000E+00 0.  1.
     999902    2    1    2    0    0  0.54954674777E-02  0.12714417890E-01 -0.82703049149E-03  0.10300541013E+01  0.10299606357E+01 0.  0.
     999903    2    3    3    0    0 -0.47603962050E-02 -0.11733086834E+00  0.57463235115E-01  0.13853028543E+00  0.45819456078E-01 0.  0.
         14    1    1    2    0    0 -0.54954674777E-02 -0.12714417890E-01  0.82703049149E-03  0.13875898692E-01  0.00000000000E+00 0.  1.
     999901    1    3    3    0    0  0.10255863683E-01  0.13004528623E+00 -0.58290265607E-01  0.89152381588E+00  0.88000000000E+00 0. -1.
        -11    1    4    4    0    0 -0.18990631702E-01 -0.50663757726E-01  0.42332355817E-01  0.68700436021E-01  0.51100000000E-03 0. -1.
         11    1    4    4    0    0  0.14230235497E-01 -0.66667110611E-01  0.15130879298E-01  0.69829849411E-01  0.51100000000E-03 0.  1.
</event>
<event>
 8    1  0.2183582E+004  0.1043930E+01  0.7957747E-01            NaN
         13   -1    0    0    0    0  0.00000000000E+00  0.00000000000E+00  0.74505805969E-08  0.10566000000E+00  0.10566000000E+00 0. -1.
     999900   -1    0    0    0    0 -0.00000000000E+00 -0.00000000000E+00 -0.74505805969E-08  0.93827000000E+00  0.93827000000E+00 0. -1.
     999902    2    1    2    0    0 -0.20714541502E-01 -0.11539727417E-01  0.93922447534E-02  0.10184256514E+01  0.10181062496E+01 0.  0.
     999903    2    3    3    0    0 -0.10395791834E+00  0.39153871176E-01  0.53468217661E-01  0.13194835773E+00  0.47023870449E-01 0.  0.
         14    1    1    2    0    0  0.20714541502E-01  0.11539727417E-01 -0.93922447534E-02  0.25504348649E-01  0.00000000000E+00 0.  1.
     999901    1    3    3    0    0  0.83243376842E-01 -0.50693598593E-01 -0.44075972907E-01  0.88647729363E+00  0.88000000000E+00 0. -1.
        -11    1    4    4    0    0 -0.27155431577E-01  0.33827453511E-01  0.23454200547E-01  0.49316069586E-01  0.51100000000E-03 0. -1.
         11    1    4    4    0    0 -0.76802486767E-01  0.53264176655E-02  0.30014017114E-01  0.82632288139E-01  0.51100000000E-03 0.  1.
</event>
<event>
 8    1  0.2183582E+004  0.1043930E+01  0.7957747E-01            NaN
         13   -1    0    0    0    0  0.00000000000E+00  0.00000000000E+00  0.74505805969E-08  0.10566000000E+00  0.10566000000E+00 0.  1.
     999900   -1    0    0    0    0 -0.00000000000E+00 -0.00000000000E+00 -0.74505805969E-08  0.93827000000E+00  0.93827000000E+00 0.  1.
     999902    2    1    2    0    0 -0.11884167579E-01  0.60056773925E-02 -0.75095560725E-02  0.10286429129E+01  0.10285293128E+01 0.  0.
     999903    2    3    3    0    0  0.60827777306E-01 -0.11410400823E+00  0.89466535407E-02  0.13736059491E+00  0.45476886858E-01 0.  0.
         14    1    1    2    0    0  0.11884167579E-01 -0.60056773925E-02  0.75095560725E-02  0.15287087113E-01  0.00000000000E+00 0.  1.
     999901    1    3    3    0    0 -0.72711944885E-01  0.12010968562E+00 -0.16456209613E-01  0.89128231798E+00  0.88000000000E+00 0.  1.
        -11    1    4    4    0    0  0.13501734618E-01 -0.45417546575E-04 -0.41528738030E-03  0.13517858006E-01  0.51100000000E-03 0.  1.
         11    1    4    4    0    0  0.47326042688E-01 -0.11405859068E+00  0.93619409210E-02  0.12384273690E+00  0.51100000000E-03 0. -1.
</event>
<event>
 8    1  0.2183582E+004  0.1043930E+01  0.7957747E-01            NaN
         13   -1    0    0    0    0  0.00000000000E+00  0.00000000000E+00  0.74505805969E-08  0.10566000000E+00  0.10566000000E+00 0.  1.
     999900   -1    0    0    0    0 -0.00000000000E+00 -0.00000000000E+00 -0.74505805969E-08  0.93827000000E+00  0.93827000000E+00 0. -1.
     999902    2    1    2    0    0  0.15534777466E-02  0.35064986244E-02  0.12408672295E-01  0.10309421605E+01  0.10308603467E+01 0.  0.
     999903    2    3    3    0    0  0.11947779942E-02 -0.13106467629E+00 -0.20530440447E-01  0.14010294108E+00  0.45032857431E-01 0.  0.
         14    1    1    2    0    0 -0.15534777466E-02 -0.35064986244E-02 -0.12408672295E-01  0.12987839460E-01  0.00000000000E+00 0. -1.
     999901    1    3    3    0    0  0.35869975238E-03  0.13457117491E+00  0.32939112742E-01  0.89083921946E+00  0.88000000000E+00 0.  1.
        -11    1    4    4    0    0 -0.21402535414E-01 -0.73069826532E-01 -0.75023373035E-02  0.76510223222E-01  0.51100000000E-03 0. -1.
         11    1    4    4    0    0  0.22597313409E-01 -0.57994849758E-01 -0.13028103144E-01  0.63592717856E-01  0.51100000000E-03 0.  1.
</event>
<event>
 8    1  0.2183582E+004  0.1043930E+01  0.7957747E-01            NaN
         13   -1    0    0    0    0  0.00000000000E+00  0.00000000000E+00  0.74505805969E-08  0.10566000000E+00  0.10566000000E+00 0.  1.
     999900   -1    0    0    0    0 -0.00000000000E+00 -0.00000000000E+00 -0.74505805969E-08  0.93827000000E+00  0.93827000000E+00 0. -1.
     999902    2    1    2    0    0 -0.55467710240E-02  0.10685415007E-01 -0.67966595005E-02  0.10301046847E+01  0.10300119039E+01 0.  0.
     999903    2    3    3    0    0 -0.75026172292E-01 -0.48968381750E-02  0.10905773993E+00  0.13965960741E+00  0.44252793697E-01 0.  0.
         14    1    1    2    0    0  0.55467710240E-02 -0.10685415007E-01  0.67966595005E-02  0.13825315296E-01  0.00000000000E+00 0.  1.
     999901    1    3    3    0    0  0.69479401267E-01  0.15582253182E-01 -0.11585439943E+00  0.89044507730E+00  0.88000000000E+00 0. -1.
        -11    1    4    4    0    0 -0.48393516709E-01  0.71248521163E-02  0.95803454972E-01  0.10756978703E+00  0.51100000000E-03 0. -1.
         11    1    4    4    0    0 -0.26632655582E-01 -0.12021690291E-01  0.13254284957E-01  0.32089820373E-01  0.51100000000E-03 0.  1.
</event>
<event>
 8    1  0.2183582E+004  0.1043930E+01  0.7957747E-01            NaN
         13   -1    0    0    0    0  0.00000000000E+00  0.00000000000E+00  0.74505805969E-08  0.10566000000E+00  0.10566000000E+00 0.  1.
     999900   -1    0    0    0    0 -0.00000000000E+00 -0.00000000000E+00 -0.74505805969E-08  0.93827000000E+00  0.93827000000E+00 0.  1.
     999902    2    1    2    0    0 -0.20158226729E-02  0.75945789684E-02 -0.11116147842E-01  0.10303171416E+01  0.10302272091E+01 0.  0.
     999903    2    3    3    0    0  0.52943483266E-01 -0.87166514240E-01  0.85228412002E-01  0.13830679172E+00  0.38260590671E-01 0.  0.
         14    1    1    2    0    0  0.20158226729E-02 -0.75945789684E-02  0.11116147842E-01  0.13612858392E-01  0.00000000000E+00 0.  1.
     999901    1    3    3    0    0 -0.54959305939E-01  0.94761093208E-01 -0.96344559844E-01  0.89201034989E+00  0.88000000000E+00 0.  1.
        -11    1    4    4    0    0  0.83034345367E-02 -0.40330829648E-01  0.49515164738E-01  0.64401362603E-01  0.51100000000E-03 0. -1.
         11    1    4    4    0    0  0.44640048730E-01 -0.46835684592E-01  0.35713247264E-01  0.73905429117E-01  0.51100000000E-03 0.  1.
</event>
<event>
 8    1  0.2183582E+004  0.1043930E+01  0.7957747E-01            NaN
         13   -1    0    0    0    0  0.00000000000E+00  0.00000000000E+00  0.74505805969E-08  0.10566000000E+00  0.10566000000E+00 0.  1.
     999900   -1    0    0    0    0 -0.00000000000E+00 -0.00000000000E+00 -0.74505805969E-08  0.93827000000E+00  0.93827000000E+00 0.  1.
     999902    2    1    2    0    0 -0.30147545480E-03  0.12602707527E-01  0.38928675865E-02  0.10307363067E+01  0.10306518619E+01 0.  0.
     999903    2    3    3    0    0 -0.10019274119E+00 -0.48887288323E-01  0.72114525918E-01  0.14033556591E+00  0.45442423613E-01 0.  0.
         14    1    1    2    0    0  0.30147545480E-03 -0.12602707527E-01 -0.38928675865E-02  0.13193693286E-01  0.00000000000E+00 0. -1.
     999901    1    3    3    0    0  0.99891265736E-01  0.61489995850E-01 -0.68221658331E-01  0.89040074080E+00  0.88000000000E+00 0.  1.
        -11    1    4    4    0    0 -0.66125798867E-01 -0.87882480048E-02  0.49471998687E-01  0.83051757079E-01  0.51100000000E-03 0.  1.
         11    1    4    4    0    0 -0.34066942324E-01 -0.40099040318E-01  0.22642527231E-01  0.57283808831E-01  0.51100000000E-03 0. -1.
</event>
<event>
 8    1  0.2622728E+004  0.1043930E+01  0.7957747E-01            NaN
         13   -1    0    0    0    0  0.00000000000E+00  0.00000000000E+00  0.74505805969E-08  0.10566000000E+00  0.10566000000E+00 0. -1.
     999900   -1    0    0    0    0 -0.00000000000E+00 -0.00000000000E+00 -0.74505805969E-08  0.93827000000E+00  0.93827000000E+00 0.  1.
     999902    2    1    2    0    0 -0.14898041874E-01 -0.36021799297E-02 -0.22761725512E-01  0.10164887263E+01  0.10161182546E+01 0.  0.
     999903    2    3    3    0    0 -0.88160499948E-01  0.83229171528E-01 -0.80694482417E-02  0.12906383691E+00  0.43508496405E-01 0.  0.
         14    1    1    2    0    0  0.14898041874E-01  0.36021799297E-02  0.22761725512E-01  0.27441273662E-01  0.00000000000E+00 0. -1.
     999901    1    3    3    0    0  0.73262458074E-01 -0.86831351458E-01 -0.14692277271E-01  0.88742488942E+00  0.88000000000E+00 0.  1.
        -11    1    4    4    0    0 -0.33707673482E-01  0.44236517680E-01  0.16033485106E-01  0.57882730703E-01  0.51100000000E-03 0.  1.
         11    1    4    4    0    0 -0.54452826466E-01  0.38992653848E-01 -0.24102933348E-01  0.71181106210E-01  0.51100000000E-03 0. -1.
</event>
<event>
 8    1  0.2183582E+004  0.1043930E+01  0.7957747E-01            NaN
         13   -1    0    0    0    0  0.00000000000E+00  0.00000000000E+00  0.74505805969E-08  0.10566000000E+00  0.10566000000E+00 0.  1.
     999900   -1    0    0    0    0 -0.00000000000E+00 -0.00000000000E+00 -0.74505805969E-08  0.93827000000E+00  0.93827000000E+00 0.  1.
     999902    2    1    2    0    0 -0.11918213643E-01  0.51134485504E-02 -0.50512318163E-02  0.10300121656E+01  0.10299181303E+01 0.  0.
     999903    2    3    3    0    0 -0.60617249291E-01 -0.11049035706E+00  0.40426658019E-01  0.13995369872E+00  0.45498936138E-01 0.  0.
         14    1    1    2    0    0  0.11918213643E-01 -0.51134485504E-02  0.50512318163E-02  0.13917834435E-01  0.00000000000E+00 0. -1.
     999901    1    3    3    0    0  0.48699035649E-01  0.11560380561E+00 -0.45477889835E-01  0.89005846685E+00  0.88000000000E+00 0. -1.
        -11    1    4    4    0    0 -0.57210904562E-01 -0.96392086420E-01  0.18425550297E-01  0.11359702439E+00  0.51100000000E-03 0.  1.
         11    1    4    4    0    0 -0.34063447295E-02 -0.14098270644E-01  0.22001107722E-01  0.26356674327E-01  0.51100000000E-03 0. -1.
</event>
<event>
 8    1  0.2183582E+004  0.1043930E+01  0.7957747E-01            NaN
         13   -1    0    0    0    0  0.00000000000E+00  0.00000000000E+00  0.74505805969E-08  0.10566000000E+00  0.10566000000E+00 0. -1.
     999900   -1    0    0    0    0 -0.00000000000E+00 -0.00000000000E+00 -0.74505805969E-08  0.93827000000E+00  0.93827000000E+00 0. -1.
     999902    2    1    2    0    0 -0.25308710665E-02 -0.11201332331E-01 -0.90960982468E-02  0.10292802847E+01  0.10291760250E+01 0.  0.
     999903    2    3    3    0    0 -0.97393216963E-01  0.87429304088E-01  0.38989136913E-02  0.13860877544E+00  0.45473829596E-01 0.  0.
         14    1    1    2    0    0  0.25308710665E-02  0.11201332331E-01  0.90960982468E-02  0.14649715276E-01  0.00000000000E+00 0.  1.
     999901    1    3    3    0    0  0.94862345896E-01 -0.98630636419E-01 -0.12995011938E-01  0.89067150928E+00  0.88000000000E+00 0.  1.
        -11    1    4    4    0    0 -0.66421700307E-01  0.69156525873E-01  0.21949601535E-01  0.98369270969E-01  0.51100000000E-03 0. -1.
         11    1    4    4    0    0 -0.30971516656E-01  0.18272778215E-01 -0.18050687844E-01  0.40239504474E-01  0.51100000000E-03 0.  1.
</event>
<event>
 8    1  0.2183582E+004  0.1043930E+01  0.7957747E-01            NaN
         13   -1    0    0    0    0  0.00000000000E+00  0.00000000000E+00  0.74505805969E-08  0.10566000000E+00  0.10566000000E+00 0.  1.
     999900   -1    0    0    0    0 -0.00000000000E+00 -0.00000000000E+00 -0.74505805969E-08  0.93827000000E+00  0.93827000000E+00 0. -1.
     999902    2    1    2    0    0 -0.59847159374E-02  0.10281901870E-01  0.76287037312E-02  0.10297973622E+01  0.10297003815E+01 0.  0.
     999903    2    3    3    0    0 -0.13261301662E+00 -0.95468374843E-02  0.99511303453E-03  0.14048756804E+00  0.45369728240E-01 0.  0.
         14    1    1    2    0    0  0.59847159374E-02 -0.10281901870E-01 -0.76287037312E-02  0.14132637812E-01  0.00000000000E+00 0. -1.
     999901    1    3    3    0    0  0.12662830069E+00  0.19828739354E-01  0.66335906967E-02  0.88930979415E+00  0.88000000000E+00 0. -1.
        -11    1    4    4    0    0 -0.79213124462E-01 -0.23434784313E-01  0.14026775499E-01  0.83790928833E-01  0.51100000000E-03 0.  1.
         11    1    4    4    0    0 -0.53399892161E-01  0.13887946829E-01 -0.13031662465E-01  0.56696639209E-01  0.51100000000E-03 0. -1.
</event>
<event>
 8    1  0.2183582E+004  0.1043930E+01  0.7957747E-01            NaN
         13   -1    0    0    0    0  0.00000000000E+00  0.00000000000E+00  0.74505805969E-08  0.10566000000E+00  0.10566000000E+00 0.  1.
     999900   -1    0    0    0    0 -0.00000000000E+00 -0.00000000000E+00 -0.74505805969E-08  0.93827000000E+00  0.93827000000E+00 0.  1.
     999902    2    1    2    0    0 -0.13342504949E-02  0.96026419317E-02 -0.89196388274E-02  0.10307561276E+01  0.10306719380E+01 0.  0.
     999903    2    3    3    0    0  0.71785651574E-01 -0.10295012548E+00 -0.41241193285E-01  0.13999278733E+00  0.46316696478E-01 0.  0.
         14    1    1    2    0    0  0.13342504949E-02 -0.96026419317E-02  0.89196388274E-02  0.13173872372E-01  0.00000000000E+00 0.  1.
     999901    1    3    3    0    0 -0.73119902069E-01  0.11255276742E+00  0.32321554458E-01  0.89076334030E+00  0.88000000000E+00 0. -1.
        -11    1    4    4    0    0  0.64109611557E-01 -0.10580738021E+00 -0.44042779729E-01  0.13132125330E+00  0.51100000000E-03 0. -1.
         11    1    4    4    0    0  0.76760400166E-02  0.28572547246E-02  0.28015864446E-02  0.86715340341E-02  0.51100000000E-03 0.  1.
</event>
<event>
 8    1  0.2183582E+004  0.1043930E+01  0.7957747E-01            NaN
         13   -1    0    0    0    0  0.00000000000E+00  0.00000000000E+00  0.74505805969E-08  0.10566000000E+00  0.10566000000E+00 0. -1.
     999900   -1    0    0    0    0 -0.00000000000E+00 -0.00000000000E+00 -0.74505805969E-08  0.93827000000E+00  0.93827000000E+00 0.  1.
     999902    2    1    2    0    0 -0.53442058389E-02  0.11822649549E-01  0.93121804764E-02  0.10279596436E+01  0.10278355786E+01 0.  0.
     999903    2    3    3    0    0 -0.88056006225E-01 -0.95436413985E-01 -0.12821635607E-01  0.13732186400E+00  0.42789375384E-01 0.  0.
         14    1    1    2    0    0  0.53442058389E-02 -0.11822649549E-01 -0.93121804764E-02  0.15970356403E-01  0.00000000000E+00 0.  1.
     999901    1    3    3    0    0  0.82711800386E-01  0.10725906353E+00  0.22133816084E-01  0.89063777960E+00  0.88000000000E+00 0. -1.
        -11    1    4    4    0    0 -0.53677776242E-01 -0.27790612652E-01 -0.10855663039E-01  0.61414398596E-01  0.51100000000E-03 0.  1.
         11    1    4    4    0    0 -0.34378229983E-01 -0.67645801333E-01 -0.19659725686E-02  0.75907465403E-01  0.51100000000E-03 0. -1.
</event>
<event>
 8    1  0.2183582E+004  0.1043930E+01  0.7957747E-01            NaN
         13   -1    0    0    0    0  0.00000000000E+00  0.00000000000E+00  0.74505805969E-08  0.10566000000E+00  0.10566000000E+00 0.  1.
     999900   -1    0    0    0    0 -0.00000000000E+00 -0.00000000000E+00 -0.74505805969E-08  0.93827000000E+00  0.93827000000E+00 0.  1.
     999902    2    1    2    0    0  0.13307568205E-01 -0.30889811310E-02  0.24780333025E-02  0.10300456986E+01  0.10299521190E+01 0.  0.
     999903    2    3    3    0    0 -0.84197210131E-01  0.80511018652E-01  0.60697570057E-01  0.13881864773E+00  0.44891286784E-01 0.  0.
         14    1    1    2    0    0 -0.13307568205E-01  0.30889811310E-02 -0.24780333025E-02  0.13884301387E-01  0.00000000000E+00 0. -1.
     999901    1    3    3    0    0  0.97504778336E-01 -0.83599999783E-01 -0.58219536755E-01  0.89122705088E+00  0.88000000000E+00 0. -1.
        -11    1    4    4    0    0 -0.56910884407E-01  0.34901844237E-01  0.52728622828E-01  0.85073828417E-01  0.51100000000E-03 0. -1.
         11    1    4    4    0    0 -0.27286325724E-01  0.45609174415E-01  0.79689472292E-02  0.53744819316E-01  0.51100000000E-03 0.  1.
</event>
<event>
 8    1  0.2183582E+004  0.1043930E+01  0.7957747E-01            NaN
         13   -1    0    0    0    0  0.00000000000E+00  0.00000000000E+00  0.74505805969E-08  0.10566000000E+00  0.10566000000E+00 0.  1.
     999900   -1    0    0    0    0 -0.00000000000E+00 -0.00000000000E+00 -0.74505805969E-08  0.93827000000E+00  0.93827000000E+00 0. -1.
     999902    2    1    2    0    0  0.74925230040E-02  0.80855931588E-02 -0.10214009616E-01  0.10289020025E+01  0.10287922482E+01 0.  0.
     999903    2    3    3    0    0 -0.90971283282E-01  0.55937604467E-01 -0.77591013996E-01  0.13956258646E+00  0.45305188555E-01 0.  0.
         14    1    1    2    0    0 -0.74925230040E-02 -0.80855931588E-02  0.10214009616E-01  0.15027997542E-01  0.00000000000E+00 0.  1.
     999901    1    3    3    0    0  0.98463806286E-01 -0.47852011308E-01  0.67377004379E-01  0.88933941600E+00  0.88000000000E+00 0.  1.
        -11    1    4    4    0    0 -0.25072980649E-01  0.31307106782E-01 -0.49735942929E-01  0.63896122212E-01  0.51100000000E-03 0. -1.
         11    1    4    4    0    0 -0.65898302633E-01  0.24630497685E-01 -0.27855071067E-01  0.75666464244E-01  0.51100000000E-03 0.  1.
</event>
<event>
 8    1  0.2183582E+004  0.1043930E+01  0.7957747E-01            NaN
         13   -1    0    0    0    0  0.00000000000E+00  0.00000000000E+00  0.74505805969E-08  0.10566000000E+00  0.10566000000E+00 0. -1.
     999900   -1    0    0    0    0 -0.00000000000E+00 -0.00000000000E+00 -0.74505805969E-08  0.93827000000E+00  0.93827000000E+00 0. -1.
     999902    2    1    2    0    0  0.11491867748E-01 -0.59014839302E-02  0.34821203336E-02  0.10305503252E+01  0.10304634671E+01 0.  0.
     999903    2    3    3    0    0  0.87752509887E-01  0.79941559607E-02 -0.10217879465E+00  0.14084643998E+00  0.40407970223E-01 0.  0.
         14    1    1    2    0    0 -0.11491867748E-01  0.59014839302E-02 -0.34821203336E-02  0.13379674844E-01  0.00000000000E+00 0. -1.
     999901    1    3    3    0    0 -0.76260642139E-01 -0.13895639891E-01  0.10566091498E+00  0.88970388518E+00  0.88000000000E+00 0.  1.
        -11    1    4    4    0    0  0.51030316669E-01 -0.12150267488E-01 -0.40431664380E-01  0.66232188737E-01  0.51100000000E-03 0. -1.
         11    1    4    4    0    0  0.36722193218E-01  0.20144423448E-01 -0.61747130268E-01  0.74614251240E-01  0.51100000000E-03 0.  1.
</event>
<event>
 8    1  0.2183582E+004  0.1043930E+01  0.7957747E-01            NaN
         13   -1    0    0    0    0  0.00000000000E+00  0.00000000000E+00  0.74505805969E-08  0.10566000000E+00  0.10566000000E+00 0. -1.
     999900   -1    0    0    0    0 -0.00000000000E+00 -0.00000000000E+00 -0.74505805969E-08  0.93827000000E+00  0.93827000000E+00 0.  1.
     999902    2    1    2    0    0  0.24159922588E-02  0.13222405659E-01  0.17311543821E-02  0.10303776598E+01  0.10302885304E+01 0.  0.
     999903    2    3    3    0    0 -0.12209962834E+00 -0.37622766653E-01  0.33602389248E-01  0.13958860117E+00  0.45078433899E-01 0.  0.
         14    1    1    2    0    0 -0.24159922588E-02 -0.13222405659E-01 -0.17311543821E-02  0.13552340222E-01  0.00000000000E+00 0. -1.
     999901    1    3    3    0    0  0.12451562060E+00  0.50845172311E-01 -0.31871234866E-01  0.89078905861E+00  0.88000000000E+00 0.  1.
        -11    1    4    4    0    0 -0.32546311894E-01  0.60089095128E-02  0.20942762109E-01  0.39169245808E-01  0.51100000000E-03 0.  1.
         11    1    4    4    0    0 -0.89553316445E-01 -0.43631676166E-01  0.12659627139E-01  0.10041935536E+00  0.51100000000E-03 0. -1.
</event>
<event>
 8    1  0.2183582E+004  0.1043930E+01  0.7957747E-01            NaN
         13   -1    0    0    0    0  0.00000000000E+00  0.00000000000E+00  0.74505805969E-08  0.10566000000E+00  0.10566000000E+00 0.  1.
     999900   -1    0    0    0    0 -0.00000000000E+00 -0.00000000000E+00 -0.74505805969E-08  0.93827000000E+00  0.93827000000E+00 0. -1.
     999902    2    1    2    0    0  0.72608913344E-02 -0.98248135396E-02  0.70447335671E-02  0.10298276677E+01  0.10297311054E+01 0.  0.
     999903    2    3    3    0    0 -0.12785096804E+00  0.28139271806E-01  0.16889600162E-01  0.13865237201E+00  0.42444469907E-01 0.  0.
         14    1    1    2    0    0 -0.72608913344E-02  0.98248135396E-02 -0.70447335671E-02  0.14102332257E-01  0.00000000000E+00 0. -1.
     999901    1    3    3    0    0  0.13511185937E+00 -0.37964085346E-01 -0.98448665947E-02  0.89117529573E+00  0.88000000000E+00 0.  1.
        -11    1    4    4    0    0 -0.50580970692E-01  0.11744854416E-01  0.27813915372E-01  0.58908838137E-01  0.51100000000E-03 0. -1.
         11    1    4    4    0    0 -0.77269997346E-01  0.16394417391E-01 -0.10924315210E-01  0.79743533877E-01  0.51100000000E-03 0.  1.
</event>
<event>
 7    1  0.2183582E+004  0.1043930E+01  0.7957747E-01            NaN
         13   -1    0    0    0    0  0.00000000000E+00  0.00000000000E+00  0.74505805969E-08  0.10566000000E+00  0.10566000000E+00 0. -1.
     999900   -1    0    0    0    0 -0.00000000000E+00 -0.00000000000E+00 -0.74505805969E-08  0.93827000000E+00  0.93827000000E+00 0.  1.
     999902    2    1    2    0    0  0.11334284697E-02  0.10409598742E-01 -0.76924475762E-02  0.10309369959E+01  0.10308551166E+01 0.  0.
         14    1    1    2    0    0 -0.11334284697E-02 -0.10409598742E-01  0.76924475762E-02  0.12993004109E-01  0.00000000000E+00 0. -1.
     999901    1    3    3    0    0  0.10377851786E+00  0.29529618600E-01 -0.98685787690E-01  0.89206550423E+00  0.88000000000E+00 0.  1.
        -11    1    3    3    0    0 -0.87390511469E-01 -0.12956296756E-01  0.78842144900E-01  0.11841162128E+00  0.51100000000E-03 0.  1.
         11    1    3    3    0    0 -0.15254577919E-01 -0.61637231026E-02  0.12151195215E-01  0.20459870384E-01  0.51100000000E-03 0. -1.
</event>
<event>
 8    1  0.2183582E+004  0.1043930E+01  0.7957747E-01            NaN
         13   -1    0    0    0    0  0.00000000000E+00  0.00000000000E+00  0.74505805969E-08  0.10566000000E+00  0.10566000000E+00 0. -1.
     999900   -1    0    0    0    0 -0.00000000000E+00 -0.00000000000E+00 -0.74505805969E-08  0.93827000000E+00  0.93827000000E+00 0. -1.
     999902    2    1    2    0    0 -0.12397995293E-02  0.97842672703E-02 -0.52040178833E-02  0.10327787314E+01  0.10327185276E+01 0.  0.
     999903    2    3    3    0    0 -0.13345967389E+00  0.11490165339E-01 -0.20082473859E-01  0.14277515068E+00  0.45143431879E-01 0.  0.
         14    1    1    2    0    0  0.12397995293E-02 -0.97842672703E-02  0.52040178833E-02  0.11151268583E-01  0.00000000000E+00 0.  1.
     999901    1    3    3    0    0  0.13221987436E+00 -0.17058980683E-02  0.14878455976E-01  0.89000358073E+00  0.88000000000E+00 0. -1.
        -11    1    4    4    0    0 -0.44429839234E-01  0.19739020037E-01  0.75218548094E-02  0.49198363257E-01  0.51100000000E-03 0. -1.
         11    1    4    4    0    0 -0.89029834658E-01 -0.82488546980E-02 -0.27604328668E-01  0.93576787428E-01  0.51100000000E-03 0.  1.
</event>
<event>
 8    1  0.2183582E+004  0.1043930E+01  0.7957747E-01            NaN
         13   -1    0    0    0    0  0.00000000000E+00  0.00000000000E+00  0.74505805969E-08  0.10566000000E+00  0.10566000000E+00 0.  1.
     999900   -1    0    0    0    0 -0.00000000000E+00 -0.00000000000E+00 -0.74505805969E-08  0.93827000000E+00  0.93827000000E+00 0.  1.
     999902    2    1    2    0    0  0.51203898285E-02  0.10906308790E-01  0.62732674257E-02  0.10303461917E+01  0.10302566452E+01 0.  0.
     999903    2    3    3    0    0 -0.70405854772E-01  0.11015379756E-01 -0.11120300323E+00  0.13933278009E+00  0.44375586786E-01 0.  0.
         14    1    1    2    0    0 -0.51203898285E-02 -0.10906308790E-01 -0.62732674257E-02  0.13583808289E-01  0.00000000000E+00 0. -1.
     999901    1    3    3    0    0  0.75526244600E-01 -0.10907096525E-03  0.11747627066E+00  0.89101341162E+00  0.88000000000E+00 0. -1.
        -11    1    4    4    0    0 -0.55121404413E-01 -0.11902680292E-01 -0.75282916682E-01  0.94062860300E-01  0.51100000000E-03 0.  1.
         11    1    4    4    0    0 -0.15284450359E-01  0.22918060047E-01 -0.35920086551E-01  0.45269919791E-01  0.51100000000E-03 0. -1.
</event>
<event>
 8    1  0.2183582E+004  0.1043930E+01  0.7957747E-01            NaN
         13   -1    0    0    0    0  0.00000000000E+00  0.00000000000E+00  0.74505805969E-08  0.10566000000E+00  0.10566000000E+00 0.  1.
     999900   -1    0    0    0    0 -0.00000000000E+00 -0.00000000000E+00 -0.74505805969E-08  0.93827000000E+00  0.93827000000E+00 0.  1.
     999902    2    1    2    0    0  0.61036756298E-02  0.25483460454E-02  0.12467336406E-01  0.10298167650E+01  0.10297200523E+01 0.  0.
     999903    2    3    3    0    0 -0.46584634916E-01  0.11109893784E+00 -0.54139794371E-01  0.13908908561E+00  0.43606813692E-01 0.  0.
         14    1    1    2    0    0 -0.61036756298E-02 -0.25483460454E-02 -0.12467336406E-01  0.14113234953E-01  0.00000000000E+00 0. -1.
     999901    1    3    3    0    0  0.52688310546E-01 -0.10855059180E+00  0.66607130778E-01  0.89072767944E+00  0.88000000000E+00 0. -1.
        -11    1    4    4    0    0 -0.45878600489E-01  0.86751772034E-01 -0.58628063391E-01  0.11431634560E+00  0.51100000000E-03 0. -1.
         11    1    4    4    0    0 -0.70603442666E-03  0.24347165810E-01  0.44882690196E-02  0.24772740006E-01  0.51100000000E-03 0.  1.
</event>
<event>
 8    1  0.2183582E+004  0.1043930E+01  0.7957747E-01            NaN
         13   -1    0    0    0    0  0.00000000000E+00  0.00000000000E+00  0.74505805969E-08  0.10566000000E+00  0.10566000000E+00 0.  1.
     999900   -1    0    0    0    0 -0.00000000000E+00 -0.00000000000E+00 -0.74505805969E-08  0.93827000000E+00  0.93827000000E+00 0. -1.
     999902    2    1    2    0    0  0.48043667060E-02 -0.12683407256E-01 -0.40840312060E-02  0.10297656056E+01  0.10296681855E+01 0.  0.
     999903    2    3    3    0    0 -0.66356541308E-01  0.27748340631E-01 -0.10862224080E+00  0.13980670857E+00  0.50734244676E-01 0.  0.
         14    1    1    2    0    0 -0.48043667060E-02  0.12683407256E-01  0.40840312060E-02  0.14164394444E-01  0.00000000000E+00 0.  1.
     999901    1    3    3    0    0  0.71160908013E-01 -0.40431747887E-01  0.10453820959E+00  0.88995889699E+00  0.88000000000E+00 0.  1.
        -11    1    4    4    0    0 -0.71101072846E-01  0.13126728367E-01 -0.93934280214E-01  0.11853937606E+00  0.51100000000E-03 0.  1.
         11    1    4    4    0    0  0.47445315384E-02  0.14621612264E-01 -0.14687960581E-01  0.21267332502E-01  0.51100000000E-03 0. -1.
</event>
<event>
 8    1  0.2183582E+004  0.1043930E+01  0.7957747E-01            NaN
         13   -1    0    0    0    0  0.00000000000E+00  0.00000000000E+00  0.74505805969E-08  0.10566000000E+00  0.10566000000E+00 0.  1.
     999900   -1    0    0    0    0 -0.00000000000E+00 -0.00000000000E+00 -0.74505805969E-08  0.93827000000E+00  0.93827000000E+00 0.  1.
     999902    2    1    2    0    0 -0.95463625666E-02 -0.41553476787E-02 -0.13279528351E-01  0.10270555867E+01  0.10269169549E+01 0.  0.
     999903    2    3    3    0    0  0.37829914976E-01 -0.12398595331E+00 -0.11467829810E-01  0.13766974914E+00  0.44920258468E-01 0.  0.
         14    1    1    2    0    0  0.95463625666E-02  0.41553476787E-02  0.13279528351E-01  0.16874413347E-01  0.00000000000E+00 0.  1.
     999901    1    3    3    0    0 -0.47376277542E-01  0.11983060564E+00 -0.18116985411E-02  0.88938583752E+00  0.88000000000E+00 0. -1.
        -11    1    4    4    0    0  0.22267321973E-01 -0.53640691583E-01  0.16507043776E-01  0.60381297076E-01  0.51100000000E-03 0.  1.
         11    1    4    4    0    0  0.15562593002E-01 -0.70345261731E-01 -0.27974873585E-01  0.77288452062E-01  0.51100000000E-03 0. -1.
</event>
<event>
 8    1  0.2183582E+004  0.1043930E+01  0.7957747E-01            NaN
         13   -1    0    0    0    0  0.00000000000E+00  0.00000000000E+00  0.74505805969E-08  0.10566000000E+00  0.10566000000E+00 0.  1.
     999900   -1    0    0    0    0 -0.00000000000E+00 -0.00000000000E+00 -0.74505805969E-08  0.93827000000E+00  0.93827000000E+00 0.  1.
     999902    2    1    2    0    0  0.23477958557E-02  0.63819990526E-02  0.12095229355E-01  0.10300542431E+01  0.10299607794E+01 0.  0.
     999903    2    3    3    0    0 -0.82892001701E-01 -0.10056476870E+00  0.21455915177E-01  0.13944150082E+00  0.44712629137E-01 0.  0.
         14    1    1    2    0    0 -0.23477958557E-02 -0.63819990526E-02 -0.12095229355E-01  0.13875756932E-01  0.00000000000E+00 0. -1.
     999901    1    3    3    0    0  0.85239797557E-01  0.10694676775E+00 -0.93606858227E-02  0.89061274225E+00  0.88000000000E+00 0. -1.
        -11    1    4    4    0    0 -0.54890067121E-01 -0.66563051062E-01  0.35368665421E-01  0.93245712233E-01  0.51100000000E-03 0. -1.
         11    1    4    4    0    0 -0.28001934580E-01 -0.34001717638E-01 -0.13912750243E-01  0.46195788584E-01  0.51100000000E-03 0.  1.
</event>
<event>
 8    1  0.2183582E+004  0.1043930E+01  0.7957747E-01            NaN
         13   -1    0    0    0    0  0.00000000000E+00  0.00000000000E+00  0.74505805969E-08  0.10566000000E+00  0.10566000000E+00 0.  1.
     999900   -1    0    0    0    0 -0.00000000000E+00 -0.00000000000E+00 -0.74505805969E-08  0.93827000000E+00  0.93827000000E+00 0. -1.
     999902    2    1    2    0    0  0.10410016928E-01  0.54455815143E-02  0.69021309535E-02  0.10303042075E+01  0.10302141028E+01 0.  0.
     999903    2    3    3    0    0  0.46537904697E-01 -0.81713196255E-01 -0.92954717557E-01  0.13964531260E+00  0.44915596380E-01 0.  0.
         14    1    1    2    0    0 -0.10410016928E-01 -0.54455815143E-02 -0.69021309535E-02  0.13625792534E-01  0.00000000000E+00 0. -1.
     999901    1    3    3    0    0 -0.36127887768E-01  0.87158777769E-01  0.99856848510E-01  0.89065889487E+00  0.88000000000E+00 0.  1.
        -11    1    4    4    0    0  0.37092553410E-01 -0.43207449517E-01 -0.79463811895E-01  0.97762465875E-01  0.51100000000E-03 0.  1.
         11    1    4    4    0    0  0.94453512870E-02 -0.38505746739E-01 -0.13490905662E-01  0.41882846720E-01  0.51100000000E-03 0. -1.
</event>
<event>
 7    1  0.2183582E+004  0.1043930E+01  0.7957747E-01            NaN
         13   -1    0    0    0    0  0.00000000000E+00  0.00000000000E+00  0.74505805969E-08  0.10566000000E+00  0.10566000000E+00 0. -1.
     999900   -1    0    0    0    0 -0.00000000000E+00 -0.00000000000E+00 -0.74505805969E-08  0.93827000000E+00  0.93827000000E+00 0. -1.
     999903    2    1    2    0    0  0.64222596187E-01  0.54268419486E-01 -0.19490918324E-01  0.98409953780E-01  0.47275996990E-01 0.  0.
         14    1    1    2    0    0  0.60856203617E-02  0.53210977429E-01 -0.14705450164E-01  0.55540014032E-01  0.00000000000E+00 0.  1.
     999901    1    1    2    0    0 -0.70308216549E-01 -0.10747939691E+00  0.34196368488E-01  0.88998003219E+00  0.88000000000E+00 0.  1.
        -11    1    3    3    0    0  0.48649456885E-01  0.48474039412E-01 -0.33736250069E-01  0.76517304199E-01  0.51100000000E-03 0.  1.
         11    1    3    3    0    0  0.15573139302E-01  0.57943800741E-02  0.14245331745E-01  0.21892649582E-01  0.51100000000E-03 0. -1.
</event>
<event>
 8    1  0.2183582E+004  0.1043930E+01  0.7957747E-01            NaN
         13   -1    0    0    0    0  0.00000000000E+00  0.00000000000E+00  0.74505805969E-08  0.10566000000E+00  0.10566000000E+00 0.  1.
     999900   -1    0    0    0    0 -0.00000000000E+00 -0.00000000000E+00 -0.74505805969E-08  0.93827000000E+00  0.93827000000E+00 0.  1.
     999902    2    1    2    0    0 -0.21956303737E-02 -0.95219049637E-02  0.92898283737E-02  0.10304471079E+01  0.10303588957E+01 0.  0.
     999903    2    3    3    0    0 -0.10724766601E+00  0.33279036842E-01 -0.70953041852E-01  0.13954488602E+00  0.42765463989E-01 0.  0.
         14    1    1    2    0    0  0.21956303737E-02  0.95219049637E-02 -0.92898283737E-02  0.13482892052E-01  0.00000000000E+00 0. -1.
     999901    1    3    3    0    0  0.10505203563E+00 -0.42800941806E-01  0.80242870226E-01  0.89090222193E+00  0.88000000000E+00 0.  1.
        -11    1    4    4    0    0 -0.47036062516E-02 -0.65810498234E-02  0.87708307791E-03  0.81525777686E-02  0.51100000000E-03 0. -1.
         11    1    4    4    0    0 -0.10254405975E+00  0.39860086665E-01 -0.71830124930E-01  0.13139230825E+00  0.51100000000E-03 0.  1.
</event>
<event>
 8    1  0.2183582E+004  0.1043930E+01  0.7957747E-01            NaN
         13   -1    0    0    0    0  0.00000000000E+00  0.00000000000E+00  0.74505805969E-08  0.10566000000E+00  0.10566000000E+00 0.  1.
     999900   -1    0    0    0    0 -0.00000000000E+00 -0.00000000000E+00 -0.74505805969E-08  0.93827000000E+00  0.93827000000E+00 0.  1.
     999902    2    1    2    0    0  0.95565852068E-02 -0.13547448413E-01 -0.15107530074E-01  0.10215001283E+01  0.10212538436E+01 0.  0.
     999903    2    3    3    0    0 -0.66562647040E-01 -0.22864839984E-01  0.10037263197E+00  0.13064850254E+00  0.45177196449E-01 0.  0.
         14    1    1    2    0    0 -0.95565852068E-02  0.13547448413E-01  0.15107530074E-01  0.22429871695E-01  0.00000000000E+00 0.  1.
     999901    1    3    3    0    0  0.76119232247E-01  0.93173915707E-02 -0.11548016204E+00  0.89085162577E+00  0.88000000000E+00 0.  1.
        -11    1    4    4    0    0 -0.66244347016E-01 -0.69800686471E-02  0.71728015385E-01  0.97888733682E-01  0.51100000000E-03 0.  1.
         11    1    4    4    0    0 -0.31830002423E-03 -0.15884771337E-01  0.28644616585E-01  0.32759768858E-01  0.51100000000E-03 0. -1.
</event>
<event>
 8    1  0.2183582E+004  0.1043930E+01  0.7957747E-01            NaN
         13   -1    0    0    0    0  0.00000000000E+00  0.00000000000E+00  0.74505805969E-08  0.10566000000E+00  0.10566000000E+00 0.  1.
     999900   -1    0    0    0    0 -0.00000000000E+00 -0.00000000000E+00 -0.74505805969E-08  0.93827000000E+00  0.93827000000E+00 0. -1.
     999902    2    1    2    0    0  0.20500835229E-02  0.13179172901E-01 -0.23604013154E-02  0.10303850771E+01  0.10302960459E+01 0.  0.
     999903    2    3    3    0    0  0.41001609869E-01  0.10392624421E+00  0.74220724384E-01  0.14155611656E+00  0.45250657026E-01 0.  0.
         14    1    1    2    0    0 -0.20500835229E-02 -0.13179172901E-01  0.23604013154E-02  0.13544922856E-01  0.00000000000E+00 0.  1.
     999901    1    3    3    0    0 -0.38951526346E-01 -0.90747071307E-01 -0.76581125699E-01  0.88882896058E+00  0.88000000000E+00 0. -1.
        -11    1    4    4    0    0 -0.13149073514E-02  0.27481767932E-01  0.38121608158E-01  0.47015898158E-01  0.51100000000E-03 0.  1.
         11    1    4    4    0    0  0.42316517221E-01  0.76444476276E-01  0.36099116225E-01  0.94540218405E-01  0.51100000000E-03 0. -1.
</event>
<event>
 8    1  0.2183582E+004  0.1043930E+01  0.7957747E-01            NaN
         13   -1    0    0    0    0  0.00000000000E+00  0.00000000000E+00  0.74505805969E-08  0.10566000000E+00  0.10566000000E+00 0.  1.
     999900   -1    0    0    0    0 -0.00000000000E+00 -0.00000000000E+00 -0.74505805969E-08  0.93827000000E+00  0.93827000000E+00 0.  1.
     999902    2    1    2    0    0 -0.12041502061E-01 -0.12890252814E-02 -0.70373965991E-02  0.10299234191E+01  0.10298281725E+01 0.  0.
     999903    2    3    3    0    0  0.33263817598E-01 -0.33336134245E-01 -0.12443121789E+00  0.14039494936E+00  0.44831176788E-01 0.  0.
         14    1    1    2    0    0  0.12041502061E-01  0.12890252814E-02  0.70373965991E-02  0.14006580916E-01  0.00000000000E+00 0.  1.
     999901    1    3    3    0    0 -0.45305319658E-01  0.32047108963E-01  0.11739382129E+00  0.88952846973E+00  0.88000000000E+00 0. -1.
        -11    1    4    4    0    0  0.67714815341E-02 -0.30416661350E-01 -0.98075851472E-01  0.10290850311E+00  0.51100000000E-03 0.  1.
         11    1    4    4    0    0  0.26492336064E-01 -0.29194728941E-02 -0.26355366415E-01  0.37486446243E-01  0.51100000000E-03 0. -1.
</event>
<event>
 8    1  0.2183582E+004  0.1043930E+01  0.7957747E-01            NaN
         13   -1    0    0    0    0  0.00000000000E+00  0.00000000000E+00  0.74505805969E-08  0.10566000000E+00  0.10566000000E+00 0.  1.
     999900   -1    0    0    0    0 -0.00000000000E+00 -0.00000000000E+00 -0.74505805969E-08  0.93827000000E+00  0.93827000000E+00 0.  1.
     999902    2    1    2    0    0  0.14277379023E-01 -0.89526876147E-03 -0.17809455936E-03  0.10296234709E+01  0.10295240721E+01 0.  0.
     999903    2    3    3    0    0 -0.65564200506E-01  0.33725138520E-01  0.10979289517E+00  0.13851917339E+00  0.41195050775E-01 0.  0.
         14    1    1    2    0    0 -0.14277379023E-01  0.89526876147E-03  0.17809455936E-03  0.14306529125E-01  0.00000000000E+00 0. -1.
     999901    1    3    3    0    0  0.79841579529E-01 -0.34620407281E-01 -0.10997098973E+00  0.89110429749E+00  0.88000000000E+00 0. -1.
        -11    1    4    4    0    0 -0.20732020101E-01  0.20978483947E-01  0.74271499812E-01  0.79915144068E-01  0.51100000000E-03 0. -1.
         11    1    4    4    0    0 -0.44832180405E-01  0.12746654573E-01  0.35521395363E-01  0.58604029317E-01  0.51100000000E-03 0.  1.
</event>
<event>
 8    1  0.2183582E+004  0.1043930E+01  0.7957747E-01            NaN
         13   -1    0    0    0    0  0.00000000000E+00  0.00000000000E+00  0.74505805969E-08  0.10566000000E+00  0.10566000000E+00 0.  1.
     999900   -1    0    0    0    0 -0.00000000000E+00 -0.00000000000E+00 -0.74505805969E-08  0.93827000000E+00  0.93827000000E+00 0.  1.
     999902    2    1    2    0    0  0.87625734694E-02  0.72240447151E-02 -0.86078008847E-02  0.10296799561E+01  0.10295813461E+01 0.  0.
     999903    2    3    3    0    0 -0.11189587487E-01 -0.60366890329E-01  0.11477147398E+00  0.13828269969E+00  0.46693098825E-01 0.  0.
         14    1    1    2    0    0 -0.87625734694E-02 -0.72240447151E-02  0.86078008847E-02  0.14250043927E-01  0.00000000000E+00 0.  1.
     999901    1    3    3    0    0  0.19952160957E-01  0.67590935044E-01 -0.12337927486E+00  0.89139725639E+00  0.88000000000E+00 0.  1.
        -11    1    4    4    0    0 -0.40489629150E-03 -0.63423808477E-02  0.60885207316E-01  0.61218129069E-01  0.51100000000E-03 0.  1.
         11    1    4    4    0    0 -0.10784691196E-01 -0.54024509481E-01  0.53886266661E-01  0.77064570618E-01  0.51100000000E-03 0. -1.
</event>
<event>
 8    1  0.2183582E+004  0.1043930E+01  0.7957747E-01            NaN
         13   -1    0    0    0    0  0.00000000000E+00  0.00000000000E+00  0.74505805969E-08  0.10566000000E+00  0.10566000000E+00 0.  1.
     999900   -1    0    0    0    0 -0.00000000000E+00 -0.00000000000E+00 -0.74505805969E-08  0.93827000000E+00  0.93827000000E+00 0.  1.
     999902    2    1    2    0    0 -0.65368155682E-02  0.56564053442E-02 -0.10093303096E-01  0.10306409200E+01  0.10305552418E+01 0.  0.
     999903    2    3    3    0    0 -0.22833470130E-02 -0.12548232804E+00 -0.48872135907E-01  0.14006848767E+00  0.38466443119E-01 0.  0.
         14    1    1    2    0    0  0.65368155682E-02 -0.56564053442E-02  0.10093303096E-01  0.13289079975E-01  0.00000000000E+00 0.  1.
     999901    1    3    3    0    0 -0.42534685552E-02  0.13113873339E+00  0.38778832810E-01  0.89057243235E+00  0.88000000000E+00 0. -1.
        -11    1    4    4    0    0  0.15126246430E-01 -0.61285055224E-01 -0.12842191215E-01  0.64419285320E-01  0.51100000000E-03 0.  1.
         11    1    4    4    0    0 -0.17409593443E-01 -0.64197272820E-01 -0.36029944692E-01  0.75649202354E-01  0.51100000000E-03 0. -1.
</event>
<event>
 8    1  0.2183582E+004  0.1043930E+01  0.7957747E-01            NaN
         13   -1    0    0    0    0  0.00000000000E+00  0.00000000000E+00  0.74505805969E-08  0.10566000000E+00  0.10566000000E+00 0. -1.
     999900   -1    0    0    0    0 -0.00000000000E+00 -0.00000000000E+00 -0.74505805969E-08  0.93827000000E+00  0.93827000000E+00 0.  1.
     999902    2    1    2    0    0  0.11836847886E-01  0.49739141878E-02  0.48512260534E-02  0.10302046518E+01  0.10301132167E+01 0.  0.
     999903    2    3    3    0    0 -0.59147726039E-01  0.11877377207E+00  0.94374121134E-03  0.14003360874E+00  0.44753307155E-01 0.  0.
         14    1    1    2    0    0 -0.11836847886E-01 -0.49739141878E-02 -0.48512260534E-02  0.13725348245E-01  0.00000000000E+00 0.  1.
     999901    1    3    3    0    0  0.70984573925E-01 -0.11379985788E+00  0.39074848421E-02  0.89017104302E+00  0.88000000000E+00 0.  1.
        -11    1    4    4    0    0 -0.23292340891E-01  0.99152546176E-02  0.21861327771E-02  0.25414281729E-01  0.51100000000E-03 0.  1.
         11    1    4    4    0    0 -0.35855385149E-01  0.10885851745E+00 -0.12423915657E-02  0.11461932701E+00  0.51100000000E-03 0. -1.
</event>
<event>
 8    1  0.2183582E+004  0.1043930E+01  0.7957747E-01            NaN
         13   -1    0    0    0    0  0.00000000000E+00  0.00000000000E+00  0.74505805969E-08  0.10566000000E+00  0.10566000000E+00 0. -1.
     999900   -1    0    0    0    0 -0.00000000000E+00 -0.00000000000E+00 -0.74505805969E-08  0.93827000000E+00  0.93827000000E+00 0. -1.
     999902    2    1    2    0    0 -0.26402573264E-03  0.13893323750E-01 -0.44935208902E-02  0.10293256895E+01  0.10292220796E+01 0.  0.
     999903    2    3    3    0    0  0.47783549869E-01 -0.11717551009E+00 -0.32207607488E-01  0.13789107088E+00  0.44308573041E-01 0.  0.
         14    1    1    2    0    0  0.26402573264E-03 -0.13893323750E-01  0.44935208902E-02  0.14604310473E-01  0.00000000000E+00 0.  1.
     999901    1    3    3    0    0 -0.48047575601E-01  0.13106883384E+00  0.27714086598E-01  0.89143461865E+00  0.88000000000E+00 0.  1.
        -11    1    4    4    0    0  0.34112009107E-01 -0.28799466187E-01 -0.11061681978E-01  0.45996307973E-01  0.51100000000E-03 0.  1.
         11    1    4    4    0    0  0.13671540762E-01 -0.88376043904E-01 -0.21145925510E-01  0.91894762907E-01  0.51100000000E-03 0. -1.
</event>
<event>
 8    1  0.2183582E+004  0.1043930E+01  0.7957747E-01            NaN
         13   -1    0    0    0    0  0.00000000000E+00  0.00000000000E+00  0.74505805969E-08  0.10566000000E+00  0.10566000000E+00 0.  1.
     999900   -1    0    0    0    0 -0.00000000000E+00 -0.00000000000E+00 -0.74505805969E-08  0.93827000000E+00  0.93827000000E+00 0.  1.
     999902    2    1    2    0    0 -0.40100500230E-02 -0.65169133798E-03  0.14135376323E-01  0.10292223807E+01  0.10291172891E+01 0.  0.
     999903    2    3    3    0    0  0.11446958246E+00  0.58875448455E-01  0.29422728298E-01  0.13915799714E+00  0.43927753057E-01 0.  0.
         14    1    1    2    0    0  0.40100500230E-02  0.65169133798E-03 -0.14135376323E-01  0.14707619338E-01  0.00000000000E+00 0. -1.
     999901    1    3    3    0    0 -0.11847963248E+00 -0.59527139793E-01 -0.15287351975E-01  0.89006438352E+00  0.88000000000E+00 0.  1.
        -11    1    4    4    0    0  0.25017942746E-01  0.18424352602E-01 -0.11033270904E-01  0.32974966503E-01  0.51100000000E-03 0. -1.
         11    1    4    4    0    0  0.89451639712E-01  0.40451095853E-01  0.40455999202E-01  0.10618303064E+00  0.51100000000E-03 0.  1.
</event>
<event>
 8    1  0.2183582E+004  0.1043930E+01  0.7957747E-01            NaN
         13   -1    0    0    0    0  0.00000000000E+00  0.00000000000E+00  0.74505805969E-08  0.10566000000E+00  0.10566000000E+00 0.  1.
     999900   -1    0    0    0    0 -0.00000000000E+00 -0.00000000000E+00 -0.74505805969E-08  0.93827000000E+00  0.93827000000E+00 0.  1.
     999902    2    1    2    0    0  0.53604243318E-02 -0.12290989840E-01 -0.20085057663E-02  0.10303713616E+01  0.10302821488E+01 0.  0.
     999903    2    3    3    0    0 -0.57444095965E-01 -0.11148059404E+00 -0.47124285790E-01  0.14142905808E+00  0.45318132678E-01 0.  0.
         14    1    1    2    0    0 -0.53604243318E-02  0.12290989840E-01  0.20085057663E-02  0.13558638415E-01  0.00000000000E+00 0. -1.
     999901    1    3    3    0    0  0.62804520297E-01  0.99189604201E-01  0.45115780023E-01  0.88894230350E+00  0.88000000000E+00 0. -1.
        -11    1    4    4    0    0 -0.35905403710E-01 -0.68151592587E-01 -0.51775837616E-01  0.92816141212E-01  0.51100000000E-03 0. -1.
         11    1    4    4    0    0 -0.21538692256E-01 -0.43329001454E-01  0.46515518262E-02  0.48612916869E-01  0.51100000000E-03 0.  1.
</event>
<event>
 8    1  0.2183582E+004  0.1043930E+01  0.7957747E-01            NaN
         13   -1    0    0    0    0  0.00000000000E+00  0.00000000000E+00  0.74505805969E-08  0.10566000000E+00  0.10566000000E+00 0. -1.
     999900   -1    0    0    0    0 -0.00000000000E+00 -0.00000000000E+00 -0.74505805969E-08  0.93827000000E+00  0.93827000000E+00 0.  1.
     999902    2    1    2    0    0 -0.12667975908E-01 -0.22720369872E-02  0.77834589937E-02  0.10288893218E+01  0.10287793809E+01 0.  0.
     999903    2    3    3    0    0 -0.96595699027E-01  0.41882520125E-01  0.81809201023E-01  0.14070392559E+00  0.44944129120E-01 0.  0.
         14    1    1    2    0    0  0.12667975908E-01  0.22720369872E-02 -0.77834589937E-02  0.15040678162E-01  0.00000000000E+00 0.  1.
     999901    1    3    3    0    0  0.83927723119E-01 -0.44154557112E-01 -0.74025742029E-01  0.88818539625E+00  0.88000000000E+00 0.  1.
        -11    1    4    4    0    0 -0.77514774323E-01  0.30614048731E-01  0.37980448516E-01  0.91588950254E-01  0.51100000000E-03 0. -1.
         11    1    4    4    0    0 -0.19080924704E-01  0.11268471394E-01  0.43828752507E-01  0.49114975338E-01  0.51100000000E-03 0.  1.
</event>
<event>
 8    1  0.2183582E+004  0.1043930E+01  0.7957747E-01            NaN
         13   -1    0    0    0    0  0.00000000000E+00  0.00000000000E+00  0.74505805969E-08  0.10566000000E+00  0.10566000000E+00 0.  1.
     999900   -1    0    0    0    0 -0.00000000000E+00 -0.00000000000E+00 -0.74505805969E-08  0.93827000000E+00  0.93827000000E+00 0. -1.
     999902    2    1    2    0    0  0.24094041934E-02 -0.98643304242E-02 -0.85736255309E-02  0.10306402559E+01  0.10305545691E+01 0.  0.
     999903    2    3    3    0    0 -0.12605416465E+00 -0.43524981267E-01 -0.60509453499E-02  0.14067267681E+00  0.44363404283E-01 0.  0.
         14    1    1    2    0    0 -0.24094041934E-02  0.98643304242E-02  0.85736255309E-02  0.13289744092E-01  0.00000000000E+00 0.  1.
     999901    1    3    3    0    0  0.12846356885E+00  0.33660650843E-01 -0.25226801809E-02  0.88996757910E+00  0.88000000000E+00 0.  1.
        -11    1    4    4    0    0 -0.79799522378E-01 -0.14839591149E-01  0.14572123004E-01  0.82466872907E-01  0.51100000000E-03 0.  1.
         11    1    4    4    0    0 -0.46254642275E-01 -0.28685390118E-01 -0.20623068354E-01  0.58205803900E-01  0.51100000000E-03 0. -1.
</event>
<event>
 8    1  0.2183582E+004  0.1043930E+01  0.7957747E-01            NaN
         13   -1    0    0    0    0  0.00000000000E+00  0.00000000000E+00  0.74505805969E-08  0.10566000000E+00  0.10566000000E+00 0. -1.
     999900   -1    0    0    0    0 -0.00000000000E+00 -0.00000000000E+00 -0.74505805969E-08  0.93827000000E+00  0.93827000000E+00 0. -1.
     999902    2    1    2    0    0 -0.92055916194E-02 -0.93734870106E-02  0.52661097474E-02  0.10297759515E+01  0.10296786748E+01 0.  0.
     999903    2    3    3    0    0  0.51544813021E-01  0.11060957017E+00 -0.46413135861E-01  0.13806002699E+00  0.44889276117E-01 0.  0.
         14    1    1    2    0    0  0.92055916194E-02  0.93734870106E-02 -0.52661097474E-02  0.14154048455E-01  0.00000000000E+00 0.  1.
     999901    1    3    3    0    0 -0.60750404640E-01 -0.11998305718E+00  0.51679245609E-01  0.89171592455E+00  0.88000000000E+00 0.  1.
        -11    1    4    4    0    0  0.57777258222E-01  0.83599797645E-01 -0.30540962044E-01  0.10611385026E+00  0.51100000000E-03 0. -1.
         11    1    4    4    0    0 -0.62324452009E-02  0.27009772523E-01 -0.15872173818E-01  0.31946176730E-01  0.51100000000E-03 0.  1.
</event>
<event>
 8    1  0.2183582E+004  0.1043930E+01  0.7957747E-01            NaN
         13   -1    0    0    0    0  0.00000000000E+00  0.00000000000E+00  0.74505805969E-08  0.10566000000E+00  0.10566000000E+00 0. -1.
     999900   -1    0    0    0    0 -0.00000000000E+00 -0.00000000000E+00 -0.74505805969E-08  0.93827000000E+00  0.93827000000E+00 0.  1.
     999902    2    1    2    0    0  0.92270695363E-03  0.96205738641E-02  0.82620357485E-02  0.10312151243E+01  0.10311367341E+01 0.  0.
     999903    2    3    3    0    0 -0.17572072655E-01  0.62973804102E-02 -0.13103618102E+00  0.14006020303E+00  0.45803329555E-01 0.  0.
         14    1    1    2    0    0 -0.92270695363E-03 -0.96205738641E-02 -0.82620357485E-02  0.12714875709E-01  0.00000000000E+00 0.  1.
     999901    1    3    3    0    0  0.18494779608E-01  0.33231934539E-02  0.13929821677E+00  0.89115492126E+00  0.88000000000E+00 0. -1.
        -11    1    4    4    0    0  0.14656430734E-01 -0.51901917687E-03 -0.24626997339E-01  0.28667585558E-01  0.51100000000E-03 0.  1.
         11    1    4    4    0    0 -0.32228503389E-01  0.68163995871E-02 -0.10640918369E+00  0.11139261747E+00  0.51100000000E-03 0. -1.
</event>
<event>
 8    1  0.2183582E+004  0.1043930E+01  0.7957747E-01            NaN
         13   -1    0    0    0    0  0.00000000000E+00  0.00000000000E+00  0.74505805969E-08  0.10566000000E+00  0.10566000000E+00 0.  1.
     999900   -1    0    0    0    0 -0.00000000000E+00 -0.00000000000E+00 -0.74505805969E-08  0.93827000000E+00  0.93827000000E+00 0.  1.
     999902    2    1    2    0    0  0.11590927129E-01 -0.82581450196E-04  0.76315458681E-02  0.10300520713E+01  0.10299585782E+01 0.  0.
     999903    2    3    3    0    0 -0.79996395946E-01  0.86078771054E-01 -0.58326012315E-01  0.13866976510E+00  0.44926627390E-01 0.  0.
         14    1    1    2    0    0 -0.11590927129E-01  0.82581450196E-04 -0.76315458681E-02  0.13877928654E-01  0.00000000000E+00 0. -1.
     999901    1    3    3    0    0  0.91587323075E-01 -0.86161352504E-01  0.65957558184E-01  0.89138230625E+00  0.88000000000E+00 0.  1.
        -11    1    4    4    0    0 -0.39843665288E-01  0.57542763074E-01 -0.11936566884E-01  0.71003028074E-01  0.51100000000E-03 0. -1.
         11    1    4    4    0    0 -0.40152730658E-01  0.28536007980E-01 -0.46389445432E-01  0.67666737022E-01  0.51100000000E-03 0.  1.
</event>
<event>
 8    1  0.2183582E+004  0.1043930E+01  0.7957747E-01            NaN
         13   -1    0    0    0    0  0.00000000000E+00  0.00000000000E+00  0.74505805969E-08  0.10566000000E+00  0.10566000000E+00 0.  1.
     999900   -1    0    0    0    0 -0.00000000000E+00 -0.00000000000E+00 -0.74505805969E-08  0.93827000000E+00  0.93827000000E+00 0.  1.
     999902    2    1    2    0    0 -0.83441368978E-02  0.95017076400E-03 -0.11731976948E-01  0.10295020158E+01  0.10294009101E+01 0.  0.
     999903    2    3    3    0    0 -0.64189314619E-01 -0.11497305950E+00  0.14515976192E-01  0.13975720169E+00  0.44522907991E-01 0.  0.
         14    1    1    2    0    0  0.83441368978E-02 -0.95017076400E-03  0.11731976948E-01  0.14427984203E-01  0.00000000000E+00 0.  1.
     999901    1    3    3    0    0  0.55845177721E-01  0.11592323027E+00 -0.26247953139E-01  0.88974481411E+00  0.88000000000E+00 0.  1.
        -11    1    4    4    0    0 -0.60909700775E-01 -0.83196851464E-01  0.25060278873E-01  0.10611308327E+00  0.51100000000E-03 0. -1.
         11    1    4    4    0    0 -0.32796138438E-02 -0.31776208040E-01 -0.10544302681E-01  0.33644118422E-01  0.51100000000E-03 0.  1.
</event>
<event>
 8    1  0.2183582E+004  0.1043930E+01  0.7957747E-01            NaN
         13   -1    0    0    0    0  0.00000000000E+00  0.00000000000E+00  0.74505805969E-08  0.10566000000E+00  0.10566000000E+00 0. -1.
     999900   -1    0    0    0    0 -0.00000000000E+00 -0.00000000000E+00 -0.74505805969E-08  0.93827000000E+00  0.93827000000E+00 0. -1.
     999902    2    1    2    0    0 -0.70934478181E-02  0.99365658557E-02  0.56511387915E-02  0.10304768326E+01  0.10303890114E+01 0.  0.
     999903    2    3    3    0    0  0.27659664058E-01  0.12858318194E+00  0.28243070882E-01  0.14154759264E+00  0.44038145236E-01 0.  0.
         14    1    1    2    0    0  0.70934478181E-02 -0.99365658557E-02 -0.56511387915E-02  0.13453167381E-01  0.00000000000E+00 0.  1.
     999901    1    3    3    0    0 -0.34753111876E-01 -0.11864661608E+00 -0.22591932091E-01  0.88892923998E+00  0.88000000000E+00 0. -1.
        -11    1    4    4    0    0 -0.10044801362E-01  0.55941038086E-01  0.10476753009E-01  0.57795512379E-01  0.51100000000E-03 0. -1.
         11    1    4    4    0    0  0.37704465420E-01  0.72642143854E-01  0.17766317873E-01  0.83752080261E-01  0.51100000000E-03 0.  1.
</event>
<event>
 8    1  0.2183582E+004  0.1043930E+01  0.7957747E-01            NaN
         13   -1    0    0    0    0  0.00000000000E+00  0.00000000000E+00  0.74505805969E-08  0.10566000000E+00  0.10566000000E+00 0. -1.
     999900   -1    0    0    0    0 -0.00000000000E+00 -0.00000000000E+00 -0.74505805969E-08  0.93827000000E+00  0.93827000000E+00 0.  1.
     999902    2    1    2    0    0  0.22458116084E-02 -0.13815476279E-01  0.13520471330E-01  0.10244694193E+01  0.10242845684E+01 0.  0.
     999903    2    3    3    0    0 -0.89490505885E-01 -0.91672757656E-01 -0.73563850575E-02  0.13603644419E+00  0.45159191820E-01 0.  0.
         14    1    1    2    0    0 -0.22458116084E-02  0.13815476279E-01 -0.13520471330E-01  0.19460580659E-01  0.00000000000E+00 0.  1.
     999901    1    3    3    0    0  0.91736317493E-01  0.77857281377E-01  0.20876856387E-01  0.88843297516E+00  0.88000000000E+00 0. -1.
        -11    1    4    4    0    0 -0.85021881780E-02 -0.64800803616E-02 -0.14789019830E-01  0.18255269755E-01  0.51100000000E-03 0. -1.
         11    1    4    4    0    0 -0.80988317707E-01 -0.85192677295E-01  0.74326347727E-02  0.11778117443E+00  0.51100000000E-03 0.  1.
</event>
<event>
 8    1  0.2183582E+004  0.1043930E+01  0.7957747E-01            NaN
         13   -1    0    0    0    0  0.00000000000E+00  0.00000000000E+00  0.74505805969E-08  0.10566000000E+00  0.10566000000E+00 0.  1.
     999900   -1    0    0    0    0 -0.00000000000E+00 -0.00000000000E+00 -0.74505805969E-08  0.93827000000E+00  0.93827000000E+00 0. -1.
     999902    2    1    2    0    0 -0.12477573326E-01 -0.53763003857E-02 -0.69570570866E-02  0.10286658235E+01  0.10285525661E+01 0.  0.
     999903    2    3    3    0    0 -0.52015543911E-01 -0.34921148528E-01 -0.11736569513E+00  0.14039434665E+00  0.44841529367E-01 0.  0.
         14    1    1    2    0    0  0.12477573326E-01  0.53763003857E-02  0.69570570866E-02  0.15264176534E-01  0.00000000000E+00 0.  1.
     999901    1    3    3    0    0  0.39537970585E-01  0.29544848142E-01  0.11040863804E+00  0.88827147682E+00  0.88000000000E+00 0.  1.
        -11    1    4    4    0    0 -0.38051690237E-01 -0.41074355992E-01 -0.64724136741E-01  0.85583344454E-01  0.51100000000E-03 0.  1.
         11    1    4    4    0    0 -0.13963853674E-01  0.61532074642E-02 -0.52641558386E-01  0.54811002197E-01  0.51100000000E-03 0. -1.
</event>
<event>
 8    1  0.2183582E+004  0.1043930E+01  0.7957747E-01            NaN
         13   -1    0    0    0    0  0.00000000000E+00  0.00000000000E+00  0.74505805969E-08  0.10566000000E+00  0.10566000000E+00 0.  1.
     999900   -1    0    0    0    0 -0.00000000000E+00 -0.00000000000E+00 -0.74505805969E-08  0.93827000000E+00  0.93827000000E+00 0. -1.
     999902    2    1    2    0    0 -0.10395469189E-01 -0.76524821591E-02  0.49886417323E-02  0.10300911847E+01  0.10299982213E+01 0.  0.
     999903    2    3    3    0    0  0.91249840543E-01 -0.95675442779E-01 -0.15014097047E-01  0.13965313511E+00  0.42394000576E-01 0.  0.
         14    1    1    2    0    0  0.10395469189E-01  0.76524821591E-02 -0.49886417323E-02  0.13838815310E-01  0.00000000000E+00 0. -1.
     999901    1    3    3    0    0 -0.10164530973E+00  0.88022960620E-01  0.20002738780E-01  0.89043804958E+00  0.88000000000E+00 0.  1.
        -11    1    4    4    0    0  0.32954369429E-01 -0.34095460429E-01 -0.26107089718E-01  0.54132542346E-01  0.51100000000E-03 0. -1.
         11    1    4    4    0    0  0.58295471115E-01 -0.61579982351E-01  0.11092992671E-01  0.85520592761E-01  0.51100000000E-03 0.  1.
</event>
<event>
 8    1  0.2183582E+004  0.1043930E+01  0.7957747E-01            NaN
         13   -1    0    0    0    0  0.00000000000E+00  0.00000000000E+00  0.74505805969E-08  0.10566000000E+00  0.10566000000E+00 0.  1.
     999900   -1    0    0    0    0 -0.00000000000E+00 -0.00000000000E+00 -0.74505805969E-08  0.93827000000E+00  0.93827000000E+00 0. -1.
     999902    2    1    2    0    0 -0.11276669620E-01 -0.80467696436E-02 -0.20329217340E-03  0.10300752136E+01  0.10299820341E+01 0.  0.
     999903    2    3    3    0    0 -0.27520442563E-02  0.12544853796E+00  0.39433015704E-01  0.13908435879E+00  0.45217106385E-01 0.  0.
         14    1    1    2    0    0  0.11276669620E-01  0.80467696436E-02  0.20329217340E-03  0.13854786434E-01  0.00000000000E+00 0. -1.
     999901    1    3    3    0    0 -0.85246253638E-02 -0.13349530760E+00 -0.39636307878E-01  0.89099085477E+00  0.88000000000E+00 0. -1.
        -11    1    4    4    0    0  0.20757489993E-01  0.60048699185E-01  0.23803004939E-01  0.67849567646E-01  0.51100000000E-03 0. -1.
         11    1    4    4    0    0 -0.23509534250E-01  0.65399838773E-01  0.15630010766E-01  0.71234791146E-01  0.51100000000E-03 0.  1.
</event>
<event>
 8    1  0.2183582E+004  0.1043930E+01  0.7957747E-01            NaN
         13   -1    0    0    0    0  0.00000000000E+00  0.00000000000E+00  0.74505805969E-08  0.10566000000E+00  0.10566000000E+00 0. -1.
     999900   -1    0    0    0    0 -0.00000000000E+00 -0.00000000000E+00 -0.74505805969E-08  0.93827000000E+00  0.93827000000E+00 0. -1.
     999902    2    1    2    0    0 -0.53723373896E-02 -0.62472940118E-02 -0.10643631577E-01  0.10304697777E+01  0.10303818638E+01 0.  0.
     999903    2    3    3    0    0  0.82732801980E-01  0.47302672208E-01  0.90795065059E-01  0.13866266646E+00  0.43604264804E-01 0.  0.
         14    1    1    2    0    0  0.53723373896E-02  0.62472940118E-02  0.10643631577E-01  0.13460222310E-01  0.00000000000E+00 0. -1.
     999901    1    3    3    0    0 -0.88105139370E-01 -0.53549966219E-01 -0.10143869664E+00  0.89180711123E+00  0.88000000000E+00 0. -1.
        -11    1    4    4    0    0  0.75379210534E-01  0.24406520654E-01  0.58966558299E-01  0.98767503510E-01  0.51100000000E-03 0.  1.
         11    1    4    4    0    0  0.73535914467E-02  0.22896151554E-01  0.31828506760E-01  0.39895162949E-01  0.51100000000E-03 0. -1.
</event>
<event>
 8    1  0.2183582E+004  0.1043930E+01  0.7957747E-01            NaN
         13   -1    0    0    0    0  0.00000000000E+00  0.00000000000E+00  0.74505805969E-08  0.10566000000E+00  0.10566000000E+00 0.  1.
     999900   -1    0    0    0    0 -0.00000000000E+00 -0.00000000000E+00 -0.74505805969E-08  0.93827000000E+00  0.93827000000E+00 0.  1.
     999902    2    1    2    0    0  0.71554956556E-02  0.26789245987E-02 -0.11388444252E-01  0.10302159773E+01  0.10301246942E+01 0.  0.
     999903    2    3    3    0    0  0.59118733480E-01  0.81502552091E-01  0.82220402197E-01  0.14022948392E+00  0.52596796263E-01 0.  0.
         14    1    1    2    0    0 -0.71554956556E-02 -0.26789245987E-02  0.11388444252E-01  0.13714022661E-01  0.00000000000E+00 0. -1.
     999901    1    3    3    0    0 -0.51963237824E-01 -0.78823627492E-01 -0.93608846448E-01  0.88998649342E+00  0.88000000000E+00 0.  1.
        -11    1    4    4    0    0  0.14564881974E-01  0.58390575870E-01  0.28110518667E-01  0.66423320589E-01  0.51100000000E-03 0.  1.
         11    1    4    4    0    0  0.44553851506E-01  0.23111976221E-01  0.54109883530E-01  0.73806163330E-01  0.51100000000E-03 0. -1.
</event>
<event>
 8    1  0.2183582E+004  0.1043930E+01  0.7957747E-01            NaN
         13   -1    0    0    0    0  0.00000000000E+00  0.00000000000E+00  0.74505805969E-08  0.10566000000E+00  0.10566000000E+00 0.  1.
     999900   -1    0    0    0    0 -0.00000000000E+00 -0.00000000000E+00 -0.74505805969E-08  0.93827000000E+00  0.93827000000E+00 0.  1.
     999902    2    1    2    0    0 -0.14038135761E-02  0.93102731997E-02 -0.79769996855E-02  0.10315896433E+01  0.10315158301E+01 0.  0.
     999903    2    3    3    0    0  0.23566629478E-01 -0.88199284603E-01 -0.97718748434E-01  0.14131709045E+00  0.45684422150E-01 0.  0.
         14    1    1    2    0    0  0.14038135761E-02 -0.93102731997E-02  0.79769996855E-02  0.12340356704E-01  0.00000000000E+00 0.  1.
     999901    1    3    3    0    0 -0.24970443054E-01  0.97509557802E-01  0.89741748749E-01  0.89027255285E+00  0.88000000000E+00 0. -1.
        -11    1    4    4    0    0 -0.61311474049E-02 -0.53908938142E-01 -0.37648980163E-01  0.66041437056E-01  0.51100000000E-03 0. -1.
         11    1    4    4    0    0  0.29697776882E-01 -0.34290346461E-01 -0.60069768271E-01  0.75275653390E-01  0.51100000000E-03 0.  1.
</event>
<event>
 8    1  0.2183582E+004  0.1043930E+01  0.7957747E-01            NaN
         13   -1    0    0    0    0  0.00000000000E+00  0.00000000000E+00  0.74505805969E-08  0.10566000000E+00  0.10566000000E+00 0. -1.
     999900   -1    0    0    0    0 -0.00000000000E+00 -0.00000000000E+00 -0.74505805969E-08  0.93827000000E+00  0.93827000000E+00 0.  1.
     999902    2    1    2    0    0 -0.15550472533E-01  0.53903246581E-02 -0.28854993621E-02  0.10272207540E+01  0.10270848448E+01 0.  0.
     999903    2    3    3    0    0 -0.79137669707E-01 -0.37767007968E-01 -0.99540017730E-01  0.13859935939E+00  0.40155318906E-01 0.  0.
         14    1    1    2    0    0  0.15550472533E-01 -0.53903246581E-02  0.28854993621E-02  0.16709246018E-01  0.00000000000E+00 0. -1.
     999901    1    3    3    0    0  0.63587197174E-01  0.43157332626E-01  0.96654518368E-01  0.88862139459E+00  0.88000000000E+00 0. -1.
        -11    1    4    4    0    0 -0.23350808177E-01 -0.32561432346E-01 -0.35820675705E-01  0.53748386468E-01  0.51100000000E-03 0.  1.
         11    1    4    4    0    0 -0.55786861530E-01 -0.52055756215E-02 -0.63719342025E-01  0.84850972923E-01  0.51100000000E-03 0. -1.
</event>
<event>
 8    1  0.2183582E+004  0.1043930E+01  0.7957747E-01            NaN
         13   -1    0    0    0    0  0.00000000000E+00  0.00000000000E+00  0.74505805969E-08  0.10566000000E+00  0.10566000000E+00 0.  1.
     999900   -1    0    0    0    0 -0.00000000000E+00 -0.00000000000E+00 -0.74505805969E-08  0.93827000000E+00  0.93827000000E+00 0.  1.
     999902    2    1    2    0    0  0.15475779480E-02 -0.10367255520E-01 -0.21200547352E-01  0.10202796682E+01  0.10200055212E+01 0.  0.
     999903    2    3    3    0    0  0.84534339366E-01 -0.19008933009E-01 -0.90293514450E-01  0.13363694466E+00  0.46888379810E-01 0.  0.
         14    1    1    2    0    0 -0.15475779480E-02  0.10367255520E-01  0.21200547352E-01  0.23650331764E-01  0.00000000000E+00 0.  1.
     999901    1    3    3    0    0 -0.82986761418E-01  0.86416774891E-02  0.69092967098E-01  0.88664272357E+00  0.88000000000E+00 0. -1.
        -11    1    4    4    0    0  0.64245094159E-01 -0.34533830004E-01 -0.65518096214E-01  0.98045395562E-01  0.51100000000E-03 0. -1.
         11    1    4    4    0    0  0.20289245206E-01  0.15524896995E-01 -0.24775418236E-01  0.35591549102E-01  0.51100000000E-03 0.  1.
</event>
<event>
 8    1  0.2183582E+004  0.1043930E+01  0.7957747E-01            NaN
         13   -1    0    0    0    0  0.00000000000E+00  0.00000000000E+00  0.74505805969E-08  0.10566000000E+00  0.10566000000E+00 0. -1.
     999900   -1    0    0    0    0 -0.00000000000E+00 -0.00000000000E+00 -0.74505805969E-08  0.93827000000E+00  0.93827000000E+00 0. -1.
     999902    2    1    2    0    0  0.11998259525E-01  0.15850775859E-02 -0.56220609804E-02  0.10305854029E+01  0.10304990026E+01 0.  0.
     999903    2    3    3    0    0  0.21871435692E-01  0.69051706098E-01 -0.11286079072E+00  0.14145696968E+00  0.45011313842E-01 0.  0.
         14    1    1    2    0    0 -0.11998259525E-01 -0.15850775859E-02  0.56220609804E-02  0.13344597119E-01  0.00000000000E+00 0.  1.
     999901    1    3    3    0    0 -0.98731761670E-02 -0.67466628512E-01  0.10723872974E+00  0.88912843320E+00  0.88000000000E+00 0.  1.
        -11    1    4    4    0    0  0.15079604471E-01  0.73194081525E-01 -0.88542811227E-01  0.11586569200E+00  0.51100000000E-03 0. -1.
         11    1    4    4    0    0  0.67918312216E-02 -0.41423754271E-02 -0.24317979498E-01  0.25591277682E-01  0.51100000000E-03 0.  1.
</event>
<event>
 8    1  0.2183582E+004  0.1043930E+01  0.7957747E-01            NaN
         13   -1    0    0    0    0  0.00000000000E+00  0.00000000000E+00  0.74505805969E-08  0.10566000000E+00  0.10566000000E+00 0. -1.
     999900   -1    0    0    0    0 -0.00000000000E+00 -0.00000000000E+00 -0.74505805969E-08  0.93827000000E+00  0.93827000000E+00 0. -1.
     999902    2    1    2    0    0 -0.14313860780E-01 -0.24763389042E-02  0.21641455270E-02  0.10292431899E+01  0.10291383977E+01 0.  0.
     999903    2    3    3    0    0  0.64697319691E-01  0.97445742492E-01 -0.58352357133E-01  0.13801401844E+00  0.44288325741E-01 0.  0.
         14    1    1    2    0    0  0.14313860780E-01  0.24763389042E-02 -0.21641455270E-02  0.14686810091E-01  0.00000000000E+00 0.  1.
     999901    1    3    3    0    0 -0.79011180471E-01 -0.99922081396E-01  0.60516502660E-01  0.89122917147E+00  0.88000000000E+00 0.  1.
        -11    1    4    4    0    0  0.62552229653E-01  0.58846253578E-01 -0.45998703728E-01  0.97425894198E-01  0.51100000000E-03 0.  1.
         11    1    4    4    0    0  0.21450900383E-02  0.38599488914E-01 -0.12353653406E-01  0.40588124238E-01  0.51100000000E-03 0. -1.
</event>
<event>
 7    1  0.2183582E+004  0.1043930E+01  0.7957747E-01            NaN
         13   -1    0    0    0    0  0.00000000000E+00  0.00000000000E+00  0.74505805969E-08  0.10566000000E+00  0.10566000000E+00 0.  1.
     999900   -1    0    0    0    0 -0.00000000000E+00 -0.00000000000E+00 -0.74505805969E-08  0.93827000000E+00  0.93827000000E+00 0.  1.
     999903    2    1    2    0    0  0.27364333194E-01  0.36660730537E-01  0.97943024594E-01  0.11620794500E+00  0.42645451328E-01 0.  0.
         14    1    1    2    0    0  0.31521393203E-01 -0.51935491746E-02  0.19477401770E-01  0.37415776915E-01  0.00000000000E+00 0.  1.
     999901    1    1    2    0    0 -0.58885726397E-01 -0.31467181362E-01 -0.11742042636E+00  0.89030627809E+00  0.88000000000E+00 0.  1.
        -11    1    3    3    0    0  0.25843226115E-01  0.11982880202E-01  0.81939684154E-01  0.86751568944E-01  0.51100000000E-03 0. -1.
         11    1    3    3    0    0  0.15211070796E-02  0.24677850335E-01  0.16003340440E-01  0.29456376053E-01  0.51100000000E-03 0.  1.
</event>
<event>
 8    1  0.2183582E+004  0.1043930E+01  0.7957747E-01            NaN
         13   -1    0    0    0    0  0.00000000000E+00  0.00000000000E+00  0.74505805969E-08  0.10566000000E+00  0.10566000000E+00 0.  1.
     999900   -1    0    0    0    0 -0.00000000000E+00 -0.00000000000E+00 -0.74505805969E-08  0.93827000000E+00  0.93827000000E+00 0. -1.
     999902    2    1    2    0    0  0.59360041061E-02  0.36158456433E-02 -0.11873609484E-01  0.10301716176E+01  0.10300797389E+01 0.  0.
     999903    2    3    3    0    0 -0.10481145718E+00 -0.78846252051E-01  0.70756489732E-02  0.13920356421E+00  0.46102000643E-01 0.  0.
         14    1    1    2    0    0 -0.59360041061E-02 -0.36158456433E-02  0.11873609484E-01  0.13758382413E-01  0.00000000000E+00 0.  1.
     999901    1    3    3    0    0  0.11074746128E+00  0.82462097694E-01 -0.18949258457E-01  0.89096805337E+00  0.88000000000E+00 0.  1.
        -11    1    4    4    0    0 -0.69964526032E-01 -0.61714649449E-01 -0.15061728214E-01  0.94503172631E-01  0.51100000000E-03 0.  1.
         11    1    4    4    0    0 -0.34846931144E-01 -0.17131602602E-01  0.22137377187E-01  0.44700391582E-01  0.51100000000E-03 0. -1.
</event>
<event>
 8    1  0.2183582E+004  0.1043930E+01  0.7957747E-01            NaN
         13   -1    0    0    0    0  0.00000000000E+00  0.00000000000E+00  0.74505805969E-08  0.10566000000E+00  0.10566000000E+00 0.  1.
     999900   -1    0    0    0    0 -0.00000000000E+00 -0.00000000000E+00 -0.74505805969E-08  0.93827000000E+00  0.93827000000E+00 0.  1.
     999902    2    1    2    0    0  0.22011955832E-02 -0.13782326444E-01 -0.15849546060E-02  0.10298832970E+01  0.10297875002E+01 0.  0.
     999903    2    3    3    0    0 -0.43780794656E-01  0.12296508221E+00  0.34187464559E-02  0.13812142619E+00  0.45040771774E-01 0.  0.
         14    1    1    2    0    0 -0.22011955832E-02  0.13782326444E-01  0.15849546060E-02  0.14046703005E-01  0.00000000000E+00 0.  1.
     999901    1    3    3    0    0  0.45981990239E-01 -0.13674740865E+00 -0.50037010620E-02  0.89176187081E+00  0.88000000000E+00 0. -1.
        -11    1    4    4    0    0 -0.31347689670E-01  0.37563102780E-01  0.14688367395E-01  0.51084964479E-01  0.51100000000E-03 0. -1.
         11    1    4    4    0    0 -0.12433104985E-01  0.85401979429E-01 -0.11269620939E-01  0.87036461710E-01  0.51100000000E-03 0.  1.
</event>
<event>
 8    1  0.2183582E+004  0.1043930E+01  0.7957747E-01            NaN
         13   -1    0    0    0    0  0.00000000000E+00  0.00000000000E+00  0.74505805969E-08  0.10566000000E+00  0.10566000000E+00 0. -1.
     999900   -1    0    0    0    0 -0.00000000000E+00 -0.00000000000E+00 -0.74505805969E-08  0.93827000000E+00  0.93827000000E+00 0. -1.
     999902    2    1    2    0    0  0.74857282817E-02  0.13062837550E-01 -0.34979150238E-02  0.10284733101E+01  0.10283571560E+01 0.  0.
     999903    2    3    3    0    0  0.90983032075E-01  0.48408278639E-01 -0.83599928149E-01  0.14019551997E+00  0.45216836111E-01 0.  0.
         14    1    1    2    0    0 -0.74857282817E-02 -0.13062837550E-01  0.34979150238E-02  0.15456689888E-01  0.00000000000E+00 0.  1.
     999901    1    3    3    0    0 -0.83497303794E-01 -0.35345441089E-01  0.80102013125E-01  0.88827779014E+00  0.88000000000E+00 0.  1.
        -11    1    4    4    0    0  0.70271549986E-01  0.36657734534E-01 -0.85146304974E-01  0.11632727372E+00  0.51100000000E-03 0. -1.
         11    1    4    4    0    0  0.20711482089E-01  0.11750544105E-01  0.15463768258E-02  0.23868246257E-01  0.51100000000E-03 0.  1.
</event>
<event>
 8    1  0.2183582E+004  0.1043930E+01  0.7957747E-01            NaN
         13   -1    0    0    0    0  0.00000000000E+00  0.00000000000E+00  0.74505805969E-08  0.10566000000E+00  0.10566000000E+00 0.  1.
     999900   -1    0    0    0    0 -0.00000000000E+00 -0.00000000000E+00 -0.74505805969E-08  0.93827000000E+00  0.93827000000E+00 0.  1.
     999902    2    1    2    0    0 -0.14468658874E-02  0.13446337952E-01 -0.21916854366E-02  0.10302296018E+01  0.10301385012E+01 0.  0.
     999903    2    3    3    0    0 -0.96521485920E-01  0.19052300629E-01 -0.90754808990E-01  0.14067126363E+00  0.43273336513E-01 0.  0.
         14    1    1    2    0    0  0.14468658874E-02 -0.13446337952E-01  0.21916854366E-02  0.13700398179E-01  0.00000000000E+00 0. -1.
     999901    1    3    3    0    0  0.95074620032E-01 -0.56059626766E-02  0.88563123553E-01  0.88955833819E+00  0.88000000000E+00 0. -1.
        -11    1    4    4    0    0 -0.61986144797E-01  0.24739910757E-01 -0.36408688658E-01  0.76027620388E-01  0.51100000000E-03 0. -1.
         11    1    4    4    0    0 -0.34535341123E-01 -0.56876101282E-02 -0.54346120332E-01  0.64643643242E-01  0.51100000000E-03 0.  1.
</event>
<event>
 8    1  0.2183582E+004  0.1043930E+01  0.7957747E-01            NaN
         13   -1    0    0    0    0  0.00000000000E+00  0.00000000000E+00  0.74505805969E-08  0.10566000000E+00  0.10566000000E+00 0. -1.
     999900   -1    0    0    0    0 -0.00000000000E+00 -0.00000000000E+00 -0.74505805969E-08  0.93827000000E+00  0.93827000000E+00 0.  1.
     999902    2    1    2    0    0 -0.11188240723E-01 -0.76729503199E-02 -0.40245458716E-03  0.10303574959E+01  0.10302680994E+01 0.  0.
     999903    2    3    3    0    0 -0.10164296297E+00 -0.82627821622E-01 -0.29858320146E-01  0.14206253505E+00  0.46169207863E-01 0.  0.
         14    1    1    2    0    0  0.11188240723E-01  0.76729503199E-02  0.40245458716E-03  0.13572504072E-01  0.00000000000E+00 0.  1.
     999901    1    3    3    0    0  0.90454722248E-01  0.74954871303E-01  0.29455865559E-01  0.88829496088E+00  0.88000000000E+00 0. -1.
        -11    1    4    4    0    0 -0.63462981739E-02 -0.38954531687E-02 -0.16023229355E-01  0.17676398272E-01  0.51100000000E-03 0. -1.
         11    1    4    4    0    0 -0.95296664797E-01 -0.78732368454E-01 -0.13835090791E-01  0.12438613678E+00  0.51100000000E-03 0.  1.
</event>
<event>
 8    1  0.2183582E+004  0.1043930E+01  0.7957747E-01            NaN
         13   -1    0    0    0    0  0.00000000000E+00  0.00000000000E+00  0.74505805969E-08  0.10566000000E+00  0.10566000000E+00 0. -1.
     999900   -1    0    0    0    0 -0.00000000000E+00 -0.00000000000E+00 -0.74505805969E-08  0.93827000000E+00  0.93827000000E+00 0. -1.
     999902    2    1    2    0    0 -0.17903015837E-03 -0.16841617620E-02  0.13583107169E-01  0.10302417111E+01  0.10301507725E+01 0.  0.
     999903    2    3    3    0    0 -0.12315673465E+00 -0.28002594565E-01  0.42859340870E-01  0.14081871074E+00  0.45180301058E-01 0.  0.
         14    1    1    2    0    0  0.17903015837E-03  0.16841617620E-02 -0.13583107169E-01  0.13688288900E-01  0.00000000000E+00 0.  1.
     999901    1    3    3    0    0  0.12297770449E+00  0.26318432803E-01 -0.29276233701E-01  0.88942300036E+00  0.88000000000E+00 0. -1.
        -11    1    4    4    0    0 -0.76045023382E-01  0.55030939551E-02  0.26762797287E-01  0.80806175902E-01  0.51100000000E-03 0. -1.
         11    1    4    4    0    0 -0.47111711265E-01 -0.33505688520E-01  0.16096543583E-01  0.60012534840E-01  0.51100000000E-03 0.  1.
</event>
<event>
 8    1  0.2183582E+004  0.1043930E+01  0.7957747E-01            NaN
         13   -1    0    0    0    0  0.00000000000E+00  0.00000000000E+00  0.74505805969E-08  0.10566000000E+00  0.10566000000E+00 0. -1.
     999900   -1    0    0    0    0 -0.00000000000E+00 -0.00000000000E+00 -0.74505805969E-08  0.93827000000E+00  0.93827000000E+00 0.  1.
     999902    2    1    2    0    0 -0.12060904785E-01 -0.34644118417E-02 -0.67626241389E-02  0.10296751531E+01  0.10295764762E+01 0.  0.
     999903    2    3    3    0    0 -0.12830863699E+00 -0.30952210547E-01  0.23434440494E-01  0.14109146151E+00  0.44005475189E-01 0.  0.
         14    1    1    2    0    0  0.12060904785E-01  0.34644118417E-02  0.67626241389E-02  0.14254846856E-01  0.00000000000E+00 0. -1.
     999901    1    3    3    0    0  0.11624773220E+00  0.27487798705E-01 -0.30197064633E-01  0.88858369163E+00  0.88000000000E+00 0. -1.
        -11    1    4    4    0    0 -0.25095617209E-01  0.53648566170E-02 -0.86185723454E-02  0.27076052148E-01  0.51100000000E-03 0.  1.
         11    1    4    4    0    0 -0.10321301978E+00 -0.36317067164E-01  0.32053012839E-01  0.11401540936E+00  0.51100000000E-03 0. -1.
</event>
<event>
 8    1  0.2183582E+004  0.1043930E+01  0.7957747E-01            NaN
         13   -1    0    0    0    0  0.00000000000E+00  0.00000000000E+00  0.74505805969E-08  0.10566000000E+00  0.10566000000E+00 0.  1.
     999900   -1    0    0    0    0 -0.00000000000E+00 -0.00000000000E+00 -0.74505805969E-08  0.93827000000E+00  0.93827000000E+00 0.  1.
     999902    2    1    2    0    0  0.98770996550E-02  0.76913915394E-02  0.66902590797E-02  0.10297358404E+01  0.10296380076E+01 0.  0.
     999903    2    3    3    0    0  0.11642279144E-01 -0.47453700750E-01 -0.12155420784E+00  0.13873037440E+00  0.45643126103E-01 0.  0.
         14    1    1    2    0    0 -0.98770996550E-02 -0.76913915394E-02 -0.66902590797E-02  0.14194159643E-01  0.00000000000E+00 0.  1.
     999901    1    3    3    0    0 -0.17651794891E-02  0.55145092290E-01  0.12824446692E+00  0.89100546595E+00  0.88000000000E+00 0. -1.
        -11    1    4    4    0    0  0.48349592711E-02 -0.36898828557E-01 -0.34420022943E-01  0.50694176001E-01  0.51100000000E-03 0.  1.
         11    1    4    4    0    0  0.68073198730E-02 -0.10554872194E-01 -0.87134184896E-01  0.88036198404E-01  0.51100000000E-03 0. -1.
</event>
<event>
 8    1  0.2183582E+004  0.1043930E+01  0.7957747E-01            NaN
         13   -1    0    0    0    0  0.00000000000E+00  0.00000000000E+00  0.74505805969E-08  0.10566000000E+00  0.10566000000E+00 0. -1.
     999900   -1    0    0    0    0 -0.00000000000E+00 -0.00000000000E+00 -0.74505805969E-08  0.93827000000E+00  0.93827000000E+00 0. -1.
     999902    2    1    2    0    0 -0.23892396849E-02  0.13112240216E-01 -0.70571592381E-02  0.10288487929E+01  0.10287382543E+01 0.  0.
     999903    2    3    3    0    0 -0.35863785814E-01 -0.64727610933E-01  0.10489179544E+00  0.13771908515E+00  0.49883693847E-01 0.  0.
         14    1    1    2    0    0  0.23892396849E-02 -0.13112240216E-01  0.70571592381E-02  0.15081207056E-01  0.00000000000E+00 0.  1.
     999901    1    3    3    0    0  0.33474546129E-01  0.77839851149E-01 -0.11194895468E+00  0.89112970780E+00  0.88000000000E+00 0. -1.
        -11    1    4    4    0    0 -0.45679816605E-01 -0.34785985724E-01  0.73101884419E-01  0.92956210521E-01  0.51100000000E-03 0. -1.
         11    1    4    4    0    0  0.98160307912E-02 -0.29941625209E-01  0.31789911025E-01  0.44762874624E-01  0.51100000000E-03 0.  1.
</event>
<event>
 8    1  0.2183582E+004  0.1043930E+01  0.7957747E-01            NaN
         13   -1    0    0    0    0  0.00000000000E+00  0.00000000000E+00  0.74505805969E-08  0.10566000000E+00  0.10566000000E+00 0. -1.
     999900   -1    0    0    0    0 -0.00000000000E+00 -0.00000000000E+00 -0.74505805969E-08  0.93827000000E+00  0.93827000000E+00 0. -1.
     999902    2    1    2    0    0  0.16312319402E-02 -0.12230609664E-01  0.36782909359E-02  0.10310544979E+01  0.10309741020E+01 0.  0.
     999903    2    3    3    0    0  0.10676488195E+00  0.46053040517E-01  0.66393107881E-01  0.14067075112E+00  0.43134590408E-01 0.  0.
         14    1    1    2    0    0 -0.16312319402E-02  0.12230609664E-01 -0.36782909359E-02  0.12875502111E-01  0.00000000000E+00 0. -1.
     999901    1    3    3    0    0 -0.10513365001E+00 -0.58283650180E-01 -0.62714816945E-01  0.89038374677E+00  0.88000000000E+00 0. -1.
        -11    1    4    4    0    0  0.21615474262E-01  0.15361539781E-01 -0.28967759536E-02  0.26680668356E-01  0.51100000000E-03 0. -1.
         11    1    4    4    0    0  0.85149407684E-01  0.30691500735E-01  0.69289883835E-01  0.11399008277E+00  0.51100000000E-03 0.  1.
</event>
<event>
 8    1  0.2183582E+004  0.1043930E+01  0.7957747E-01            NaN
         13   -1    0    0    0    0  0.00000000000E+00  0.00000000000E+00  0.74505805969E-08  0.10566000000E+00  0.10566000000E+00 0.  1.
     999900   -1    0    0    0    0 -0.00000000000E+00 -0.00000000000E+00 -0.74505805969E-08  0.93827000000E+00  0.93827000000E+00 0. -1.
     999902    2    1    2    0    0  0.77601397854E-02  0.53079267670E-02 -0.13450044333E-01  0.10275197121E+01  0.10273886612E+01 0.  0.
     999903    2    3    3    0    0  0.55511649942E-01  0.11809376898E+00  0.12557127275E-01  0.13865682848E+00  0.45170267729E-01 0.  0.
         14    1    1    2    0    0 -0.77601397854E-02 -0.53079267670E-02  0.13450044333E-01  0.16410287889E-01  0.00000000000E+00 0.  1.
     999901    1    3    3    0    0 -0.47751510157E-01 -0.11278584221E+00 -0.26007171608E-01  0.88886288363E+00  0.88000000000E+00 0.  1.
        -11    1    4    4    0    0  0.45505869263E-01  0.51596332954E-01 -0.55259891333E-02  0.69020021650E-01  0.51100000000E-03 0.  1.
         11    1    4    4    0    0  0.10005780680E-01  0.66497436026E-01  0.18083116409E-01  0.69636806827E-01  0.51100000000E-03 0. -1.
</event>
<event>
 8    1  0.2183582E+004  0.1043930E+01  0.7957747E-01            NaN
         13   -1    0    0    0    0  0.00000000000E+00  0.00000000000E+00  0.74505805969E-08  0.10566000000E+00  0.10566000000E+00 0.  1.
     999900   -1    0    0    0    0 -0.00000000000E+00 -0.00000000000E+00 -0.74505805969E-08  0.93827000000E+00  0.93827000000E+00 0.  1.
     999902    2    1    2    0    0  0.19513226319E-02 -0.71806216276E-03 -0.13328303133E-01  0.10304404879E+01  0.10303521884E+01 0.  0.
     999903    2    3    3    0    0  0.76708951348E-01  0.41975138346E-01 -0.10215178053E+00  0.14178925000E+00  0.44978102372E-01 0.  0.
         14    1    1    2    0    0 -0.19513226319E-02  0.71806216276E-03  0.13328303133E-01  0.13489512137E-01  0.00000000000E+00 0.  1.
     999901    1    3    3    0    0 -0.74757628716E-01 -0.42693200509E-01  0.88823477399E-01  0.88865123786E+00  0.88000000000E+00 0. -1.
        -11    1    4    4    0    0  0.50163960870E-01  0.27306105955E-01 -0.94640676353E-01  0.11054033261E+00  0.51100000000E-03 0.  1.
         11    1    4    4    0    0  0.26544990478E-01  0.14669032392E-01 -0.75111041798E-02  0.31248917386E-01  0.51100000000E-03 0. -1.
</event>
<event>
 8    1  0.2183582E+004  0.1043930E+01  0.7957747E-01            NaN
         13   -1    0    0    0    0  0.00000000000E+00  0.00000000000E+00  0.74505805969E-08  0.10566000000E+00  0.10566000000E+00 0.  1.
     999900   -1    0    0    0    0 -0.00000000000E+00 -0.00000000000E+00 -0.74505805969E-08  0.93827000000E+00  0.93827000000E+00 0.  1.
     999902    2    1    2    0    0  0.12713307562E-01 -0.76714121670E-02  0.86645991102E-02  0.10267383150E+01  0.10265943763E+01 0.  0.
     999903    2    3    3    0    0  0.75180160804E-01 -0.72662123891E-01  0.79970096042E-01  0.13926416091E+00  0.45469214054E-01 0.  0.
         14    1    1    2    0    0 -0.12713307562E-01  0.76714121670E-02 -0.86645991102E-02  0.17191684954E-01  0.00000000000E+00 0. -1.
     999901    1    3    3    0    0 -0.62466853242E-01  0.64990711724E-01 -0.71305496932E-01  0.88747415413E+00  0.88000000000E+00 0.  1.
        -11    1    4    4    0    0  0.34995214790E-01 -0.71564954028E-02  0.15453461374E-01  0.38922372411E-01  0.51100000000E-03 0.  1.
         11    1    4    4    0    0  0.40184946014E-01 -0.65505628488E-01  0.64516634668E-01  0.10034178850E+00  0.51100000000E-03 0. -1.
</event>
<event>
 8    1  0.2183582E+004  0.1043930E+01  0.7957747E-01            NaN
         13   -1    0    0    0    0  0.00000000000E+00  0.00000000000E+00  0.74505805969E-08  0.10566000000E+00  0.10566000000E+00 0.  1.
     999900   -1    0    0    0    0 -0.00000000000E+00 -0.00000000000E+00 -0.74505805969E-08  0.93827000000E+00  0.93827000000E+00 0.  1.
     999902    2    1    2    0    0 -0.69833618942E-02  0.16781179694E-01  0.19379199455E-01  0.10173606811E+01  0.10170136807E+01 0.  0.
     999903    2    3    3    0    0 -0.92400126211E-01  0.76919450333E-01 -0.22410811527E-01  0.13019720110E+00  0.44661857761E-01 0.  0.
         14    1    1    2    0    0  0.69833618942E-02 -0.16781179694E-01 -0.19379199455E-01  0.26569318899E-01  0.00000000000E+00 0. -1.
     999901    1    3    3    0    0  0.85416764317E-01 -0.60138270639E-01  0.41790010982E-01  0.88716348000E+00  0.88000000000E+00 0. -1.
        -11    1    4    4    0    0 -0.23674310249E-01  0.12876297039E-02 -0.14274646099E-01  0.27679551988E-01  0.51100000000E-03 0. -1.
         11    1    4    4    0    0 -0.68725815962E-01  0.75631820629E-01 -0.81361654279E-02  0.10251764912E+00  0.51100000000E-03 0.  1.
</event>
<event>
 8    1  0.2183582E+004  0.1043930E+01  0.7957747E-01            NaN
         13   -1    0    0    0    0  0.00000000000E+00  0.00000000000E+00  0.74505805969E-08  0.10566000000E+00  0.10566000000E+00 0.  1.
     999900   -1    0    0    0    0 -0.00000000000E+00 -0.00000000000E+00 -0.74505805969E-08  0.93827000000E+00  0.93827000000E+00 0.  1.
     999902    2    1    2    0    0  0.66455983346E-02  0.50166439173E-02  0.11124314647E-01  0.10300346386E+01  0.10299409088E+01 0.  0.
     999903    2    3    3    0    0 -0.93617896983E-01  0.94090794890E-01 -0.80158361256E-02  0.13966768148E+00  0.42724926028E-01 0.  0.
         14    1    1    2    0    0 -0.66455983346E-02 -0.50166439173E-02 -0.11124314647E-01  0.13895361448E-01  0.00000000000E+00 0. -1.
     999901    1    3    3    0    0  0.10026349532E+00 -0.89074150973E-01  0.19140150772E-01  0.89036695707E+00  0.88000000000E+00 0. -1.
        -11    1    4    4    0    0 -0.57754489423E-01  0.29909140817E-01  0.40189341897E-02  0.65165563804E-01  0.51100000000E-03 0. -1.
         11    1    4    4    0    0 -0.35863407560E-01  0.64181654073E-01 -0.12034770315E-01  0.74502117681E-01  0.51100000000E-03 0.  1.
</event>
<event>
 8    1  0.2183582E+004  0.1043930E+01  0.7957747E-01            NaN
         13   -1    0    0    0    0  0.00000000000E+00  0.00000000000E+00  0.74505805969E-08  0.10566000000E+00  0.10566000000E+00 0. -1.
     999900   -1    0    0    0    0 -0.00000000000E+00 -0.00000000000E+00 -0.74505805969E-08  0.93827000000E+00  0.93827000000E+00 0.  1.
     999902    2    1    2    0    0  0.67821368683E-02 -0.10944210754E-01 -0.63141363950E-02  0.10295897961E+01  0.10294899255E+01 0.  0.
     999903    2    3    3    0    0 -0.72734957883E-01  0.10569599373E+00 -0.24271754619E-01  0.13815814885E+00  0.45128027138E-01 0.  0.
         14    1    1    2    0    0 -0.67821368683E-02  0.10944210754E-01  0.63141363950E-02  0.14340203902E-01  0.00000000000E+00 0.  1.
     999901    1    3    3    0    0  0.79517094751E-01 -0.11664020448E+00  0.17957618224E-01  0.89143164725E+00  0.88000000000E+00 0.  1.
        -11    1    4    4    0    0 -0.42560066758E-01  0.23884879506E-01 -0.91146946229E-02  0.49650634745E-01  0.51100000000E-03 0. -1.
         11    1    4    4    0    0 -0.30174891125E-01  0.81811114223E-01 -0.15157059997E-01  0.88507514108E-01  0.51100000000E-03 0.  1.
</event>
<event>
 8    1  0.2183582E+004  0.1043930E+01  0.7957747E-01            NaN
         13   -1    0    0    0    0  0.00000000000E+00  0.00000000000E+00  0.74505805969E-08  0.10566000000E+00  0.10566000000E+00 0. -1.
     999900   -1    0    0    0    0 -0.00000000000E+00 -0.00000000000E+00 -0.74505805969E-08  0.93827000000E+00  0.93827000000E+00 0.  1.
     999902    2    1    2    0    0 -0.58020270268E-02  0.27628582513E-02 -0.11302800156E-01  0.10309280696E+01  0.10308460770E+01 0.  0.
     999903    2    3    3    0    0  0.16103621154E-01  0.35570511080E-01 -0.12900311718E+00  0.14221576285E+00  0.45375445875E-01 0.  0.
         14    1    1    2    0    0  0.58020270268E-02 -0.27628582513E-02  0.11302800156E-01  0.13001930422E-01  0.00000000000E+00 0. -1.
     999901    1    3    3    0    0 -0.21905648181E-01 -0.32807652829E-01  0.11770031702E+00  0.88871230673E+00  0.88000000000E+00 0. -1.
        -11    1    4    4    0    0  0.23505397009E-01  0.44324054189E-02 -0.81462021273E-01  0.84902720434E-01  0.51100000000E-03 0.  1.
         11    1    4    4    0    0 -0.74017758542E-02  0.31138105661E-01 -0.47541095904E-01  0.57313042414E-01  0.51100000000E-03 0. -1.
</event>
<event>
 8    1  0.2183582E+004  0.1043930E+01  0.7957747E-01            NaN
         13   -1    0    0    0    0  0.00000000000E+00  0.00000000000E+00  0.74505805969E-08  0.10566000000E+00  0.10566000000E+00 0.  1.
     999900   -1    0    0    0    0 -0.00000000000E+00 -0.00000000000E+00 -0.74505805969E-08  0.93827000000E+00  0.93827000000E+00 0. -1.
     999902    2    1    2    0    0  0.92516235536E-02  0.14171903842E-02  0.10346250614E-01  0.10299784457E+01  0.10298839511E+01 0.  0.
     999903    2    3    3    0    0  0.56361608398E-01 -0.11604757368E+00 -0.29551092654E-01  0.14002950359E+00  0.45731001976E-01 0.  0.
         14    1    1    2    0    0 -0.92516235536E-02 -0.14171903842E-02 -0.10346250614E-01  0.13951554348E-01  0.00000000000E+00 0. -1.
     999901    1    3    3    0    0 -0.47109984844E-01  0.11746476406E+00  0.39897343268E-01  0.88994894206E+00  0.88000000000E+00 0.  1.
        -11    1    4    4    0    0  0.28574702188E-02 -0.47356860175E-01  0.18168388246E-02  0.47480515646E-01  0.51100000000E-03 0. -1.
         11    1    4    4    0    0  0.53504138179E-01 -0.68690713505E-01 -0.31367931478E-01  0.92548987949E-01  0.51100000000E-03 0.  1.
</event>
<event>
 8    1  0.2183582E+004  0.1043930E+01  0.7957747E-01            NaN
         13   -1    0    0    0    0  0.00000000000E+00  0.00000000000E+00  0.74505805969E-08  0.10566000000E+00  0.10566000000E+00 0.  1.
     999900   -1    0    0    0    0 -0.00000000000E+00 -0.00000000000E+00 -0.74505805969E-08  0.93827000000E+00  0.93827000000E+00 0. -1.
     999902    2    1    2    0    0  0.11393900446E-01 -0.20947061803E-02  0.76377230046E-02  0.10300539929E+01  0.10299605258E+01 0.  0.
     999903    2    3    3    0    0  0.19873588205E-01  0.12131993139E+00 -0.48646322292E-01  0.13962096808E+00  0.44878333247E-01 0.  0.
         14    1    1    2    0    0 -0.11393900446E-01  0.20947061803E-02 -0.76377230046E-02  0.13876007137E-01  0.00000000000E+00 0. -1.
     999901    1    3    3    0    0 -0.84796877586E-02 -0.12341463757E+00  0.56284045297E-01  0.89043302478E+00  0.88000000000E+00 0.  1.
        -11    1    4    4    0    0  0.19621866330E-01  0.22699110019E-01 -0.22743399815E-01  0.37653560125E-01  0.51100000000E-03 0. -1.
         11    1    4    4    0    0  0.25172187519E-03  0.98620821368E-01 -0.25902922477E-01  0.10196740795E+00  0.51100000000E-03 0.  1.
</event>
<event>
 7    1  0.2183582E+004  0.1043930E+01  0.7957747E-01            NaN
         13   -1    0    0    0    0  0.00000000000E+00  0.00000000000E+00  0.74505805969E-08  0.10566000000E+00  0.10566000000E+00 0.  1.
     999900   -1    0    0    0    0 -0.00000000000E+00 -0.00000000000E+00 -0.74505805969E-08  0.93827000000E+00  0.93827000000E+00 0.  1.
     999903    2    1    2    0    0  0.73940842668E-01 -0.41761530683E-01  0.67755271378E-01  0.11755826969E+00  0.44921000820E-01 0.  0.
         14    1    1    2    0    0  0.32664153037E-01 -0.12679333744E-01  0.45330994168E-02  0.35330742819E-01  0.00000000000E+00 0.  1.
     999901    1    1    2    0    0 -0.10660499570E+00  0.54440864426E-01 -0.72288370795E-01  0.89104098749E+00  0.88000000000E+00 0.  1.
        -11    1    3    3    0    0  0.65132849798E-01 -0.46465153022E-01  0.42939323139E-01  0.90803882961E-01  0.51100000000E-03 0. -1.
         11    1    3    3    0    0  0.88079928704E-02  0.47036223391E-02  0.24815948239E-01  0.26754386734E-01  0.51100000000E-03 0.  1.
</event>
<event>
 8    1  0.2183582E+004  0.1043930E+01  0.7957747E-01            NaN
         13   -1    0    0    0    0  0.00000000000E+00  0.00000000000E+00  0.74505805969E-08  0.10566000000E+00  0.10566000000E+00 0. -1.
     999900   -1    0    0    0    0 -0.00000000000E+00 -0.00000000000E+00 -0.74505805969E-08  0.93827000000E+00  0.93827000000E+00 0. -1.
     999902    2    1    2    0    0 -0.37828010275E-02 -0.87200707840E-02  0.11100291339E-01  0.10293161133E+01  0.10292123665E+01 0.  0.
     999903    2    3    3    0    0  0.54171321810E-03  0.11530856821E-01  0.13277420505E+00  0.14070295626E+00  0.45111841704E-01 0.  0.
         14    1    1    2    0    0  0.37828010275E-02  0.87200707840E-02 -0.11100291339E-01  0.14613886749E-01  0.00000000000E+00 0.  1.
     999901    1    3    3    0    0 -0.43245142456E-02 -0.20250927605E-01 -0.12167391371E+00  0.88861315699E+00  0.88000000000E+00 0. -1.
        -11    1    4    4    0    0 -0.81824256483E-02  0.27311867835E-01  0.82766426409E-01  0.87541034239E-01  0.51100000000E-03 0. -1.
         11    1    4    4    0    0  0.87241388664E-02 -0.15781011014E-01  0.50007778643E-01  0.53161922025E-01  0.51100000000E-03 0.  1.
</event>
<event>
 8    1  0.2183582E+004  0.1043930E+01  0.7957747E-01            NaN
         13   -1    0    0    0    0  0.00000000000E+00  0.00000000000E+00  0.74505805969E-08  0.10566000000E+00  0.10566000000E+00 0.  1.
     999900   -1    0    0    0    0 -0.00000000000E+00 -0.00000000000E+00 -0.74505805969E-08  0.93827000000E+00  0.93827000000E+00 0. -1.
     999902    2    1    2    0    0  0.57317923528E-02  0.12679401212E-01 -0.11631038107E-02  0.10299667099E+01  0.10298720552E+01 0.  0.
     999903    2    3    3    0    0 -0.20245783992E-01 -0.11665650637E+00  0.55136800110E-01  0.13835452371E+00  0.45642910260E-01 0.  0.
         14    1    1    2    0    0 -0.57317923528E-02 -0.12679401212E-01  0.11631038107E-02  0.13963290054E-01  0.00000000000E+00 0. -1.
     999901    1    3    3    0    0  0.25977576345E-01  0.12933590758E+00 -0.56299903921E-01  0.89161218624E+00  0.88000000000E+00 0.  1.
        -11    1    4    4    0    0 -0.34627935493E-01 -0.73487449725E-01  0.32099287207E-01  0.87350584107E-01  0.51100000000E-03 0.  1.
         11    1    4    4    0    0  0.14382151501E-01 -0.43169056644E-01  0.23037512903E-01  0.51003939604E-01  0.51100000000E-03 0. -1.
</event>
<event>
 8    1  0.2183582E+004  0.1043930E+01  0.7957747E-01            NaN
         13   -1    0    0    0    0  0.00000000000E+00  0.00000000000E+00  0.74505805969E-08  0.10566000000E+00  0.10566000000E+00 0. -1.
     999900   -1    0    0    0    0 -0.00000000000E+00 -0.00000000000E+00 -0.74505805969E-08  0.93827000000E+00  0.93827000000E+00 0. -1.
     999902    2    1    2    0    0 -0.24325222761E-02 -0.69638339091E-02 -0.22611974296E-01  0.10201452669E+01  0.10198679581E+01 0.  0.
     999903    2    3    3    0    0  0.74633816983E-01  0.94866759812E-01  0.18662077879E-01  0.12996986966E+00  0.44429552252E-01 0.  0.
         14    1    1    2    0    0  0.24325222761E-02  0.69638339091E-02  0.22611974296E-01  0.23784733105E-01  0.00000000000E+00 0. -1.
     999901    1    3    3    0    0 -0.77066339259E-01 -0.10183059372E+00 -0.41274052174E-01  0.89017539724E+00  0.88000000000E+00 0. -1.
        -11    1    4    4    0    0  0.20881024944E-01  0.12352758112E-01 -0.11667564405E-01  0.26925842899E-01  0.51100000000E-03 0.  1.
         11    1    4    4    0    0  0.53752792039E-01  0.82514001700E-01  0.30329642283E-01  0.10304402676E+00  0.51100000000E-03 0. -1.
</event>
<event>
 8    1  0.2183582E+004  0.1043930E+01  0.7957747E-01            NaN
         13   -1    0    0    0    0  0.00000000000E+00  0.00000000000E+00  0.74505805969E-08  0.10566000000E+00  0.10566000000E+00 0.  1.
     999900   -1    0    0    0    0 -0.00000000000E+00 -0.00000000000E+00 -0.74505805969E-08  0.93827000000E+00  0.93827000000E+00 0. -1.
     999902    2    1    2    0    0 -0.24439107258E-02  0.16884192019E-01  0.17353142866E-01  0.10195952469E+01  0.10193048059E+01 0.  0.
     999903    2    3    3    0    0  0.40459534687E-01  0.16609125831E-01  0.11640647650E+00  0.13299931631E+00  0.47175346947E-01 0.  0.
         14    1    1    2    0    0  0.24439107258E-02 -0.16884192019E-01 -0.17353142866E-01  0.24334753072E-01  0.00000000000E+00 0. -1.
     999901    1    3    3    0    0 -0.42903445413E-01  0.27506618785E-03 -0.99053333632E-01  0.88659593062E+00  0.88000000000E+00 0. -1.
        -11    1    4    4    0    0  0.31258802764E-01  0.32321759357E-01  0.93345885009E-01  0.10361237497E+00  0.51100000000E-03 0. -1.
         11    1    4    4    0    0  0.92007319235E-02 -0.15712633526E-01  0.23060591488E-01  0.29386941335E-01  0.51100000000E-03 0.  1.
</event>
<event>
 8    1  0.2183582E+004  0.1043930E+01  0.7957747E-01            NaN
         13   -1    0    0    0    0  0.00000000000E+00  0.00000000000E+00  0.74505805969E-08  0.10566000000E+00  0.10566000000E+00 0.  1.
     999900   -1    0    0    0    0 -0.00000000000E+00 -0.00000000000E+00 -0.74505805969E-08  0.93827000000E+00  0.93827000000E+00 0. -1.
     999902    2    1    2    0    0  0.51278610268E-02  0.85077596466E-02 -0.10438353936E-01  0.10295204141E+01  0.10294195680E+01 0.  0.
     999903    2    3    3    0    0 -0.91751933378E-01 -0.93115279041E-01  0.12693508732E-02  0.13831336357E+00  0.45167497405E-01 0.  0.
         14    1    1    2    0    0 -0.51278610268E-02 -0.85077596466E-02  0.10438353936E-01  0.14409585900E-01  0.00000000000E+00 0.  1.
     999901    1    3    3    0    0  0.96879794405E-01  0.10162303869E+00 -0.11707704809E-01  0.89120705053E+00  0.88000000000E+00 0.  1.
        -11    1    4    4    0    0 -0.30266132306E-01 -0.21762199544E-01  0.19955767433E-01  0.42286237343E-01  0.51100000000E-03 0. -1.
         11    1    4    4    0    0 -0.61485801072E-01 -0.71353079498E-01 -0.18686416560E-01  0.96027126231E-01  0.51100000000E-03 0.  1.
</event>
<event>
 8    1  0.2183582E+004  0.1043930E+01  0.7957747E-01            NaN
         13   -1    0    0    0    0  0.00000000000E+00  0.00000000000E+00  0.74505805969E-08  0.10566000000E+00  0.10566000000E+00 0.  1.
     999900   -1    0    0    0    0 -0.00000000000E+00 -0.00000000000E+00 -0.74505805969E-08  0.93827000000E+00  0.93827000000E+00 0. -1.
     999902    2    1    2    0    0  0.79766638954E-02  0.49408406565E-02  0.10061891882E-01  0.10301720662E+01  0.10300801936E+01 0.  0.
     999903    2    3    3    0    0  0.57991109452E-01 -0.10826003598E+00 -0.48699031826E-01  0.13957185885E+00  0.45005598709E-01 0.  0.
         14    1    1    2    0    0 -0.79766638954E-02 -0.49408406565E-02 -0.10061891882E-01  0.13757933767E-01  0.00000000000E+00 0. -1.
     999901    1    3    3    0    0 -0.50014445556E-01  0.11320087664E+00  0.58760923709E-01  0.89060020738E+00  0.88000000000E+00 0. -1.
        -11    1    4    4    0    0  0.43484664006E-02 -0.55038252560E-01 -0.21803603803E-01  0.59361407200E-01  0.51100000000E-03 0. -1.
         11    1    4    4    0    0  0.53642643051E-01 -0.53221783423E-01 -0.26895428023E-01  0.80210451649E-01  0.51100000000E-03 0.  1.
</event>
<event>
 8    1  0.2183582E+004  0.1043930E+01  0.7957747E-01            NaN
         13   -1    0    0    0    0  0.00000000000E+00  0.00000000000E+00  0.74505805969E-08  0.10566000000E+00  0.10566000000E+00 0.  1.
     999900   -1    0    0    0    0 -0.00000000000E+00 -0.00000000000E+00 -0.74505805969E-08  0.93827000000E+00  0.93827000000E+00 0. -1.
     999902    2    1    2    0    0  0.84588752721E-02  0.38452461138E-02  0.11698266264E-01  0.10289905247E+01  0.10288820690E+01 0.  0.
     999903    2    3    3    0    0  0.96840284148E-01 -0.27864611026E-01 -0.84194486595E-01  0.13881514394E+00  0.45016168555E-01 0.  0.
         14    1    1    2    0    0 -0.84588752721E-02 -0.38452461138E-02 -0.11698266264E-01  0.14939475297E-01  0.00000000000E+00 0. -1.
     999901    1    3    3    0    0 -0.88381408876E-01  0.31709857140E-01  0.95892752859E-01  0.89017538077E+00  0.88000000000E+00 0.  1.
        -11    1    4    4    0    0  0.51258542665E-01  0.83952917451E-02 -0.43609173631E-01  0.67822859460E-01  0.51100000000E-03 0.  1.
         11    1    4    4    0    0  0.45581741483E-01 -0.36259902771E-01 -0.40585312964E-01  0.70992284475E-01  0.51100000000E-03 0. -1.
</event>
<event>
 8    1  0.2183582E+004  0.1043930E+01  0.7957747E-01            NaN
         13   -1    0    0    0    0  0.00000000000E+00  0.00000000000E+00  0.74505805969E-08  0.10566000000E+00  0.10566000000E+00 0.  1.
     999900   -1    0    0    0    0 -0.00000000000E+00 -0.00000000000E+00 -0.74505805969E-08  0.93827000000E+00  0.93827000000E+00 0. -1.
     999902    2    1    2    0    0  0.44008728943E-02 -0.10836357979E-01  0.57912877443E-03  0.10322197598E+01  0.10321533329E+01 0.  0.
     999903    2    3    3    0    0 -0.67440894573E-01  0.93797855895E-01 -0.65778192765E-01  0.14064090604E+00  0.45899692561E-01 0.  0.
         14    1    1    2    0    0 -0.44008728943E-02  0.10836357979E-01 -0.57912877443E-03  0.11710240246E-01  0.00000000000E+00 0.  1.
     999901    1    3    3    0    0  0.71841767468E-01 -0.10463421387E+00  0.66357321539E-01  0.89157885371E+00  0.88000000000E+00 0.  1.
        -11    1    4    4    0    0 -0.58793590660E-02  0.41725221717E-01 -0.12348315758E-01  0.43912447135E-01  0.51100000000E-03 0. -1.
         11    1    4    4    0    0 -0.61561535507E-01  0.52072634178E-01 -0.53429877006E-01  0.96728458905E-01  0.51100000000E-03 0.  1.
</event>
<event>
 8    1  0.2183582E+004  0.1043930E+01  0.7957747E-01            NaN
         13   -1    0    0    0    0  0.00000000000E+00  0.00000000000E+00  0.74505805969E-08  0.10566000000E+00  0.10566000000E+00 0.  1.
     999900   -1    0    0    0    0 -0.00000000000E+00 -0.00000000000E+00 -0.74505805969E-08  0.93827000000E+00  0.93827000000E+00 0. -1.
     999902    2    1    2    0    0 -0.53006354863E-02 -0.54274708219E-02  0.64722206478E-02  0.10339578480E+01  0.10339097579E+01 0.  0.
     999903    2    3    3    0    0 -0.48430783828E-01 -0.12237200925E+00 -0.38179914605E-01  0.14405333177E+00  0.44420795177E-01 0.  0.
         14    1    1    2    0    0  0.53006354863E-02  0.54274708219E-02 -0.64722206478E-02  0.99721520343E-02  0.00000000000E+00 0. -1.
     999901    1    3    3    0    0  0.43130148342E-01  0.11694453843E+00  0.44652135252E-01  0.88990451620E+00  0.88000000000E+00 0.  1.
        -11    1    4    4    0    0 -0.35980201214E-01 -0.33554091770E-01 -0.14471275780E-01  0.51284801819E-01  0.51100000000E-03 0. -1.
         11    1    4    4    0    0 -0.12450582614E-01 -0.88817917482E-01 -0.23708638825E-01  0.92768529950E-01  0.51100000000E-03 0.  1.
</event>
<event>
 8    1  0.2183582E+004  0.1043930E+01  0.7957747E-01            NaN
         13   -1    0    0    0    0  0.00000000000E+00  0.00000000000E+00  0.74505805969E-08  0.10566000000E+00  0.10566000000E+00 0.  1.
     999900   -1    0    0    0    0 -0.00000000000E+00 -0.00000000000E+00 -0.74505805969E-08  0.93827000000E+00  0.93827000000E+00 0. -1.
     999902    2    1    2    0    0  0.12561560758E-01 -0.62848417002E-02 -0.61175418248E-02  0.10286095443E+01  0.10284954440E+01 0.  0.
     999903    2    3    3    0    0 -0.64361062185E-01  0.52136784072E-01 -0.10171468430E+00  0.13817763232E+00  0.43434899467E-01 0.  0.
         14    1    1    2    0    0 -0.12561560758E-01  0.62848417002E-02  0.61175418248E-02  0.15320455667E-01  0.00000000000E+00 0.  1.
     999901    1    3    3    0    0  0.76922622943E-01 -0.58421625772E-01  0.95597142480E-01  0.89043191201E+00  0.88000000000E+00 0.  1.
        -11    1    4    4    0    0 -0.37504506945E-01  0.45464257996E-01 -0.91163273770E-01  0.10855685332E+00  0.51100000000E-03 0.  1.
         11    1    4    4    0    0 -0.26856555240E-01  0.66725260753E-02 -0.10551410534E-01  0.29620779005E-01  0.51100000000E-03 0. -1.
</event>
<event>
 8    1  0.2183582E+004  0.1043930E+01  0.7957747E-01            NaN
         13   -1    0    0    0    0  0.00000000000E+00  0.00000000000E+00  0.74505805969E-08  0.10566000000E+00  0.10566000000E+00 0.  1.
     999900   -1    0    0    0    0 -0.00000000000E+00 -0.00000000000E+00 -0.74505805969E-08  0.93827000000E+00  0.93827000000E+00 0. -1.
     999902    2    1    2    0    0 -0.69298205002E-03  0.71969883772E-02 -0.12051096620E-01  0.10298763245E+01  0.10297804319E+01 0.  0.
     999903    2    3    3    0    0 -0.10286739520E+00 -0.27460727009E-01  0.76686059134E-01  0.13885721652E+00  0.45439876675E-01 0.  0.
         14    1    1    2    0    0  0.69298205002E-03 -0.71969883772E-02  0.12051096620E-01  0.14053675518E-01  0.00000000000E+00 0.  1.
     999901    1    3    3    0    0  0.10217441315E+00  0.34657715387E-01 -0.88737155755E-01  0.89101910796E+00  0.88000000000E+00 0.  1.
        -11    1    4    4    0    0 -0.92264249932E-01 -0.27494888868E-01  0.46613580190E-01  0.10696610542E+00  0.51100000000E-03 0.  1.
         11    1    4    4    0    0 -0.10603145265E-01  0.34161858667E-04  0.30072478944E-01  0.31891111103E-01  0.51100000000E-03 0. -1.
</event>
<event>
 8    1  0.2183582E+004  0.1043930E+01  0.7957747E-01            NaN
         13   -1    0    0    0    0  0.00000000000E+00  0.00000000000E+00  0.74505805969E-08  0.10566000000E+00  0.10566000000E+00 0.  1.
     999900   -1    0    0    0    0 -0.00000000000E+00 -0.00000000000E+00 -0.74505805969E-08  0.93827000000E+00  0.93827000000E+00 0. -1.
     999902    2    1    2    0    0  0.43869275417E-02  0.13402565769E-01 -0.42836474426E-02  0.10291914947E+01  0.10290859582E+01 0.  0.
     999903    2    3    3    0    0  0.11521157365E+00 -0.39700126553E-01 -0.50765049575E-01  0.13943730459E+00  0.44898384165E-01 0.  0.
         14    1    1    2    0    0 -0.43869275417E-02 -0.13402565769E-01  0.42836474426E-02  0.14738505279E-01  0.00000000000E+00 0. -1.
     999901    1    3    3    0    0 -0.11082464611E+00  0.53102692323E-01  0.46481402133E-01  0.88975419013E+00  0.88000000000E+00 0. -1.
        -11    1    4    4    0    0  0.10561977008E+00 -0.34132222727E-01 -0.58914294304E-01  0.12566502956E+00  0.51100000000E-03 0. -1.
         11    1    4    4    0    0  0.95918035685E-02 -0.55679038258E-02  0.81492447283E-02  0.13772275025E-01  0.51100000000E-03 0.  1.
</event>
<event>
 8    1  0.2183582E+004  0.1043930E+01  0.7957747E-01            NaN
         13   -1    0    0    0    0  0.00000000000E+00  0.00000000000E+00  0.74505805969E-08  0.10566000000E+00  0.10566000000E+00 0.  1.
     999900   -1    0    0    0    0 -0.00000000000E+00 -0.00000000000E+00 -0.74505805969E-08  0.93827000000E+00  0.93827000000E+00 0.  1.
     999902    2    1    2    0    0  0.13211890970E-01 -0.11140880118E-02 -0.38216310717E-02  0.10301314450E+01  0.10300390254E+01 0.  0.
     999903    2    3    3    0    0  0.13186272033E+00  0.23546128299E-01 -0.33903108698E-02  0.14182613062E+00  0.46486126394E-01 0.  0.
         14    1    1    2    0    0 -0.13211890970E-01  0.11140880118E-02  0.38216310717E-02  0.13798554966E-01  0.00000000000E+00 0.  1.
     999901    1    3    3    0    0 -0.11865082937E+00 -0.24660216311E-01 -0.43132020193E-03  0.88830531441E+00  0.88000000000E+00 0.  1.
        -11    1    4    4    0    0  0.77274790643E-01  0.36286050940E-01  0.28734499322E-02  0.85420071396E-01  0.51100000000E-03 0. -1.
         11    1    4    4    0    0  0.54587929692E-01 -0.12739922641E-01 -0.62637608020E-02  0.56406059225E-01  0.51100000000E-03 0.  1.
</event>
<event>
 8    1  0.2183582E+004  0.1043930E+01  0.7957747E-01            NaN
         13   -1    0    0    0    0  0.00000000000E+00  0.00000000000E+00  0.74505805969E-08  0.10566000000E+00  0.10566000000E+00 0. -1.
     999900   -1    0    0    0    0 -0.00000000000E+00 -0.00000000000E+00 -0.74505805969E-08  0.93827000000E+00  0.93827000000E+00 0.  1.
     999902    2    1    2    0    0  0.13037701454E-01 -0.15376020007E-03  0.13861459010E-02  0.10308179177E+01  0.10307345210E+01 0.  0.
     999903    2    3    3    0    0  0.62007515312E-01  0.11537820119E+00  0.28822090367E-01  0.14149322570E+00  0.45083908018E-01 0.  0.
         14    1    1    2    0    0 -0.13037701454E-01  0.15376020007E-03 -0.13861459010E-02  0.13112082285E-01  0.00000000000E+00 0. -1.
     999901    1    3    3    0    0 -0.48969813858E-01 -0.11553196139E+00 -0.27435944466E-01  0.88932469201E+00  0.88000000000E+00 0. -1.
        -11    1    4    4    0    0  0.41125285320E-01  0.37938900216E-01  0.24746966573E-01  0.61182699498E-01  0.51100000000E-03 0. -1.
         11    1    4    4    0    0  0.20882229992E-01  0.77439300973E-01  0.40751237941E-02  0.80310526206E-01  0.51100000000E-03 0.  1.
</event>
<event>
 8    1  0.2183582E+004  0.1043930E+01  0.7957747E-01            NaN
         13   -1    0    0    0    0  0.00000000000E+00  0.00000000000E+00  0.74505805969E-08  0.10566000000E+00  0.10566000000E+00 0.  1.
     999900   -1    0    0    0    0 -0.00000000000E+00 -0.00000000000E+00 -0.74505805969E-08  0.93827000000E+00  0.93827000000E+00 0.  1.
     999902    2    1    2    0    0  0.11423013192E-01  0.85255359756E-02 -0.13699479925E-02  0.10296105464E+01  0.10295109667E+01 0.  0.
     999903    2    3    3    0    0  0.35848951527E-01  0.10540732075E+00  0.72933327587E-01  0.14084528861E+00  0.46068150131E-01 0.  0.
         14    1    1    2    0    0 -0.11423013192E-01 -0.85255359756E-02  0.13699479925E-02  0.14319453605E-01  0.00000000000E+00 0. -1.
     999901    1    3    3    0    0 -0.24425938335E-01 -0.96881784777E-01 -0.74303275579E-01  0.88876525779E+00  0.88000000000E+00 0.  1.
        -11    1    4    4    0    0  0.23968544880E-01  0.10413294352E+00  0.57578413105E-01  0.12138243632E+00  0.51100000000E-03 0.  1.
         11    1    4    4    0    0  0.11880406646E-01  0.12743772288E-02  0.15354914482E-01  0.19462852287E-01  0.51100000000E-03 0. -1.
</event>
<event>
 8    1  0.2183582E+004  0.1043930E+01  0.7957747E-01            NaN
         13   -1    0    0    0    0  0.00000000000E+00  0.00000000000E+00  0.74505805969E-08  0.10566000000E+00  0.10566000000E+00 0.  1.
     999900   -1    0    0    0    0 -0.00000000000E+00 -0.00000000000E+00 -0.74505805969E-08  0.93827000000E+00  0.93827000000E+00 0. -1.
     999902    2    1    2    0    0  0.15596676829E-03  0.10638534236E-01  0.99525496989E-02  0.10293609924E+01  0.10292578864E+01 0.  0.
     999903    2    3    3    0    0 -0.22082404570E-01 -0.23223129994E-03 -0.12873806156E+00  0.13815517761E+00  0.45007533624E-01 0.  0.
         14    1    1    2    0    0 -0.15596676829E-03 -0.10638534236E-01 -0.99525496989E-02  0.14569007579E-01  0.00000000000E+00 0. -1.
     999901    1    3    3    0    0  0.22238371338E-01  0.10870765536E-01  0.13869061126E+00  0.89120581481E+00  0.88000000000E+00 0.  1.
        -11    1    4    4    0    0  0.95708521057E-02 -0.12585570431E-01 -0.33809937555E-01  0.37327882227E-01  0.51100000000E-03 0. -1.
         11    1    4    4    0    0 -0.31653256676E-01  0.12353339131E-01 -0.94928124005E-01  0.10082729538E+00  0.51100000000E-03 0.  1.
</event>
<event>
 8    1  0.2183582E+004  0.1043930E+01  0.7957747E-01            NaN
         13   -1    0    0    0    0  0.00000000000E+00  0.00000000000E+00  0.74505805969E-08  0.10566000000E+00  0.10566000000E+00 0. -1.
     999900   -1    0    0    0    0 -0.00000000000E+00 -0.00000000000E+00 -0.74505805969E-08  0.93827000000E+00  0.93827000000E+00 0.  1.
     999902    2    1    2    0    0 -0.95502050282E-02  0.25178035977E-02 -0.10334126766E-01  0.10296352483E+01  0.10295360142E+01 0.  0.
     999903    2    3    3    0    0 -0.96193340717E-01  0.76293350017E-01  0.49077114184E-01  0.14032115316E+00  0.46985410842E-01 0.  0.
         14    1    1    2    0    0  0.95502050282E-02 -0.25178035977E-02  0.10334126766E-01  0.14294751731E-01  0.00000000000E+00 0. -1.
     999901    1    3    3    0    0  0.86643135688E-01 -0.73775546420E-01 -0.59411240949E-01  0.88931409511E+00  0.88000000000E+00 0.  1.
        -11    1    4    4    0    0 -0.12276865630E-01  0.18577420258E-01  0.28908192408E-01  0.36493652632E-01  0.51100000000E-03 0. -1.
         11    1    4    4    0    0 -0.83916475087E-01  0.57715929760E-01  0.20168921776E-01  0.10382750053E+00  0.51100000000E-03 0.  1.
</event>
<event>
 8    1  0.2183582E+004  0.1043930E+01  0.7957747E-01            NaN
         13   -1    0    0    0    0  0.00000000000E+00  0.00000000000E+00  0.74505805969E-08  0.10566000000E+00  0.10566000000E+00 0.  1.
     999900   -1    0    0    0    0 -0.00000000000E+00 -0.00000000000E+00 -0.74505805969E-08  0.93827000000E+00  0.93827000000E+00 0.  1.
     999902    2    1    2    0    0 -0.62762665278E-02 -0.29722481258E-02  0.12675536431E-01  0.10294767995E+01  0.10293753376E+01 0.  0.
     999903    2    3    3    0    0  0.64676025497E-02 -0.11227835953E+00 -0.69239562421E-01  0.13884763111E+00  0.42851928298E-01 0.  0.
         14    1    1    2    0    0  0.62762665278E-02  0.29722481258E-02 -0.12675536431E-01  0.14453200485E-01  0.00000000000E+00 0. -1.
     999901    1    3    3    0    0 -0.12743869078E-01  0.10930611141E+00  0.81915098852E-01  0.89062916840E+00  0.88000000000E+00 0. -1.
        -11    1    4    4    0    0 -0.10130451746E-01 -0.15977472145E-01  0.26795041139E-03  0.18927191739E-01  0.51100000000E-03 0. -1.
         11    1    4    4    0    0  0.16598054295E-01 -0.96300887389E-01 -0.69507512833E-01  0.11992043937E+00  0.51100000000E-03 0.  1.
</event>
<event>
 8    1  0.2183582E+004  0.1043930E+01  0.7957747E-01            NaN
         13   -1    0    0    0    0  0.00000000000E+00  0.00000000000E+00  0.74505805969E-08  0.10566000000E+00  0.10566000000E+00 0. -1.
     999900   -1    0    0    0    0 -0.00000000000E+00 -0.00000000000E+00 -0.74505805969E-08  0.93827000000E+00  0.93827000000E+00 0. -1.
     999902    2    1    2    0    0 -0.12624619242E-01 -0.49400147898E-02  0.27066699405E-02  0.10301057163E+01  0.10300129494E+01 0.  0.
     999903    2    3    3    0    0 -0.22833389493E-01  0.73998307499E-01 -0.10702347448E+00  0.13972591965E+00  0.45521372387E-01 0.  0.
         14    1    1    2    0    0  0.12624619242E-01  0.49400147898E-02 -0.27066699405E-02  0.13824283681E-01  0.00000000000E+00 0. -1.
     999901    1    3    3    0    0  0.10208770251E-01 -0.78938322289E-01  0.10973014442E+00  0.89037979667E+00  0.88000000000E+00 0.  1.
        -11    1    4    4    0    0 -0.30597094789E-01  0.27056164569E-01 -0.61812344470E-01  0.74089441222E-01  0.51100000000E-03 0.  1.
         11    1    4    4    0    0  0.77637052960E-02  0.46942142930E-01 -0.45211130013E-01  0.65636478431E-01  0.51100000000E-03 0. -1.
</event>
<event>
 8    1  0.2183582E+004  0.1043930E+01  0.7957747E-01            NaN
         13   -1    0    0    0    0  0.00000000000E+00  0.00000000000E+00  0.74505805969E-08  0.10566000000E+00  0.10566000000E+00 0. -1.
     999900   -1    0    0    0    0 -0.00000000000E+00 -0.00000000000E+00 -0.74505805969E-08  0.93827000000E+00  0.93827000000E+00 0.  1.
     999902    2    1    2    0    0  0.85236537013E-02 -0.48079282390E-02  0.10468949509E-01  0.10295993423E+01  0.10294996056E+01 0.  0.
     999903    2    3    3    0    0 -0.52586950189E-01 -0.11781695381E+00 -0.27839943585E-01  0.13944591897E+00  0.44987552991E-01 0.  0.
         14    1    1    2    0    0 -0.85236537013E-02  0.48079282390E-02 -0.10468949509E-01  0.14330657703E-01  0.00000000000E+00 0.  1.
     999901    1    3    3    0    0  0.61110603890E-01  0.11300902557E+00  0.38308893094E-01  0.89015342333E+00  0.88000000000E+00 0.  1.
        -11    1    4    4    0    0 -0.34155825061E-01 -0.98222655869E-01 -0.37953426589E-01  0.11070245807E+00  0.51100000000E-03 0. -1.
         11    1    4    4    0    0 -0.18431125128E-01 -0.19594297940E-01  0.10113483004E-01  0.28743460903E-01  0.51100000000E-03 0.  1.
</event>
<event>
 8    1  0.2183582E+004  0.1043930E+01  0.7957747E-01            NaN
         13   -1    0    0    0    0  0.00000000000E+00  0.00000000000E+00  0.74505805969E-08  0.10566000000E+00  0.10566000000E+00 0. -1.
     999900   -1    0    0    0    0 -0.00000000000E+00 -0.00000000000E+00 -0.74505805969E-08  0.93827000000E+00  0.93827000000E+00 0. -1.
     999902    2    1    2    0    0  0.12628288104E-01  0.54412921477E-03  0.53268442481E-02  0.10302134040E+01  0.10301220863E+01 0.  0.
     999903    2    3    3    0    0 -0.50920021426E-01 -0.50144491238E-01  0.11161817811E+00  0.14009792183E+00  0.45403650002E-01 0.  0.
         14    1    1    2    0    0 -0.12628288104E-01 -0.54412921477E-03 -0.53268442481E-02  0.13716596031E-01  0.00000000000E+00 0. -1.
     999901    1    3    3    0    0  0.63548309529E-01  0.50688620453E-01 -0.10629133386E+00  0.89011548214E+00  0.88000000000E+00 0. -1.
        -11    1    4    4    0    0 -0.19825694482E-02 -0.24368684923E-01  0.14774546962E-01  0.28571169830E-01  0.51100000000E-03 0.  1.
         11    1    4    4    0    0 -0.48937451977E-01 -0.25775806315E-01  0.96843631147E-01  0.11152675200E+00  0.51100000000E-03 0. -1.
</event>
<event>
 8    1  0.2183582E+004  0.1043930E+01  0.7957747E-01            NaN
         13   -1    0    0    0    0  0.00000000000E+00  0.00000000000E+00  0.74505805969E-08  0.10566000000E+00  0.10566000000E+00 0. -1.
     999900   -1    0    0    0    0 -0.00000000000E+00 -0.00000000000E+00 -0.74505805969E-08  0.93827000000E+00  0.93827000000E+00 0. -1.
     999902    2    1    2    0    0 -0.98618378498E-02  0.10019302523E-01  0.25093980542E-02  0.10296492666E+01  0.10295502284E+01 0.  0.
     999903    2    3    3    0    0 -0.12433715502E+00 -0.38665647092E-01  0.27335148962E-01  0.14055357966E+00  0.45313772780E-01 0.  0.
         14    1    1    2    0    0  0.98618378498E-02 -0.10019302523E-01 -0.25093980542E-02  0.14280733434E-01  0.00000000000E+00 0.  1.
     999901    1    3    3    0    0  0.11447531717E+00  0.48684949615E-01 -0.24825750908E-01  0.88909568690E+00  0.88000000000E+00 0. -1.
        -11    1    4    4    0    0 -0.69607130556E-02  0.65873523196E-02 -0.47778727918E-02  0.10720724147E-01  0.51100000000E-03 0. -1.
         11    1    4    4    0    0 -0.11737644197E+00 -0.45252999412E-01  0.32113021754E-01  0.12983285552E+00  0.51100000000E-03 0.  1.
</event>
<event>
 8    1  0.2183582E+004  0.1043930E+01  0.7957747E-01            NaN
         13   -1    0    0    0    0  0.00000000000E+00  0.00000000000E+00  0.74505805969E-08  0.10566000000E+00  0.10566000000E+00 0. -1.
     999900   -1    0    0    0    0 -0.00000000000E+00 -0.00000000000E+00 -0.74505805969E-08  0.93827000000E+00  0.93827000000E+00 0.  1.
     999902    2    1    2    0    0  0.15497286340E-01 -0.18918150741E-02 -0.30396495784E-02  0.10280245193E+01  0.10279014680E+01 0.  0.
     999903    2    3    3    0    0 -0.11973210033E+00  0.51930058389E-02 -0.50386035228E-01  0.13640864796E+00  0.41301616597E-01 0.  0.
         14    1    1    2    0    0 -0.15497286340E-01  0.18918150741E-02  0.30396495784E-02  0.15905480745E-01  0.00000000000E+00 0. -1.
     999901    1    3    3    0    0  0.13522938667E+00 -0.70848209129E-02  0.47346385650E-01  0.89161587129E+00  0.88000000000E+00 0. -1.
        -11    1    4    4    0    0 -0.94479791455E-01 -0.51095949900E-02 -0.53917417309E-01  0.10890311274E+00  0.51100000000E-03 0. -1.
         11    1    4    4    0    0 -0.25252308876E-01  0.10302600829E-01  0.35313820810E-02  0.27505535221E-01  0.51100000000E-03 0.  1.
</event>
<event>
 8    1  0.2183582E+004  0.1043930E+01  0.7957747E-01            NaN
         13   -1    0    0    0    0  0.00000000000E+00  0.00000000000E+00  0.74505805969E-08  0.10566000000E+00  0.10566000000E+00 0. -1.
     999900   -1    0    0    0    0 -0.00000000000E+00 -0.00000000000E+00 -0.74505805969E-08  0.93827000000E+00  0.93827000000E+00 0. -1.
     999902    2    1    2    0    0  0.82104336807E-02  0.62010044838E-02  0.95432447774E-02  0.10298965685E+01  0.10298009539E+01 0.  0.
     999903    2    3    3    0    0  0.25099988116E-01 -0.12817019488E+00  0.10174898170E-01  0.13953637442E+00  0.48054791384E-01 0.  0.
         14    1    1    2    0    0 -0.82104336807E-02 -0.62010044838E-02 -0.95432447774E-02  0.14033431466E-01  0.00000000000E+00 0. -1.
     999901    1    3    3    0    0 -0.16889554435E-01  0.13437119937E+00 -0.63165339290E-03  0.89036019411E+00  0.88000000000E+00 0. -1.
        -11    1    4    4    0    0  0.12318335898E-02 -0.10755241511E+00  0.61503581788E-02  0.10773637935E+00  0.51100000000E-03 0. -1.
         11    1    4    4    0    0  0.23868154526E-01 -0.20617779774E-01  0.40245399915E-02  0.31799995070E-01  0.51100000000E-03 0.  1.
</event>
<event>
 8    1  0.2183582E+004  0.1043930E+01  0.7957747E-01            NaN
         13   -1    0    0    0    0  0.00000000000E+00  0.00000000000E+00  0.74505805969E-08  0.10566000000E+00  0.10566000000E+00 0.  1.
     999900   -1    0    0    0    0 -0.00000000000E+00 -0.00000000000E+00 -0.74505805969E-08  0.93827000000E+00  0.93827000000E+00 0.  1.
     999902    2    1    2    0    0 -0.12610581457E-01  0.28658758501E-02  0.48248392436E-02  0.10301271350E+01  0.10300346572E+01 0.  0.
     999903    2    3    3    0    0 -0.40620004396E-01  0.10186758321E+00  0.76290136172E-01  0.14125529129E+00  0.45889902760E-01 0.  0.
         14    1    1    2    0    0  0.12610581457E-01 -0.28658758501E-02 -0.48248392436E-02  0.13802865022E-01  0.00000000000E+00 0. -1.
     999901    1    3    3    0    0  0.28009422938E-01 -0.99001707357E-01 -0.71465296928E-01  0.88887184369E+00  0.88000000000E+00 0. -1.
        -11    1    4    4    0    0 -0.10876245039E-01  0.82827251393E-01  0.52368860818E-01  0.98597185476E-01  0.51100000000E-03 0.  1.
         11    1    4    4    0    0 -0.29743759356E-01  0.19040331815E-01  0.23921275354E-01  0.42658105816E-01  0.51100000000E-03 0. -1.
</event>
<event>
 8    1  0.2183582E+004  0.1043930E+01  0.7957747E-01            NaN
         13   -1    0    0    0    0  0.00000000000E+00  0.00000000000E+00  0.74505805969E-08  0.10566000000E+00  0.10566000000E+00 0. -1.
     999900   -1    0    0    0    0 -0.00000000000E+00 -0.00000000000E+00 -0.74505805969E-08  0.93827000000E+00  0.93827000000E+00 0.  1.
     999902    2    1    2    0    0  0.10298705933E-01 -0.14317842805E-01 -0.49468046222E-02  0.10256123898E+01  0.10254487990E+01 0.  0.
     999903    2    3    3    0    0  0.39824264534E-01  0.64709761835E-01 -0.10308755847E+00  0.13614697258E+00  0.46212856542E-01 0.  0.
         14    1    1    2    0    0 -0.10298705933E-01  0.14317842805E-01  0.49468046222E-02  0.18317610173E-01  0.00000000000E+00 0.  1.
     999901    1    3    3    0    0 -0.29525558602E-01 -0.79027604640E-01  0.98140753849E-01  0.88946541724E+00  0.88000000000E+00 0. -1.
        -11    1    4    4    0    0  0.24842876808E-01  0.67851770577E-01 -0.74940150333E-01  0.10410244258E+00  0.51100000000E-03 0.  1.
         11    1    4    4    0    0  0.14981387726E-01 -0.31420087424E-02 -0.28147408138E-01  0.32044530002E-01  0.51100000000E-03 0. -1.
</event>
<event>
 8    1  0.2183582E+004  0.1043930E+01  0.7957747E-01            NaN
         13   -1    0    0    0    0  0.00000000000E+00  0.00000000000E+00  0.74505805969E-08  0.10566000000E+00  0.10566000000E+00 0. -1.
     999900   -1    0    0    0    0 -0.00000000000E+00 -0.00000000000E+00 -0.74505805969E-08  0.93827000000E+00  0.93827000000E+00 0. -1.
     999902    2    1    2    0    0 -0.24811254130E-02 -0.57068934087E-02  0.12116090923E-01  0.10303092704E+01  0.10302192332E+01 0.  0.
     999903    2    3    3    0    0 -0.39337227787E-01 -0.12155608737E+00 -0.37030211409E-01  0.14059315440E+00  0.45518113333E-01 0.  0.
         14    1    1    2    0    0  0.24811254130E-02  0.57068934087E-02 -0.12116090923E-01  0.13620729604E-01  0.00000000000E+00 0.  1.
     999901    1    3    3    0    0  0.36856102374E-01  0.11584919396E+00  0.49146302333E-01  0.88971611599E+00  0.88000000000E+00 0.  1.
        -11    1    4    4    0    0 -0.20064648599E-01 -0.50471656890E-01  0.70278849202E-02  0.54768883137E-01  0.51100000000E-03 0. -1.
         11    1    4    4    0    0 -0.19272579188E-01 -0.71084430480E-01 -0.44058096330E-01  0.85824271266E-01  0.51100000000E-03 0.  1.
</event>
<event>
 8    1  0.2183582E+004  0.1043930E+01  0.7957747E-01            NaN
         13   -1    0    0    0    0  0.00000000000E+00  0.00000000000E+00  0.74505805969E-08  0.10566000000E+00  0.10566000000E+00 0.  1.
     999900   -1    0    0    0    0 -0.00000000000E+00 -0.00000000000E+00 -0.74505805969E-08  0.93827000000E+00  0.93827000000E+00 0.  1.
     999902    2    1    2    0    0  0.11522646159E-01  0.41579679167E-02 -0.10020011016E-01  0.10281040500E+01  0.10279822357E+01 0.  0.
     999903    2    3    3    0    0  0.64764451168E-01  0.10080266291E+00 -0.56957973556E-01  0.13997226972E+00  0.44636471125E-01 0.  0.
         14    1    1    2    0    0 -0.11522646159E-01 -0.41579679167E-02  0.10020011016E-01  0.15825949970E-01  0.00000000000E+00 0.  1.
     999901    1    3    3    0    0 -0.53241805009E-01 -0.96644694990E-01  0.46937962540E-01  0.88813178031E+00  0.88000000000E+00 0. -1.
        -11    1    4    4    0    0  0.39885867490E-01  0.31047810724E-01 -0.79611532688E-02  0.51171183869E-01  0.51100000000E-03 0. -1.
         11    1    4    4    0    0  0.24878583678E-01  0.69754852183E-01 -0.48996820287E-01  0.88801085850E-01  0.51100000000E-03 0.  1.
</event>
<event>
 8    1  0.2183582E+004  0.1043930E+01  0.7957747E-01            NaN
         13   -1    0    0    0    0  0.00000000000E+00  0.00000000000E+00  0.74505805969E-08  0.10566000000E+00  0.10566000000E+00 0.  1.
     999900   -1    0    0    0    0 -0.00000000000E+00 -0.00000000000E+00 -0.74505805969E-08  0.93827000000E+00  0.93827000000E+00 0.  1.
     999902    2    1    2    0    0  0.12148772070E-01  0.51884932150E-02  0.88651371348E-03  0.10306899460E+01  0.10306049028E+01 0.  0.
     999903    2    3    3    0    0 -0.46584421748E-01 -0.94223899736E-01  0.79694901010E-01  0.13965505671E+00  0.45869445035E-01 0.  0.
         14    1    1    2    0    0 -0.12148772070E-01 -0.51884932150E-02 -0.88651371348E-03  0.13240054049E-01  0.00000000000E+00 0.  1.
     999901    1    3    3    0    0  0.58733193818E-01  0.99412392951E-01 -0.78808387297E-01  0.89103488924E+00  0.88000000000E+00 0.  1.
        -11    1    4    4    0    0 -0.12540578341E-02 -0.45940638777E-01  0.18705556717E-01  0.49621305156E-01  0.51100000000E-03 0.  1.
         11    1    4    4    0    0 -0.45330363914E-01 -0.48283260959E-01  0.60989344293E-01  0.90033751559E-01  0.51100000000E-03 0. -1.
</event>
<event>
 8    1  0.2183582E+004  0.1043930E+01  0.7957747E-01            NaN
         13   -1    0    0    0    0  0.00000000000E+00  0.00000000000E+00  0.74505805969E-08  0.10566000000E+00  0.10566000000E+00 0. -1.
     999900   -1    0    0    0    0 -0.00000000000E+00 -0.00000000000E+00 -0.74505805969E-08  0.93827000000E+00  0.93827000000E+00 0. -1.
     999902    2    1    2    0    0 -0.85388861326E-02 -0.11846700065E-01 -0.17683693885E-01  0.10209959662E+01  0.10207383568E+01 0.  0.
     999903    2    3    3    0    0  0.43852908253E-01 -0.66579610423E-01  0.92881935140E-01  0.13084690565E+00  0.46237828210E-01 0.  0.
         14    1    1    2    0    0  0.85388861326E-02  0.11846700065E-01  0.17683693885E-01  0.22934033841E-01  0.00000000000E+00 0. -1.
     999901    1    3    3    0    0 -0.52391794386E-01  0.54732910358E-01 -0.11056562903E+00  0.89014906050E+00  0.88000000000E+00 0. -1.
        -11    1    4    4    0    0  0.39240379306E-01 -0.21504581934E-01  0.32279141171E-01  0.55176611784E-01  0.51100000000E-03 0.  1.
         11    1    4    4    0    0  0.46125289475E-02 -0.45075028489E-01  0.60602793970E-01  0.75670293871E-01  0.51100000000E-03 0. -1.
</event>
<event>
 8    1  0.2183582E+004  0.1043930E+01  0.7957747E-01            NaN
         13   -1    0    0    0    0  0.00000000000E+00  0.00000000000E+00  0.74505805969E-08  0.10566000000E+00  0.10566000000E+00 0. -1.
     999900   -1    0    0    0    0 -0.00000000000E+00 -0.00000000000E+00 -0.74505805969E-08  0.93827000000E+00  0.93827000000E+00 0. -1.
     999902    2    1    2    0    0 -0.38412630291E-03  0.37207889876E-02  0.12721372595E-01  0.10306700926E+01  0.10305847925E+01 0.  0.
     999903    2    3    3    0    0  0.44104181197E-01 -0.59167842016E-01  0.11270683051E+00  0.14166431016E+00  0.43817060599E-01 0.  0.
         14    1    1    2    0    0  0.38412630291E-03 -0.37207889876E-02 -0.12721372595E-01  0.13259907406E-01  0.00000000000E+00 0.  1.
     999901    1    3    3    0    0 -0.44488307500E-01  0.62888631004E-01 -0.99985457918E-01  0.88900578244E+00  0.88000000000E+00 0. -1.
        -11    1    4    4    0    0  0.58642667505E-02 -0.31523215537E-01  0.73936129177E-01  0.80591035860E-01  0.51100000000E-03 0. -1.
         11    1    4    4    0    0  0.38239914447E-01 -0.27644626479E-01  0.38770701337E-01  0.61073274296E-01  0.51100000000E-03 0.  1.
</event>
<event>
 8    1  0.2183582E+004  0.1043930E+01  0.7957747E-01            NaN
         13   -1    0    0    0    0  0.00000000000E+00  0.00000000000E+00  0.74505805969E-08  0.10566000000E+00  0.10566000000E+00 0. -1.
     999900   -1    0    0    0    0 -0.00000000000E+00 -0.00000000000E+00 -0.74505805969E-08  0.93827000000E+00  0.93827000000E+00 0.  1.
     999902    2    1    2    0    0 -0.11616000044E-01 -0.43964554898E-02 -0.53844891189E-02  0.10303929028E+01  0.10303039751E+01 0.  0.
     999903    2    3    3    0    0  0.63826901396E-01 -0.83845702749E-01  0.80435575345E-01  0.13945581313E+00  0.43290493441E-01 0.  0.
         14    1    1    2    0    0  0.11616000044E-01  0.43964554898E-02  0.53844891189E-02  0.13537097214E-01  0.00000000000E+00 0. -1.
     999901    1    3    3    0    0 -0.75442901441E-01  0.79449247259E-01 -0.85820064463E-01  0.89093708966E+00  0.88000000000E+00 0.  1.
        -11    1    4    4    0    0  0.22863203534E-01 -0.39532658575E-01  0.60699525417E-01  0.75962166087E-01  0.51100000000E-03 0. -1.
         11    1    4    4    0    0  0.40963697863E-01 -0.44313044174E-01  0.19736049927E-01  0.63493647039E-01  0.51100000000E-03 0.  1.
</event>
<event>
 8    1  0.2183582E+004  0.1043930E+01  0.7957747E-01            NaN
         13   -1    0    0    0    0  0.00000000000E+00  0.00000000000E+00  0.74505805969E-08  0.10566000000E+00  0.10566000000E+00 0.  1.
     999900   -1    0    0    0    0 -0.00000000000E+00 -0.00000000000E+00 -0.74505805969E-08  0.93827000000E+00  0.93827000000E+00 0.  1.
     999902    2    1    2    0    0  0.72710390412E-02 -0.89369686912E-02  0.74937737647E-02  0.10301861263E+01  0.10300944427E+01 0.  0.
     999903    2    3    3    0    0 -0.88399700861E-01  0.94888172283E-01  0.19923661107E-01  0.13884609443E+00  0.45420406376E-01 0.  0.
         14    1    1    2    0    0 -0.72710390412E-02  0.89369686912E-02 -0.74937737647E-02  0.13743873667E-01  0.00000000000E+00 0. -1.
     999901    1    3    3    0    0  0.95670739902E-01 -0.10382514097E+00 -0.12429887342E-01  0.89134003190E+00  0.88000000000E+00 0.  1.
        -11    1    4    4    0    0 -0.43772946019E-02  0.31464906256E-01  0.38338169274E-03  0.31774347142E-01  0.51100000000E-03 0.  1.
         11    1    4    4    0    0 -0.84022406259E-01  0.63423266027E-01  0.19540279414E-01  0.10707174729E+00  0.51100000000E-03 0. -1.
</event>
<event>
 8    1  0.2183582E+004  0.1043930E+01  0.7957747E-01            NaN
         13   -1    0    0    0    0  0.00000000000E+00  0.00000000000E+00  0.74505805969E-08  0.10566000000E+00  0.10566000000E+00 0.  1.
     999900   -1    0    0    0    0 -0.00000000000E+00 -0.00000000000E+00 -0.74505805969E-08  0.93827000000E+00  0.93827000000E+00 0. -1.
     999902    2    1    2    0    0 -0.14012477723E-01  0.58531204259E-02  0.56011288029E-02  0.10277441669E+01  0.10276167045E+01 0.  0.
     999903    2    3    3    0    0  0.10361096819E+00 -0.22179735586E-01  0.74129520183E-01  0.13683605910E+00  0.44740897491E-01 0.  0.
         14    1    1    2    0    0  0.14012477723E-01 -0.58531204259E-02 -0.56011288029E-02  0.16185833143E-01  0.00000000000E+00 0. -1.
     999901    1    3    3    0    0 -0.11762344591E+00  0.28032856012E-01 -0.68528391380E-01  0.89090810776E+00  0.88000000000E+00 0. -1.
        -11    1    4    4    0    0  0.10541643228E+00 -0.22286880157E-01  0.61492692459E-01  0.12406023363E+00  0.51100000000E-03 0.  1.
         11    1    4    4    0    0 -0.18054640912E-02  0.10714457092E-03  0.12636827724E-01  0.12775825471E-01  0.51100000000E-03 0. -1.
</event>
<event>
 8    1  0.2183582E+004  0.1043930E+01  0.7957747E-01            NaN
         13   -1    0    0    0    0  0.00000000000E+00  0.00000000000E+00  0.74505805969E-08  0.10566000000E+00  0.10566000000E+00 0.  1.
     999900   -1    0    0    0    0 -0.00000000000E+00 -0.00000000000E+00 -0.74505805969E-08  0.93827000000E+00  0.93827000000E+00 0.  1.
     999902    2    1    2    0    0  0.74424335608E-02 -0.11078869323E-01 -0.32512038484E-02  0.10301931339E+01  0.10301015444E+01 0.  0.
     999903    2    3    3    0    0  0.43290782420E-01  0.10095450839E+00  0.72656205092E-01  0.13912718993E+00  0.44850264562E-01 0.  0.
         14    1    1    2    0    0 -0.74424335608E-02  0.11078869323E-01  0.32512038484E-02  0.13736866063E-01  0.00000000000E+00 0.  1.
     999901    1    3    3    0    0 -0.35848348859E-01 -0.11203337772E+00 -0.75907408940E-01  0.89106594401E+00  0.88000000000E+00 0.  1.
        -11    1    4    4    0    0  0.10596929312E-01  0.77267266749E-01  0.43288032909E-01  0.89200001882E-01  0.51100000000E-03 0. -1.
         11    1    4    4    0    0  0.32693853108E-01  0.23687241646E-01  0.29368172183E-01  0.49927188046E-01  0.51100000000E-03 0.  1.
</event>
<event>
 8    1  0.2183582E+004  0.1043930E+01  0.7957747E-01            NaN
         13   -1    0    0    0    0  0.00000000000E+00  0.00000000000E+00  0.74505805969E-08  0.10566000000E+00  0.10566000000E+00 0.  1.
     999900   -1    0    0    0    0 -0.00000000000E+00 -0.00000000000E+00 -0.74505805969E-08  0.93827000000E+00  0.93827000000E+00 0.  1.
     999902    2    1    2    0    0  0.21935480238E-02  0.10853305516E-01 -0.83490570959E-02  0.10300623164E+01  0.10299689622E+01 0.  0.
     999903    2    3    3    0    0 -0.12546717788E+00  0.25784509452E-01  0.33966087073E-01  0.13971925152E+00  0.44282282251E-01 0.  0.
         14    1    1    2    0    0 -0.21935480238E-02 -0.10853305516E-01  0.83490570959E-02  0.13867683582E-01  0.00000000000E+00 0.  1.
     999901    1    3    3    0    0  0.12766072590E+00 -0.14931203936E-01 -0.42315144169E-01  0.89034306490E+00  0.88000000000E+00 0.  1.
        -11    1    4    4    0    0 -0.10884192864E+00  0.52241006904E-02  0.25049384056E-01  0.11181050675E+00  0.51100000000E-03 0.  1.
         11    1    4    4    0    0 -0.16625249242E-01  0.20560408762E-01  0.89167030174E-02  0.27908744767E-01  0.51100000000E-03 0. -1.
</event>
<event>
 8    1  0.2183582E+004  0.1043930E+01  0.7957747E-01            NaN
         13   -1    0    0    0    0  0.00000000000E+00  0.00000000000E+00  0.74505805969E-08  0.10566000000E+00  0.10566000000E+00 0. -1.
     999900   -1    0    0    0    0 -0.00000000000E+00 -0.00000000000E+00 -0.74505805969E-08  0.93827000000E+00  0.93827000000E+00 0. -1.
     999902    2    1    2    0    0  0.16117546371E-01  0.36375107785E-02 -0.37556167364E-03  0.10274028154E+01  0.10272698755E+01 0.  0.
     999903    2    3    3    0    0  0.12114316348E+00 -0.65645213253E-02  0.52763658511E-01  0.13950741700E+00  0.44266880825E-01 0.  0.
         14    1    1    2    0    0 -0.16117546371E-01 -0.36375107785E-02  0.37556167364E-03  0.16527184644E-01  0.00000000000E+00 0.  1.
     999901    1    3    3    0    0 -0.10502561711E+00  0.10202032104E-01 -0.53139220185E-01  0.88789539836E+00  0.88000000000E+00 0. -1.
        -11    1    4    4    0    0  0.10614622013E+00 -0.17367901871E-01  0.55133405644E-01  0.12086611437E+00  0.51100000000E-03 0.  1.
         11    1    4    4    0    0  0.14996943357E-01  0.10803380546E-01 -0.23697471334E-02  0.18641302630E-01  0.51100000000E-03 0. -1.
</event>
<event>
 8    1  0.2183582E+004  0.1043930E+01  0.7957747E-01            NaN
         13   -1    0    0    0    0  0.00000000000E+00  0.00000000000E+00  0.74505805969E-08  0.10566000000E+00  0.10566000000E+00 0. -1.
     999900   -1    0    0    0    0 -0.00000000000E+00 -0.00000000000E+00 -0.74505805969E-08  0.93827000000E+00  0.93827000000E+00 0. -1.
     999902    2    1    2    0    0 -0.20958509129E-02 -0.12745959593E-01 -0.13112490112E-02  0.10309464931E+01  0.10308647342E+01 0.  0.
     999903    2    3    3    0    0 -0.17913037593E-01 -0.12838964815E+00  0.38470246637E-01  0.14234860122E+00  0.44479048157E-01 0.  0.
         14    1    1    2    0    0  0.20958509129E-02  0.12745959593E-01  0.13112490112E-02  0.12983506882E-01  0.00000000000E+00 0. -1.
     999901    1    3    3    0    0  0.15817186681E-01  0.11564368855E+00 -0.39781495648E-01  0.88859789190E+00  0.88000000000E+00 0. -1.
        -11    1    4    4    0    0 -0.86934297142E-02 -0.52316121823E-01  0.38804373593E-01  0.65716001504E-01  0.51100000000E-03 0.  1.
         11    1    4    4    0    0 -0.92196078792E-02 -0.76073526323E-01 -0.33412695687E-03  0.76632599711E-01  0.51100000000E-03 0. -1.
</event>
<event>
 8    1  0.2183582E+004  0.1043930E+01  0.7957747E-01            NaN
         13   -1    0    0    0    0  0.00000000000E+00  0.00000000000E+00  0.74505805969E-08  0.10566000000E+00  0.10566000000E+00 0.  1.
     999900   -1    0    0    0    0 -0.00000000000E+00 -0.00000000000E+00 -0.74505805969E-08  0.93827000000E+00  0.93827000000E+00 0.  1.
     999902    2    1    2    0    0 -0.91309868913E-02  0.98836734396E-03 -0.10878291873E-01  0.10296931104E+01  0.10295946836E+01 0.  0.
     999903    2    3    3    0    0 -0.67993756616E-01  0.84926746245E-01 -0.77753118866E-01  0.14122098388E+00  0.45410523307E-01 0.  0.
         14    1    1    2    0    0  0.91309868913E-02 -0.98836734396E-03  0.10878291873E-01  0.14236889607E-01  0.00000000000E+00 0.  1.
     999901    1    3    3    0    0  0.58862769725E-01 -0.83938378901E-01  0.66874826993E-01  0.88847212652E+00  0.88000000000E+00 0.  1.
        -11    1    4    4    0    0 -0.55250323312E-01  0.73824198996E-01 -0.82423027802E-01  0.12367872580E+00  0.51100000000E-03 0.  1.
         11    1    4    4    0    0 -0.12743433304E-01  0.11102547249E-01  0.46699089361E-02  0.17542258072E-01  0.51100000000E-03 0. -1.
</event>
<event>
 8    1  0.2183582E+004  0.1043930E+01  0.7957747E-01            NaN
         13   -1    0    0    0    0  0.00000000000E+00  0.00000000000E+00  0.74505805969E-08  0.10566000000E+00  0.10566000000E+00 0. -1.
     999900   -1    0    0    0    0 -0.00000000000E+00 -0.00000000000E+00 -0.74505805969E-08  0.93827000000E+00  0.93827000000E+00 0. -1.
     999902    2    1    2    0    0 -0.55397935127E-02  0.68576528553E-02 -0.11327439871E-01  0.10295763381E+01  0.10294762787E+01 0.  0.
     999903    2    3    3    0    0  0.10386919753E+00 -0.79716693439E-01 -0.12088237535E-02  0.13852761267E+00  0.45220314132E-01 0.  0.
         14    1    1    2    0    0  0.55397935127E-02 -0.68576528553E-02  0.11327439871E-01  0.14353661863E-01  0.00000000000E+00 0. -1.
     999901    1    3    3    0    0 -0.10940899104E+00  0.86574346294E-01 -0.10118616117E-01  0.89104872546E+00  0.88000000000E+00 0. -1.
        -11    1    4    4    0    0  0.29243282118E-01 -0.39555989728E-01 -0.17526249159E-01  0.52223331979E-01  0.51100000000E-03 0.  1.
         11    1    4    4    0    0  0.74625915411E-01 -0.40160703711E-01  0.16317425405E-01  0.86304280696E-01  0.51100000000E-03 0. -1.
</event>
<event>
 8    1  0.2183582E+004  0.1043930E+01  0.7957747E-01            NaN
         13   -1    0    0    0    0  0.00000000000E+00  0.00000000000E+00  0.74505805969E-08  0.10566000000E+00  0.10566000000E+00 0. -1.
     999900   -1    0    0    0    0 -0.00000000000E+00 -0.00000000000E+00 -0.74505805969E-08  0.93827000000E+00  0.93827000000E+00 0. -1.
     999902    2    1    2    0    0 -0.65780651531E-02 -0.25893636945E-02 -0.63393292448E-04  0.10368603632E+01  0.10368362614E+01 0.  0.
     999903    2    3    3    0    0  0.46074280095E-01 -0.41683086646E-01 -0.12408502053E+00  0.14574760231E+00  0.44552803073E-01 0.  0.
         14    1    1    2    0    0  0.65780651531E-02  0.25893636945E-02  0.63393292448E-04  0.70696367806E-02  0.00000000000E+00 0.  1.
     999901    1    3    3    0    0 -0.52652345248E-01  0.39093722951E-01  0.12402162723E+00  0.89111276091E+00  0.88000000000E+00 0.  1.
        -11    1    4    4    0    0  0.49760594740E-02 -0.20317159244E-01 -0.76615327054E-01  0.79421140688E-01  0.51100000000E-03 0. -1.
         11    1    4    4    0    0  0.41098220621E-01 -0.21365927402E-01 -0.47469693472E-01  0.66326461622E-01  0.51100000000E-03 0.  1.
</event>
<event>
 8    1  0.2183582E+004  0.1043930E+01  0.7957747E-01            NaN
         13   -1    0    0    0    0  0.00000000000E+00  0.00000000000E+00  0.74505805969E-08  0.10566000000E+00  0.10566000000E+00 0. -1.
     999900   -1    0    0    0    0 -0.00000000000E+00 -0.00000000000E+00 -0.74505805969E-08  0.93827000000E+00  0.93827000000E+00 0.  1.
     999902    2    1    2    0    0  0.11628715596E-01  0.34608909912E-02 -0.50820656078E-02  0.10307758302E+01  0.10306918938E+01 0.  0.
     999903    2    3    3    0    0 -0.67924261126E-01 -0.44942849431E-02 -0.11431835948E+00  0.14042504042E+00  0.44906578754E-01 0.  0.
         14    1    1    2    0    0 -0.11628715596E-01 -0.34608909912E-02  0.50820656078E-02  0.13154169822E-01  0.00000000000E+00 0. -1.
     999901    1    3    3    0    0  0.79552976723E-01  0.79551759343E-02  0.10923629387E+00  0.89035078976E+00  0.88000000000E+00 0. -1.
        -11    1    4    4    0    0 -0.18405500553E-01 -0.21733644494E-01 -0.48825385497E-01  0.56526924058E-01  0.51100000000E-03 0. -1.
         11    1    4    4    0    0 -0.49518760573E-01  0.17239359551E-01 -0.65492973982E-01  0.83898116358E-01  0.51100000000E-03 0.  1.
</event>
<event>
 8    1  0.2183582E+004  0.1043930E+01  0.7957747E-01            NaN
         13   -1    0    0    0    0  0.00000000000E+00  0.00000000000E+00  0.74505805969E-08  0.10566000000E+00  0.10566000000E+00 0. -1.
     999900   -1    0    0    0    0 -0.00000000000E+00 -0.00000000000E+00 -0.74505805969E-08  0.93827000000E+00  0.93827000000E+00 0. -1.
     999902    2    1    2    0    0 -0.97778701466E-02 -0.74409114959E-02  0.43762410445E-02  0.10308867874E+01  0.10308042700E+01 0.  0.
     999903    2    3    3    0    0 -0.10607234467E+00 -0.89672650708E-02 -0.86676930528E-01  0.14096227623E+00  0.32026846366E-01 0.  0.
         14    1    1    2    0    0  0.97778701466E-02  0.74409114959E-02 -0.43762410445E-02  0.13043212571E-01  0.00000000000E+00 0.  1.
     999901    1    3    3    0    0  0.96294474521E-01  0.15263535749E-02  0.91053171573E-01  0.88992451120E+00  0.88000000000E+00 0.  1.
        -11    1    4    4    0    0 -0.33415739877E-01 -0.87520515557E-02 -0.46521109288E-01  0.57945533118E-01  0.51100000000E-03 0.  1.
         11    1    4    4    0    0 -0.72656604790E-01 -0.21521351505E-03 -0.40155821241E-01  0.83016743112E-01  0.51100000000E-03 0. -1.
</event>
<event>
 8    1  0.2183582E+004  0.1043930E+01  0.7957747E-01            NaN
         13   -1    0    0    0    0  0.00000000000E+00  0.00000000000E+00  0.74505805969E-08  0.10566000000E+00  0.10566000000E+00 0. -1.
     999900   -1    0    0    0    0 -0.00000000000E+00 -0.00000000000E+00 -0.74505805969E-08  0.93827000000E+00  0.93827000000E+00 0. -1.
     999902    2    1    2    0    0 -0.12659754668E-01  0.32517663518E-02 -0.25327781955E-03  0.10308568396E+01  0.10307739404E+01 0.  0.
     999903    2    3    3    0    0 -0.21682438952E-01 -0.11445007439E+00  0.64477966392E-01  0.14061795813E+00  0.45244384292E-01 0.  0.
         14    1    1    2    0    0  0.12659754668E-01 -0.32517663518E-02  0.25327781955E-03  0.13073160380E-01  0.00000000000E+00 0. -1.
     999901    1    3    3    0    0  0.90226842840E-02  0.11770184075E+00 -0.64731244212E-01  0.89023888149E+00  0.88000000000E+00 0. -1.
        -11    1    4    4    0    0 -0.19123209537E-01 -0.78571152459E-01  0.19795806520E-01  0.83254178385E-01  0.51100000000E-03 0. -1.
         11    1    4    4    0    0 -0.25592294146E-02 -0.35878921935E-01  0.44682159872E-01  0.57363779742E-01  0.51100000000E-03 0.  1.
</event>
<event>
 7    1  0.2183582E+004  0.1043930E+01  0.7957747E-01            NaN
         13   -1    0    0    0    0  0.00000000000E+00  0.00000000000E+00  0.74505805969E-08  0.10566000000E+00  0.10566000000E+00 0. -1.
     999900   -1    0    0    0    0 -0.00000000000E+00 -0.00000000000E+00 -0.74505805969E-08  0.93827000000E+00  0.93827000000E+00 0.  1.
     999903    2    1    2    0    0 -0.64908301164E-01  0.12638593014E-01  0.96914823185E-01  0.12538930598E+00  0.44239953741E-01 0.  0.
         14    1    1    2    0    0 -0.57363741239E-02 -0.29019607719E-01 -0.10285380959E-01  0.31318248382E-01  0.00000000000E+00 0. -1.
     999901    1    1    2    0    0  0.70644675288E-01  0.16381014705E-01 -0.86629442226E-01  0.88722244564E+00  0.88000000000E+00 0.  1.
        -11    1    3    3    0    0 -0.46161061809E-01 -0.94925936475E-02  0.41306354480E-01  0.62669202986E-01  0.51100000000E-03 0. -1.
         11    1    3    3    0    0 -0.18747239355E-01  0.22131186661E-01  0.55608468706E-01  0.62720102991E-01  0.51100000000E-03 0.  1.
</event>
<event>
 7    1  0.2183582E+004  0.1043930E+01  0.7957747E-01            NaN
         13   -1    0    0    0    0  0.00000000000E+00  0.00000000000E+00  0.74505805969E-08  0.10566000000E+00  0.10566000000E+00 0. -1.
     999900   -1    0    0    0    0 -0.00000000000E+00 -0.00000000000E+00 -0.74505805969E-08  0.93827000000E+00  0.93827000000E+00 0.  1.
     999903    2    1    2    0    0 -0.66793679596E-01 -0.32644155769E-01  0.79216313425E-01  0.11754613147E+00  0.44886881948E-01 0.  0.
         14    1    1    2    0    0  0.47154100494E-02 -0.35018024167E-01 -0.17568975088E-01  0.39460942641E-01  0.00000000000E+00 0. -1.
     999901    1    1    2    0    0  0.62078269546E-01  0.67662179936E-01 -0.61647338337E-01  0.88692292589E+00  0.88000000000E+00 0.  1.
        -11    1    3    3    0    0 -0.38624088258E-01 -0.35142450531E-01  0.28541865401E-01  0.59512277933E-01  0.51100000000E-03 0.  1.
         11    1    3    3    0    0 -0.28169591337E-01  0.24982947625E-02  0.50674448024E-01  0.58033853537E-01  0.51100000000E-03 0. -1.
</event>
<event>
 8    1  0.2183582E+004  0.1043930E+01  0.7957747E-01            NaN
         13   -1    0    0    0    0  0.00000000000E+00  0.00000000000E+00  0.74505805969E-08  0.10566000000E+00  0.10566000000E+00 0.  1.
     999900   -1    0    0    0    0 -0.00000000000E+00 -0.00000000000E+00 -0.74505805969E-08  0.93827000000E+00  0.93827000000E+00 0. -1.
     999902    2    1    2    0    0  0.10410640012E-01 -0.24995530979E-02 -0.79972560051E-02  0.10305664191E+01  0.10304797712E+01 0.  0.
     999903    2    3    3    0    0  0.65069933965E-01 -0.33210623241E-01 -0.11237604742E+00  0.14218263922E+00  0.47439277591E-01 0.  0.
         14    1    1    2    0    0 -0.10410640012E-01  0.24995530979E-02  0.79972560051E-02  0.13363580910E-01  0.00000000000E+00 0.  1.
     999901    1    3    3    0    0 -0.54659293954E-01  0.30711070143E-01  0.10437879142E+00  0.88838377987E+00  0.88000000000E+00 0.  1.
        -11    1    4    4    0    0  0.18374591884E-01 -0.35241196102E-01 -0.43287875304E-01  0.58767923215E-01  0.51100000000E-03 0. -1.
         11    1    4    4    0    0  0.46695342082E-01  0.20305728613E-02 -0.69088172116E-01  0.83414716002E-01  0.51100000000E-03 0.  1.
</event>
<event>
 8    1  0.2183582E+004  0.1043930E+01  0.7957747E-01            NaN
         13   -1    0    0    0    0  0.00000000000E+00  0.00000000000E+00  0.74505805969E-08  0.10566000000E+00  0.10566000000E+00 0. -1.
     999900   -1    0    0    0    0 -0.00000000000E+00 -0.00000000000E+00 -0.74505805969E-08  0.93827000000E+00  0.93827000000E+00 0. -1.
     999902    2    1    2    0    0 -0.55806971780E-02 -0.10563844544E-01  0.59893178951E-02  0.10305654603E+01  0.10304787999E+01 0.  0.
     999903    2    3    3    0    0  0.70250407938E-01  0.96284907088E-01 -0.54752289154E-01  0.13879387797E+00  0.45387489965E-01 0.  0.
         14    1    1    2    0    0  0.55806971780E-02  0.10563844544E-01 -0.59893178951E-02  0.13364539700E-01  0.00000000000E+00 0.  1.
     999901    1    3    3    0    0 -0.75831105116E-01 -0.10684875163E+00  0.60741607049E-01  0.89177158233E+00  0.88000000000E+00 0.  1.
        -11    1    4    4    0    0  0.39832705308E-01  0.29893094178E-01 -0.42145382157E-02  0.49982646439E-01  0.51100000000E-03 0. -1.
         11    1    4    4    0    0  0.30417702630E-01  0.66391812910E-01 -0.50537750938E-01  0.88811231529E-01  0.51100000000E-03 0.  1.
</event>
<event>
 8    1  0.2183582E+004  0.1043930E+01  0.7957747E-01            NaN
         13   -1    0    0    0    0  0.00000000000E+00  0.00000000000E+00  0.74505805969E-08  0.10566000000E+00  0.10566000000E+00 0. -1.
     999900   -1    0    0    0    0 -0.00000000000E+00 -0.00000000000E+00 -0.74505805969E-08  0.93827000000E+00  0.93827000000E+00 0. -1.
     999902    2    1    2    0    0 -0.69644148431E-02  0.74568533825E-02  0.71288658670E-02  0.10314829736E+01  0.10314078710E+01 0.  0.
     999903    2    3    3    0    0 -0.63738606233E-01  0.23055534601E-01  0.11848364647E+00  0.14251361825E+00  0.40958385055E-01 0.  0.
         14    1    1    2    0    0  0.69644148431E-02 -0.74568533825E-02 -0.71288658670E-02  0.12447026353E-01  0.00000000000E+00 0.  1.
     999901    1    3    3    0    0  0.56774191390E-01 -0.15598681218E-01 -0.11135478061E+00  0.88896935539E+00  0.88000000000E+00 0. -1.
        -11    1    4    4    0    0 -0.62899174945E-02  0.19540137588E-01  0.21458737891E-01  0.29700481341E-01  0.51100000000E-03 0.  1.
         11    1    4    4    0    0 -0.57448688739E-01  0.35153970130E-02  0.97024908582E-01  0.11281313691E+00  0.51100000000E-03 0. -1.
</event>
<event>
 8    1  0.2183582E+004  0.1043930E+01  0.7957747E-01            NaN
         13   -1    0    0    0    0  0.00000000000E+00  0.00000000000E+00  0.74505805969E-08  0.10566000000E+00  0.10566000000E+00 0. -1.
     999900   -1    0    0    0    0 -0.00000000000E+00 -0.00000000000E+00 -0.74505805969E-08  0.93827000000E+00  0.93827000000E+00 0.  1.
     999902    2    1    2    0    0  0.94539036767E-02  0.94992129938E-02  0.33578930078E-02  0.10301138215E+01  0.10300211641E+01 0.  0.
     999903    2    3    3    0    0  0.46841645840E-01  0.75994541255E-01 -0.98924691575E-01  0.14091125796E+00  0.45832062253E-01 0.  0.
         14    1    1    2    0    0 -0.94539036767E-02 -0.94992129938E-02 -0.33578930078E-02  0.13816178476E-01  0.00000000000E+00 0.  1.
     999901    1    3    3    0    0 -0.37387742163E-01 -0.66495328261E-01  0.10228258458E+00  0.88920256357E+00  0.88000000000E+00 0. -1.
        -11    1    4    4    0    0  0.17627913312E-02  0.46360862639E-01 -0.46228519545E-01  0.65496367520E-01  0.51100000000E-03 0. -1.
         11    1    4    4    0    0  0.45078854509E-01  0.29633678616E-01 -0.52696172030E-01  0.75414890438E-01  0.51100000000E-03 0.  1.
</event>
<event>
 8    1  0.2183582E+004  0.1043930E+01  0.7957747E-01            NaN
         13   -1    0    0    0    0  0.00000000000E+00  0.00000000000E+00  0.74505805969E-08  0.10566000000E+00  0.10566000000E+00 0.  1.
     999900   -1    0    0    0    0 -0.00000000000E+00 -0.00000000000E+00 -0.74505805969E-08  0.93827000000E+00  0.93827000000E+00 0.  1.
     999902    2    1    2    0    0  0.10380380638E-01 -0.31655564556E-03 -0.93435602537E-02  0.10299602245E+01  0.10298654812E+01 0.  0.
     999903    2    3    3    0    0 -0.73524379908E-01 -0.49009169396E-01  0.96185008271E-01  0.13836207608E+00  0.45659338081E-01 0.  0.
         14    1    1    2    0    0 -0.10380380638E-01  0.31655564556E-03  0.93435602537E-02  0.13969775513E-01  0.00000000000E+00 0. -1.
     999901    1    3    3    0    0  0.83904760546E-01  0.48692613751E-01 -0.10552856853E+00  0.89159814841E+00  0.88000000000E+00 0.  1.
        -11    1    4    4    0    0 -0.56819475742E-01 -0.17490310140E-01  0.78699384060E-01  0.98631728895E-01  0.51100000000E-03 0. -1.
         11    1    4    4    0    0 -0.16704904166E-01 -0.31518859256E-01  0.17485624211E-01  0.39730347180E-01  0.51100000000E-03 0.  1.
</event>
<event>
 8    1  0.2183582E+004  0.1043930E+01  0.7957747E-01            NaN
         13   -1    0    0    0    0  0.00000000000E+00  0.00000000000E+00  0.74505805969E-08  0.10566000000E+00  0.10566000000E+00 0.  1.
     999900   -1    0    0    0    0 -0.00000000000E+00 -0.00000000000E+00 -0.74505805969E-08  0.93827000000E+00  0.93827000000E+00 0.  1.
     999902    2    1    2    0    0 -0.92059226987E-02  0.77474243056E-02 -0.75637531891E-02  0.10297179643E+01  0.10296198833E+01 0.  0.
     999903    2    3    3    0    0  0.38651461629E-01 -0.11188562650E-01 -0.12755678798E+00  0.14008476505E+00  0.41639978601E-01 0.  0.
         14    1    1    2    0    0  0.92059226987E-02 -0.77474243056E-02  0.75637531891E-02  0.14212035688E-01  0.00000000000E+00 0.  1.
     999901    1    3    3    0    0 -0.47857384328E-01  0.18935986955E-01  0.11999303479E+00  0.88963319927E+00  0.88000000000E+00 0. -1.
        -11    1    4    4    0    0  0.30726694041E-01 -0.26031397960E-01 -0.78650808796E-01  0.88362742441E-01  0.51100000000E-03 0.  1.
         11    1    4    4    0    0  0.79247675886E-02  0.14842835310E-01 -0.48905979184E-01  0.51722022605E-01  0.51100000000E-03 0. -1.
</event>
<event>
 8    1  0.2183582E+004  0.1043930E+01  0.7957747E-01            NaN
         13   -1    0    0    0    0  0.00000000000E+00  0.00000000000E+00  0.74505805969E-08  0.10566000000E+00  0.10566000000E+00 0.  1.
     999900   -1    0    0    0    0 -0.00000000000E+00 -0.00000000000E+00 -0.74505805969E-08  0.93827000000E+00  0.93827000000E+00 0.  1.
     999902    2    1    2    0    0  0.20669276513E-02  0.70930089483E-02  0.11473514067E-01  0.10302835905E+01  0.10301932112E+01 0.  0.
     999903    2    3    3    0    0  0.42619639701E-01  0.10511888439E-01 -0.12413930048E+00  0.13896600031E+00  0.44430280576E-01 0.  0.
         14    1    1    2    0    0 -0.20669276513E-02 -0.70930089483E-02 -0.11473514067E-01  0.13646409451E-01  0.00000000000E+00 0. -1.
     999901    1    3    3    0    0 -0.40552712050E-01 -0.34188794908E-02  0.13561281455E+00  0.89131759023E+00  0.88000000000E+00 0. -1.
        -11    1    4    4    0    0  0.22424754825E-01 -0.10951379602E-01 -0.24183157103E-01  0.34754691088E-01  0.51100000000E-03 0. -1.
         11    1    4    4    0    0  0.20194884876E-01  0.21463268041E-01 -0.99956143380E-01  0.10421130923E+00  0.51100000000E-03 0.  1.
</event>
<event>
 8    1  0.2183582E+004  0.1043930E+01  0.7957747E-01            NaN
         13   -1    0    0    0    0  0.00000000000E+00  0.00000000000E+00  0.74505805969E-08  0.10566000000E+00  0.10566000000E+00 0.  1.
     999900   -1    0    0    0    0 -0.00000000000E+00 -0.00000000000E+00 -0.74505805969E-08  0.93827000000E+00  0.93827000000E+00 0.  1.
     999902    2    1    2    0    0 -0.11214178341E-01 -0.82793946624E-04 -0.81551953880E-02  0.10300637870E+01  0.10299704527E+01 0.  0.
     999903    2    3    3    0    0 -0.12415541680E+00 -0.40559335143E-01 -0.34086850147E-01  0.14154449941E+00  0.42582916442E-01 0.  0.
         14    1    1    2    0    0  0.11214178341E-01  0.82793946624E-04  0.81551953880E-02  0.13866212984E-01  0.00000000000E+00 0. -1.
     999901    1    3    3    0    0  0.11294123846E+00  0.40476541196E-01  0.25931654759E-01  0.88851928761E+00  0.88000000000E+00 0. -1.
        -11    1    4    4    0    0 -0.27062938854E-01 -0.77473323623E-02 -0.26681604685E-01  0.38789083099E-01  0.51100000000E-03 0. -1.
         11    1    4    4    0    0 -0.97092477943E-01 -0.32812002780E-01 -0.74052454627E-02  0.10275541631E+00  0.51100000000E-03 0.  1.
</event>
<event>
 8    1  0.2183582E+004  0.1043930E+01  0.7957747E-01            NaN
         13   -1    0    0    0    0  0.00000000000E+00  0.00000000000E+00  0.74505805969E-08  0.10566000000E+00  0.10566000000E+00 0.  1.
     999900   -1    0    0    0    0 -0.00000000000E+00 -0.00000000000E+00 -0.74505805969E-08  0.93827000000E+00  0.93827000000E+00 0. -1.
     999902    2    1    2    0    0  0.10669746090E-01 -0.78808454359E-02  0.43101287878E-02  0.10299826556E+01  0.10298882184E+01 0.  0.
     999903    2    3    3    0    0  0.53842690717E-02 -0.22189971024E-01 -0.13119184501E+00  0.13948084634E+00  0.41499652164E-01 0.  0.
         14    1    1    2    0    0 -0.10669746090E-01  0.78808454359E-02 -0.43101287878E-02  0.13947344428E-01  0.00000000000E+00 0. -1.
     999901    1    3    3    0    0  0.52854770185E-02  0.14309125588E-01  0.13550197380E+00  0.89050180923E+00  0.88000000000E+00 0.  1.
        -11    1    4    4    0    0 -0.12151244310E-01 -0.39318094426E-02 -0.91581797077E-01  0.92469446525E-01  0.51100000000E-03 0.  1.
         11    1    4    4    0    0  0.17535513382E-01 -0.18258161581E-01 -0.39610047938E-01  0.47011399815E-01  0.51100000000E-03 0. -1.
</event>
<event>
 7    1  0.2183582E+004  0.1043930E+01  0.7957747E-01            NaN
         13   -1    0    0    0    0  0.00000000000E+00  0.00000000000E+00  0.74505805969E-08  0.10566000000E+00  0.10566000000E+00 0.  1.
     999900   -1    0    0    0    0 -0.00000000000E+00 -0.00000000000E+00 -0.74505805969E-08  0.93827000000E+00  0.93827000000E+00 0. -1.
     999903    2    1    2    0    0  0.83062468263E-01 -0.12850512761E-01  0.69191780356E-01  0.11742028786E+00  0.43994456709E-01 0.  0.
         14    1    1    2    0    0 -0.38281881648E-01  0.65335272168E-02  0.14339134065E-01  0.41398070077E-01  0.00000000000E+00 0.  1.
     999901    1    1    2    0    0 -0.44780586615E-01  0.63169855444E-02 -0.83530914421E-01  0.88511164206E+00  0.88000000000E+00 0. -1.
        -11    1    3    3    0    0  0.77408763257E-01  0.39776150996E-03  0.67862447109E-01  0.10294584835E+00  0.51100000000E-03 0.  1.
         11    1    3    3    0    0  0.56537050059E-02 -0.13248274271E-01  0.13293332468E-02  0.14474439517E-01  0.51100000000E-03 0. -1.
</event>
<event>
 8    1  0.2183582E+004  0.1043930E+01  0.7957747E-01            NaN
         13   -1    0    0    0    0  0.00000000000E+00  0.00000000000E+00  0.74505805969E-08  0.10566000000E+00  0.10566000000E+00 0.  1.
     999900   -1    0    0    0    0 -0.00000000000E+00 -0.00000000000E+00 -0.74505805969E-08  0.93827000000E+00  0.93827000000E+00 0. -1.
     999902    2    1    2    0    0 -0.10466144219E-01  0.83072053443E-02  0.56736277376E-02  0.10294131172E+01  0.10293107528E+01 0.  0.
     999903    2    3    3    0    0  0.85946244625E-01  0.92429837777E-01 -0.37331095572E-01  0.13912025960E+00  0.45064443391E-01 0.  0.
         14    1    1    2    0    0  0.10466144219E-01 -0.83072053443E-02 -0.56736277376E-02  0.14516882832E-01  0.00000000000E+00 0. -1.
     999901    1    3    3    0    0 -0.96412388843E-01 -0.84122632433E-01  0.43004723310E-01  0.89029285757E+00  0.88000000000E+00 0.  1.
        -11    1    4    4    0    0  0.92252210402E-02  0.39945617977E-01 -0.94980740710E-02  0.42086002790E-01  0.51100000000E-03 0.  1.
         11    1    4    4    0    0  0.76721023584E-01  0.52484219800E-01 -0.27833021501E-01  0.97034256810E-01  0.51100000000E-03 0. -1.
</event>
<event>
 8    1  0.2183582E+004  0.1043930E+01  0.7957747E-01            NaN
         13   -1    0    0    0    0  0.00000000000E+00  0.00000000000E+00  0.74505805969E-08  0.10566000000E+00  0.10566000000E+00 0.  1.
     999900   -1    0    0    0    0 -0.00000000000E+00 -0.00000000000E+00 -0.74505805969E-08  0.93827000000E+00  0.93827000000E+00 0. -1.
     999902    2    1    2    0    0 -0.17290826667E-01 -0.63493946386E-02  0.52157400836E-02  0.10247860338E+01  0.10246072045E+01 0.  0.
     999903    2    3    3    0    0  0.11407007318E+00 -0.46913445075E-01  0.27749336421E-01  0.13382649979E+00  0.43893660699E-01 0.  0.
         14    1    1    2    0    0  0.17290826667E-01  0.63493946386E-02 -0.52157400836E-02  0.19143966249E-01  0.00000000000E+00 0. -1.
     999901    1    3    3    0    0 -0.13136089985E+00  0.40564050436E-01 -0.22533596337E-01  0.89095953396E+00  0.88000000000E+00 0. -1.
        -11    1    4    4    0    0  0.42051780301E-01 -0.39984354655E-01  0.18376964417E-01  0.60869325492E-01  0.51100000000E-03 0.  1.
         11    1    4    4    0    0  0.72018292879E-01 -0.69290904196E-02  0.93723720032E-02  0.72957174296E-01  0.51100000000E-03 0. -1.
</event>
<event>
 8    1  0.2183582E+004  0.1043930E+01  0.7957747E-01            NaN
         13   -1    0    0    0    0  0.00000000000E+00  0.00000000000E+00  0.74505805969E-08  0.10566000000E+00  0.10566000000E+00 0. -1.
     999900   -1    0    0    0    0 -0.00000000000E+00 -0.00000000000E+00 -0.74505805969E-08  0.93827000000E+00  0.93827000000E+00 0.  1.
     999902    2    1    2    0    0  0.13768113329E-01 -0.37975453263E-02 -0.88129126214E-03  0.10296205986E+01  0.10295211596E+01 0.  0.
     999903    2    3    3    0    0 -0.84773554337E-01 -0.10034415445E+00  0.79992505141E-03  0.13887117561E+00  0.45045073971E-01 0.  0.
         14    1    1    2    0    0 -0.13768113329E-01  0.37975453263E-02  0.88129126214E-03  0.14309401435E-01  0.00000000000E+00 0. -1.
     999901    1    3    3    0    0  0.98541667666E-01  0.96546609123E-01 -0.16812163135E-02  0.89074942295E+00  0.88000000000E+00 0.  1.
        -11    1    4    4    0    0 -0.43578170463E-01 -0.81169310168E-01  0.94516710203E-02  0.92612683041E-01  0.51100000000E-03 0.  1.
         11    1    4    4    0    0 -0.41195383874E-01 -0.19174844282E-01 -0.86517459689E-02  0.46258492572E-01  0.51100000000E-03 0. -1.
</event>
<event>
 8    1  0.2183582E+004  0.1043930E+01  0.7957747E-01            NaN
         13   -1    0    0    0    0  0.00000000000E+00  0.00000000000E+00  0.74505805969E-08  0.10566000000E+00  0.10566000000E+00 0.  1.
     999900   -1    0    0    0    0 -0.00000000000E+00 -0.00000000000E+00 -0.74505805969E-08  0.93827000000E+00  0.93827000000E+00 0.  1.
     999902    2    1    2    0    0  0.41955653173E-03 -0.68785461945E-02 -0.11900976862E-01  0.10301777756E+01  0.10300859798E+01 0.  0.
     999903    2    3    3    0    0  0.33495911911E-02  0.65800956922E-01 -0.11622996536E+00  0.14103468638E+00  0.45170700919E-01 0.  0.
         14    1    1    2    0    0 -0.41955653173E-03  0.68785461945E-02  0.11900976862E-01  0.13752224391E-01  0.00000000000E+00 0.  1.
     999901    1    3    3    0    0 -0.29300346594E-02 -0.72679503117E-01  0.10432898850E+00  0.88914308923E+00  0.88000000000E+00 0. -1.
        -11    1    4    4    0    0  0.22162049551E-03  0.46734888487E-01 -0.11184209705E+00  0.12121515875E+00  0.51100000000E-03 0. -1.
         11    1    4    4    0    0  0.31279706956E-02  0.19066068435E-01 -0.43878683155E-02  0.19819527633E-01  0.51100000000E-03 0.  1.
</event>
<event>
 8    1  0.2183582E+004  0.1043930E+01  0.7957747E-01            NaN
         13   -1    0    0    0    0  0.00000000000E+00  0.00000000000E+00  0.74505805969E-08  0.10566000000E+00  0.10566000000E+00 0. -1.
     999900   -1    0    0    0    0 -0.00000000000E+00 -0.00000000000E+00 -0.74505805969E-08  0.93827000000E+00  0.93827000000E+00 0.  1.
     999902    2    1    2    0    0  0.30762661799E-02 -0.17522150821E-01  0.20053414524E-02  0.10260271908E+01  0.10258709888E+01 0.  0.
     999903    2    3    3    0    0  0.94915760669E-01 -0.88229609935E-01 -0.17606610062E-01  0.13821039316E+00  0.44706312385E-01 0.  0.
         14    1    1    2    0    0 -0.30762661799E-02  0.17522150821E-01 -0.20053414524E-02  0.17902809203E-01  0.00000000000E+00 0.  1.
     999901    1    3    3    0    0 -0.91839494490E-01  0.70707459114E-01  0.19611951515E-01  0.88781679764E+00  0.88000000000E+00 0.  1.
        -11    1    4    4    0    0  0.82909386578E-02 -0.20735204505E-01 -0.17529248161E-01  0.28394084451E-01  0.51100000000E-03 0. -1.
         11    1    4    4    0    0  0.86624822012E-01 -0.67494405430E-01 -0.77361901087E-04  0.10981630871E+00  0.51100000000E-03 0.  1.
</event>
<event>
 8    1  0.2183582E+004  0.1043930E+01  0.7957747E-01            NaN
         13   -1    0    0    0    0  0.00000000000E+00  0.00000000000E+00  0.74505805969E-08  0.10566000000E+00  0.10566000000E+00 0.  1.
     999900   -1    0    0    0    0 -0.00000000000E+00 -0.00000000000E+00 -0.74505805969E-08  0.93827000000E+00  0.93827000000E+00 0. -1.
     999902    2    1    2    0    0  0.22217678248E-01 -0.83129340065E-02 -0.13849610373E-01  0.10164610756E+01  0.10160898467E+01 0.  0.
     999903    2    3    3    0    0  0.42514309543E-01  0.99341405798E-01 -0.47624433952E-01  0.12902536031E+00  0.51993032916E-01 0.  0.
         14    1    1    2    0    0 -0.22217678248E-01  0.83129340065E-02  0.13849610373E-01  0.27468924369E-01  0.00000000000E+00 0.  1.
     999901    1    3    3    0    0 -0.20296631295E-01 -0.10765433980E+00  0.33774823579E-01  0.88743571532E+00  0.88000000000E+00 0.  1.
        -11    1    4    4    0    0  0.44799035630E-01  0.39036936099E-01 -0.20496032156E-01  0.62858447551E-01  0.51100000000E-03 0.  1.
         11    1    4    4    0    0 -0.22847260865E-02  0.60304469699E-01 -0.27128401796E-01  0.66166912759E-01  0.51100000000E-03 0. -1.
</event>
<event>
 8    1  0.2183582E+004  0.1043930E+01  0.7957747E-01            NaN
         13   -1    0    0    0    0  0.00000000000E+00  0.00000000000E+00  0.74505805969E-08  0.10566000000E+00  0.10566000000E+00 0.  1.
     999900   -1    0    0    0    0 -0.00000000000E+00 -0.00000000000E+00 -0.74505805969E-08  0.93827000000E+00  0.93827000000E+00 0. -1.
     999902    2    1    2    0    0 -0.43905242363E-02  0.64972884155E-02  0.11476960102E-01  0.10300299254E+01  0.10299361316E+01 0.  0.
     999903    2    3    3    0    0 -0.95966159190E-02  0.59411710497E-01 -0.11785269804E+00  0.13898941012E+00  0.42508249872E-01 0.  0.
         14    1    1    2    0    0  0.43905242363E-02 -0.64972884155E-02 -0.11476960102E-01  0.13900074569E-01  0.00000000000E+00 0. -1.
     999901    1    3    3    0    0  0.52060916827E-02 -0.52914422082E-01  0.12932965815E+00  0.89104051531E+00  0.88000000000E+00 0.  1.
        -11    1    4    4    0    0  0.14283209322E-01  0.71100617807E-02 -0.30236415499E-01  0.34191592392E-01  0.51100000000E-03 0.  1.
         11    1    4    4    0    0 -0.23879825241E-01  0.52301648716E-01 -0.87616282545E-01  0.10479781773E+00  0.51100000000E-03 0. -1.
</event>
<event>
 8    1  0.2183582E+004  0.1043930E+01  0.7957747E-01            NaN
         13   -1    0    0    0    0  0.00000000000E+00  0.00000000000E+00  0.74505805969E-08  0.10566000000E+00  0.10566000000E+00 0. -1.
     999900   -1    0    0    0    0 -0.00000000000E+00 -0.00000000000E+00 -0.74505805969E-08  0.93827000000E+00  0.93827000000E+00 0. -1.
     999902    2    1    2    0    0 -0.42675661638E-02  0.88675800565E-02  0.99120898607E-02  0.10299623365E+01  0.10298676221E+01 0.  0.
     999903    2    3    3    0    0 -0.71681678485E-01  0.49360332396E-01 -0.99435489659E-01  0.13971449539E+00  0.45365385193E-01 0.  0.
         14    1    1    2    0    0  0.42675661638E-02 -0.88675800565E-02 -0.99120898607E-02  0.13967663456E-01  0.00000000000E+00 0.  1.
     999901    1    3    3    0    0  0.67414112321E-01 -0.40492752339E-01  0.10934757952E+00  0.89024784115E+00  0.88000000000E+00 0.  1.
        -11    1    4    4    0    0 -0.62689704942E-01  0.54647987670E-01 -0.98951043366E-01  0.12925931984E+00  0.51100000000E-03 0.  1.
         11    1    4    4    0    0 -0.89919735430E-02 -0.52876552743E-02 -0.48444629272E-03  0.10455175546E-01  0.51100000000E-03 0. -1.
</event>
<event>
 8    1  0.2183582E+004  0.1043930E+01  0.7957747E-01            NaN
         13   -1    0    0    0    0  0.00000000000E+00  0.00000000000E+00  0.74505805969E-08  0.10566000000E+00  0.10566000000E+00 0.  1.
     999900   -1    0    0    0    0 -0.00000000000E+00 -0.00000000000E+00 -0.74505805969E-08  0.93827000000E+00  0.93827000000E+00 0.  1.
     999902    2    1    2    0    0  0.12632912056E-02 -0.47457552241E-02 -0.12874056142E-01  0.10301510516E+01  0.10300588962E+01 0.  0.
     999903    2    3    3    0    0 -0.10866730943E+00  0.11311460503E-01 -0.76634078577E-01  0.14087724023E+00  0.45134039681E-01 0.  0.
         14    1    1    2    0    0 -0.12632912056E-02  0.47457552241E-02  0.12874056142E-01  0.13778948395E-01  0.00000000000E+00 0.  1.
     999901    1    3    3    0    0  0.10993060064E+00 -0.16057215727E-01  0.63760022435E-01  0.88927381137E+00  0.88000000000E+00 0. -1.
        -11    1    4    4    0    0 -0.51630434682E-02 -0.11082006688E-01 -0.94896694969E-02  0.15484922934E-01  0.51100000000E-03 0. -1.
         11    1    4    4    0    0 -0.10350426596E+00  0.22393467191E-01 -0.67144409080E-01  0.12539231730E+00  0.51100000000E-03 0.  1.
</event>
<event>
 8    1  0.2183582E+004  0.1043930E+01  0.7957747E-01            NaN
         13   -1    0    0    0    0  0.00000000000E+00  0.00000000000E+00  0.74505805969E-08  0.10566000000E+00  0.10566000000E+00 0.  1.
     999900   -1    0    0    0    0 -0.00000000000E+00 -0.00000000000E+00 -0.74505805969E-08  0.93827000000E+00  0.93827000000E+00 0.  1.
     999902    2    1    2    0    0  0.17329522988E-01 -0.81888454648E-02 -0.96229777869E-03  0.10247389715E+01  0.10245592536E+01 0.  0.
     999903    2    3    3    0    0 -0.34123601225E-01 -0.84379012755E-01 -0.89827658306E-01  0.13549804923E+00  0.44793695913E-01 0.  0.
         14    1    1    2    0    0 -0.17329522988E-01  0.81888454648E-02  0.96229777869E-03  0.19191028478E-01  0.00000000000E+00 0. -1.
     999901    1    3    3    0    0  0.51453124212E-01  0.76190167290E-01  0.88865360527E-01  0.88924092230E+00  0.88000000000E+00 0. -1.
        -11    1    4    4    0    0 -0.90051368245E-02 -0.13834434695E-02 -0.26762718809E-01  0.28275619253E-01  0.51100000000E-03 0.  1.
         11    1    4    4    0    0 -0.25118464400E-01 -0.82995569285E-01 -0.63064939496E-01  0.10722242997E+00  0.51100000000E-03 0. -1.
</event>
<event>
 8    1  0.2183582E+004  0.1043930E+01  0.7957747E-01            NaN
         13   -1    0    0    0    0  0.00000000000E+00  0.00000000000E+00  0.74505805969E-08  0.10566000000E+00  0.10566000000E+00 0. -1.
     999900   -1    0    0    0    0 -0.00000000000E+00 -0.00000000000E+00 -0.74505805969E-08  0.93827000000E+00  0.93827000000E+00 0. -1.
     999902    2    1    2    0    0  0.14286599718E-01 -0.67397104804E-02 -0.27102581033E-02  0.10279026444E+01  0.10277776852E+01 0.  0.
     999903    2    3    3    0    0  0.89988530473E-01 -0.67850609807E-01 -0.71343496115E-01  0.13988471344E+00  0.42144961111E-01 0.  0.
         14    1    1    2    0    0 -0.14286599718E-01  0.67397104804E-02  0.27102581033E-02  0.16027355610E-01  0.00000000000E+00 0.  1.
     999901    1    3    3    0    0 -0.75701930755E-01  0.61110899327E-01  0.68633238012E-01  0.88801793095E+00  0.88000000000E+00 0.  1.
        -11    1    4    4    0    0  0.50423698018E-01 -0.44122679857E-01 -0.64930638352E-01  0.93303853711E-01  0.51100000000E-03 0.  1.
         11    1    4    4    0    0  0.39564832455E-01 -0.23727929950E-01 -0.64128577629E-02  0.46580859724E-01  0.51100000000E-03 0. -1.
</event>
<event>
 8    1  0.2183582E+004  0.1043930E+01  0.7957747E-01            NaN
         13   -1    0    0    0    0  0.00000000000E+00  0.00000000000E+00  0.74505805969E-08  0.10566000000E+00  0.10566000000E+00 0. -1.
     999900   -1    0    0    0    0 -0.00000000000E+00 -0.00000000000E+00 -0.74505805969E-08  0.93827000000E+00  0.93827000000E+00 0. -1.
     999902    2    1    2    0    0  0.40431028806E-02 -0.11859289819E-01 -0.48685041422E-02  0.10304878362E+01  0.10304001595E+01 0.  0.
     999903    2    3    3    0    0  0.12562617054E+00  0.22153569705E-01 -0.38562634183E-01  0.14083924748E+00  0.45562062087E-01 0.  0.
         14    1    1    2    0    0 -0.40431028806E-02  0.11859289819E-01  0.48685041422E-02  0.13442163832E-01  0.00000000000E+00 0.  1.
     999901    1    3    3    0    0 -0.12158306766E+00 -0.34012859524E-01  0.33694130041E-01  0.88964858869E+00  0.88000000000E+00 0.  1.
        -11    1    4    4    0    0  0.10154832117E+00  0.28339283872E-01 -0.45791519397E-01  0.11494477332E+00  0.51100000000E-03 0.  1.
         11    1    4    4    0    0  0.24077849366E-01 -0.61857141671E-02  0.72288852146E-02  0.25894474165E-01  0.51100000000E-03 0. -1.
</event>
<event>
 8    1  0.2183582E+004  0.1043930E+01  0.7957747E-01            NaN
         13   -1    0    0    0    0  0.00000000000E+00  0.00000000000E+00  0.74505805969E-08  0.10566000000E+00  0.10566000000E+00 0. -1.
     999900   -1    0    0    0    0 -0.00000000000E+00 -0.00000000000E+00 -0.74505805969E-08  0.93827000000E+00  0.93827000000E+00 0. -1.
     999902    2    1    2    0    0 -0.97755703724E-02 -0.68231015700E-02 -0.53033982753E-02  0.10308822981E+01  0.10307997235E+01 0.  0.
     999903    2    3    3    0    0 -0.66604036313E-01 -0.11531318532E+00  0.20209640132E-01  0.14203445515E+00  0.45079136366E-01 0.  0.
         14    1    1    2    0    0  0.97755703724E-02  0.68231015700E-02  0.53033982753E-02  0.13047701882E-01  0.00000000000E+00 0.  1.
     999901    1    3    3    0    0  0.56828465940E-01  0.10849008375E+00 -0.25513038407E-01  0.88884784296E+00  0.88000000000E+00 0.  1.
        -11    1    4    4    0    0 -0.57459660631E-01 -0.58305361658E-01  0.20108412534E-01  0.84295534719E-01  0.51100000000E-03 0. -1.
         11    1    4    4    0    0 -0.91443756812E-02 -0.57007823659E-01  0.10122759789E-03  0.57738920435E-01  0.51100000000E-03 0.  1.
</event>
<event>
 8    1  0.2183582E+004  0.1043930E+01  0.7957747E-01            NaN
         13   -1    0    0    0    0  0.00000000000E+00  0.00000000000E+00  0.74505805969E-08  0.10566000000E+00  0.10566000000E+00 0.  1.
     999900   -1    0    0    0    0 -0.00000000000E+00 -0.00000000000E+00 -0.74505805969E-08  0.93827000000E+00  0.93827000000E+00 0. -1.
     999902    2    1    2    0    0 -0.72784828796E-02 -0.90127064225E-02  0.57538189085E-02  0.10309951006E+01  0.10309139566E+01 0.  0.
     999903    2    3    3    0    0  0.81089604315E-01  0.92313735312E-01 -0.47441184349E-01  0.13919597805E+00  0.45027821161E-01 0.  0.
         14    1    1    2    0    0  0.72784828796E-02  0.90127064225E-02 -0.57538189085E-02  0.12934899386E-01  0.00000000000E+00 0.  1.
     999901    1    3    3    0    0 -0.88368087195E-01 -0.10132644173E+00  0.53195003257E-01  0.89179912256E+00  0.88000000000E+00 0.  1.
        -11    1    4    4    0    0  0.18439930441E-01  0.54459546634E-01 -0.17426736066E-01  0.60081823418E-01  0.51100000000E-03 0. -1.
         11    1    4    4    0    0  0.62649673874E-01  0.37854188678E-01 -0.30014448282E-01  0.79114154635E-01  0.51100000000E-03 0.  1.
</event>
<event>
 8    1  0.2587285E+004  0.1043930E+01  0.7957747E-01            NaN
         13   -1    0    0    0    0  0.00000000000E+00  0.00000000000E+00  0.74505805969E-08  0.10566000000E+00  0.10566000000E+00 0.  1.
     999900   -1    0    0    0    0 -0.00000000000E+00 -0.00000000000E+00 -0.74505805969E-08  0.93827000000E+00  0.93827000000E+00 0.  1.
     999902    2    1    2    0    0  0.10892574590E-01  0.45637744352E-02 -0.80796744387E-02  0.10296206549E+01  0.10295212167E+01 0.  0.
     999903    2    3    3    0    0 -0.17229867596E-01 -0.10656671986E-01 -0.13140388268E+00  0.14044609718E+00  0.45251440137E-01 0.  0.
         14    1    1    2    0    0 -0.10892574590E-01 -0.45637744352E-02  0.80796744387E-02  0.14309345105E-01  0.00000000000E+00 0.  1.
     999901    1    3    3    0    0  0.28122442185E-01  0.15220446421E-01  0.12332420824E+00  0.88917455771E+00  0.88000000000E+00 0. -1.
        -11    1    4    4    0    0 -0.25602091612E-01  0.98251436845E-02 -0.70766560329E-01  0.75895768822E-01  0.51100000000E-03 0.  1.
         11    1    4    4    0    0  0.83722240165E-02 -0.20481815670E-01 -0.60637322354E-01  0.64550328360E-01  0.51100000000E-03 0. -1.
</event>
<event>
 8    1  0.2410181E+004  0.1043930E+01  0.7957747E-01            NaN
         13   -1    0    0    0    0  0.00000000000E+00  0.00000000000E+00  0.74505805969E-08  0.10566000000E+00  0.10566000000E+00 0.  1.
     999900   -1    0    0    0    0 -0.00000000000E+00 -0.00000000000E+00 -0.74505805969E-08  0.93827000000E+00  0.93827000000E+00 0. -1.
     999902    2    1    2    0    0 -0.91618468568E-02  0.92969942276E-02 -0.29189201433E-02  0.10305548875E+01  0.10304680890E+01 0.  0.
     999903    2    3    3    0    0 -0.50324012812E-01  0.52009275287E-01  0.11286359782E+00  0.14099080644E+00  0.43620463138E-01 0.  0.
         14    1    1    2    0    0  0.91618468568E-02 -0.92969942276E-02  0.29189201433E-02  0.13375112497E-01  0.00000000000E+00 0. -1.
     999901    1    3    3    0    0  0.41162165956E-01 -0.42712281060E-01 -0.11578251797E+00  0.88956408107E+00  0.88000000000E+00 0. -1.
        -11    1    4    4    0    0 -0.52768380796E-01  0.31568530196E-01  0.68324503225E-01  0.91921558802E-01  0.51100000000E-03 0. -1.
         11    1    4    4    0    0  0.24443679842E-02  0.20440745091E-01  0.44539094598E-01  0.49069247633E-01  0.51100000000E-03 0.  1.
</event>
<event>
 8    1  0.2183582E+004  0.1043930E+01  0.7957747E-01            NaN
         13   -1    0    0    0    0  0.00000000000E+00  0.00000000000E+00  0.74505805969E-08  0.10566000000E+00  0.10566000000E+00 0. -1.
     999900   -1    0    0    0    0 -0.00000000000E+00 -0.00000000000E+00 -0.74505805969E-08  0.93827000000E+00  0.93827000000E+00 0. -1.
     999902    2    1    2    0    0  0.10164523488E-01  0.64885698565E-02 -0.61993588080E-02  0.10303708287E+01  0.10302816088E+01 0.  0.
     999903    2    3    3    0    0  0.60462137795E-01  0.11494930662E+00  0.32374333836E-01  0.14144928482E+00  0.45725151567E-01 0.  0.
         14    1    1    2    0    0 -0.10164523488E-01 -0.64885698565E-02  0.61993588080E-02  0.13559171293E-01  0.00000000000E+00 0. -1.
     999901    1    3    3    0    0 -0.50297614307E-01 -0.10846073676E+00 -0.38573692644E-01  0.88892154389E+00  0.88000000000E+00 0. -1.
        -11    1    4    4    0    0  0.41216732352E-01  0.33062373442E-01  0.19630279059E-01  0.56369748450E-01  0.51100000000E-03 0.  1.
         11    1    4    4    0    0  0.19245405443E-01  0.81886933177E-01  0.12744054777E-01  0.85079536370E-01  0.51100000000E-03 0. -1.
</event>
<event>
 8    1  0.2183582E+004  0.1043930E+01  0.7957747E-01            NaN
         13   -1    0    0    0    0  0.00000000000E+00  0.00000000000E+00  0.74505805969E-08  0.10566000000E+00  0.10566000000E+00 0.  1.
     999900   -1    0    0    0    0 -0.00000000000E+00 -0.00000000000E+00 -0.74505805969E-08  0.93827000000E+00  0.93827000000E+00 0. -1.
     999902    2    1    2    0    0 -0.94532716388E-02  0.98801023125E-02  0.55640808263E-02  0.10291672170E+01  0.10290613299E+01 0.  0.
     999903    2    3    3    0    0 -0.56965135950E-01  0.36171476727E-01  0.11491135206E+00  0.14073858208E+00  0.45269495395E-01 0.  0.
         14    1    1    2    0    0  0.94532716388E-02 -0.98801023125E-02 -0.55640808263E-02  0.14762782997E-01  0.00000000000E+00 0.  1.
     999901    1    3    3    0    0  0.47511864311E-01 -0.26291374414E-01 -0.10934727123E+00  0.88842863492E+00  0.88000000000E+00 0. -1.
        -11    1    4    4    0    0 -0.32091040488E-01 -0.19004144236E-02  0.27947604390E-01  0.42600189750E-01  0.51100000000E-03 0.  1.
         11    1    4    4    0    0 -0.24874095462E-01  0.38071891150E-01  0.86963747666E-01  0.98138392334E-01  0.51100000000E-03 0. -1.
</event>
<event>
 8    1  0.2183582E+004  0.1043930E+01  0.7957747E-01            NaN
         13   -1    0    0    0    0  0.00000000000E+00  0.00000000000E+00  0.74505805969E-08  0.10566000000E+00  0.10566000000E+00 0.  1.
     999900   -1    0    0    0    0 -0.00000000000E+00 -0.00000000000E+00 -0.74505805969E-08  0.93827000000E+00  0.93827000000E+00 0. -1.
     999902    2    1    2    0    0 -0.11478217465E-02  0.81386270217E-02  0.10813490213E-01  0.10303474260E+01  0.10302578959E+01 0.  0.
     999903    2    3    3    0    0 -0.39676457032E-01 -0.12091253502E+00 -0.32964581537E-01  0.13902527456E+00  0.45247110013E-01 0.  0.
         14    1    1    2    0    0  0.11478217465E-02 -0.81386270217E-02 -0.10813490213E-01  0.13582573951E-01  0.00000000000E+00 0. -1.
     999901    1    3    3    0    0  0.38528635285E-01  0.12905116204E+00  0.43778071750E-01  0.89132215148E+00  0.88000000000E+00 0.  1.
        -11    1    4    4    0    0 -0.45108567411E-01 -0.11115935172E+00 -0.39226711050E-01  0.12621481811E+00  0.51100000000E-03 0.  1.
         11    1    4    4    0    0  0.54321103796E-02 -0.97531832969E-02  0.62621295129E-02  0.12810456457E-01  0.51100000000E-03 0. -1.
</event>
<event>
 8    1  0.2183582E+004  0.1043930E+01  0.7957747E-01            NaN
         13   -1    0    0    0    0  0.00000000000E+00  0.00000000000E+00  0.74505805969E-08  0.10566000000E+00  0.10566000000E+00 0. -1.
     999900   -1    0    0    0    0 -0.00000000000E+00 -0.00000000000E+00 -0.74505805969E-08  0.93827000000E+00  0.93827000000E+00 0. -1.
     999902    2    1    2    0    0  0.13840536175E-01  0.25753548862E-02  0.45324651149E-04  0.10298518272E+01  0.10297555977E+01 0.  0.
     999903    2    3    3    0    0  0.40392417876E-01  0.12701645390E+00  0.78449084323E-02  0.14066600691E+00  0.44279294564E-01 0.  0.
         14    1    1    2    0    0 -0.13840536175E-01 -0.25753548862E-02 -0.45324651149E-04  0.14078172777E-01  0.00000000000E+00 0.  1.
     999901    1    3    3    0    0 -0.26551881701E-01 -0.12444109901E+00 -0.77995837811E-02  0.88918582032E+00  0.88000000000E+00 0. -1.
        -11    1    4    4    0    0  0.41555958765E-01  0.79255548311E-01 -0.91459998386E-02  0.89956934591E-01  0.51100000000E-03 0.  1.
         11    1    4    4    0    0 -0.11635408885E-02  0.47760905590E-01  0.16990908271E-01  0.50709072315E-01  0.51100000000E-03 0. -1.
</event>
<event>
 8    1  0.2183582E+004  0.1043930E+01  0.7957747E-01            NaN
         13   -1    0    0    0    0  0.00000000000E+00  0.00000000000E+00  0.74505805969E-08  0.10566000000E+00  0.10566000000E+00 0. -1.
     999900   -1    0    0    0    0 -0.00000000000E+00 -0.00000000000E+00 -0.74505805969E-08  0.93827000000E+00  0.93827000000E+00 0. -1.
     999902    2    1    2    0    0 -0.98982726611E-02  0.70907041140E-02 -0.72945173652E-02  0.10297362031E+01  0.10296383754E+01 0.  0.
     999903    2    3    3    0    0 -0.71836667522E-01 -0.40702194475E-01  0.10291158571E+00  0.13941833231E+00  0.45049988623E-01 0.  0.
         14    1    1    2    0    0  0.98982726611E-02 -0.70907041140E-02  0.72945173652E-02  0.14193796888E-01  0.00000000000E+00 0.  1.
     999901    1    3    3    0    0  0.61938394861E-01  0.47792898589E-01 -0.11020610308E+00  0.89031787080E+00  0.88000000000E+00 0. -1.
        -11    1    4    4    0    0 -0.37666993886E-01 -0.45310758982E-01  0.72630005291E-01  0.93526713283E-01  0.51100000000E-03 0.  1.
         11    1    4    4    0    0 -0.34169673636E-01  0.46085645074E-02  0.30281580420E-01  0.45891619028E-01  0.51100000000E-03 0. -1.
</event>
<event>
 8    1  0.2183582E+004  0.1043930E+01  0.7957747E-01            NaN
         13   -1    0    0    0    0  0.00000000000E+00  0.00000000000E+00  0.74505805969E-08  0.10566000000E+00  0.10566000000E+00 0.  1.
     999900   -1    0    0    0    0 -0.00000000000E+00 -0.00000000000E+00 -0.74505805969E-08  0.93827000000E+00  0.93827000000E+00 0.  1.
     999902    2    1    2    0    0  0.16814835983E-01 -0.49651603932E-02  0.28166541591E-02  0.10261726053E+01  0.10260189524E+01 0.  0.
     999903    2    3    3    0    0  0.12635257280E+00  0.11872005014E-01  0.34932199424E-01  0.13864040069E+00  0.43531425324E-01 0.  0.
         14    1    1    2    0    0 -0.16814835983E-01  0.49651603932E-02 -0.28166541591E-02  0.17757394728E-01  0.00000000000E+00 0.  1.
     999901    1    3    3    0    0 -0.10953773681E+00 -0.16837165407E-01 -0.32115545265E-01  0.88753220458E+00  0.88000000000E+00 0. -1.
        -11    1    4    4    0    0  0.82019724388E-01  0.12291187012E-01  0.43238190481E-01  0.93531335412E-01  0.51100000000E-03 0. -1.
         11    1    4    4    0    0  0.44332848410E-01 -0.41918199844E-03 -0.83059910570E-02  0.45109065276E-01  0.51100000000E-03 0.  1.
</event>
<event>
 8    1  0.2183582E+004  0.1043930E+01  0.7957747E-01            NaN
         13   -1    0    0    0    0  0.00000000000E+00  0.00000000000E+00  0.74505805969E-08  0.10566000000E+00  0.10566000000E+00 0.  1.
     999900   -1    0    0    0    0 -0.00000000000E+00 -0.00000000000E+00 -0.74505805969E-08  0.93827000000E+00  0.93827000000E+00 0. -1.
     999902    2    1    2    0    0  0.15751229642E-02  0.43950003249E-02 -0.11883086747E-01  0.10311626670E+01  0.10310836247E+01 0.  0.
     999903    2    3    3    0    0 -0.47743627947E-01  0.76327710957E-01  0.97662170364E-01  0.14009206524E+00  0.44525428154E-01 0.  0.
         14    1    1    2    0    0 -0.15751229642E-02 -0.43950003249E-02  0.11883086747E-01  0.12767332957E-01  0.00000000000E+00 0.  1.
     999901    1    3    3    0    0  0.49318750911E-01 -0.71932710632E-01 -0.10954525711E+00  0.89107060181E+00  0.88000000000E+00 0. -1.
        -11    1    4    4    0    0 -0.47117103450E-01  0.52555624414E-01  0.91423555181E-01  0.11550169981E+00  0.51100000000E-03 0. -1.
         11    1    4    4    0    0 -0.62652449663E-03  0.23772086543E-01  0.62386151822E-02  0.24590365429E-01  0.51100000000E-03 0.  1.
</event>
<event>
 8    1  0.2183582E+004  0.1043930E+01  0.7957747E-01            NaN
         13   -1    0    0    0    0  0.00000000000E+00  0.00000000000E+00  0.74505805969E-08  0.10566000000E+00  0.10566000000E+00 0. -1.
     999900   -1    0    0    0    0 -0.00000000000E+00 -0.00000000000E+00 -0.74505805969E-08  0.93827000000E+00  0.93827000000E+00 0.  1.
     999902    2    1    2    0    0 -0.65933202669E-02  0.79285015072E-02  0.86408795153E-02  0.10304764575E+01  0.10303886313E+01 0.  0.
     999903    2    3    3    0    0  0.11233729226E+00  0.56822084494E-01 -0.40722968766E-01  0.13976221451E+00  0.45018883832E-01 0.  0.
         14    1    1    2    0    0  0.65933202669E-02 -0.79285015072E-02 -0.86408795153E-02  0.13453542548E-01  0.00000000000E+00 0.  1.
     999901    1    3    3    0    0 -0.11893061253E+00 -0.48893582987E-01  0.49363848281E-01  0.89071424294E+00  0.88000000000E+00 0. -1.
        -11    1    4    4    0    0  0.65163964886E-01  0.34802302179E-01 -0.34591245342E-03  0.73877759394E-01  0.51100000000E-03 0.  1.
         11    1    4    4    0    0  0.47173327378E-01  0.22019782315E-01 -0.40377056312E-01  0.65884455121E-01  0.51100000000E-03 0. -1.
</event>
<event>
 7    1  0.2183582E+004  0.1043930E+01  0.7957747E-01            NaN
         13   -1    0    0    0    0  0.00000000000E+00  0.00000000000E+00  0.74505805969E-08  0.10566000000E+00  0.10566000000E+00 0. -1.
     999900   -1    0    0    0    0 -0.00000000000E+00 -0.00000000000E+00 -0.74505805969E-08  0.93827000000E+00  0.93827000000E+00 0. -1.
     999902    2    1    2    0    0  0.62011240473E-03 -0.48413997600E-02 -0.13782181751E-01  0.10293090484E+01  0.10292052006E+01 0.  0.
         14    1    1    2    0    0 -0.62011240473E-03  0.48413997600E-02  0.13782181751E-01  0.14620951571E-01  0.00000000000E+00 0. -1.
     999901    1    3    3    0    0  0.15543717145E-02  0.84999593689E-01  0.74794896266E-01  0.88725510622E+00  0.88000000000E+00 0.  1.
        -11    1    3    3    0    0 -0.67116340677E-02 -0.83411319789E-01 -0.40072172323E-01  0.92782188035E-01  0.51100000000E-03 0.  1.
         11    1    3    3    0    0  0.57773747579E-02 -0.64296736593E-02 -0.48504905694E-01  0.49271754178E-01  0.51100000000E-03 0. -1.
</event>
<event>
 8    1  0.2183582E+004  0.1043930E+01  0.7957747E-01            NaN
         13   -1    0    0    0    0  0.00000000000E+00  0.00000000000E+00  0.74505805969E-08  0.10566000000E+00  0.10566000000E+00 0.  1.
     999900   -1    0    0    0    0 -0.00000000000E+00 -0.00000000000E+00 -0.74505805969E-08  0.93827000000E+00  0.93827000000E+00 0. -1.
     999902    2    1    2    0    0 -0.73353055330E-02  0.77240973294E-02 -0.54612599364E-02  0.10319594634E+01  0.10318900331E+01 0.  0.
     999903    2    3    3    0    0  0.13266673041E+00 -0.36979905524E-02 -0.14241514401E-01  0.14077590932E+00  0.44731414240E-01 0.  0.
         14    1    1    2    0    0  0.73353055330E-02 -0.77240973294E-02  0.54612599364E-02  0.11970536617E-01  0.00000000000E+00 0. -1.
     999901    1    3    3    0    0 -0.14000203595E+00  0.11422087882E-01  0.87802544646E-02  0.89118355406E+00  0.88000000000E+00 0. -1.
        -11    1    4    4    0    0  0.31834620934E-01  0.42677586128E-02 -0.22610093981E-01  0.39282748433E-01  0.51100000000E-03 0.  1.
         11    1    4    4    0    0  0.10083210948E+00 -0.79657491652E-02  0.83685795802E-02  0.10149316089E+00  0.51100000000E-03 0. -1.
</event>
<event>
 8    1  0.2183582E+004  0.1043930E+01  0.7957747E-01            NaN
         13   -1    0    0    0    0  0.00000000000E+00  0.00000000000E+00  0.74505805969E-08  0.10566000000E+00  0.10566000000E+00 0.  1.
     999900   -1    0    0    0    0 -0.00000000000E+00 -0.00000000000E+00 -0.74505805969E-08  0.93827000000E+00  0.93827000000E+00 0.  1.
     999902    2    1    2    0    0  0.73975406416E-02  0.62196112643E-02 -0.10301178063E-01  0.10298047941E+01  0.10297079161E+01 0.  0.
     999903    2    3    3    0    0 -0.73417453563E-01 -0.10594764117E+00  0.22392200187E-01  0.13841183207E+00  0.45181848891E-01 0.  0.
         14    1    1    2    0    0 -0.73975406416E-02 -0.62196112643E-02  0.10301178063E-01  0.14125205885E-01  0.00000000000E+00 0.  1.
     999901    1    3    3    0    0  0.80814994204E-01  0.11216725244E+00 -0.32693378249E-01  0.89139296205E+00  0.88000000000E+00 0.  1.
        -11    1    4    4    0    0 -0.43541460691E-01 -0.81160270566E-01 -0.27736299239E-02  0.92145550415E-01  0.51100000000E-03 0.  1.
         11    1    4    4    0    0 -0.29875992872E-01 -0.24787370607E-01  0.25165830111E-01  0.46266281651E-01  0.51100000000E-03 0. -1.
</event>
<event>
 8    1  0.2183582E+004  0.1043930E+01  0.7957747E-01            NaN
         13   -1    0    0    0    0  0.00000000000E+00  0.00000000000E+00  0.74505805969E-08  0.10566000000E+00  0.10566000000E+00 0. -1.
     999900   -1    0    0    0    0 -0.00000000000E+00 -0.00000000000E+00 -0.74505805969E-08  0.93827000000E+00  0.93827000000E+00 0. -1.
     999902    2    1    2    0    0 -0.62588494670E-02  0.28717809507E-02 -0.90416362582E-02  0.10325646356E+01  0.10325020848E+01 0.  0.
     999903    2    3    3    0    0 -0.64287724247E-01 -0.11078643641E+00 -0.43710924700E-01  0.14268402546E+00  0.45183406257E-01 0.  0.
         14    1    1    2    0    0  0.62588494670E-02 -0.28717809507E-02  0.90416362582E-02  0.11365364433E-01  0.00000000000E+00 0.  1.
     999901    1    3    3    0    0  0.58028874780E-01  0.11365821737E+00  0.34669288441E-01  0.88988061011E+00  0.88000000000E+00 0. -1.
        -11    1    4    4    0    0  0.47037571313E-02 -0.87830001359E-02 -0.11837261015E-01  0.15480577892E-01  0.51100000000E-03 0.  1.
         11    1    4    4    0    0 -0.68991481378E-01 -0.10200343628E+00 -0.31873663685E-01  0.12720344757E+00  0.51100000000E-03 0. -1.
</event>
<event>
 8    1  0.2183582E+004  0.1043930E+01  0.7957747E-01            NaN
         13   -1    0    0    0    0  0.00000000000E+00  0.00000000000E+00  0.74505805969E-08  0.10566000000E+00  0.10566000000E+00 0.  1.
     999900   -1    0    0    0    0 -0.00000000000E+00 -0.00000000000E+00 -0.74505805969E-08  0.93827000000E+00  0.93827000000E+00 0. -1.
     999902    2    1    2    0    0  0.10025783770E-01 -0.61348801678E-03 -0.10767754099E-01  0.10292046057E+01  0.10290992582E+01 0.  0.
     999903    2    3    3    0    0  0.28256351651E-01  0.10354863735E+00 -0.78814018977E-01  0.14026568988E+00  0.44068951255E-01 0.  0.
         14    1    1    2    0    0 -0.10025783770E-01  0.61348801678E-03  0.10767754099E-01  0.14725394259E-01  0.00000000000E+00 0.  1.
     999901    1    3    3    0    0 -0.18230567881E-01 -0.10416212537E+00  0.68046264878E-01  0.88893891586E+00  0.88000000000E+00 0.  1.
        -11    1    4    4    0    0  0.38086183104E-01  0.96148994666E-01 -0.73371561743E-01  0.12680234112E+00  0.51100000000E-03 0. -1.
         11    1    4    4    0    0 -0.98298314526E-02  0.73996426849E-02 -0.54424572337E-02  0.13463348766E-01  0.51100000000E-03 0.  1.
</event>
<event>
 8    1  0.2183582E+004  0.1043930E+01  0.7957747E-01            NaN
         13   -1    0    0    0    0  0.00000000000E+00  0.00000000000E+00  0.74505805969E-08  0.10566000000E+00  0.10566000000E+00 0.  1.
     999900   -1    0    0    0    0 -0.00000000000E+00 -0.00000000000E+00 -0.74505805969E-08  0.93827000000E+00  0.93827000000E+00 0. -1.
     999902    2    1    2    0    0 -0.10531269378E-01  0.30440496391E-02  0.87546580295E-02  0.10299008193E+01  0.10298052630E+01 0.  0.
     999903    2    3    3    0    0  0.39917207200E-02  0.27285243976E-03 -0.13176017262E+00  0.13863036969E+00  0.42914193812E-01 0.  0.
         14    1    1    2    0    0  0.10531269378E-01 -0.30440496391E-02 -0.87546580295E-02  0.14029180665E-01  0.00000000000E+00 0. -1.
     999901    1    3    3    0    0 -0.14522990098E-01  0.27711971993E-02  0.14051483065E+00  0.89127044964E+00  0.88000000000E+00 0.  1.
        -11    1    4    4    0    0  0.14731900387E-01 -0.16807810713E-01 -0.58024417937E-01  0.62182196711E-01  0.51100000000E-03 0.  1.
         11    1    4    4    0    0 -0.10740179667E-01  0.17080663153E-01 -0.73735754679E-01  0.76448172981E-01  0.51100000000E-03 0. -1.
</event>
<event>
 8    1  0.2183582E+004  0.1043930E+01  0.7957747E-01            NaN
         13   -1    0    0    0    0  0.00000000000E+00  0.00000000000E+00  0.74505805969E-08  0.10566000000E+00  0.10566000000E+00 0. -1.
     999900   -1    0    0    0    0 -0.00000000000E+00 -0.00000000000E+00 -0.74505805969E-08  0.93827000000E+00  0.93827000000E+00 0. -1.
     999902    2    1    2    0    0 -0.61100183187E-02 -0.46960066537E-02 -0.11684739769E-01  0.10299329308E+01  0.10298378144E+01 0.  0.
     999903    2    3    3    0    0  0.53648871623E-01 -0.44922077670E-01 -0.11406067992E+00  0.14107405853E+00  0.44675013121E-01 0.  0.
         14    1    1    2    0    0  0.61100183187E-02  0.46960066537E-02  0.11684739769E-01  0.13997069186E-01  0.00000000000E+00 0. -1.
     999901    1    3    3    0    0 -0.59758889942E-01  0.40226071016E-01  0.10237594015E+00  0.88885887228E+00  0.88000000000E+00 0.  1.
        -11    1    4    4    0    0  0.47871041042E-01 -0.19869241726E-01 -0.97691173698E-01  0.11059046015E+00  0.51100000000E-03 0.  1.
         11    1    4    4    0    0  0.57778305813E-02 -0.25052835943E-01 -0.16369506222E-01  0.30483598377E-01  0.51100000000E-03 0. -1.
</event>
<event>
 8    1  0.2183582E+004  0.1043930E+01  0.7957747E-01            NaN
         13   -1    0    0    0    0  0.00000000000E+00  0.00000000000E+00  0.74505805969E-08  0.10566000000E+00  0.10566000000E+00 0. -1.
     999900   -1    0    0    0    0 -0.00000000000E+00 -0.00000000000E+00 -0.74505805969E-08  0.93827000000E+00  0.93827000000E+00 0.  1.
     999902    2    1    2    0    0  0.19391029573E-02  0.86803496769E-02 -0.10052635653E-01  0.10305074788E+01  0.10304200599E+01 0.  0.
     999903    2    3    3    0    0 -0.10315580011E+00 -0.67818796965E-01 -0.50042805906E-01  0.14006024750E+00  0.43267565082E-01 0.  0.
         14    1    1    2    0    0 -0.19391029573E-02 -0.86803496769E-02  0.10052635653E-01  0.13422521163E-01  0.00000000000E+00 0. -1.
     999901    1    3    3    0    0  0.10509490306E+00  0.76499146642E-01  0.39990170253E-01  0.89044723134E+00  0.88000000000E+00 0.  1.
        -11    1    4    4    0    0 -0.24961685396E-01 -0.74860753958E-03  0.11863057561E-02  0.25006291077E-01  0.51100000000E-03 0.  1.
         11    1    4    4    0    0 -0.78194114710E-01 -0.67070189426E-01 -0.51229111663E-01  0.11505395642E+00  0.51100000000E-03 0. -1.
</event>
<event>
 8    1  0.2183582E+004  0.1043930E+01  0.7957747E-01            NaN
         13   -1    0    0    0    0  0.00000000000E+00  0.00000000000E+00  0.74505805969E-08  0.10566000000E+00  0.10566000000E+00 0.  1.
     999900   -1    0    0    0    0 -0.00000000000E+00 -0.00000000000E+00 -0.74505805969E-08  0.93827000000E+00  0.93827000000E+00 0.  1.
     999902    2    1    2    0    0  0.13637437325E-01 -0.48762297215E-02  0.10625252450E-03  0.10294466094E+01  0.10293447202E+01 0.  0.
     999903    2    3    3    0    0 -0.67157563409E-01 -0.81004121268E-01 -0.79075990785E-01  0.13894500040E+00  0.44507244709E-01 0.  0.
         14    1    1    2    0    0 -0.13637437325E-01  0.48762297215E-02 -0.10625252450E-03  0.14483390580E-01  0.00000000000E+00 0. -1.
     999901    1    3    3    0    0  0.80795000734E-01  0.76127891547E-01  0.79182243310E-01  0.89050160902E+00  0.88000000000E+00 0.  1.
        -11    1    4    4    0    0 -0.46169520344E-01 -0.34285449789E-01 -0.62910126049E-01  0.85235331621E-01  0.51100000000E-03 0. -1.
         11    1    4    4    0    0 -0.20988043066E-01 -0.46718671480E-01 -0.16165864736E-01  0.53709668778E-01  0.51100000000E-03 0.  1.
</event>
<event>
 8    1  0.2183582E+004  0.1043930E+01  0.7957747E-01            NaN
         13   -1    0    0    0    0  0.00000000000E+00  0.00000000000E+00  0.74505805969E-08  0.10566000000E+00  0.10566000000E+00 0. -1.
     999900   -1    0    0    0    0 -0.00000000000E+00 -0.00000000000E+00 -0.74505805969E-08  0.93827000000E+00  0.93827000000E+00 0. -1.
     999902    2    1    2    0    0  0.10004813672E-02 -0.13070764069E-01 -0.31451136123E-02  0.10304489920E+01  0.10303608046E+01 0.  0.
     999903    2    3    3    0    0 -0.10258003111E+00 -0.82508106167E-01 -0.25324272364E-01  0.14138072574E+00  0.44910360434E-01 0.  0.
         14    1    1    2    0    0 -0.10004813672E-02  0.13070764069E-01  0.31451136123E-02  0.13481007972E-01  0.00000000000E+00 0. -1.
     999901    1    3    3    0    0  0.10358051247E+00  0.69437342098E-01  0.22179158751E-01  0.88906826629E+00  0.88000000000E+00 0.  1.
        -11    1    4    4    0    0 -0.16481700922E-01 -0.19181366938E-02  0.85596440907E-02  0.18677642828E-01  0.51100000000E-03 0. -1.
         11    1    4    4    0    0 -0.86098330184E-01 -0.80589969473E-01 -0.33883916454E-01  0.12270308291E+00  0.51100000000E-03 0.  1.
</event>
<event>
 8    1  0.2183582E+004  0.1043930E+01  0.7957747E-01            NaN
         13   -1    0    0    0    0  0.00000000000E+00  0.00000000000E+00  0.74505805969E-08  0.10566000000E+00  0.10566000000E+00 0. -1.
     999900   -1    0    0    0    0 -0.00000000000E+00 -0.00000000000E+00 -0.74505805969E-08  0.93827000000E+00  0.93827000000E+00 0. -1.
     999902    2    1    2    0    0 -0.13407791307E-01 -0.55097619821E-02 -0.26646426323E-03  0.10294318157E+01  0.10293297168E+01 0.  0.
     999903    2    3    3    0    0 -0.10029249242E+00  0.35462420620E-01  0.79710981086E-01  0.14059883769E+00  0.45804206582E-01 0.  0.
         14    1    1    2    0    0  0.13407791307E-01  0.55097619821E-02  0.26646426323E-03  0.14498184301E-01  0.00000000000E+00 0. -1.
     999901    1    3    3    0    0  0.86884701116E-01 -0.40972182602E-01 -0.79977445350E-01  0.88883297801E+00  0.88000000000E+00 0. -1.
        -11    1    4    4    0    0 -0.29531401782E-02  0.34288688524E-02 -0.56294575124E-02  0.72408626146E-02  0.51100000000E-03 0.  1.
         11    1    4    4    0    0 -0.97339352245E-01  0.32033551767E-01  0.85340438599E-01  0.13335797507E+00  0.51100000000E-03 0. -1.
</event>
<event>
 8    1  0.2183582E+004  0.1043930E+01  0.7957747E-01            NaN
         13   -1    0    0    0    0  0.00000000000E+00  0.00000000000E+00  0.74505805969E-08  0.10566000000E+00  0.10566000000E+00 0.  1.
     999900   -1    0    0    0    0 -0.00000000000E+00 -0.00000000000E+00 -0.74505805969E-08  0.93827000000E+00  0.93827000000E+00 0. -1.
     999902    2    1    2    0    0  0.35413459920E-02 -0.17966097290E-02 -0.11143615194E-01  0.10320999917E+01  0.10320321912E+01 0.  0.
     999903    2    3    3    0    0 -0.27705880109E-01 -0.11057053756E+00  0.69875749838E-01  0.14116099597E+00  0.45280755284E-01 0.  0.
         14    1    1    2    0    0 -0.35413459920E-02  0.17966097290E-02  0.11143615194E-01  0.11830008350E-01  0.00000000000E+00 0.  1.
     999901    1    3    3    0    0  0.31247226101E-01  0.10877392783E+00 -0.81019365033E-01  0.89093899568E+00  0.88000000000E+00 0. -1.
        -11    1    4    4    0    0 -0.11373884537E-01 -0.39864704869E-01  0.15495238309E-02  0.41487613680E-01  0.51100000000E-03 0.  1.
         11    1    4    4    0    0 -0.16331995572E-01 -0.70705832689E-01  0.68326226007E-01  0.99673382289E-01  0.51100000000E-03 0. -1.
</event>
<event>
 8    1  0.2183582E+004  0.1043930E+01  0.7957747E-01            NaN
         13   -1    0    0    0    0  0.00000000000E+00  0.00000000000E+00  0.74505805969E-08  0.10566000000E+00  0.10566000000E+00 0.  1.
     999900   -1    0    0    0    0 -0.00000000000E+00 -0.00000000000E+00 -0.74505805969E-08  0.93827000000E+00  0.93827000000E+00 0. -1.
     999902    2    1    2    0    0  0.26302355540E-02 -0.10881064759E-01  0.79085621386E-02  0.10302237582E+01  0.10301325793E+01 0.  0.
     999903    2    3    3    0    0 -0.18186574594E-01  0.65643217936E-01 -0.11179442755E+00  0.13858587701E+00  0.45478211460E-01 0.  0.
         14    1    1    2    0    0 -0.26302355540E-02  0.10881064759E-01 -0.79085621386E-02  0.13706241807E-01  0.00000000000E+00 0. -1.
     999901    1    3    3    0    0  0.20816810148E-01 -0.76524282695E-01  0.11970298969E+00  0.89163788119E+00  0.88000000000E+00 0. -1.
        -11    1    4    4    0    0 -0.15979705376E-01  0.72408695363E-01 -0.10616569693E+00  0.12949821031E+00  0.51100000000E-03 0. -1.
         11    1    4    4    0    0 -0.22068692182E-02 -0.67654774275E-02 -0.56287306248E-02  0.90876666981E-02  0.51100000000E-03 0.  1.
</event>
<event>
 8    1  0.2183582E+004  0.1043930E+01  0.7957747E-01            NaN
         13   -1    0    0    0    0  0.00000000000E+00  0.00000000000E+00  0.74505805969E-08  0.10566000000E+00  0.10566000000E+00 0.  1.
     999900   -1    0    0    0    0 -0.00000000000E+00 -0.00000000000E+00 -0.74505805969E-08  0.93827000000E+00  0.93827000000E+00 0.  1.
     999902    2    1    2    0    0 -0.21809294607E-02 -0.75280250107E-02  0.10692966038E-01  0.10306722801E+01  0.10305870084E+01 0.  0.
     999903    2    3    3    0    0 -0.47521344754E-01 -0.12466754628E+00  0.16026670866E-01  0.14173703551E+00  0.45080569574E-01 0.  0.
         14    1    1    2    0    0  0.21809294607E-02  0.75280250107E-02 -0.10692966038E-01  0.13257719886E-01  0.00000000000E+00 0. -1.
     999901    1    3    3    0    0  0.45340415294E-01  0.11713952126E+00 -0.53337048282E-02  0.88893524461E+00  0.88000000000E+00 0. -1.
        -11    1    4    4    0    0 -0.50479782168E-01 -0.10690961259E+00  0.92393245816E-03  0.11823277229E+00  0.51100000000E-03 0.  1.
         11    1    4    4    0    0  0.29584374141E-02 -0.17757933684E-01  0.15102738408E-01  0.23504263210E-01  0.51100000000E-03 0. -1.
</event>
<event>
 8    1  0.2183582E+004  0.1043930E+01  0.7957747E-01            NaN
         13   -1    0    0    0    0  0.00000000000E+00  0.00000000000E+00  0.74505805969E-08  0.10566000000E+00  0.10566000000E+00 0.  1.
     999900   -1    0    0    0    0 -0.00000000000E+00 -0.00000000000E+00 -0.74505805969E-08  0.93827000000E+00  0.93827000000E+00 0. -1.
     999902    2    1    2    0    0  0.51693014424E-02 -0.12425931880E-01  0.69435898769E-04  0.10304715349E+01  0.10303836441E+01 0.  0.
     999903    2    3    3    0    0  0.22083607642E-01 -0.24936058088E-01  0.12914026602E+00  0.14080762300E+00  0.45167307513E-01 0.  0.
         14    1    1    2    0    0 -0.51693014424E-02  0.12425931880E-01 -0.69435898769E-04  0.13458465062E-01  0.00000000000E+00 0. -1.
     999901    1    3    3    0    0 -0.16914306199E-01  0.12510126208E-01 -0.12907083012E+00  0.88966391194E+00  0.88000000000E+00 0. -1.
        -11    1    4    4    0    0  0.21078977099E-01 -0.33417718387E-01  0.12538464492E+00  0.13146344541E+00  0.51100000000E-03 0. -1.
         11    1    4    4    0    0  0.10046305427E-02  0.84816602990E-02  0.37556211050E-02  0.93441775903E-02  0.51100000000E-03 0.  1.
</event>
<event>
 8    1  0.2183582E+004  0.1043930E+01  0.7957747E-01            NaN
         13   -1    0    0    0    0  0.00000000000E+00  0.00000000000E+00  0.74505805969E-08  0.10566000000E+00  0.10566000000E+00 0. -1.
     999900   -1    0    0    0    0 -0.00000000000E+00 -0.00000000000E+00 -0.74505805969E-08  0.93827000000E+00  0.93827000000E+00 0.  1.
     999902    2    1    2    0    0  0.13163120227E-01  0.25970142407E-02  0.20218894188E-02  0.10303616451E+01  0.10302723036E+01 0.  0.
     999903    2    3    3    0    0  0.68001096240E-01 -0.14799779072E-01 -0.11381889091E+00  0.14090735265E+00  0.45353715951E-01 0.  0.
         14    1    1    2    0    0 -0.13163120227E-01 -0.25970142407E-02 -0.20218894188E-02  0.13568354870E-01  0.00000000000E+00 0. -1.
     999901    1    3    3    0    0 -0.54837976013E-01  0.17396793312E-01  0.11584078033E+00  0.88945429248E+00  0.88000000000E+00 0. -1.
        -11    1    4    4    0    0  0.69433539332E-01 -0.27812698165E-02 -0.86011615222E-01  0.11057581526E+00  0.51100000000E-03 0.  1.
         11    1    4    4    0    0 -0.14324430919E-02 -0.12018509255E-01 -0.27807275691E-01  0.30331537387E-01  0.51100000000E-03 0. -1.
</event>
<event>
 8    1  0.2183582E+004  0.1043930E+01  0.7957747E-01            NaN
         13   -1    0    0    0    0  0.00000000000E+00  0.00000000000E+00  0.74505805969E-08  0.10566000000E+00  0.10566000000E+00 0. -1.
     999900   -1    0    0    0    0 -0.00000000000E+00 -0.00000000000E+00 -0.74505805969E-08  0.93827000000E+00  0.93827000000E+00 0.  1.
     999902    2    1    2    0    0 -0.48164814032E-02 -0.11142320313E-01 -0.74140814731E-02  0.10297061328E+01  0.10296078872E+01 0.  0.
     999903    2    3    3    0    0  0.54487074655E-01 -0.12151786658E+00  0.77435546176E-02  0.14070139323E+00  0.44737972873E-01 0.  0.
         14    1    1    2    0    0  0.48164814032E-02  0.11142320313E-01  0.74140814731E-02  0.14223867236E-01  0.00000000000E+00 0. -1.
     999901    1    3    3    0    0 -0.59303556059E-01  0.11037554627E+00 -0.15157636091E-01  0.88900473953E+00  0.88000000000E+00 0. -1.
        -11    1    4    4    0    0  0.32431240788E-01 -0.10790948077E+00 -0.28108567906E-02  0.11271381218E+00  0.51100000000E-03 0.  1.
         11    1    4    4    0    0  0.22055833867E-01 -0.13608385807E-01  0.10554411408E-01  0.27987581050E-01  0.51100000000E-03 0. -1.
</event>
<event>
 8    1  0.2183582E+004  0.1043930E+01  0.7957747E-01            NaN
         13   -1    0    0    0    0  0.00000000000E+00  0.00000000000E+00  0.74505805969E-08  0.10566000000E+00  0.10566000000E+00 0.  1.
     999900   -1    0    0    0    0 -0.00000000000E+00 -0.00000000000E+00 -0.74505805969E-08  0.93827000000E+00  0.93827000000E+00 0.  1.
     999902    2    1    2    0    0  0.12144943577E-01  0.20238097162E-02  0.44862460982E-02  0.10308257311E+01  0.10307424343E+01 0.  0.
     999903    2    3    3    0    0 -0.57979420179E-01  0.47598791480E-01  0.11017621010E+00  0.14056460429E+00  0.44635777043E-01 0.  0.
         14    1    1    2    0    0 -0.12144943577E-01 -0.20238097162E-02 -0.44862460982E-02  0.13104268935E-01  0.00000000000E+00 0. -1.
     999901    1    3    3    0    0  0.70124363756E-01 -0.45574981764E-01 -0.10568996400E+00  0.89026112677E+00  0.88000000000E+00 0.  1.
        -11    1    4    4    0    0 -0.31395274975E-01  0.28211736522E-02  0.62310135119E-01  0.69831485528E-01  0.51100000000E-03 0. -1.
         11    1    4    4    0    0 -0.26584145203E-01  0.44777617828E-01  0.47866074984E-01  0.70733118763E-01  0.51100000000E-03 0.  1.
</event>
<event>
 8    1  0.2183582E+004  0.1043930E+01  0.7957747E-01            NaN
         13   -1    0    0    0    0  0.00000000000E+00  0.00000000000E+00  0.74505805969E-08  0.10566000000E+00  0.10566000000E+00 0.  1.
     999900   -1    0    0    0    0 -0.00000000000E+00 -0.00000000000E+00 -0.74505805969E-08  0.93827000000E+00  0.93827000000E+00 0.  1.
     999902    2    1    2    0    0  0.50634632925E-02 -0.13049444575E-01  0.36059573810E-02  0.10294756030E+01  0.10293741242E+01 0.  0.
     999903    2    3    3    0    0 -0.66663022464E-02  0.11666799620E+00 -0.57580620685E-01  0.13778731711E+00  0.44877120606E-01 0.  0.
         14    1    1    2    0    0 -0.50634632925E-02  0.13049444575E-01 -0.36059573810E-02  0.14454397008E-01  0.00000000000E+00 0.  1.
     999901    1    3    3    0    0  0.11729765539E-01 -0.12971744078E+00  0.61186578066E-01  0.89168828588E+00  0.88000000000E+00 0. -1.
        -11    1    4    4    0    0 -0.19435959316E-01  0.32531548595E-01 -0.29976219897E-01  0.48320731046E-01  0.51100000000E-03 0.  1.
         11    1    4    4    0    0  0.12769657070E-01  0.84136447610E-01 -0.27604400788E-01  0.89466586064E-01  0.51100000000E-03 0. -1.
</event>
<event>
 8    1  0.2183582E+004  0.1043930E+01  0.7957747E-01            NaN
         13   -1    0    0    0    0  0.00000000000E+00  0.00000000000E+00  0.74505805969E-08  0.10566000000E+00  0.10566000000E+00 0. -1.
     999900   -1    0    0    0    0 -0.00000000000E+00 -0.00000000000E+00 -0.74505805969E-08  0.93827000000E+00  0.93827000000E+00 0. -1.
     999902    2    1    2    0    0  0.12919264312E-01  0.24488779572E-02  0.89610913789E-03  0.10307501895E+01  0.10306659234E+01 0.  0.
     999903    2    3    3    0    0  0.10058230533E+00  0.79373526732E-02  0.87454573469E-01  0.14215168630E+00  0.48774970888E-01 0.  0.
         14    1    1    2    0    0 -0.12919264312E-01 -0.24488779572E-02 -0.89610913789E-03  0.13179810515E-01  0.00000000000E+00 0. -1.
     999901    1    3    3    0    0 -0.87663041015E-01 -0.54884747160E-02 -0.86558464331E-01  0.88859850318E+00  0.88000000000E+00 0. -1.
        -11    1    4    4    0    0  0.56258457758E-01  0.24692126765E-01  0.32225217868E-01  0.69378966417E-01  0.51100000000E-03 0. -1.
         11    1    4    4    0    0  0.44323847569E-01 -0.16754774091E-01  0.55229355601E-01  0.72772719884E-01  0.51100000000E-03 0.  1.
</event>
<event>
 8    1  0.2183582E+004  0.1043930E+01  0.7957747E-01            NaN
         13   -1    0    0    0    0  0.00000000000E+00  0.00000000000E+00  0.74505805969E-08  0.10566000000E+00  0.10566000000E+00 0.  1.
     999900   -1    0    0    0    0 -0.00000000000E+00 -0.00000000000E+00 -0.74505805969E-08  0.93827000000E+00  0.93827000000E+00 0.  1.
     999902    2    1    2    0    0  0.66803075554E-02  0.10377672155E-01 -0.67196214051E-02  0.10298773881E+01  0.10297815102E+01 0.  0.
     999903    2    3    3    0    0 -0.62657142288E-01  0.10611359649E+00 -0.51084489921E-01  0.14086597611E+00  0.45250251644E-01 0.  0.
         14    1    1    2    0    0 -0.66803075554E-02 -0.10377672155E-01  0.67196214051E-02  0.14052611864E-01  0.00000000000E+00 0.  1.
     999901    1    3    3    0    0  0.69337449844E-01 -0.95735924337E-01  0.44364868516E-01  0.88901141203E+00  0.88000000000E+00 0. -1.
        -11    1    4    4    0    0 -0.36563294895E-01  0.48309657616E-01 -0.48122693084E-01  0.77374105896E-01  0.51100000000E-03 0. -1.
         11    1    4    4    0    0 -0.26093847393E-01  0.57803938875E-01 -0.29617968369E-02  0.63491870210E-01  0.51100000000E-03 0.  1.
</event>
<event>
 8    1  0.2183582E+004  0.1043930E+01  0.7957747E-01            NaN
         13   -1    0    0    0    0  0.00000000000E+00  0.00000000000E+00  0.74505805969E-08  0.10566000000E+00  0.10566000000E+00 0. -1.
     999900   -1    0    0    0    0 -0.00000000000E+00 -0.00000000000E+00 -0.74505805969E-08  0.93827000000E+00  0.93827000000E+00 0. -1.
     999902    2    1    2    0    0  0.76901779432E-02 -0.73430857220E-02  0.90361393171E-02  0.10299760916E+01  0.10298815649E+01 0.  0.
     999903    2    3    3    0    0  0.10181189311E+00  0.30039459884E-01 -0.78893492894E-01  0.13981432421E+00  0.45341275934E-01 0.  0.
         14    1    1    2    0    0 -0.76901779432E-02  0.73430857220E-02 -0.90361393171E-02  0.13953908358E-01  0.00000000000E+00 0. -1.
     999901    1    3    3    0    0 -0.94121715168E-01 -0.37382545606E-01  0.87929632211E-01  0.89016176743E+00  0.88000000000E+00 0.  1.
        -11    1    4    4    0    0  0.44587051149E-01  0.27182233056E-01 -0.15742494443E-01  0.54543250512E-01  0.51100000000E-03 0.  1.
         11    1    4    4    0    0  0.57224841962E-01  0.28572268273E-02 -0.63150998451E-01  0.85271073695E-01  0.51100000000E-03 0. -1.
</event>
<event>
 8    1  0.2183582E+004  0.1043930E+01  0.7957747E-01            NaN
         13   -1    0    0    0    0  0.00000000000E+00  0.00000000000E+00  0.74505805969E-08  0.10566000000E+00  0.10566000000E+00 0.  1.
     999900   -1    0    0    0    0 -0.00000000000E+00 -0.00000000000E+00 -0.74505805969E-08  0.93827000000E+00  0.93827000000E+00 0. -1.
     999902    2    1    2    0    0  0.89000957408E-02  0.84694400229E-02 -0.62489169418E-02  0.10301462385E+01  0.10300540183E+01 0.  0.
     999903    2    3    3    0    0 -0.49376848794E-01 -0.81631714998E-01  0.89701585756E-01  0.13845070784E+00  0.44949014729E-01 0.  0.
         14    1    1    2    0    0 -0.89000957408E-02 -0.84694400229E-02  0.62489169418E-02  0.13783761513E-01  0.00000000000E+00 0. -1.
     999901    1    3    3    0    0  0.58276944535E-01  0.90101155021E-01 -0.95950502698E-01  0.89169553064E+00  0.88000000000E+00 0. -1.
        -11    1    4    4    0    0 -0.24258456979E-01 -0.29233915644E-01  0.65043134257E-01  0.75325725976E-01  0.51100000000E-03 0. -1.
         11    1    4    4    0    0 -0.25118391815E-01 -0.52397799354E-01  0.24658451499E-01  0.63124981868E-01  0.51100000000E-03 0.  1.
</event>
<event>
 8    1  0.2183582E+004  0.1043930E+01  0.7957747E-01            NaN
         13   -1    0    0    0    0  0.00000000000E+00  0.00000000000E+00  0.74505805969E-08  0.10566000000E+00  0.10566000000E+00 0. -1.
     999900   -1    0    0    0    0 -0.00000000000E+00 -0.00000000000E+00 -0.74505805969E-08  0.93827000000E+00  0.93827000000E+00 0. -1.
     999902    2    1    2    0    0  0.78011236026E-02 -0.66729349218E-02 -0.10099417410E-01  0.10295291729E+01  0.10294284501E+01 0.  0.
     999903    2    3    3    0    0  0.89071576782E-01  0.97686537080E-01 -0.34349126527E-02  0.13961895179E+00  0.44779992833E-01 0.  0.
         14    1    1    2    0    0 -0.78011236026E-02  0.66729349218E-02  0.10099417410E-01  0.14400827127E-01  0.00000000000E+00 0. -1.
     999901    1    3    3    0    0 -0.81270453179E-01 -0.10435947200E+00 -0.66645047574E-02  0.88991022108E+00  0.88000000000E+00 0.  1.
        -11    1    4    4    0    0  0.84916530641E-02  0.34366907364E-01 -0.10398605241E-01  0.36899655900E-01  0.51100000000E-03 0.  1.
         11    1    4    4    0    0  0.80579923717E-01  0.63319629715E-01  0.69636925879E-02  0.10271929589E+00  0.51100000000E-03 0. -1.
</event>
<event>
 8    1  0.2183582E+004  0.1043930E+01  0.7957747E-01            NaN
         13   -1    0    0    0    0  0.00000000000E+00  0.00000000000E+00  0.74505805969E-08  0.10566000000E+00  0.10566000000E+00 0. -1.
     999900   -1    0    0    0    0 -0.00000000000E+00 -0.00000000000E+00 -0.74505805969E-08  0.93827000000E+00  0.93827000000E+00 0.  1.
     999902    2    1    2    0    0  0.96533669219E-02  0.69158287904E-03 -0.10398330648E-01  0.10297246820E+01  0.10296266943E+01 0.  0.
     999903    2    3    3    0    0 -0.79995280911E-01 -0.10349898182E+00 -0.12911767953E-01  0.13905141349E+00  0.45357443021E-01 0.  0.
         14    1    1    2    0    0 -0.96533669219E-02 -0.69158287904E-03  0.10398330648E-01  0.14205318021E-01  0.00000000000E+00 0. -1.
     999901    1    3    3    0    0  0.89648647833E-01  0.10419056470E+00  0.25134373053E-02  0.89067326849E+00  0.88000000000E+00 0.  1.
        -11    1    4    4    0    0 -0.59471132459E-01 -0.83456394562E-01  0.91088930530E-02  0.10288351881E+00  0.51100000000E-03 0. -1.
         11    1    4    4    0    0 -0.20524148452E-01 -0.20042587254E-01 -0.22020661006E-01  0.36167894681E-01  0.51100000000E-03 0.  1.
</event>
<event>
 8    1  0.2183582E+004  0.1043930E+01  0.7957747E-01            NaN
         13   -1    0    0    0    0  0.00000000000E+00  0.00000000000E+00  0.74505805969E-08  0.10566000000E+00  0.10566000000E+00 0.  1.
     999900   -1    0    0    0    0 -0.00000000000E+00 -0.00000000000E+00 -0.74505805969E-08  0.93827000000E+00  0.93827000000E+00 0.  1.
     999902    2    1    2    0    0  0.52512007717E-02  0.98129774627E-02 -0.22898191281E-02  0.10325672139E+01  0.10325046917E+01 0.  0.
     999903    2    3    3    0    0  0.11585935712E+00 -0.48848089354E-01  0.51836843317E-01  0.14205894297E+00  0.41038500079E-01 0.  0.
         14    1    1    2    0    0 -0.52512007717E-02 -0.98129774627E-02  0.22898191281E-02  0.11362786096E-01  0.00000000000E+00 0. -1.
     999901    1    3    3    0    0 -0.11060815634E+00  0.58661066816E-01 -0.54126662445E-01  0.89050827093E+00  0.88000000000E+00 0.  1.
        -11    1    4    4    0    0  0.71751407879E-01 -0.47400419845E-01  0.46040946043E-01  0.97545344162E-01  0.51100000000E-03 0. -1.
         11    1    4    4    0    0  0.44107949237E-01 -0.14476695080E-02  0.57958972741E-02  0.44513598811E-01  0.51100000000E-03 0.  1.
</event>
<event>
 8    1  0.2183582E+004  0.1043930E+01  0.7957747E-01            NaN
         13   -1    0    0    0    0  0.00000000000E+00  0.00000000000E+00  0.74505805969E-08  0.10566000000E+00  0.10566000000E+00 0. -1.
     999900   -1    0    0    0    0 -0.00000000000E+00 -0.00000000000E+00 -0.74505805969E-08  0.93827000000E+00  0.93827000000E+00 0. -1.
     999902    2    1    2    0    0  0.10940752375E-02  0.28622248817E-02  0.12699943688E-01  0.10308656247E+01  0.10307828376E+01 0.  0.
     999903    2    3    3    0    0  0.15472574470E-01 -0.12620667906E+00  0.39537806952E-01  0.14092978764E+00  0.46156694708E-01 0.  0.
         14    1    1    2    0    0 -0.10940752375E-02 -0.28622248817E-02 -0.12699943688E-01  0.13064375285E-01  0.00000000000E+00 0.  1.
     999901    1    3    3    0    0 -0.14378499233E-01  0.12906890394E+00 -0.26837863263E-01  0.88993583707E+00  0.88000000000E+00 0. -1.
        -11    1    4    4    0    0 -0.13680317904E-01 -0.15428534408E-01  0.79258737527E-02  0.22096863299E-01  0.51100000000E-03 0.  1.
         11    1    4    4    0    0  0.29152892375E-01 -0.11077814465E+00  0.31611933199E-01  0.11883292434E+00  0.51100000000E-03 0. -1.
</event>
<event>
 8    1  0.2183582E+004  0.1043930E+01  0.7957747E-01            NaN
         13   -1    0    0    0    0  0.00000000000E+00  0.00000000000E+00  0.74505805969E-08  0.10566000000E+00  0.10566000000E+00 0. -1.
     999900   -1    0    0    0    0 -0.00000000000E+00 -0.00000000000E+00 -0.74505805969E-08  0.93827000000E+00  0.93827000000E+00 0. -1.
     999902    2    1    2    0    0 -0.66845253885E-02  0.13732189868E-02  0.12224136086E-01  0.10299300674E+01  0.10298349118E+01 0.  0.
     999903    2    3    3    0    0 -0.10339412311E+00 -0.80676483039E-01 -0.23325114184E-01  0.14012747744E+00  0.43504130509E-01 0.  0.
         14    1    1    2    0    0  0.66845253885E-02 -0.13732189868E-02 -0.12224136086E-01  0.13999932611E-01  0.00000000000E+00 0.  1.
     999901    1    3    3    0    0  0.96709597722E-01  0.82049702026E-01  0.35549250270E-01  0.88980258995E+00  0.88000000000E+00 0. -1.
        -11    1    4    4    0    0 -0.24482284757E-01 -0.24551755604E-01 -0.25861085352E-01  0.43257690955E-01  0.51100000000E-03 0.  1.
         11    1    4    4    0    0 -0.78911838354E-01 -0.56124727435E-01  0.25359711679E-02  0.96869786481E-01  0.51100000000E-03 0. -1.
</event>
<event>
 8    1  0.2183582E+004  0.1043930E+01  0.7957747E-01            NaN
         13   -1    0    0    0    0  0.00000000000E+00  0.00000000000E+00  0.74505805969E-08  0.10566000000E+00  0.10566000000E+00 0.  1.
     999900   -1    0    0    0    0 -0.00000000000E+00 -0.00000000000E+00 -0.74505805969E-08  0.93827000000E+00  0.93827000000E+00 0.  1.
     999902    2    1    2    0    0  0.99106011408E-02 -0.23283528619E-02  0.94409548245E-02  0.10300457330E+01  0.10299521538E+01 0.  0.
     999903    2    3    3    0    0  0.76546877519E-01  0.10588067981E+00 -0.22765734266E-01  0.14033406122E+00  0.45882755670E-01 0.  0.
         14    1    1    2    0    0 -0.99106011408E-02  0.23283528619E-02 -0.94409548245E-02  0.13884266996E-01  0.00000000000E+00 0. -1.
     999901    1    3    3    0    0 -0.66636276378E-01 -0.10820903267E+00  0.32206689091E-01  0.88971167178E+00  0.88000000000E+00 0. -1.
        -11    1    4    4    0    0  0.58978667855E-01  0.50896188645E-01 -0.27006964870E-01  0.82453274969E-01  0.51100000000E-03 0. -1.
         11    1    4    4    0    0  0.17568209664E-01  0.54984491164E-01  0.42412306043E-02  0.57880786254E-01  0.51100000000E-03 0.  1.
</event>
<event>
 8    1  0.2183582E+004  0.1043930E+01  0.7957747E-01            NaN
         13   -1    0    0    0    0  0.00000000000E+00  0.00000000000E+00  0.74505805969E-08  0.10566000000E+00  0.10566000000E+00 0.  1.
     999900   -1    0    0    0    0 -0.00000000000E+00 -0.00000000000E+00 -0.74505805969E-08  0.93827000000E+00  0.93827000000E+00 0.  1.
     999902    2    1    2    0    0 -0.14025389478E-01 -0.10622174026E-02 -0.31316022749E-02  0.10295200455E+01  0.10294191942E+01 0.  0.
     999903    2    3    3    0    0  0.51784121924E-01 -0.99698726118E-01  0.66653684087E-01  0.13882928051E+00  0.47004513108E-01 0.  0.
         14    1    1    2    0    0  0.14025389478E-01  0.10622174026E-02  0.31316022749E-02  0.14409954498E-01  0.00000000000E+00 0.  1.
     999901    1    3    3    0    0 -0.65809511403E-01  0.98636508716E-01 -0.69785286362E-01  0.89069076499E+00  0.88000000000E+00 0.  1.
        -11    1    4    4    0    0  0.29454853702E-01 -0.20793644694E-01  0.53736018253E-02  0.36456834529E-01  0.51100000000E-03 0.  1.
         11    1    4    4    0    0  0.22329268222E-01 -0.78905081424E-01  0.61280082262E-01  0.10237244598E+00  0.51100000000E-03 0. -1.
</event>
<event>
 8    1  0.2565750E+004  0.1043930E+01  0.7957747E-01            NaN
         13   -1    0    0    0    0  0.00000000000E+00  0.00000000000E+00  0.74505805969E-08  0.10566000000E+00  0.10566000000E+00 0. -1.
     999900   -1    0    0    0    0 -0.00000000000E+00 -0.00000000000E+00 -0.74505805969E-08  0.93827000000E+00  0.93827000000E+00 0. -1.
     999902    2    1    2    0    0 -0.81614341181E-02 -0.10829166309E-01 -0.21627692784E-02  0.10301983788E+01  0.10301068596E+01 0.  0.
     999903    2    3    3    0    0  0.72779422625E-01  0.82886697133E-01  0.71439039749E-01  0.13848580648E+00  0.43677606111E-01 0.  0.
         14    1    1    2    0    0  0.81614341181E-02  0.10829166309E-01  0.21627692784E-02  0.13731621199E-01  0.00000000000E+00 0. -1.
     999901    1    3    3    0    0 -0.80940856743E-01 -0.93715863442E-01 -0.73601809027E-01  0.89171257233E+00  0.88000000000E+00 0. -1.
        -11    1    4    4    0    0  0.33019552191E-01  0.38346145053E-01  0.58575555980E-01  0.77408491438E-01  0.51100000000E-03 0.  1.
         11    1    4    4    0    0  0.39759870433E-01  0.44540552080E-01  0.12863483769E-01  0.61077315037E-01  0.51100000000E-03 0. -1.
</event>
<event>
 8    1  0.2183582E+004  0.1043930E+01  0.7957747E-01            NaN
         13   -1    0    0    0    0  0.00000000000E+00  0.00000000000E+00  0.74505805969E-08  0.10566000000E+00  0.10566000000E+00 0. -1.
     999900   -1    0    0    0    0 -0.00000000000E+00 -0.00000000000E+00 -0.74505805969E-08  0.93827000000E+00  0.93827000000E+00 0.  1.
     999902    2    1    2    0    0 -0.48551493688E-02 -0.58814231365E-02  0.97774162101E-02  0.10315299403E+01  0.10314554068E+01 0.  0.
     999903    2    3    3    0    0 -0.13114160616E-01  0.87870714680E-02 -0.13173953973E+00  0.14006461575E+00  0.44873114713E-01 0.  0.
         14    1    1    2    0    0  0.48551493688E-02  0.58814231365E-02 -0.97774162101E-02  0.12400059728E-01  0.00000000000E+00 0.  1.
     999901    1    3    3    0    0  0.82590112477E-02 -0.14668494604E-01  0.14151695594E+00  0.89146532452E+00  0.88000000000E+00 0. -1.
        -11    1    4    4    0    0 -0.76848234750E-02  0.26896156125E-01 -0.89819528619E-01  0.94075866026E-01  0.51100000000E-03 0. -1.
         11    1    4    4    0    0 -0.54293371414E-02 -0.18109084657E-01 -0.41920011111E-01  0.45988749727E-01  0.51100000000E-03 0.  1.
</event>
<event>
 8    1  0.2183582E+004  0.1043930E+01  0.7957747E-01            NaN
         13   -1    0    0    0    0  0.00000000000E+00  0.00000000000E+00  0.74505805969E-08  0.10566000000E+00  0.10566000000E+00 0.  1.
     999900   -1    0    0    0    0 -0.00000000000E+00 -0.00000000000E+00 -0.74505805969E-08  0.93827000000E+00  0.93827000000E+00 0.  1.
     999902    2    1    2    0    0 -0.32015421429E-02 -0.69004460351E-02 -0.11938294618E-01  0.10297741212E+01  0.10296768190E+01 0.  0.
     999903    2    3    3    0    0 -0.43296039402E-01  0.12001509982E-01  0.12278483657E+00  0.13841831412E+00  0.45441504403E-01 0.  0.
         14    1    1    2    0    0  0.32015421429E-02  0.69004460351E-02  0.11938294618E-01  0.14155878848E-01  0.00000000000E+00 0.  1.
     999901    1    3    3    0    0  0.40094497259E-01 -0.18901956017E-01 -0.13472313119E+00  0.89135580703E+00  0.88000000000E+00 0.  1.
        -11    1    4    4    0    0 -0.27365823121E-01  0.23628942652E-01  0.10762715807E+00  0.11353889854E+00  0.51100000000E-03 0. -1.
         11    1    4    4    0    0 -0.15930216280E-01 -0.11627432670E-01  0.15157678503E-01  0.24879415585E-01  0.51100000000E-03 0.  1.
</event>
<event>
 8    1  0.2183582E+004  0.1043930E+01  0.7957747E-01            NaN
         13   -1    0    0    0    0  0.00000000000E+00  0.00000000000E+00  0.74505805969E-08  0.10566000000E+00  0.10566000000E+00 0.  1.
     999900   -1    0    0    0    0 -0.00000000000E+00 -0.00000000000E+00 -0.74505805969E-08  0.93827000000E+00  0.93827000000E+00 0. -1.
     999902    2    1    2    0    0  0.31769809529E-02  0.13915415486E-01 -0.43817478405E-03  0.10296498042E+01  0.10295507735E+01 0.  0.
     999903    2    3    3    0    0  0.34469987919E-03  0.13374634697E+00 -0.14340956194E-01  0.14141517227E+00  0.43639245850E-01 0.  0.
         14    1    1    2    0    0 -0.31769809529E-02 -0.13915415486E-01  0.43817478405E-03  0.14280195842E-01  0.00000000000E+00 0. -1.
     999901    1    3    3    0    0  0.28322810737E-02 -0.11983093148E+00  0.13902781410E-01  0.88823463189E+00  0.88000000000E+00 0.  1.
        -11    1    4    4    0    0  0.19845300281E-01  0.40835780113E-01 -0.92794955401E-02  0.46344007586E-01  0.51100000000E-03 0.  1.
         11    1    4    4    0    0 -0.19500600402E-01  0.92910566855E-01 -0.50614606540E-02  0.95071164684E-01  0.51100000000E-03 0. -1.
</event>
<event>
 7    1  0.2183582E+004  0.1043930E+01  0.7957747E-01            NaN
         13   -1    0    0    0    0  0.00000000000E+00  0.00000000000E+00  0.74505805969E-08  0.10566000000E+00  0.10566000000E+00 0. -1.
     999900   -1    0    0    0    0 -0.00000000000E+00 -0.00000000000E+00 -0.74505805969E-08  0.93827000000E+00  0.93827000000E+00 0.  1.
     999903    2    1    2    0    0 -0.35522686034E-01  0.56575813564E-01  0.16035119570E-01  0.82123496206E-01  0.44993995888E-01 0.  0.
         14    1    1    2    0    0  0.48353244844E-01 -0.57835320443E-01  0.28482985323E-01  0.80586853956E-01  0.00000000000E+00 0. -1.
     999901    1    1    2    0    0 -0.12830558811E-01  0.12595068787E-02 -0.44518104893E-01  0.88121964984E+00  0.88000000000E+00 0.  1.
        -11    1    3    3    0    0  0.44816768364E-02  0.29870907495E-01 -0.30732503241E-02  0.30365482548E-01  0.51100000000E-03 0.  1.
         11    1    3    3    0    0 -0.40004362870E-01  0.26704906069E-01  0.19108369894E-01  0.51758013658E-01  0.51100000000E-03 0. -1.
</event>
<event>
 8    1  0.2183582E+004  0.1043930E+01  0.7957747E-01            NaN
         13   -1    0    0    0    0  0.00000000000E+00  0.00000000000E+00  0.74505805969E-08  0.10566000000E+00  0.10566000000E+00 0. -1.
     999900   -1    0    0    0    0 -0.00000000000E+00 -0.00000000000E+00 -0.74505805969E-08  0.93827000000E+00  0.93827000000E+00 0. -1.
     999902    2    1    2    0    0 -0.94488764705E-02  0.10828235109E-01 -0.15370666487E-02  0.10294768164E+01  0.10293753548E+01 0.  0.
     999903    2    3    3    0    0 -0.22942588768E-02  0.93080746743E-01  0.95209765537E-01  0.14033306326E+00  0.44262627032E-01 0.  0.
         14    1    1    2    0    0  0.94488764705E-02 -0.10828235109E-01  0.15370666487E-02  0.14453183594E-01  0.00000000000E+00 0. -1.
     999901    1    3    3    0    0 -0.71546175937E-02 -0.82252511635E-01 -0.96746832186E-01  0.88914375315E+00  0.88000000000E+00 0. -1.
        -11    1    4    4    0    0  0.68473142074E-02  0.42229627400E-01  0.15830279503E-01  0.45618921648E-01  0.51100000000E-03 0. -1.
         11    1    4    4    0    0 -0.91415730842E-02  0.50851119344E-01  0.79379486034E-01  0.94714141610E-01  0.51100000000E-03 0.  1.
</event>
<event>
 8    1  0.2183582E+004  0.1043930E+01  0.7957747E-01            NaN
         13   -1    0    0    0    0  0.00000000000E+00  0.00000000000E+00  0.74505805969E-08  0.10566000000E+00  0.10566000000E+00 0. -1.
     999900   -1    0    0    0    0 -0.00000000000E+00 -0.00000000000E+00 -0.74505805969E-08  0.93827000000E+00  0.93827000000E+00 0.  1.
     999902    2    1    2    0    0  0.36336116181E-02 -0.93506359862E-02 -0.76916572376E-02  0.10312888324E+01  0.10312113541E+01 0.  0.
     999903    2    3    3    0    0 -0.91091594847E-01  0.73175595024E-01  0.61825378878E-01  0.13965210042E+00  0.45033157993E-01 0.  0.
         14    1    1    2    0    0 -0.36336116181E-02  0.93506359862E-02  0.76916572376E-02  0.12641167581E-01  0.00000000000E+00 0. -1.
     999901    1    3    3    0    0  0.94725206465E-01 -0.82526231010E-01 -0.69517036116E-01  0.89163673200E+00  0.88000000000E+00 0.  1.
        -11    1    4    4    0    0 -0.33379659549E-01  0.24365653048E-01  0.47068245215E-01  0.62638387181E-01  0.51100000000E-03 0.  1.
         11    1    4    4    0    0 -0.57711935298E-01  0.48809941976E-01  0.14757133663E-01  0.77013713237E-01  0.51100000000E-03 0. -1.
</event>
<event>
 8    1  0.2183582E+004  0.1043930E+01  0.7957747E-01            NaN
         13   -1    0    0    0    0  0.00000000000E+00  0.00000000000E+00  0.74505805969E-08  0.10566000000E+00  0.10566000000E+00 0.  1.
     999900   -1    0    0    0    0 -0.00000000000E+00 -0.00000000000E+00 -0.74505805969E-08  0.93827000000E+00  0.93827000000E+00 0. -1.
     999902    2    1    2    0    0 -0.10726635853E-01 -0.18610878871E-02 -0.62424206272E-02  0.10313804112E+01  0.10313040581E+01 0.  0.
     999903    2    3    3    0    0 -0.24431323954E-01 -0.29560312708E-01  0.12766033604E+00  0.14071492189E+00  0.45086873546E-01 0.  0.
         14    1    1    2    0    0  0.10726635853E-01  0.18610878871E-02  0.62424206272E-02  0.12549588843E-01  0.00000000000E+00 0.  1.
     999901    1    3    3    0    0  0.13704688101E-01  0.27699224821E-01 -0.13390275667E+00  0.89066548927E+00  0.88000000000E+00 0. -1.
        -11    1    4    4    0    0 -0.17718973931E-01  0.48909640836E-02  0.76437777109E-01  0.78618563058E-01  0.51100000000E-03 0. -1.
         11    1    4    4    0    0 -0.67123500231E-02 -0.34451276792E-01  0.51222558932E-01  0.62096358830E-01  0.51100000000E-03 0.  1.
</event>
<event>
 8    1  0.2183582E+004  0.1043930E+01  0.7957747E-01            NaN
         13   -1    0    0    0    0  0.00000000000E+00  0.00000000000E+00  0.74505805969E-08  0.10566000000E+00  0.10566000000E+00 0. -1.
     999900   -1    0    0    0    0 -0.00000000000E+00 -0.00000000000E+00 -0.74505805969E-08  0.93827000000E+00  0.93827000000E+00 0. -1.
     999902    2    1    2    0    0 -0.45937175950E-02  0.49046114866E-02 -0.11649585004E-01  0.10304811976E+01  0.10303934338E+01 0.  0.
     999903    2    3    3    0    0  0.68912328284E-01  0.98932006617E-01 -0.59870809702E-01  0.14111649382E+00  0.42342650503E-01 0.  0.
         14    1    1    2    0    0  0.45937175950E-02 -0.49046114866E-02  0.11649585004E-01  0.13448802398E-01  0.00000000000E+00 0. -1.
     999901    1    3    3    0    0 -0.73506045879E-01 -0.94027395131E-01  0.48221224698E-01  0.88936470378E+00  0.88000000000E+00 0.  1.
        -11    1    4    4    0    0 -0.17802131738E-02  0.16294717063E-01  0.11075450787E-02  0.16436993040E-01  0.51100000000E-03 0. -1.
         11    1    4    4    0    0  0.70692541458E-01  0.82637289555E-01 -0.60978354781E-01  0.12467950078E+00  0.51100000000E-03 0.  1.
</event>
<event>
 8    1  0.2183582E+004  0.1043930E+01  0.7957747E-01            NaN
         13   -1    0    0    0    0  0.00000000000E+00  0.00000000000E+00  0.74505805969E-08  0.10566000000E+00  0.10566000000E+00 0.  1.
     999900   -1    0    0    0    0 -0.00000000000E+00 -0.00000000000E+00 -0.74505805969E-08  0.93827000000E+00  0.93827000000E+00 0. -1.
     999902    2    1    2    0    0  0.91080455018E-02  0.32972573178E-02 -0.92129921034E-02  0.10305618430E+01  0.10304751354E+01 0.  0.
     999903    2    3    3    0    0 -0.69235064660E-01 -0.11184522316E+00 -0.11661546647E-01  0.13960649666E+00  0.45289448187E-01 0.  0.
         14    1    1    2    0    0 -0.91080455018E-02 -0.32972573178E-02  0.92129921034E-02  0.13368157023E-01  0.00000000000E+00 0.  1.
     999901    1    3    3    0    0  0.78343110162E-01  0.11514248047E+00  0.24485545437E-02  0.89095534632E+00  0.88000000000E+00 0. -1.
        -11    1    4    4    0    0 -0.72164269711E-01 -0.82597184811E-01 -0.78737562283E-02  0.10996469397E+00  0.51100000000E-03 0. -1.
         11    1    4    4    0    0  0.29292050513E-02 -0.29248038345E-01 -0.37877904187E-02  0.29641802686E-01  0.51100000000E-03 0.  1.
</event>
<event>
 8    1  0.2183582E+004  0.1043930E+01  0.7957747E-01            NaN
         13   -1    0    0    0    0  0.00000000000E+00  0.00000000000E+00  0.74505805969E-08  0.10566000000E+00  0.10566000000E+00 0. -1.
     999900   -1    0    0    0    0 -0.00000000000E+00 -0.00000000000E+00 -0.74505805969E-08  0.93827000000E+00  0.93827000000E+00 0. -1.
     999902    2    1    2    0    0 -0.12504127599E-01  0.29635674479E-02 -0.51186532020E-02  0.10300975545E+01  0.10300046772E+01 0.  0.
     999903    2    3    3    0    0 -0.79587255159E-01  0.45003524103E-01 -0.98202509469E-01  0.14165391063E+00  0.45416397546E-01 0.  0.
         14    1    1    2    0    0  0.12504127599E-01 -0.29635674479E-02  0.51186532020E-02  0.13832445541E-01  0.00000000000E+00 0. -1.
     999901    1    3    3    0    0  0.67083127559E-01 -0.42039956655E-01  0.93083856267E-01  0.88844364383E+00  0.88000000000E+00 0.  1.
        -11    1    4    4    0    0 -0.43512732084E-01  0.16577759794E-01 -0.79349400298E-01  0.92004176111E-01  0.51100000000E-03 0. -1.
         11    1    4    4    0    0 -0.36074523075E-01  0.28425764309E-01 -0.18853109171E-01  0.49649734521E-01  0.51100000000E-03 0.  1.
</event>
<event>
 8    1  0.2183582E+004  0.1043930E+01  0.7957747E-01            NaN
         13   -1    0    0    0    0  0.00000000000E+00  0.00000000000E+00  0.74505805969E-08  0.10566000000E+00  0.10566000000E+00 0.  1.
     999900   -1    0    0    0    0 -0.00000000000E+00 -0.00000000000E+00 -0.74505805969E-08  0.93827000000E+00  0.93827000000E+00 0. -1.
     999902    2    1    2    0    0  0.24402709162E-02  0.10055030308E-01  0.90455989101E-02  0.10301865864E+01  0.10300949090E+01 0.  0.
     999903    2    3    3    0    0  0.13073287964E+00  0.24185972641E-01  0.12955600103E-01  0.14076319733E+00  0.44388997028E-01 0.  0.
         14    1    1    2    0    0 -0.24402709162E-02 -0.10055030308E-01 -0.90455989101E-02  0.13743413560E-01  0.00000000000E+00 0. -1.
     999901    1    3    3    0    0 -0.12829260872E+00 -0.14130942334E-01 -0.39100011926E-02  0.88942338911E+00  0.88000000000E+00 0.  1.
        -11    1    4    4    0    0  0.64839116658E-01  0.33357287642E-01  0.13871402493E-01  0.74225983429E-01  0.51100000000E-03 0. -1.
         11    1    4    4    0    0  0.65893762983E-01 -0.91713150011E-02 -0.91580239044E-03  0.66537213902E-01  0.51100000000E-03 0.  1.
</event>
<event>
 8    1  0.2183582E+004  0.1043930E+01  0.7957747E-01            NaN
         13   -1    0    0    0    0  0.00000000000E+00  0.00000000000E+00  0.74505805969E-08  0.10566000000E+00  0.10566000000E+00 0.  1.
     999900   -1    0    0    0    0 -0.00000000000E+00 -0.00000000000E+00 -0.74505805969E-08  0.93827000000E+00  0.93827000000E+00 0. -1.
     999902    2    1    2    0    0 -0.10663818176E-01 -0.99992444104E-02  0.11875013405E-02  0.10292633008E+01  0.10291587974E+01 0.  0.
     999903    2    3    3    0    0  0.46181166701E-01  0.75311524868E-01 -0.95843288660E-01  0.13801459594E+00  0.45360409770E-01 0.  0.
         14    1    1    2    0    0  0.10663818176E-01  0.99992444104E-02 -0.11875013405E-02  0.14666699230E-01  0.00000000000E+00 0. -1.
     999901    1    3    3    0    0 -0.56844984877E-01 -0.85310769278E-01  0.97030790000E-01  0.89124870483E+00  0.88000000000E+00 0.  1.
        -11    1    4    4    0    0 -0.63175080513E-02  0.25120667392E-01 -0.33104769033E-01  0.42037432033E-01  0.51100000000E-03 0.  1.
         11    1    4    4    0    0  0.52498674752E-01  0.50190857476E-01 -0.62738519626E-01  0.95977163903E-01  0.51100000000E-03 0. -1.
</event>
<event>
 8    1  0.2183582E+004  0.1043930E+01  0.7957747E-01            NaN
         13   -1    0    0    0    0  0.00000000000E+00  0.00000000000E+00  0.74505805969E-08  0.10566000000E+00  0.10566000000E+00 0.  1.
     999900   -1    0    0    0    0 -0.00000000000E+00 -0.00000000000E+00 -0.74505805969E-08  0.93827000000E+00  0.93827000000E+00 0. -1.
     999902    2    1    2    0    0 -0.10929339586E-01  0.75184739075E-03 -0.52633984448E-02  0.10317760253E+01  0.10317044379E+01 0.  0.
     999903    2    3    3    0    0  0.55564760421E-01 -0.11818206363E+00 -0.28792135720E-01  0.14097843772E+00  0.44626114076E-01 0.  0.
         14    1    1    2    0    0  0.10929339586E-01 -0.75184739075E-03  0.52633984448E-02  0.12153974719E-01  0.00000000000E+00 0.  1.
     999901    1    3    3    0    0 -0.66494100007E-01  0.11893391102E+00  0.23528737275E-01  0.89079758756E+00  0.88000000000E+00 0. -1.
        -11    1    4    4    0    0  0.30662766228E-01 -0.20925029022E-01 -0.13069414986E-01  0.39359024396E-01  0.51100000000E-03 0.  1.
         11    1    4    4    0    0  0.24901994193E-01 -0.97257034610E-01 -0.15722720734E-01  0.10161941332E+00  0.51100000000E-03 0. -1.
</event>
<event>
 8    1  0.2183582E+004  0.1043930E+01  0.7957747E-01            NaN
         13   -1    0    0    0    0  0.00000000000E+00  0.00000000000E+00  0.74505805969E-08  0.10566000000E+00  0.10566000000E+00 0. -1.
     999900   -1    0    0    0    0 -0.00000000000E+00 -0.00000000000E+00 -0.74505805969E-08  0.93827000000E+00  0.93827000000E+00 0. -1.
     999902    2    1    2    0    0 -0.50722160984E-02  0.74780554129E-02  0.97318815023E-02  0.10306500073E+01  0.10305644469E+01 0.  0.
     999903    2    3    3    0    0 -0.66544581539E-01  0.50176001089E-02  0.11695042350E+00  0.14201019201E+00  0.45123557418E-01 0.  0.
         14    1    1    2    0    0  0.50722160984E-02 -0.74780554129E-02 -0.97318815023E-02  0.13279992714E-01  0.00000000000E+00 0.  1.
     999901    1    3    3    0    0  0.61472365441E-01  0.24604553040E-02 -0.10721854200E+00  0.88863981528E+00  0.88000000000E+00 0. -1.
        -11    1    4    4    0    0 -0.61601052119E-01  0.11803530048E-01  0.68677980048E-01  0.93010424191E-01  0.51100000000E-03 0.  1.
         11    1    4    4    0    0 -0.49435294206E-02 -0.67859299391E-02  0.48272443450E-01  0.48999767815E-01  0.51100000000E-03 0. -1.
</event>
<event>
 8    1  0.2183582E+004  0.1043930E+01  0.7957747E-01            NaN
         13   -1    0    0    0    0  0.00000000000E+00  0.00000000000E+00  0.74505805969E-08  0.10566000000E+00  0.10566000000E+00 0.  1.
     999900   -1    0    0    0    0 -0.00000000000E+00 -0.00000000000E+00 -0.74505805969E-08  0.93827000000E+00  0.93827000000E+00 0.  1.
     999902    2    1    2    0    0  0.12795569159E-01  0.54650202814E-02 -0.30404710560E-02  0.10296878969E+01  0.10295893975E+01 0.  0.
     999903    2    3    3    0    0 -0.36366042943E-01 -0.10389585826E-01  0.12632245162E+00  0.13873166990E+00  0.43112432997E-01 0.  0.
         14    1    1    2    0    0 -0.12795569159E-01 -0.54650202814E-02  0.30404710560E-02  0.14242103111E-01  0.00000000000E+00 0.  1.
     999901    1    3    3    0    0  0.49161612102E-01  0.15854606107E-01 -0.12936292267E+00  0.89095622698E+00  0.88000000000E+00 0.  1.
        -11    1    4    4    0    0 -0.23354358357E-01  0.15674036377E-01  0.65812077129E-01  0.71572285751E-01  0.51100000000E-03 0.  1.
         11    1    4    4    0    0 -0.13011684586E-01 -0.26063622203E-01  0.60510374489E-01  0.67159384154E-01  0.51100000000E-03 0. -1.
</event>
<event>
 8    1  0.2183582E+004  0.1043930E+01  0.7957747E-01            NaN
         13   -1    0    0    0    0  0.00000000000E+00  0.00000000000E+00  0.74505805969E-08  0.10566000000E+00  0.10566000000E+00 0. -1.
     999900   -1    0    0    0    0 -0.00000000000E+00 -0.00000000000E+00 -0.74505805969E-08  0.93827000000E+00  0.93827000000E+00 0.  1.
     999902    2    1    2    0    0  0.56143637447E-02  0.35104321405E-02 -0.12286623299E-01  0.10299727321E+01  0.10298781596E+01 0.  0.
     999903    2    3    3    0    0  0.11289971269E+00  0.63363146243E-01 -0.36645772665E-01  0.14110499077E+00  0.42502615687E-01 0.  0.
         14    1    1    2    0    0 -0.56143637447E-02 -0.35104321405E-02  0.12286623299E-01  0.13957267862E-01  0.00000000000E+00 0. -1.
     999901    1    3    3    0    0 -0.10728534894E+00 -0.59852714102E-01  0.24359149366E-01  0.88886774137E+00  0.88000000000E+00 0. -1.
        -11    1    4    4    0    0  0.43316876406E-01  0.40331735233E-01 -0.69141807920E-04  0.59188398779E-01  0.51100000000E-03 0. -1.
         11    1    4    4    0    0  0.69582836281E-01  0.23031411010E-01 -0.36576630857E-01  0.81916591993E-01  0.51100000000E-03 0.  1.
</event>
<event>
 8    1  0.2183582E+004  0.1043930E+01  0.7957747E-01            NaN
         13   -1    0    0    0    0  0.00000000000E+00  0.00000000000E+00  0.74505805969E-08  0.10566000000E+00  0.10566000000E+00 0. -1.
     999900   -1    0    0    0    0 -0.00000000000E+00 -0.00000000000E+00 -0.74505805969E-08  0.93827000000E+00  0.93827000000E+00 0. -1.
     999902    2    1    2    0    0  0.91209863212E-02 -0.25703979274E-02  0.93154311160E-02  0.10306417874E+01  0.10305561204E+01 0.  0.
     999903    2    3    3    0    0 -0.67946529962E-01  0.10258242455E+00 -0.47705125906E-01  0.13921155342E+00  0.44319214896E-01 0.  0.
         14    1    1    2    0    0 -0.91209863212E-02  0.25703979274E-02 -0.93154311160E-02  0.13288212591E-01  0.00000000000E+00 0. -1.
     999901    1    3    3    0    0  0.77067516284E-01 -0.10515282247E+00  0.57020557022E-01  0.89143023399E+00  0.88000000000E+00 0.  1.
        -11    1    4    4    0    0 -0.38401305996E-01  0.22000875969E-01 -0.23099819879E-01  0.49925561039E-01  0.51100000000E-03 0.  1.
         11    1    4    4    0    0 -0.29545223967E-01  0.80581548578E-01 -0.24605306027E-01  0.89285992385E-01  0.51100000000E-03 0. -1.
</event>
<event>
 8    1  0.2183582E+004  0.1043930E+01  0.7957747E-01            NaN
         13   -1    0    0    0    0  0.00000000000E+00  0.00000000000E+00  0.74505805969E-08  0.10566000000E+00  0.10566000000E+00 0. -1.
     999900   -1    0    0    0    0 -0.00000000000E+00 -0.00000000000E+00 -0.74505805969E-08  0.93827000000E+00  0.93827000000E+00 0.  1.
     999902    2    1    2    0    0 -0.11225039448E-01  0.20022623150E-02 -0.66227965333E-02  0.10307439468E+01  0.10306596004E+01 0.  0.
     999903    2    3    3    0    0 -0.17301131757E-01  0.38542502531E-01  0.12579608851E+00  0.14006618848E+00  0.44822177673E-01 0.  0.
         14    1    1    2    0    0  0.11225039448E-01 -0.20022623150E-02  0.66227965333E-02  0.13186053197E-01  0.00000000000E+00 0. -1.
     999901    1    3    3    0    0  0.60760923094E-02 -0.36540240216E-01 -0.13241888504E+00  0.89067775832E+00  0.88000000000E+00 0.  1.
        -11    1    4    4    0    0 -0.85728270471E-03  0.25475281084E-01  0.20556472842E-01  0.32749879032E-01  0.51100000000E-03 0.  1.
         11    1    4    4    0    0 -0.16443849052E-01  0.13067221447E-01  0.10523961566E+00  0.10731630945E+00  0.51100000000E-03 0. -1.
</event>
<event>
 7    1  0.2183582E+004  0.1043930E+01  0.7957747E-01            NaN
         13   -1    0    0    0    0  0.00000000000E+00  0.00000000000E+00  0.74505805969E-08  0.10566000000E+00  0.10566000000E+00 0.  1.
     999900   -1    0    0    0    0 -0.00000000000E+00 -0.00000000000E+00 -0.74505805969E-08  0.93827000000E+00  0.93827000000E+00 0. -1.
     999903    2    1    2    0    0  0.69059750808E-01 -0.59435249166E-01  0.46406174731E-01  0.11146797424E+00  0.44382183391E-01 0.  0.
         14    1    1    2    0    0 -0.13013882906E-01  0.34791476322E-01  0.28988960482E-01  0.47118656631E-01  0.00000000000E+00 0.  1.
     999901    1    1    2    0    0 -0.56045867902E-01  0.24643772845E-01 -0.75395135212E-01  0.88534336913E+00  0.88000000000E+00 0. -1.
        -11    1    3    3    0    0  0.19814368361E-01 -0.81348155894E-02  0.32625633295E-01  0.39031749732E-01  0.51100000000E-03 0.  1.
         11    1    3    3    0    0  0.49245382447E-01 -0.51300433577E-01  0.13780541436E-01  0.72436224507E-01  0.51100000000E-03 0. -1.
</event>
<event>
 8    1  0.2183582E+004  0.1043930E+01  0.7957747E-01            NaN
         13   -1    0    0    0    0  0.00000000000E+00  0.00000000000E+00  0.74505805969E-08  0.10566000000E+00  0.10566000000E+00 0. -1.
     999900   -1    0    0    0    0 -0.00000000000E+00 -0.00000000000E+00 -0.74505805969E-08  0.93827000000E+00  0.93827000000E+00 0.  1.
     999902    2    1    2    0    0  0.13955432808E-01 -0.38655744874E-02 -0.34015410209E-02  0.10290549453E+01  0.10289474298E+01 0.  0.
     999903    2    3    3    0    0  0.92493744765E-03  0.70447489236E-01  0.11051160266E+00  0.13851104995E+00  0.44819553605E-01 0.  0.
         14    1    1    2    0    0 -0.13955432808E-01  0.38655744874E-02  0.34015410209E-02  0.14875054699E-01  0.00000000000E+00 0.  1.
     999901    1    3    3    0    0  0.13030495360E-01 -0.74313063723E-01 -0.11391314368E+00  0.89054389535E+00  0.88000000000E+00 0.  1.
        -11    1    4    4    0    0  0.16235233972E-01  0.45349830930E-01  0.41822367242E-01  0.63793114913E-01  0.51100000000E-03 0.  1.
         11    1    4    4    0    0 -0.15310296524E-01  0.25097658306E-01  0.68689235420E-01  0.74717935034E-01  0.51100000000E-03 0. -1.
</event>
<event>
 8    1  0.2183582E+004  0.1043930E+01  0.7957747E-01            NaN
         13   -1    0    0    0    0  0.00000000000E+00  0.00000000000E+00  0.74505805969E-08  0.10566000000E+00  0.10566000000E+00 0. -1.
     999900   -1    0    0    0    0 -0.00000000000E+00 -0.00000000000E+00 -0.74505805969E-08  0.93827000000E+00  0.93827000000E+00 0.  1.
     999902    2    1    2    0    0 -0.10276558016E-01  0.41462459467E-02  0.82700863957E-02  0.10301027324E+01  0.10300099252E+01 0.  0.
     999903    2    3    3    0    0 -0.86145705862E-01  0.10203544947E+00 -0.71497184469E-02  0.14129668262E+00  0.45621469262E-01 0.  0.
         14    1    1    2    0    0  0.10276558016E-01 -0.41462459467E-02 -0.82700863957E-02  0.13827267594E-01  0.00000000000E+00 0.  1.
     999901    1    3    3    0    0  0.75869147846E-01 -0.97889203523E-01  0.15419804843E-01  0.88880604979E+00  0.88000000000E+00 0. -1.
        -11    1    4    4    0    0 -0.42897192295E-01  0.81954162570E-01 -0.12365008871E-01  0.93326354449E-01  0.51100000000E-03 0.  1.
         11    1    4    4    0    0 -0.43248513567E-01  0.20081286900E-01  0.52152904238E-02  0.47970328168E-01  0.51100000000E-03 0. -1.
</event>
<event>
 8    1  0.2183582E+004  0.1043930E+01  0.7957747E-01            NaN
         13   -1    0    0    0    0  0.00000000000E+00  0.00000000000E+00  0.74505805969E-08  0.10566000000E+00  0.10566000000E+00 0. -1.
     999900   -1    0    0    0    0 -0.00000000000E+00 -0.00000000000E+00 -0.74505805969E-08  0.93827000000E+00  0.93827000000E+00 0.  1.
     999902    2    1    2    0    0 -0.13591675329E-01 -0.10211183294E-02 -0.39398058782E-02  0.10297420336E+01  0.10296442868E+01 0.  0.
     999903    2    3    3    0    0 -0.53589491961E-01  0.11486795307E+00 -0.41437195424E-01  0.14045234150E+00  0.44083316307E-01 0.  0.
         14    1    1    2    0    0  0.13591675329E-01  0.10211183294E-02  0.39398058782E-02  0.14187966424E-01  0.00000000000E+00 0.  1.
     999901    1    3    3    0    0  0.39997816632E-01 -0.11588907140E+00  0.37497389546E-01  0.88928969207E+00  0.88000000000E+00 0.  1.
        -11    1    4    4    0    0 -0.29454060874E-01  0.23183669166E-01 -0.13354613278E-02  0.37510915690E-01  0.51100000000E-03 0.  1.
         11    1    4    4    0    0 -0.24135431087E-01  0.91684283909E-01 -0.40101734097E-01  0.10294142581E+00  0.51100000000E-03 0. -1.
</event>
<event>
 8    1  0.2183582E+004  0.1043930E+01  0.7957747E-01            NaN
         13   -1    0    0    0    0  0.00000000000E+00  0.00000000000E+00  0.74505805969E-08  0.10566000000E+00  0.10566000000E+00 0.  1.
     999900   -1    0    0    0    0 -0.00000000000E+00 -0.00000000000E+00 -0.74505805969E-08  0.93827000000E+00  0.93827000000E+00 0. -1.
     999902    2    1    2    0    0 -0.11356952629E-01 -0.39742241639E-02  0.54104483383E-02  0.10307372830E+01  0.10306528508E+01 0.  0.
     999903    2    3    3    0    0  0.80814776268E-01 -0.28526731093E-01  0.10188024774E+00  0.14034137364E+00  0.44399479998E-01 0.  0.
         14    1    1    2    0    0  0.11356952629E-01  0.39742241639E-02 -0.54104483383E-02  0.13192717004E-01  0.00000000000E+00 0. -1.
     999901    1    3    3    0    0 -0.92171728897E-01  0.24552506929E-01 -0.96469799406E-01  0.89039590936E+00  0.88000000000E+00 0. -1.
        -11    1    4    4    0    0  0.39662376190E-01 -0.13900846953E-01  0.17903430436E-01  0.45685135147E-01  0.51100000000E-03 0. -1.
         11    1    4    4    0    0  0.41152400079E-01 -0.14625884140E-01  0.83976817308E-01  0.94656238491E-01  0.51100000000E-03 0.  1.
</event>
<event>
 8    1  0.2183582E+004  0.1043930E+01  0.7957747E-01            NaN
         13   -1    0    0    0    0  0.00000000000E+00  0.00000000000E+00  0.74505805969E-08  0.10566000000E+00  0.10566000000E+00 0. -1.
     999900   -1    0    0    0    0 -0.00000000000E+00 -0.00000000000E+00 -0.74505805969E-08  0.93827000000E+00  0.93827000000E+00 0.  1.
     999902    2    1    2    0    0 -0.12741990929E-01  0.36179767602E-02  0.32083806742E-02  0.10303012878E+01  0.10302111443E+01 0.  0.
     999903    2    3    3    0    0 -0.47618826669E-01 -0.90854746470E-01  0.84704089758E-01  0.14081658324E+00  0.46177805117E-01 0.  0.
         14    1    1    2    0    0  0.12741990929E-01 -0.36179767602E-02 -0.32083806742E-02  0.13628712163E-01  0.00000000000E+00 0.  1.
     999901    1    3    3    0    0  0.34876835740E-01  0.94472723230E-01 -0.81495709083E-01  0.88948470459E+00  0.88000000000E+00 0. -1.
        -11    1    4    4    0    0  0.23929791341E-02 -0.43629875468E-01  0.32138294779E-01  0.54244110231E-01  0.51100000000E-03 0. -1.
         11    1    4    4    0    0 -0.50011805803E-01 -0.47224871002E-01  0.52565794979E-01  0.86572473013E-01  0.51100000000E-03 0.  1.
</event>
<event>
 8    1  0.2183582E+004  0.1043930E+01  0.7957747E-01            NaN
         13   -1    0    0    0    0  0.00000000000E+00  0.00000000000E+00  0.74505805969E-08  0.10566000000E+00  0.10566000000E+00 0.  1.
     999900   -1    0    0    0    0 -0.00000000000E+00 -0.00000000000E+00 -0.74505805969E-08  0.93827000000E+00  0.93827000000E+00 0. -1.
     999902    2    1    2    0    0  0.12318379237E-01 -0.83570708423E-02  0.57159039005E-02  0.10279846352E+01  0.10278609612E+01 0.  0.
     999903    2    3    3    0    0  0.10990658179E-01 -0.70951068167E-01 -0.10917547940E+00  0.13831064927E+00  0.45339847354E-01 0.  0.
         14    1    1    2    0    0 -0.12318379237E-01  0.83570708423E-02 -0.57159039005E-02  0.15945364765E-01  0.00000000000E+00 0. -1.
     999901    1    3    3    0    0  0.13277210579E-02  0.62593997325E-01  0.11489138330E+00  0.88967398596E+00  0.88000000000E+00 0.  1.
        -11    1    4    4    0    0  0.18831351387E-01 -0.10790437124E-01 -0.15390560591E-01  0.26611723069E-01  0.51100000000E-03 0.  1.
         11    1    4    4    0    0 -0.78406932080E-02 -0.60160631043E-01 -0.93784918810E-01  0.11169892620E+00  0.51100000000E-03 0. -1.
</event>
<event>
 8    1  0.2183582E+004  0.1043930E+01  0.7957747E-01            NaN
         13   -1    0    0    0    0  0.00000000000E+00  0.00000000000E+00  0.74505805969E-08  0.10566000000E+00  0.10566000000E+00 0. -1.
     999900   -1    0    0    0    0 -0.00000000000E+00 -0.00000000000E+00 -0.74505805969E-08  0.93827000000E+00  0.93827000000E+00 0. -1.
     999902    2    1    2    0    0  0.37893225579E-02  0.11346502505E-01  0.69287009911E-02  0.10301057828E+01  0.10300130168E+01 0.  0.
     999903    2    3    3    0    0  0.93324826757E-01  0.75890805073E-01 -0.58717793050E-01  0.14078467334E+00  0.43630350014E-01 0.  0.
         14    1    1    2    0    0 -0.37893225579E-02 -0.11346502505E-01 -0.69287009911E-02  0.13824217228E-01  0.00000000000E+00 0.  1.
     999901    1    3    3    0    0 -0.89535504199E-01 -0.64544302568E-01  0.65646494041E-01  0.88932110943E+00  0.88000000000E+00 0.  1.
        -11    1    4    4    0    0  0.47705234893E-01  0.26960761994E-01 -0.48363107412E-01  0.73088462859E-01  0.51100000000E-03 0. -1.
         11    1    4    4    0    0  0.45619591864E-01  0.48930043079E-01 -0.10354685637E-01  0.67696210479E-01  0.51100000000E-03 0.  1.
</event>
<event>
 8    1  0.2183582E+004  0.1043930E+01  0.7957747E-01            NaN
         13   -1    0    0    0    0  0.00000000000E+00  0.00000000000E+00  0.74505805969E-08  0.10566000000E+00  0.10566000000E+00 0. -1.
     999900   -1    0    0    0    0 -0.00000000000E+00 -0.00000000000E+00 -0.74505805969E-08  0.93827000000E+00  0.93827000000E+00 0. -1.
     999902    2    1    2    0    0 -0.46111647221E-02 -0.11614792915E-01 -0.26375788163E-02  0.10311580355E+01  0.10310789355E+01 0.  0.
     999903    2    3    3    0    0 -0.10385139914E+00  0.16800782572E-01 -0.81955642840E-01  0.14158093131E+00  0.47550534383E-01 0.  0.
         14    1    1    2    0    0  0.46111647221E-02  0.11614792915E-01  0.26375788163E-02  0.12771964476E-01  0.00000000000E+00 0. -1.
     999901    1    3    3    0    0  0.99240234416E-01 -0.28415575487E-01  0.79318064024E-01  0.88957710421E+00  0.88000000000E+00 0.  1.
        -11    1    4    4    0    0 -0.91779512887E-01  0.16481118251E-01 -0.46656622497E-01  0.10426987958E+00  0.51100000000E-03 0.  1.
         11    1    4    4    0    0 -0.12071886251E-01  0.31966432081E-03 -0.35299020343E-01  0.37311051729E-01  0.51100000000E-03 0. -1.
</event>
<event>
 8    1  0.2183582E+004  0.1043930E+01  0.7957747E-01            NaN
         13   -1    0    0    0    0  0.00000000000E+00  0.00000000000E+00  0.74505805969E-08  0.10566000000E+00  0.10566000000E+00 0. -1.
     999900   -1    0    0    0    0 -0.00000000000E+00 -0.00000000000E+00 -0.74505805969E-08  0.93827000000E+00  0.93827000000E+00 0.  1.
     999902    2    1    2    0    0  0.62349620660E-02 -0.12142647677E-01  0.23310549035E-02  0.10300825287E+01  0.10299894482E+01 0.  0.
     999903    2    3    3    0    0 -0.24111704134E-01 -0.52455655623E-01 -0.12051630826E+00  0.14011762299E+00  0.42140213958E-01 0.  0.
         14    1    1    2    0    0 -0.62349620660E-02  0.12142647677E-01 -0.23310549035E-02  0.13847471305E-01  0.00000000000E+00 0. -1.
     999901    1    3    3    0    0  0.30346666200E-01  0.40313007946E-01  0.12284736316E+00  0.88996490571E+00  0.88000000000E+00 0. -1.
        -11    1    4    4    0    0 -0.20948670438E-01 -0.11972524994E-01 -0.18793642473E-01  0.30588400845E-01  0.51100000000E-03 0. -1.
         11    1    4    4    0    0 -0.31630336954E-02 -0.40483130629E-01 -0.10172266578E+00  0.10952922214E+00  0.51100000000E-03 0.  1.
</event>
<event>
 8    1  0.2183582E+004  0.1043930E+01  0.7957747E-01            NaN
         13   -1    0    0    0    0  0.00000000000E+00  0.00000000000E+00  0.74505805969E-08  0.10566000000E+00  0.10566000000E+00 0.  1.
     999900   -1    0    0    0    0 -0.00000000000E+00 -0.00000000000E+00 -0.74505805969E-08  0.93827000000E+00  0.93827000000E+00 0. -1.
     999902    2    1    2    0    0  0.11596428873E-01 -0.30702965623E-02  0.78300773092E-02  0.10296047079E+01  0.10295050464E+01 0.  0.
     999903    2    3    3    0    0  0.86985351051E-01 -0.99845544744E-01  0.22784205608E-01  0.14096948227E+00  0.42634385222E-01 0.  0.
         14    1    1    2    0    0 -0.11596428873E-01  0.30702965623E-02 -0.78300773092E-02  0.14325292117E-01  0.00000000000E+00 0. -1.
     999901    1    3    3    0    0 -0.75388922179E-01  0.96775248182E-01 -0.14954128299E-01  0.88863522561E+00  0.88000000000E+00 0. -1.
        -11    1    4    4    0    0  0.18577933844E-01 -0.24700403421E-01 -0.12578128103E-01  0.33372443462E-01  0.51100000000E-03 0.  1.
         11    1    4    4    0    0  0.68407417207E-01 -0.75145141324E-01  0.35362333711E-01  0.10759703881E+00  0.51100000000E-03 0. -1.
</event>
<event>
 8    1  0.2183582E+004  0.1043930E+01  0.7957747E-01            NaN
         13   -1    0    0    0    0  0.00000000000E+00  0.00000000000E+00  0.74505805969E-08  0.10566000000E+00  0.10566000000E+00 0.  1.
     999900   -1    0    0    0    0 -0.00000000000E+00 -0.00000000000E+00 -0.74505805969E-08  0.93827000000E+00  0.93827000000E+00 0.  1.
     999902    2    1    2    0    0  0.14309686163E-01  0.95697990354E-03  0.79964454948E-03  0.10295660744E+01  0.10294658708E+01 0.  0.
     999903    2    3    3    0    0 -0.35149690619E-02 -0.59501066708E-01  0.11769369464E+00  0.13960140501E+00  0.45651008473E-01 0.  0.
         14    1    1    2    0    0 -0.14309686163E-01 -0.95697990354E-03 -0.79964454948E-03  0.14363925649E-01  0.00000000000E+00 0.  1.
     999901    1    3    3    0    0  0.17824655225E-01  0.60458046612E-01 -0.11689405009E+00  0.88996466934E+00  0.88000000000E+00 0.  1.
        -11    1    4    4    0    0 -0.19816563196E-01 -0.18233045297E-01  0.24617354905E-01  0.36488565349E-01  0.51100000000E-03 0.  1.
         11    1    4    4    0    0  0.16301594134E-01 -0.41268021411E-01  0.93076339737E-01  0.10311283966E+00  0.51100000000E-03 0. -1.
</event>
<event>
 8    1  0.2183582E+004  0.1043930E+01  0.7957747E-01            NaN
         13   -1    0    0    0    0  0.00000000000E+00  0.00000000000E+00  0.74505805969E-08  0.10566000000E+00  0.10566000000E+00 0. -1.
     999900   -1    0    0    0    0 -0.00000000000E+00 -0.00000000000E+00 -0.74505805969E-08  0.93827000000E+00  0.93827000000E+00 0. -1.
     999902    2    1    2    0    0  0.61396093151E-02  0.63264526085E-02 -0.11632035881E-01  0.10293346903E+01  0.10292312091E+01 0.  0.
     999903    2    3    3    0    0  0.91470975240E-02 -0.93392538330E-01  0.89763659069E-01  0.13791222648E+00  0.46437399939E-01 0.  0.
         14    1    1    2    0    0 -0.61396093151E-02 -0.63264526085E-02  0.11632035881E-01  0.14595309654E-01  0.00000000000E+00 0. -1.
     999901    1    3    3    0    0 -0.30074882089E-02  0.99718990938E-01 -0.10139569495E+00  0.89142246387E+00  0.88000000000E+00 0. -1.
        -11    1    4    4    0    0  0.12114951404E-01 -0.48015458992E-01  0.75422090616E-01  0.90227541380E-01  0.51100000000E-03 0. -1.
         11    1    4    4    0    0 -0.29678538797E-02 -0.45377079338E-01  0.14341568454E-01  0.47684685095E-01  0.51100000000E-03 0.  1.
</event>
<event>
 8    1  0.2529675E+004  0.1043930E+01  0.7957747E-01            NaN
         13   -1    0    0    0    0  0.00000000000E+00  0.00000000000E+00  0.74505805969E-08  0.10566000000E+00  0.10566000000E+00 0.  1.
     999900   -1    0    0    0    0 -0.00000000000E+00 -0.00000000000E+00 -0.74505805969E-08  0.93827000000E+00  0.93827000000E+00 0.  1.
     999902    2    1    2    0    0 -0.11518895496E-01  0.32874197643E-02  0.82002320868E-02  0.10294132549E+01  0.10293108925E+01 0.  0.
     999903    2    3    3    0    0 -0.13091544487E+00  0.24532552652E-01  0.11554789877E-01  0.14109003403E+00  0.45079759190E-01 0.  0.
         14    1    1    2    0    0  0.11518895496E-01 -0.32874197643E-02 -0.82002320868E-02  0.14516745104E-01  0.00000000000E+00 0. -1.
     999901    1    3    3    0    0  0.11939654937E+00 -0.21245132888E-01 -0.33545577904E-02  0.88832322087E+00  0.88000000000E+00 0.  1.
        -11    1    4    4    0    0 -0.78803950878E-01  0.18128975426E-01  0.28776892138E-01  0.85831771891E-01  0.51100000000E-03 0. -1.
         11    1    4    4    0    0 -0.52111493990E-01  0.64035772256E-02 -0.17222102260E-01  0.55258262138E-01  0.51100000000E-03 0.  1.
</event>
<event>
 8    1  0.2183582E+004  0.1043930E+01  0.7957747E-01            NaN
         13   -1    0    0    0    0  0.00000000000E+00  0.00000000000E+00  0.74505805969E-08  0.10566000000E+00  0.10566000000E+00 0.  1.
     999900   -1    0    0    0    0 -0.00000000000E+00 -0.00000000000E+00 -0.74505805969E-08  0.93827000000E+00  0.93827000000E+00 0. -1.
     999902    2    1    2    0    0  0.84124182688E-02 -0.24844336618E-02  0.11239298590E-01  0.10296729658E+01  0.10295742583E+01 0.  0.
     999903    2    3    3    0    0  0.89336886231E-01  0.94851216848E-01  0.76491652903E-03  0.14055390118E+00  0.52697072590E-01 0.  0.
         14    1    1    2    0    0 -0.84124182688E-02  0.24844336618E-02 -0.11239298590E-01  0.14257034213E-01  0.00000000000E+00 0. -1.
     999901    1    3    3    0    0 -0.80924467962E-01 -0.97335650510E-01  0.10474382061E-01  0.88911906461E+00  0.88000000000E+00 0.  1.
        -11    1    4    4    0    0  0.14481506955E-01  0.47414622722E-01  0.12573267063E-01  0.51148887155E-01  0.51100000000E-03 0. -1.
         11    1    4    4    0    0  0.74855379276E-01  0.47436594126E-01 -0.11808350534E-01  0.89405014022E-01  0.51100000000E-03 0.  1.
</event>
<event>
 8    1  0.2183582E+004  0.1043930E+01  0.7957747E-01            NaN
         13   -1    0    0    0    0  0.00000000000E+00  0.00000000000E+00  0.74505805969E-08  0.10566000000E+00  0.10566000000E+00 0. -1.
     999900   -1    0    0    0    0 -0.00000000000E+00 -0.00000000000E+00 -0.74505805969E-08  0.93827000000E+00  0.93827000000E+00 0. -1.
     999902    2    1    2    0    0  0.77333034164E-02 -0.34416618103E-03  0.10968553282E-01  0.10305049639E+01  0.10304175120E+01 0.  0.
     999903    2    3    3    0    0  0.11405578549E+00  0.25604908104E-02 -0.68659154283E-01  0.14053109970E+00  0.44940318189E-01 0.  0.
         14    1    1    2    0    0 -0.77333034164E-02  0.34416618103E-03 -0.10968553282E-01  0.13425036059E-01  0.00000000000E+00 0.  1.
     999901    1    3    3    0    0 -0.10632248207E+00 -0.29046569915E-02  0.79627707565E-01  0.88997386424E+00  0.88000000000E+00 0.  1.
        -11    1    4    4    0    0  0.77001460082E-01 -0.82075831448E-03 -0.68880943951E-01  0.10331865301E+00  0.51100000000E-03 0. -1.
         11    1    4    4    0    0  0.37054325405E-01  0.33812491249E-02  0.22178966798E-03  0.37212446688E-01  0.51100000000E-03 0.  1.
</event>
<event>
 8    1  0.2183582E+004  0.1043930E+01  0.7957747E-01            NaN
         13   -1    0    0    0    0  0.00000000000E+00  0.00000000000E+00  0.74505805969E-08  0.10566000000E+00  0.10566000000E+00 0.  1.
     999900   -1    0    0    0    0 -0.00000000000E+00 -0.00000000000E+00 -0.74505805969E-08  0.93827000000E+00  0.93827000000E+00 0.  1.
     999902    2    1    2    0    0 -0.11531273581E-01  0.44674995648E-03 -0.85010239150E-02  0.10295969172E+01  0.10294971465E+01 0.  0.
     999903    2    3    3    0    0  0.94832419149E-02 -0.78565801635E-01  0.10440610480E+00  0.13862407084E+00  0.45315353183E-01 0.  0.
         14    1    1    2    0    0  0.11531273581E-01 -0.44674995648E-03  0.85010239150E-02  0.14333082834E-01  0.00000000000E+00 0.  1.
     999901    1    3    3    0    0 -0.21014515496E-01  0.79012551591E-01 -0.11290712871E+00  0.89097284632E+00  0.88000000000E+00 0.  1.
        -11    1    4    4    0    0  0.19182496145E-02 -0.17596088650E-01  0.60686432717E-01  0.63217135765E-01  0.51100000000E-03 0.  1.
         11    1    4    4    0    0  0.75649923004E-02 -0.60969712985E-01  0.43719672081E-01  0.75406935078E-01  0.51100000000E-03 0. -1.
</event>
<event>
 8    1  0.2183582E+004  0.1043930E+01  0.7957747E-01            NaN
         13   -1    0    0    0    0  0.00000000000E+00  0.00000000000E+00  0.74505805969E-08  0.10566000000E+00  0.10566000000E+00 0. -1.
     999900   -1    0    0    0    0 -0.00000000000E+00 -0.00000000000E+00 -0.74505805969E-08  0.93827000000E+00  0.93827000000E+00 0.  1.
     999902    2    1    2    0    0  0.41311821470E-02  0.92501228970E-02  0.90368624256E-02  0.10303544219E+01  0.10302649845E+01 0.  0.
     999903    2    3    3    0    0  0.77445508268E-01  0.10925193843E+00  0.57856023754E-02  0.14165541532E+00  0.45814743172E-01 0.  0.
         14    1    1    2    0    0 -0.41311821470E-02 -0.92501228970E-02 -0.90368624256E-02  0.13575578148E-01  0.00000000000E+00 0.  1.
     999901    1    3    3    0    0 -0.73314326121E-01 -0.10000181553E+00  0.32512600503E-02  0.88869900654E+00  0.88000000000E+00 0. -1.
        -11    1    4    4    0    0  0.36640855631E-01  0.59184228362E-01 -0.19501707349E-01  0.72290406686E-01  0.51100000000E-03 0.  1.
         11    1    4    4    0    0  0.40804652636E-01  0.50067710070E-01  0.25287309725E-01  0.69365008632E-01  0.51100000000E-03 0. -1.
</event>
<event>
 7    1  0.2183582E+004  0.1043930E+01  0.7957747E-01            NaN
         13   -1    0    0    0    0  0.00000000000E+00  0.00000000000E+00  0.74505805969E-08  0.10566000000E+00  0.10566000000E+00 0. -1.
     999900   -1    0    0    0    0 -0.00000000000E+00 -0.00000000000E+00 -0.74505805969E-08  0.93827000000E+00  0.93827000000E+00 0. -1.
     999902    2    1    2    0    0  0.51436783889E-02  0.94161576808E-02 -0.94008911267E-02  0.10296647202E+01  0.10295658978E+01 0.  0.
         14    1    1    2    0    0 -0.51436783889E-02 -0.94161576808E-02  0.94008911267E-02  0.14265279766E-01  0.00000000000E+00 0. -1.
     999901    1    3    3    0    0 -0.11850235254E+00  0.67527441736E-01 -0.30519822912E-01  0.89102986624E+00  0.88000000000E+00 0.  1.
        -11    1    3    3    0    0  0.10874799596E+00 -0.52821028648E-01  0.15694742578E-01  0.12191297616E+00  0.51100000000E-03 0.  1.
         11    1    3    3    0    0  0.14898034978E-01 -0.52902554075E-02  0.54241892067E-02  0.16721877826E-01  0.51100000000E-03 0. -1.
</event>
<event>
 8    1  0.2183582E+004  0.1043930E+01  0.7957747E-01            NaN
         13   -1    0    0    0    0  0.00000000000E+00  0.00000000000E+00  0.74505805969E-08  0.10566000000E+00  0.10566000000E+00 0.  1.
     999900   -1    0    0    0    0 -0.00000000000E+00 -0.00000000000E+00 -0.74505805969E-08  0.93827000000E+00  0.93827000000E+00 0.  1.
     999902    2    1    2    0    0 -0.42872290444E-02  0.86089420599E-02 -0.10312261779E-01  0.10298290440E+01  0.10297325007E+01 0.  0.
     999903    2    3    3    0    0 -0.10433276875E+00 -0.39791944787E-01  0.69829121993E-01  0.13922565460E+00  0.45154746333E-01 0.  0.
         14    1    1    2    0    0  0.42872290444E-02 -0.86089420599E-02  0.10312261779E-01  0.14100955970E-01  0.00000000000E+00 0.  1.
     999901    1    3    3    0    0  0.10004553971E+00  0.48400886847E-01 -0.80141383773E-01  0.89060338943E+00  0.88000000000E+00 0. -1.
        -11    1    4    4    0    0 -0.44005985135E-01 -0.36849953874E-02  0.65726752541E-02  0.44649379612E-01  0.51100000000E-03 0.  1.
         11    1    4    4    0    0 -0.60326783616E-01 -0.36106949400E-01  0.63256446739E-01  0.94576274993E-01  0.51100000000E-03 0. -1.
</event>
<event>
 8    1  0.2183582E+004  0.1043930E+01  0.7957747E-01            NaN
         13   -1    0    0    0    0  0.00000000000E+00  0.00000000000E+00  0.74505805969E-08  0.10566000000E+00  0.10566000000E+00 0.  1.
     999900   -1    0    0    0    0 -0.00000000000E+00 -0.00000000000E+00 -0.74505805969E-08  0.93827000000E+00  0.93827000000E+00 0. -1.
     999902    2    1    2    0    0 -0.85266477358E-02 -0.45013450665E-02  0.71446482165E-03  0.10342616863E+01  0.10342164955E+01 0.  0.
     999903    2    3    3    0    0  0.10719978117E+00  0.44501356389E-01  0.69658625440E-01  0.14266358833E+00  0.45037889987E-01 0.  0.
         14    1    1    2    0    0  0.85266477358E-02  0.45013450665E-02 -0.71446482165E-03  0.96683136585E-02  0.00000000000E+00 0.  1.
     999901    1    3    3    0    0 -0.11572642890E+00 -0.49002701455E-01 -0.68944160618E-01  0.89159809801E+00  0.88000000000E+00 0. -1.
        -11    1    4    4    0    0  0.84306854945E-01  0.13123076753E-01  0.42963492629E-01  0.95530014938E-01  0.51100000000E-03 0.  1.
         11    1    4    4    0    0  0.22892926220E-01  0.31378279636E-01  0.26695132811E-01  0.47133573391E-01  0.51100000000E-03 0. -1.
</event>
<event>
 8    1  0.2183582E+004  0.1043930E+01  0.7957747E-01            NaN
         13   -1    0    0    0    0  0.00000000000E+00  0.00000000000E+00  0.74505805969E-08  0.10566000000E+00  0.10566000000E+00 0. -1.
     999900   -1    0    0    0    0 -0.00000000000E+00 -0.00000000000E+00 -0.74505805969E-08  0.93827000000E+00  0.93827000000E+00 0.  1.
     999902    2    1    2    0    0 -0.86322076179E-02 -0.10114183705E-01 -0.41133445829E-02  0.10300112600E+01  0.10299172124E+01 0.  0.
     999903    2    3    3    0    0  0.82703814175E-01 -0.71052658474E-01  0.74238139611E-01  0.13973336984E+00  0.46105445641E-01 0.  0.
         14    1    1    2    0    0  0.86322076179E-02  0.10114183705E-01  0.41133445829E-02  0.13918740030E-01  0.00000000000E+00 0.  1.
     999901    1    3    3    0    0 -0.91336021793E-01  0.60938474769E-01 -0.78351484194E-01  0.89027789013E+00  0.88000000000E+00 0.  1.
        -11    1    4    4    0    0  0.68483760360E-01 -0.71912975348E-01  0.48976095434E-01  0.11072678313E+00  0.51100000000E-03 0.  1.
         11    1    4    4    0    0  0.14220053815E-01  0.86031687430E-03  0.25262044177E-01  0.29006586711E-01  0.51100000000E-03 0. -1.
</event>
<event>
 8    1  0.2183582E+004  0.1043930E+01  0.7957747E-01            NaN
         13   -1    0    0    0    0  0.00000000000E+00  0.00000000000E+00  0.74505805969E-08  0.10566000000E+00  0.10566000000E+00 0.  1.
     999900   -1    0    0    0    0 -0.00000000000E+00 -0.00000000000E+00 -0.74505805969E-08  0.93827000000E+00  0.93827000000E+00 0.  1.
     999902    2    1    2    0    0  0.73500513427E-02 -0.10409307163E-01  0.32855352440E-02  0.10307705292E+01  0.10306865247E+01 0.  0.
     999903    2    3    3    0    0  0.74027958249E-01 -0.11223708132E+00 -0.97360673525E-02  0.14229745644E+00  0.45568345094E-01 0.  0.
         14    1    1    2    0    0 -0.73500513427E-02  0.10409307163E-01 -0.32855352440E-02  0.13159470818E-01  0.00000000000E+00 0. -1.
     999901    1    3    3    0    0 -0.66677906907E-01  0.10182777416E+00  0.13021602596E-01  0.88847307275E+00  0.88000000000E+00 0. -1.
        -11    1    4    4    0    0  0.50144117975E-01 -0.39240840571E-01  0.57900770161E-02  0.63937956248E-01  0.51100000000E-03 0.  1.
         11    1    4    4    0    0  0.23883840274E-01 -0.72996240751E-01 -0.15526144369E-01  0.78359500189E-01  0.51100000000E-03 0. -1.
</event>
<event>
 8    1  0.2183582E+004  0.1043930E+01  0.7957747E-01            NaN
         13   -1    0    0    0    0  0.00000000000E+00  0.00000000000E+00  0.74505805969E-08  0.10566000000E+00  0.10566000000E+00 0.  1.
     999900   -1    0    0    0    0 -0.00000000000E+00 -0.00000000000E+00 -0.74505805969E-08  0.93827000000E+00  0.93827000000E+00 0.  1.
     999902    2    1    2    0    0 -0.98954008318E-02 -0.13286801272E-03 -0.98177364647E-02  0.10299899655E+01  0.10298956280E+01 0.  0.
     999903    2    3    3    0    0  0.79040162583E-01 -0.72075030114E-01  0.76878678208E-01  0.13836141202E+00  0.42324837937E-01 0.  0.
         14    1    1    2    0    0  0.98954008318E-02  0.13286801272E-03  0.98177364647E-02  0.13940034463E-01  0.00000000000E+00 0.  1.
     999901    1    3    3    0    0 -0.88935563415E-01  0.71942162101E-01 -0.86696414673E-01  0.89162855352E+00  0.88000000000E+00 0.  1.
        -11    1    4    4    0    0  0.22067304696E-01 -0.11343344742E-01  0.40476595524E-01  0.47478977587E-01  0.51100000000E-03 0.  1.
         11    1    4    4    0    0  0.56972857887E-01 -0.60731685372E-01  0.36402082684E-01  0.90882434434E-01  0.51100000000E-03 0. -1.
</event>
<event>
 8    1  0.2183582E+004  0.1043930E+01  0.7957747E-01            NaN
         13   -1    0    0    0    0  0.00000000000E+00  0.00000000000E+00  0.74505805969E-08  0.10566000000E+00  0.10566000000E+00 0.  1.
     999900   -1    0    0    0    0 -0.00000000000E+00 -0.00000000000E+00 -0.74505805969E-08  0.93827000000E+00  0.93827000000E+00 0. -1.
     999902    2    1    2    0    0 -0.10999385250E-01 -0.80095522605E-02  0.66497948414E-03  0.10303071662E+01  0.10302171010E+01 0.  0.
     999903    2    3    3    0    0  0.85981313890E-01  0.78804491492E-01  0.60206090009E-01  0.13874276692E+00  0.44964962826E-01 0.  0.
         14    1    1    2    0    0  0.10999385250E-01  0.80095522605E-02 -0.66497948414E-03  0.13622833810E-01  0.00000000000E+00 0. -1.
     999901    1    3    3    0    0 -0.96980699139E-01 -0.86814043752E-01 -0.59541110525E-01  0.89156439927E+00  0.88000000000E+00 0.  1.
        -11    1    4    4    0    0 -0.44019083555E-02  0.10112923185E-01  0.88104833730E-02  0.14125641606E-01  0.51100000000E-03 0.  1.
         11    1    4    4    0    0  0.90383222245E-01  0.68691568306E-01  0.51395606636E-01  0.12461712532E+00  0.51100000000E-03 0. -1.
</event>
<event>
 8    1  0.2183582E+004  0.1043930E+01  0.7957747E-01            NaN
         13   -1    0    0    0    0  0.00000000000E+00  0.00000000000E+00  0.74505805969E-08  0.10566000000E+00  0.10566000000E+00 0.  1.
     999900   -1    0    0    0    0 -0.00000000000E+00 -0.00000000000E+00 -0.74505805969E-08  0.93827000000E+00  0.93827000000E+00 0.  1.
     999902    2    1    2    0    0 -0.76876360242E-02  0.13228774014E-01 -0.25998602014E-03  0.10286274577E+01  0.10285136260E+01 0.  0.
     999903    2    3    3    0    0  0.12445879951E+00  0.34404094871E-01 -0.21210879341E-01  0.13826235582E+00  0.44642391432E-01 0.  0.
         14    1    1    2    0    0  0.76876360242E-02 -0.13228774014E-01  0.25998602014E-03  0.15302542347E-01  0.00000000000E+00 0. -1.
     999901    1    3    3    0    0 -0.13214643554E+00 -0.21175320857E-01  0.20950893321E-01  0.89036510184E+00  0.88000000000E+00 0. -1.
        -11    1    4    4    0    0  0.88264770901E-01  0.52825390927E-02 -0.33443799130E-02  0.88487405881E-01  0.51100000000E-03 0. -1.
         11    1    4    4    0    0  0.36194028614E-01  0.29121555778E-01 -0.17866499428E-01  0.49774949935E-01  0.51100000000E-03 0.  1.
</event>
<event>
 8    1  0.2183582E+004  0.1043930E+01  0.7957747E-01            NaN
         13   -1    0    0    0    0  0.00000000000E+00  0.00000000000E+00  0.74505805969E-08  0.10566000000E+00  0.10566000000E+00 0. -1.
     999900   -1    0    0    0    0 -0.00000000000E+00 -0.00000000000E+00 -0.74505805969E-08  0.93827000000E+00  0.93827000000E+00 0.  1.
     999902    2    1    2    0    0  0.66154762066E-03  0.13002236917E-01  0.16356372055E-02  0.10308086007E+01  0.10307250847E+01 0.  0.
     999903    2    3    3    0    0 -0.47362813966E-01 -0.12209595933E+00  0.16186216973E-01  0.13908578431E+00  0.43956823656E-01 0.  0.
         14    1    1    2    0    0 -0.66154762066E-03 -0.13002236917E-01 -0.16356372055E-02  0.13121399284E-01  0.00000000000E+00 0. -1.
     999901    1    3    3    0    0  0.48024361586E-01  0.13509819624E+00 -0.14550579767E-01  0.89172281641E+00  0.88000000000E+00 0.  1.
        -11    1    4    4    0    0 -0.45551724026E-01 -0.80351466440E-01  0.26406764822E-01  0.96067143551E-01  0.51100000000E-03 0. -1.
         11    1    4    4    0    0 -0.18110899396E-02 -0.41744492886E-01 -0.10220547850E-01  0.43018640755E-01  0.51100000000E-03 0.  1.
</event>
<event>
 8    1  0.2183582E+004  0.1043930E+01  0.7957747E-01            NaN
         13   -1    0    0    0    0  0.00000000000E+00  0.00000000000E+00  0.74505805969E-08  0.10566000000E+00  0.10566000000E+00 0. -1.
     999900   -1    0    0    0    0 -0.00000000000E+00 -0.00000000000E+00 -0.74505805969E-08  0.93827000000E+00  0.93827000000E+00 0.  1.
     999902    2    1    2    0    0  0.61137438937E-02 -0.95569094868E-02 -0.69852293559E-02  0.10306068693E+01  0.10305207485E+01 0.  0.
     999903    2    3    3    0    0 -0.53000780982E-01 -0.49598184582E-01  0.11072012437E+00  0.13990356229E+00  0.45221655237E-01 0.  0.
         14    1    1    2    0    0 -0.61137438937E-02  0.95569094868E-02  0.69852293559E-02  0.13323130732E-01  0.00000000000E+00 0. -1.
     999901    1    3    3    0    0  0.59114524876E-01  0.40041275095E-01 -0.11770535373E+00  0.89070330698E+00  0.88000000000E+00 0.  1.
        -11    1    4    4    0    0 -0.32095248610E-01 -0.15122701473E-01  0.84916658664E-01  0.92032065732E-01  0.51100000000E-03 0. -1.
         11    1    4    4    0    0 -0.20905532373E-01 -0.34475483108E-01  0.25803465708E-01  0.47871496560E-01  0.51100000000E-03 0.  1.
</event>
<event>
 8    1  0.2183582E+004  0.1043930E+01  0.7957747E-01            NaN
         13   -1    0    0    0    0  0.00000000000E+00  0.00000000000E+00  0.74505805969E-08  0.10566000000E+00  0.10566000000E+00 0. -1.
     999900   -1    0    0    0    0 -0.00000000000E+00 -0.00000000000E+00 -0.74505805969E-08  0.93827000000E+00  0.93827000000E+00 0.  1.
     999902    2    1    2    0    0  0.12591582012E-01  0.35816882138E-02  0.10832956938E-02  0.10307941727E+01  0.10307104718E+01 0.  0.
     999903    2    3    3    0    0  0.44497546550E-01  0.84156370246E-01 -0.94151544214E-01  0.14142363991E+00  0.45539063936E-01 0.  0.
         14    1    1    2    0    0 -0.12591582012E-01 -0.35816882138E-02 -0.10832956938E-02  0.13135827252E-01  0.00000000000E+00 0.  1.
     999901    1    3    3    0    0 -0.31905964538E-01 -0.80574682032E-01  0.95234839908E-01  0.88937053284E+00  0.88000000000E+00 0.  1.
        -11    1    4    4    0    0  0.23239802642E-01  0.41813548790E-01 -0.77737589705E-01  0.91278996836E-01  0.51100000000E-03 0.  1.
         11    1    4    4    0    0  0.21257743908E-01  0.42342821456E-01 -0.16413954510E-01  0.50144643069E-01  0.51100000000E-03 0. -1.
</event>
<event>
 8    1  0.2183582E+004  0.1043930E+01  0.7957747E-01            NaN
         13   -1    0    0    0    0  0.00000000000E+00  0.00000000000E+00  0.74505805969E-08  0.10566000000E+00  0.10566000000E+00 0.  1.
     999900   -1    0    0    0    0 -0.00000000000E+00 -0.00000000000E+00 -0.74505805969E-08  0.93827000000E+00  0.93827000000E+00 0. -1.
     999902    2    1    2    0    0  0.59960478892E-02  0.13726207169E-01 -0.12156061091E-02  0.10289020576E+01  0.10287923042E+01 0.  0.
     999903    2    3    3    0    0  0.28247383779E-01 -0.12689719035E+00  0.41478828253E-02  0.13744323700E+00  0.44414264084E-01 0.  0.
         14    1    1    2    0    0 -0.59960478892E-02 -0.13726207169E-01  0.12156061091E-02  0.15027942365E-01  0.00000000000E+00 0. -1.
     999901    1    3    3    0    0 -0.22251335890E-01  0.14062339752E+00 -0.53634889345E-02  0.89145882064E+00  0.88000000000E+00 0. -1.
        -11    1    4    4    0    0 -0.67271592530E-02 -0.13322305614E-01  0.10782508791E-01  0.18419069339E-01  0.51100000000E-03 0. -1.
         11    1    4    4    0    0  0.34974543032E-01 -0.11357488474E+00 -0.66346259654E-02  0.11902416766E+00  0.51100000000E-03 0.  1.
</event>
<event>
 8    1  0.2183582E+004  0.1043930E+01  0.7957747E-01            NaN
         13   -1    0    0    0    0  0.00000000000E+00  0.00000000000E+00  0.74505805969E-08  0.10566000000E+00  0.10566000000E+00 0.  1.
     999900   -1    0    0    0    0 -0.00000000000E+00 -0.00000000000E+00 -0.74505805969E-08  0.93827000000E+00  0.93827000000E+00 0.  1.
     999902    2    1    2    0    0 -0.81039991597E-03 -0.26078800931E-02  0.13545698316E-01  0.10301117610E+01  0.10300190757E+01 0.  0.
     999903    2    3    3    0    0  0.16475902349E-01 -0.24874982068E-01 -0.12597288077E+00  0.13867467740E+00  0.49711964084E-01 0.  0.
         14    1    1    2    0    0  0.81039991597E-03  0.26078800931E-02 -0.13545698316E-01  0.13818239015E-01  0.00000000000E+00 0. -1.
     999901    1    3    3    0    0 -0.17286302265E-01  0.22267101975E-01  0.13951857908E+00  0.89143708358E+00  0.88000000000E+00 0. -1.
        -11    1    4    4    0    0 -0.14205809013E-02 -0.66744924675E-02 -0.10610248126E+00  0.10632292579E+00  0.51100000000E-03 0. -1.
         11    1    4    4    0    0  0.17896483250E-01 -0.18200489601E-01 -0.19870399511E-01  0.32351751609E-01  0.51100000000E-03 0.  1.
</event>
<event>
 8    1  0.2183582E+004  0.1043930E+01  0.7957747E-01            NaN
         13   -1    0    0    0    0  0.00000000000E+00  0.00000000000E+00  0.74505805969E-08  0.10566000000E+00  0.10566000000E+00 0.  1.
     999900   -1    0    0    0    0 -0.00000000000E+00 -0.00000000000E+00 -0.74505805969E-08  0.93827000000E+00  0.93827000000E+00 0.  1.
     999902    2    1    2    0    0 -0.77752402419E-03 -0.10474862154E-01  0.83199819535E-02  0.10305303963E+01  0.10304432775E+01 0.  0.
     999903    2    3    3    0    0  0.28497605262E-01 -0.21990053326E-01  0.12939793397E+00  0.14168310719E+00  0.45106558228E-01 0.  0.
         14    1    1    2    0    0  0.77752402419E-03  0.10474862154E-01 -0.83199819535E-02  0.13399603743E-01  0.00000000000E+00 0. -1.
     999901    1    3    3    0    0 -0.29275129286E-01  0.11515191172E-01 -0.12107795202E+00  0.88884728907E+00  0.88000000000E+00 0.  1.
        -11    1    4    4    0    0  0.19044617016E-01 -0.34063376470E-02  0.12728314205E-01  0.23164016857E-01  0.51100000000E-03 0.  1.
         11    1    4    4    0    0  0.94529882460E-02 -0.18583715679E-01  0.11666961977E+00  0.11851909033E+00  0.51100000000E-03 0. -1.
</event>
<event>
 8    1  0.2183582E+004  0.1043930E+01  0.7957747E-01            NaN
         13   -1    0    0    0    0  0.00000000000E+00  0.00000000000E+00  0.74505805969E-08  0.10566000000E+00  0.10566000000E+00 0. -1.
     999900   -1    0    0    0    0 -0.00000000000E+00 -0.00000000000E+00 -0.74505805969E-08  0.93827000000E+00  0.93827000000E+00 0. -1.
     999902    2    1    2    0    0  0.18202215286E-02  0.10938494968E-01  0.81136843661E-02  0.10301897033E+01  0.10300980677E+01 0.  0.
     999903    2    3    3    0    0  0.85539557448E-01 -0.50625800859E-01 -0.86152349564E-01  0.13907513444E+00  0.45162795357E-01 0.  0.
         14    1    1    2    0    0 -0.18202215286E-02 -0.10938494968E-01 -0.81136843661E-02  0.13740296670E-01  0.00000000000E+00 0.  1.
     999901    1    3    3    0    0 -0.83719335919E-01  0.61564295827E-01  0.94266033930E-01  0.89111456889E+00  0.88000000000E+00 0.  1.
        -11    1    4    4    0    0  0.75814834284E-01 -0.22524151562E-01 -0.67409529631E-01  0.10392079824E+00  0.51100000000E-03 0.  1.
         11    1    4    4    0    0  0.97247231635E-02 -0.28101649297E-01 -0.18742819933E-01  0.35154336203E-01  0.51100000000E-03 0. -1.
</event>
<event>
 8    1  0.2183582E+004  0.1043930E+01  0.7957747E-01            NaN
         13   -1    0    0    0    0  0.00000000000E+00  0.00000000000E+00  0.74505805969E-08  0.10566000000E+00  0.10566000000E+00 0.  1.
     999900   -1    0    0    0    0 -0.00000000000E+00 -0.00000000000E+00 -0.74505805969E-08  0.93827000000E+00  0.93827000000E+00 0. -1.
     999902    2    1    2    0    0  0.16593926260E-02 -0.37662257306E-02  0.15089472100E-01  0.10282893412E+01  0.10281703842E+01 0.  0.
     999903    2    3    3    0    0 -0.70355766725E-01 -0.27571259680E-01  0.10874692470E+00  0.14007507579E+00  0.45662073471E-01 0.  0.
         14    1    1    2    0    0 -0.16593926260E-02  0.37662257306E-02 -0.15089472100E-01  0.15640658822E-01  0.00000000000E+00 0. -1.
     999901    1    3    3    0    0  0.72015159351E-01  0.23805033950E-01 -0.93657452597E-01  0.88821426539E+00  0.88000000000E+00 0. -1.
        -11    1    4    4    0    0 -0.55200056393E-01  0.54005899141E-03  0.57672515089E-01  0.79835568559E-01  0.51100000000E-03 0. -1.
         11    1    4    4    0    0 -0.15155710332E-01 -0.28111318672E-01  0.51074409608E-01  0.60239507227E-01  0.51100000000E-03 0.  1.
</event>
<event>
 8    1  0.2183582E+004  0.1043930E+01  0.7957747E-01            NaN
         13   -1    0    0    0    0  0.00000000000E+00  0.00000000000E+00  0.74505805969E-08  0.10566000000E+00  0.10566000000E+00 0. -1.
     999900   -1    0    0    0    0 -0.00000000000E+00 -0.00000000000E+00 -0.74505805969E-08  0.93827000000E+00  0.93827000000E+00 0. -1.
     999902    2    1    2    0    0  0.13667011876E-01  0.66521848960E-03  0.40040095575E-02  0.10296730080E+01  0.10295743011E+01 0.  0.
     999903    2    3    3    0    0  0.69133095257E-01  0.11207264455E+00  0.21770138603E-01  0.14073896299E+00  0.44652595124E-01 0.  0.
         14    1    1    2    0    0 -0.13667011876E-01 -0.66521848960E-03 -0.40040095575E-02  0.14256992032E-01  0.00000000000E+00 0.  1.
     999901    1    3    3    0    0 -0.55466083381E-01 -0.11140742606E+00 -0.17766129045E-01  0.88893404498E+00  0.88000000000E+00 0.  1.
        -11    1    4    4    0    0  0.39146292739E-01  0.39969430673E-01  0.27684568498E-01  0.62423425711E-01  0.51100000000E-03 0. -1.
         11    1    4    4    0    0  0.29986802518E-01  0.72103213877E-01 -0.59144298958E-02  0.78315537275E-01  0.51100000000E-03 0.  1.
</event>
<event>
 8    1  0.2183582E+004  0.1043930E+01  0.7957747E-01            NaN
         13   -1    0    0    0    0  0.00000000000E+00  0.00000000000E+00  0.74505805969E-08  0.10566000000E+00  0.10566000000E+00 0.  1.
     999900   -1    0    0    0    0 -0.00000000000E+00 -0.00000000000E+00 -0.74505805969E-08  0.93827000000E+00  0.93827000000E+00 0.  1.
     999902    2    1    2    0    0  0.21137255443E-02 -0.96641699086E-02 -0.96123365710E-02  0.10301364859E+01  0.10300441343E+01 0.  0.
     999903    2    3    3    0    0  0.68467370112E-01  0.11199067180E+00  0.12359682754E-01  0.13902174794E+00  0.44097543019E-01 0.  0.
         14    1    1    2    0    0 -0.21137255443E-02  0.96641699086E-02  0.96123365710E-02  0.13793514057E-01  0.00000000000E+00 0.  1.
     999901    1    3    3    0    0 -0.66353644568E-01 -0.12165484171E+00 -0.21972019325E-01  0.89111473801E+00  0.88000000000E+00 0.  1.
        -11    1    4    4    0    0  0.42421182654E-01  0.60149894217E-01  0.28291336294E-01  0.78855737536E-01  0.51100000000E-03 0.  1.
         11    1    4    4    0    0  0.26046187457E-01  0.51840777587E-01 -0.15931653540E-01  0.60166010399E-01  0.51100000000E-03 0. -1.
</event>
<event>
 8    1  0.2183582E+004  0.1043930E+01  0.7957747E-01            NaN
         13   -1    0    0    0    0  0.00000000000E+00  0.00000000000E+00  0.74505805969E-08  0.10566000000E+00  0.10566000000E+00 0.  1.
     999900   -1    0    0    0    0 -0.00000000000E+00 -0.00000000000E+00 -0.74505805969E-08  0.93827000000E+00  0.93827000000E+00 0.  1.
     999902    2    1    2    0    0 -0.15925538257E-02 -0.14761582307E-01 -0.50798826870E-02  0.10282377807E+01  0.10281180320E+01 0.  0.
     999903    2    3    3    0    0 -0.41190239036E-01 -0.38531146961E-01  0.11821086120E+00  0.13844366042E+00  0.44850354811E-01 0.  0.
         14    1    1    2    0    0  0.15925538257E-02  0.14761582307E-01  0.50798826870E-02  0.15692219346E-01  0.00000000000E+00 0.  1.
     999901    1    3    3    0    0  0.39597685210E-01  0.23769564654E-01 -0.12329074389E+00  0.88979412024E+00  0.88000000000E+00 0.  1.
        -11    1    4    4    0    0 -0.50454190160E-02  0.99029284809E-02  0.24870425521E-01  0.27245613080E-01  0.51100000000E-03 0. -1.
         11    1    4    4    0    0 -0.36144820020E-01 -0.48434075442E-01  0.93340435678E-01  0.11119804734E+00  0.51100000000E-03 0.  1.
</event>
<event>
 8    1  0.2183582E+004  0.1043930E+01  0.7957747E-01            NaN
         13   -1    0    0    0    0  0.00000000000E+00  0.00000000000E+00  0.74505805969E-08  0.10566000000E+00  0.10566000000E+00 0. -1.
     999900   -1    0    0    0    0 -0.00000000000E+00 -0.00000000000E+00 -0.74505805969E-08  0.93827000000E+00  0.93827000000E+00 0. -1.
     999902    2    1    2    0    0 -0.11253879991E-02 -0.10159784303E-01 -0.93074417788E-02  0.10301055222E+01  0.10300127526E+01 0.  0.
     999903    2    3    3    0    0  0.90082847157E-01 -0.37731145327E-01  0.88793049615E-01  0.13954231355E+00  0.45269116748E-01 0.  0.
         14    1    1    2    0    0  0.11253879991E-02  0.10159784303E-01  0.93074417788E-02  0.13824477846E-01  0.00000000000E+00 0. -1.
     999901    1    3    3    0    0 -0.91208235157E-01  0.27571361024E-01 -0.98100491394E-01  0.89056320860E+00  0.88000000000E+00 0. -1.
        -11    1    4    4    0    0  0.20023579747E-01 -0.23831059496E-01  0.89047760881E-02  0.32379303586E-01  0.51100000000E-03 0. -1.
         11    1    4    4    0    0  0.70059267411E-01 -0.13900085831E-01  0.79888273527E-01  0.10716300996E+00  0.51100000000E-03 0.  1.
</event>
<event>
 8    1  0.2183582E+004  0.1043930E+01  0.7957747E-01            NaN
         13   -1    0    0    0    0  0.00000000000E+00  0.00000000000E+00  0.74505805969E-08  0.10566000000E+00  0.10566000000E+00 0.  1.
     999900   -1    0    0    0    0 -0.00000000000E+00 -0.00000000000E+00 -0.74505805969E-08  0.93827000000E+00  0.93827000000E+00 0. -1.
     999902    2    1    2    0    0  0.10999972187E-02 -0.77312771651E-02 -0.12164749025E-01  0.10294744212E+01  0.10293729257E+01 0.  0.
     999903    2    3    3    0    0 -0.66062430464E-01  0.11124420397E+00  0.19446405908E-01  0.13837104786E+00  0.45042941161E-01 0.  0.
         14    1    1    2    0    0 -0.10999972187E-02  0.77312771651E-02  0.12164749025E-01  0.14455578831E-01  0.00000000000E+00 0.  1.
     999901    1    3    3    0    0  0.67162427682E-01 -0.11897548113E+00 -0.31611154933E-01  0.89110337331E+00  0.88000000000E+00 0.  1.
        -11    1    4    4    0    0 -0.30747165307E-01  0.91339034794E-01  0.11536254475E-01  0.97064688429E-01  0.51100000000E-03 0. -1.
         11    1    4    4    0    0 -0.35315265156E-01  0.19905169174E-01  0.79101514326E-02  0.41306359433E-01  0.51100000000E-03 0.  1.
</event>
<event>
 8    1  0.2183582E+004  0.1043930E+01  0.7957747E-01            NaN
         13   -1    0    0    0    0  0.00000000000E+00  0.00000000000E+00  0.74505805969E-08  0.10566000000E+00  0.10566000000E+00 0.  1.
     999900   -1    0    0    0    0 -0.00000000000E+00 -0.00000000000E+00 -0.74505805969E-08  0.93827000000E+00  0.93827000000E+00 0. -1.
     999902    2    1    2    0    0  0.52248469471E-02 -0.10255336245E-01  0.87913248719E-02  0.10294469637E+01  0.10293450795E+01 0.  0.
     999903    2    3    3    0    0 -0.35158059393E-02 -0.10767407311E+00 -0.77725837818E-01  0.13981106699E+00  0.43586255576E-01 0.  0.
         14    1    1    2    0    0 -0.52248469471E-02  0.10255336245E-01 -0.87913248719E-02  0.14483036288E-01  0.00000000000E+00 0. -1.
     999901    1    3    3    0    0  0.87406528863E-02  0.97418736866E-01  0.86517162690E-01  0.88963589673E+00  0.88000000000E+00 0.  1.
        -11    1    4    4    0    0  0.10623229578E-01 -0.44172823030E-01 -0.11271566560E-01  0.46812398303E-01  0.51100000000E-03 0.  1.
         11    1    4    4    0    0 -0.14139035517E-01 -0.63501250081E-01 -0.66454271259E-01  0.92998668682E-01  0.51100000000E-03 0. -1.
</event>
<event>
 8    1  0.2183582E+004  0.1043930E+01  0.7957747E-01            NaN
         13   -1    0    0    0    0  0.00000000000E+00  0.00000000000E+00  0.74505805969E-08  0.10566000000E+00  0.10566000000E+00 0. -1.
     999900   -1    0    0    0    0 -0.00000000000E+00 -0.00000000000E+00 -0.74505805969E-08  0.93827000000E+00  0.93827000000E+00 0. -1.
     999902    2    1    2    0    0 -0.20206762682E-01 -0.16910674565E-02 -0.32299211386E-02  0.10233969691E+01  0.10231909651E+01 0.  0.
     999903    2    3    3    0    0 -0.28889964266E-01 -0.12068015415E+00 -0.28169037357E-01  0.13499629359E+00  0.45079651467E-01 0.  0.
         14    1    1    2    0    0  0.20206762682E-01  0.16910674565E-02  0.32299211386E-02  0.20533030897E-01  0.00000000000E+00 0. -1.
     999901    1    3    3    0    0  0.86832015831E-02  0.11898908669E+00  0.24939116218E-01  0.88840067552E+00  0.88000000000E+00 0.  1.
        -11    1    4    4    0    0  0.80521752633E-03 -0.34816201666E-01 -0.27107256429E-01  0.44134801980E-01  0.51100000000E-03 0.  1.
         11    1    4    4    0    0 -0.29695181792E-01 -0.85863952480E-01 -0.10617809284E-02  0.90861491606E-01  0.51100000000E-03 0. -1.
</event>
<event>
 8    1  0.2183582E+004  0.1043930E+01  0.7957747E-01            NaN
         13   -1    0    0    0    0  0.00000000000E+00  0.00000000000E+00  0.74505805969E-08  0.10566000000E+00  0.10566000000E+00 0. -1.
     999900   -1    0    0    0    0 -0.00000000000E+00 -0.00000000000E+00 -0.74505805969E-08  0.93827000000E+00  0.93827000000E+00 0.  1.
     999902    2    1    2    0    0 -0.75119102748E-02  0.12241031059E-01  0.26710511170E-02  0.10293215726E+01  0.10292179039E+01 0.  0.
     999903    2    3    3    0    0 -0.17067218293E-01 -0.18486943300E-01  0.13066130323E+00  0.13948056603E+00  0.41825771072E-01 0.  0.
         14    1    1    2    0    0  0.75119102748E-02 -0.12241031059E-01 -0.26710511170E-02  0.14608427411E-01  0.00000000000E+00 0.  1.
     999901    1    3    3    0    0  0.95553080178E-02  0.30727974359E-01 -0.12799025211E+00  0.88984100656E+00  0.88000000000E+00 0.  1.
        -11    1    4    4    0    0  0.50611580633E-02  0.10464829546E-01  0.42980481240E-01  0.44527641605E-01  0.51100000000E-03 0.  1.
         11    1    4    4    0    0 -0.22128376356E-01 -0.28951772846E-01  0.87680821988E-01  0.94952924424E-01  0.51100000000E-03 0. -1.
</event>
<event>
 8    1  0.2183582E+004  0.1043930E+01  0.7957747E-01            NaN
         13   -1    0    0    0    0  0.00000000000E+00  0.00000000000E+00  0.74505805969E-08  0.10566000000E+00  0.10566000000E+00 0. -1.
     999900   -1    0    0    0    0 -0.00000000000E+00 -0.00000000000E+00 -0.74505805969E-08  0.93827000000E+00  0.93827000000E+00 0.  1.
     999902    2    1    2    0    0 -0.47460011849E-02  0.15349607645E-01  0.49962043463E-02  0.10271045122E+01  0.10269666898E+01 0.  0.
     999903    2    3    3    0    0  0.10779113613E+00  0.64620708281E-01  0.35596832967E-01  0.13804397033E+00  0.44656894868E-01 0.  0.
         14    1    1    2    0    0  0.47460011849E-02 -0.15349607645E-01 -0.49962043463E-02  0.16825487808E-01  0.00000000000E+00 0.  1.
     999901    1    3    3    0    0 -0.11253713731E+00 -0.49271100636E-01 -0.30600628621E-01  0.88906054187E+00  0.88000000000E+00 0.  1.
        -11    1    4    4    0    0  0.68836892006E-01  0.64591239426E-01  0.24088287009E-01  0.97422033460E-01  0.51100000000E-03 0.  1.
         11    1    4    4    0    0  0.38954244122E-01  0.29468855784E-04  0.11508545959E-01  0.40621936865E-01  0.51100000000E-03 0. -1.
</event>
<event>
 8    1  0.2183582E+004  0.1043930E+01  0.7957747E-01            NaN
         13   -1    0    0    0    0  0.00000000000E+00  0.00000000000E+00  0.74505805969E-08  0.10566000000E+00  0.10566000000E+00 0. -1.
     999900   -1    0    0    0    0 -0.00000000000E+00 -0.00000000000E+00 -0.74505805969E-08  0.93827000000E+00  0.93827000000E+00 0. -1.
     999902    2    1    2    0    0  0.44553738996E-02  0.10516471085E-01 -0.93316397441E-02  0.10291812366E+01  0.10290755520E+01 0.  0.
     999903    2    3    3    0    0  0.47572027050E-01 -0.50647898775E-01 -0.11275874409E+00  0.13996962411E+00  0.45262058038E-01 0.  0.
         14    1    1    2    0    0 -0.44553738996E-02 -0.10516471085E-01  0.93316397441E-02  0.14748763371E-01  0.00000000000E+00 0. -1.
     999901    1    3    3    0    0 -0.43116653150E-01  0.61164369860E-01  0.10342710435E+00  0.88921161252E+00  0.88000000000E+00 0.  1.
        -11    1    4    4    0    0  0.45603054113E-01 -0.18135218305E-01 -0.55461586341E-01  0.74059255788E-01  0.51100000000E-03 0.  1.
         11    1    4    4    0    0  0.19689729373E-02 -0.32512680470E-01 -0.57297157749E-01  0.65910368326E-01  0.51100000000E-03 0. -1.
</event>
<event>
 8    1  0.2183582E+004  0.1043930E+01  0.7957747E-01            NaN
         13   -1    0    0    0    0  0.00000000000E+00  0.00000000000E+00  0.74505805969E-08  0.10566000000E+00  0.10566000000E+00 0. -1.
     999900   -1    0    0    0    0 -0.00000000000E+00 -0.00000000000E+00 -0.74505805969E-08  0.93827000000E+00  0.93827000000E+00 0.  1.
     999902    2    1    2    0    0  0.70326961973E-02  0.38067209335E-02 -0.11261668748E-01  0.10301178632E+01  0.10300252603E+01 0.  0.
     999903    2    3    3    0    0 -0.57723469718E-01  0.11907313704E+00 -0.12026540112E-01  0.14024130281E+00  0.44861725623E-01 0.  0.
         14    1    1    2    0    0 -0.70326961973E-02 -0.38067209335E-02  0.11261668748E-01  0.13812136803E-01  0.00000000000E+00 0. -1.
     999901    1    3    3    0    0  0.64756165916E-01 -0.11526641610E+00  0.76487136389E-03  0.88987656039E+00  0.88000000000E+00 0. -1.
        -11    1    4    4    0    0 -0.49679400437E-01  0.82882368479E-01  0.99451062628E-02  0.97142658457E-01  0.51100000000E-03 0. -1.
         11    1    4    4    0    0 -0.80440692818E-02  0.36190768556E-01 -0.21971646375E-01  0.43098644349E-01  0.51100000000E-03 0.  1.
</event>
<event>
 8    1  0.2183582E+004  0.1043930E+01  0.7957747E-01            NaN
         13   -1    0    0    0    0  0.00000000000E+00  0.00000000000E+00  0.74505805969E-08  0.10566000000E+00  0.10566000000E+00 0. -1.
     999900   -1    0    0    0    0 -0.00000000000E+00 -0.00000000000E+00 -0.74505805969E-08  0.93827000000E+00  0.93827000000E+00 0.  1.
     999902    2    1    2    0    0  0.62480081231E-03 -0.10835432506E-01  0.70158682887E-02  0.10310064021E+01  0.10309254007E+01 0.  0.
     999903    2    3    3    0    0 -0.60248683913E-01 -0.11181261471E+00  0.45716758269E-01  0.14229962747E+00  0.45024407500E-01 0.  0.
         14    1    1    2    0    0 -0.62480081231E-03  0.10835432506E-01 -0.70158682887E-02  0.12923597854E-01  0.00000000000E+00 0.  1.
     999901    1    3    3    0    0  0.60873484725E-01  0.10097718220E+00 -0.38700889980E-01  0.88870677468E+00  0.88000000000E+00 0.  1.
        -11    1    4    4    0    0 -0.53796722676E-01 -0.53374949212E-01  0.29351115284E-01  0.81269438680E-01  0.51100000000E-03 0. -1.
         11    1    4    4    0    0 -0.64519612363E-02 -0.58437665497E-01  0.16365642985E-01  0.61030188790E-01  0.51100000000E-03 0.  1.
</event>
<event>
 8    1  0.2183582E+004  0.1043930E+01  0.7957747E-01            NaN
         13   -1    0    0    0    0  0.00000000000E+00  0.00000000000E+00  0.74505805969E-08  0.10566000000E+00  0.10566000000E+00 0. -1.
     999900   -1    0    0    0    0 -0.00000000000E+00 -0.00000000000E+00 -0.74505805969E-08  0.93827000000E+00  0.93827000000E+00 0. -1.
     999902    2    1    2    0    0 -0.24930228503E-02  0.31769207084E-03 -0.13698860260E-01  0.10300025141E+01  0.10299083475E+01 0.  0.
     999903    2    3    3    0    0 -0.38416704923E-01  0.37353214371E-01  0.11952122803E+00  0.13848149204E+00  0.44952128375E-01 0.  0.
         14    1    1    2    0    0  0.24930228503E-02 -0.31769207084E-03  0.13698860260E-01  0.13927485904E-01  0.00000000000E+00 0. -1.
     999901    1    3    3    0    0  0.35923682073E-01 -0.37035522300E-01 -0.13322008829E+00  0.89152102206E+00  0.88000000000E+00 0. -1.
        -11    1    4    4    0    0 -0.59444942137E-02 -0.10387684967E-01  0.16614125317E-01  0.20482463023E-01  0.51100000000E-03 0.  1.
         11    1    4    4    0    0 -0.32472210709E-01  0.47740899339E-01  0.10290710272E+00  0.11799902902E+00  0.51100000000E-03 0. -1.
</event>
<event>
 8    1  0.2183582E+004  0.1043930E+01  0.7957747E-01            NaN
         13   -1    0    0    0    0  0.00000000000E+00  0.00000000000E+00  0.74505805969E-08  0.10566000000E+00  0.10566000000E+00 0.  1.
     999900   -1    0    0    0    0 -0.00000000000E+00 -0.00000000000E+00 -0.74505805969E-08  0.93827000000E+00  0.93827000000E+00 0. -1.
     999902    2    1    2    0    0 -0.17717480179E-02 -0.11537013832E-01 -0.80314201802E-02  0.10297615319E+01  0.10296640554E+01 0.  0.
     999903    2    3    3    0    0  0.74734785906E-01 -0.74604387080E-01  0.79691798720E-01  0.13985923024E+00  0.45373105517E-01 0.  0.
         14    1    1    2    0    0  0.17717480179E-02  0.11537013832E-01  0.80314201802E-02  0.14168468136E-01  0.00000000000E+00 0.  1.
     999901    1    3    3    0    0 -0.76506533924E-01  0.63067373247E-01 -0.87723218900E-01  0.88990230162E+00  0.88000000000E+00 0.  1.
        -11    1    4    4    0    0  0.31664051453E-01 -0.62640797500E-01  0.50452659484E-01  0.86441966867E-01  0.51100000000E-03 0. -1.
         11    1    4    4    0    0  0.43070734454E-01 -0.11963589579E-01  0.29239139236E-01  0.53417263373E-01  0.51100000000E-03 0.  1.
</event>
<event>
 8    1  0.2183582E+004  0.1043930E+01  0.7957747E-01            NaN
         13   -1    0    0    0    0  0.00000000000E+00  0.00000000000E+00  0.74505805969E-08  0.10566000000E+00  0.10566000000E+00 0.  1.
     999900   -1    0    0    0    0 -0.00000000000E+00 -0.00000000000E+00 -0.74505805969E-08  0.93827000000E+00  0.93827000000E+00 0. -1.
     999902    2    1    2    0    0  0.12355233638E-02  0.20988456457E-02 -0.13381400668E-01  0.10303287664E+01  0.10302389885E+01 0.  0.
     999903    2    3    3    0    0  0.12119737205E+00 -0.55726344096E-01  0.11799928807E-01  0.13995317317E+00  0.40662315993E-01 0.  0.
         14    1    1    2    0    0 -0.12355233638E-02 -0.20988456457E-02  0.13381400668E-01  0.13601233578E-01  0.00000000000E+00 0.  1.
     999901    1    3    3    0    0 -0.11996184869E+00  0.57825189742E-01 -0.25181329475E-01  0.89037559325E+00  0.88000000000E+00 0. -1.
        -11    1    4    4    0    0  0.11724804330E+00 -0.49244727746E-01  0.20038242034E-01  0.12873981177E+00  0.51100000000E-03 0.  1.
         11    1    4    4    0    0  0.39493287449E-02 -0.64816163497E-02 -0.82383132266E-02  0.11213361399E-01  0.51100000000E-03 0. -1.
</event>
<event>
 8    1  0.2183582E+004  0.1043930E+01  0.7957747E-01            NaN
         13   -1    0    0    0    0  0.00000000000E+00  0.00000000000E+00  0.74505805969E-08  0.10566000000E+00  0.10566000000E+00 0. -1.
     999900   -1    0    0    0    0 -0.00000000000E+00 -0.00000000000E+00 -0.74505805969E-08  0.93827000000E+00  0.93827000000E+00 0.  1.
     999902    2    1    2    0    0 -0.51455663168E-02  0.98356587958E-02  0.79510536386E-02  0.10302758325E+01  0.10301853497E+01 0.  0.
     999903    2    3    3    0    0  0.96841487087E-01 -0.80037868425E-01  0.38059119388E-01  0.13932964691E+00  0.46689612729E-01 0.  0.
         14    1    1    2    0    0  0.51455663168E-02 -0.98356587958E-02 -0.79510536386E-02  0.13654167519E-01  0.00000000000E+00 0.  1.
     999901    1    3    3    0    0 -0.10198705340E+00  0.89873527221E-01 -0.30108065749E-01  0.89094618557E+00  0.88000000000E+00 0.  1.
        -11    1    4    4    0    0  0.91684901580E-01 -0.75154442747E-01  0.47320777595E-01  0.12764728182E+00  0.51100000000E-03 0. -1.
         11    1    4    4    0    0  0.51565855069E-02 -0.48834256778E-02 -0.92616582070E-02  0.11682365094E-01  0.51100000000E-03 0.  1.
</event>
<event>
 8    1  0.2183582E+004  0.1043930E+01  0.7957747E-01            NaN
         13   -1    0    0    0    0  0.00000000000E+00  0.00000000000E+00  0.74505805969E-08  0.10566000000E+00  0.10566000000E+00 0.  1.
     999900   -1    0    0    0    0 -0.00000000000E+00 -0.00000000000E+00 -0.74505805969E-08  0.93827000000E+00  0.93827000000E+00 0. -1.
     999902    2    1    2    0    0  0.40673054669E-02 -0.12271840758E-01  0.55062908541E-02  0.10298779436E+01  0.10297820733E+01 0.  0.
     999903    2    3    3    0    0 -0.95708391676E-01  0.48532926322E-01  0.76640326866E-01  0.13930932723E+00  0.44920015308E-01 0.  0.
         14    1    1    2    0    0 -0.40673054669E-02  0.12271840758E-01 -0.55062908541E-02  0.14052056373E-01  0.00000000000E+00 0. -1.
     999901    1    3    3    0    0  0.99775697143E-01 -0.60804767080E-01 -0.71134036012E-01  0.89056861640E+00  0.88000000000E+00 0. -1.
        -11    1    4    4    0    0 -0.98467739483E-02  0.27305045113E-02 -0.58064880275E-02  0.11763971961E-01  0.51100000000E-03 0. -1.
         11    1    4    4    0    0 -0.85861617727E-01  0.45802421810E-01  0.82446814894E-01  0.12754535526E+00  0.51100000000E-03 0.  1.
</event>
<event>
 8    1  0.2446741E+004  0.1043930E+01  0.7957747E-01            NaN
         13   -1    0    0    0    0  0.00000000000E+00  0.00000000000E+00  0.74505805969E-08  0.10566000000E+00  0.10566000000E+00 0.  1.
     999900   -1    0    0    0    0 -0.00000000000E+00 -0.00000000000E+00 -0.74505805969E-08  0.93827000000E+00  0.93827000000E+00 0.  1.
     999902    2    1    2    0    0  0.74526415398E-02  0.11149807546E-01 -0.36876529340E-02  0.10300210511E+01  0.10299271367E+01 0.  0.
     999903    2    3    3    0    0 -0.51731033609E-01 -0.34861414950E-01 -0.11633939543E+00  0.13967833337E+00  0.45648261674E-01 0.  0.
         14    1    1    2    0    0 -0.74526415398E-02 -0.11149807546E-01  0.36876529340E-02  0.13908948860E-01  0.00000000000E+00 0.  1.
     999901    1    3    3    0    0  0.59183675149E-01  0.46011222497E-01  0.11265174249E+00  0.89034271777E+00  0.88000000000E+00 0. -1.
        -11    1    4    4    0    0 -0.95198855031E-02 -0.32937564966E-01 -0.61895823141E-01  0.70759207523E-01  0.51100000000E-03 0.  1.
         11    1    4    4    0    0 -0.42211148106E-01 -0.19238499841E-02 -0.54443572286E-01  0.68919125847E-01  0.51100000000E-03 0. -1.
</event>
<event>
 7    1  0.4719526E+004  0.1043930E+01  0.7957747E-01            NaN
         13   -1    0    0    0    0  0.00000000000E+00  0.00000000000E+00  0.74505805969E-08  0.10566000000E+00  0.10566000000E+00 0.  1.
     999900   -1    0    0    0    0 -0.00000000000E+00 -0.00000000000E+00 -0.74505805969E-08  0.93827000000E+00  0.93827000000E+00 0.  1.
     999903    2    1    2    0    0  0.12477340308E-01  0.75460467016E-01  0.34364023589E-01  0.95142443817E-01  0.44958118232E-01 0.  0.
         14    1    1    2    0    0 -0.87724772188E-02  0.71327685930E-02  0.58927733418E-01  0.60002587529E-01  0.00000000000E+00 0.  1.
     999901    1    1    2    0    0 -0.37048630894E-02 -0.82593235609E-01 -0.93291757007E-01  0.88878496865E+00  0.88000000000E+00 0.  1.
        -11    1    3    3    0    0  0.13712051615E-01  0.30429706939E-01  0.37227000956E-01  0.50000981441E-01  0.51100000000E-03 0.  1.
         11    1    3    3    0    0 -0.12347113071E-02  0.45030760076E-01 -0.28629773669E-02  0.45141462376E-01  0.51100000000E-03 0. -1.
</event>
<event>
 7    1  0.2183582E+004  0.1043930E+01  0.7957747E-01            NaN
         13   -1    0    0    0    0  0.00000000000E+00  0.00000000000E+00  0.74505805969E-08  0.10566000000E+00  0.10566000000E+00 0.  1.
     999900   -1    0    0    0    0 -0.00000000000E+00 -0.00000000000E+00 -0.74505805969E-08  0.93827000000E+00  0.93827000000E+00 0. -1.
     999903    2    1    2    0    0  0.84662494909E-01 -0.46292801697E-01 -0.55682172788E-01  0.12025083035E+00  0.45265840334E-01 0.  0.
         14    1    1    2    0    0 -0.25977161086E-01 -0.45235981894E-02  0.29927456423E-01  0.39886444898E-01  0.00000000000E+00 0.  1.
     999901    1    1    2    0    0 -0.58685333823E-01  0.50816399887E-01  0.25754716366E-01  0.88379272475E+00  0.88000000000E+00 0.  1.
        -11    1    3    3    0    0  0.32760324004E-01  0.22489001295E-02 -0.56120246452E-02  0.33317447716E-01  0.51100000000E-03 0. -1.
         11    1    3    3    0    0  0.51902170904E-01 -0.48541701827E-01 -0.50070148143E-01  0.86933382638E-01  0.51100000000E-03 0.  1.
</event>
<event>
 8    1  0.2183582E+004  0.1043930E+01  0.7957747E-01            NaN
         13   -1    0    0    0    0  0.00000000000E+00  0.00000000000E+00  0.74505805969E-08  0.10566000000E+00  0.10566000000E+00 0.  1.
     999900   -1    0    0    0    0 -0.00000000000E+00 -0.00000000000E+00 -0.74505805969E-08  0.93827000000E+00  0.93827000000E+00 0.  1.
     999902    2    1    2    0    0  0.12010958215E-01  0.13276586776E-01  0.80309085890E-02  0.10243079113E+01  0.10241199494E+01 0.  0.
     999903    2    3    3    0    0  0.11156327712E+00 -0.56089626275E-01  0.34364031147E-02  0.13597044994E+00  0.53700497329E-01 0.  0.
         14    1    1    2    0    0 -0.12010958215E-01 -0.13276586776E-01 -0.80309085890E-02  0.19622088738E-01  0.00000000000E+00 0.  1.
     999901    1    3    3    0    0 -0.99552318902E-01  0.69366213051E-01  0.45945054743E-02  0.88833746132E+00  0.88000000000E+00 0. -1.
        -11    1    4    4    0    0  0.68488475421E-01 -0.36512326512E-01  0.28181629166E-01  0.82572916845E-01  0.51100000000E-03 0. -1.
         11    1    4    4    0    0  0.43074801696E-01 -0.19577299762E-01 -0.24745226051E-01  0.53397533093E-01  0.51100000000E-03 0.  1.
</event>
<event>
 8    1  0.2183582E+004  0.1043930E+01  0.7957747E-01            NaN
         13   -1    0    0    0    0  0.00000000000E+00  0.00000000000E+00  0.74505805969E-08  0.10566000000E+00  0.10566000000E+00 0.  1.
     999900   -1    0    0    0    0 -0.00000000000E+00 -0.00000000000E+00 -0.74505805969E-08  0.93827000000E+00  0.93827000000E+00 0.  1.
     999902    2    1    2    0    0  0.68120017086E-02 -0.47580601734E-02 -0.10973298701E-01  0.10301657060E+01  0.10300737479E+01 0.  0.
     999903    2    3    3    0    0 -0.83105196648E-01  0.28374281999E-01  0.97059558746E-01  0.13839558266E+00  0.44957822093E-01 0.  0.
         14    1    1    2    0    0 -0.68120017086E-02  0.47580601734E-02  0.10973298701E-01  0.13764293962E-01  0.00000000000E+00 0.  1.
     999901    1    3    3    0    0  0.89917198357E-01 -0.33132342173E-01 -0.10803285745E+00  0.89177012338E+00  0.88000000000E+00 0.  1.
        -11    1    4    4    0    0 -0.27725141878E-01 -0.49790611027E-02  0.53423605206E-01  0.60397162647E-01  0.51100000000E-03 0.  1.
         11    1    4    4    0    0 -0.55380054770E-01  0.33353343102E-01  0.43635953540E-01  0.77998420014E-01  0.51100000000E-03 0. -1.
</event>
<event>
 8    1  0.2183582E+004  0.1043930E+01  0.7957747E-01            NaN
         13   -1    0    0    0    0  0.00000000000E+00  0.00000000000E+00  0.74505805969E-08  0.10566000000E+00  0.10566000000E+00 0.  1.
     999900   -1    0    0    0    0 -0.00000000000E+00 -0.00000000000E+00 -0.74505805969E-08  0.93827000000E+00  0.93827000000E+00 0.  1.
     999902    2    1    2    0    0 -0.18609217704E-03  0.12873890440E-01  0.67300240225E-02  0.10294019269E+01  0.10292994035E+01 0.  0.
     999903    2    3    3    0    0 -0.88252632409E-01 -0.92275958330E-01  0.28503727029E-01  0.13851119264E+00  0.45491850030E-01 0.  0.
         14    1    1    2    0    0  0.18609217704E-03 -0.12873890440E-01 -0.67300240225E-02  0.14528073124E-01  0.00000000000E+00 0. -1.
     999901    1    3    3    0    0  0.88066540232E-01  0.10514984877E+00 -0.21773703006E-01  0.89089073424E+00  0.88000000000E+00 0.  1.
        -11    1    4    4    0    0 -0.13096725866E-02 -0.25059559880E-01  0.10236634640E-01  0.27106209499E-01  0.51100000000E-03 0. -1.
         11    1    4    4    0    0 -0.86942959822E-01 -0.67216398451E-01  0.18267092389E-01  0.11140498314E+00  0.51100000000E-03 0.  1.
</event>
<event>
 8    1  0.2183582E+004  0.1043930E+01  0.7957747E-01            NaN
         13   -1    0    0    0    0  0.00000000000E+00  0.00000000000E+00  0.74505805969E-08  0.10566000000E+00  0.10566000000E+00 0.  1.
     999900   -1    0    0    0    0 -0.00000000000E+00 -0.00000000000E+00 -0.74505805969E-08  0.93827000000E+00  0.93827000000E+00 0. -1.
     999902    2    1    2    0    0  0.68745189608E-02  0.75864683216E-02  0.95000084517E-02  0.10299634803E+01  0.10298687815E+01 0.  0.
     999903    2    3    3    0    0 -0.12186647857E+00  0.42687988328E-01 -0.26651281454E-01  0.13916985833E+00  0.44544985324E-01 0.  0.
         14    1    1    2    0    0 -0.68745189608E-02 -0.75864683216E-02 -0.95000084517E-02  0.13966519721E-01  0.00000000000E+00 0.  1.
     999901    1    3    3    0    0  0.12874099753E+00 -0.35101520006E-01  0.36151289905E-01  0.89079362195E+00  0.88000000000E+00 0.  1.
        -11    1    4    4    0    0 -0.31761815700E-01  0.31855256009E-02  0.11086989924E-01  0.33795605876E-01  0.51100000000E-03 0. -1.
         11    1    4    4    0    0 -0.90104662866E-01  0.39502462727E-01 -0.37738271378E-01  0.10537425245E+00  0.51100000000E-03 0.  1.
</event>
<event>
 8    1  0.2183582E+004  0.1043930E+01  0.7957747E-01            NaN
         13   -1    0    0    0    0  0.00000000000E+00  0.00000000000E+00  0.74505805969E-08  0.10566000000E+00  0.10566000000E+00 0.  1.
     999900   -1    0    0    0    0 -0.00000000000E+00 -0.00000000000E+00 -0.74505805969E-08  0.93827000000E+00  0.93827000000E+00 0.  1.
     999902    2    1    2    0    0  0.10576067902E-01  0.90141483252E-02 -0.23762100673E-01  0.10164028223E+01  0.10160299955E+01 0.  0.
     999903    2    3    3    0    0  0.11789779063E+00  0.14363418399E-01 -0.37886561742E-01  0.12975403771E+00  0.35979465244E-01 0.  0.
         14    1    1    2    0    0 -0.10576067902E-01 -0.90141483252E-02  0.23762100673E-01  0.27527177674E-01  0.00000000000E+00 0.  1.
     999901    1    3    3    0    0 -0.10732172272E+00 -0.53492700740E-02  0.14124461070E-01  0.88664878461E+00  0.88000000000E+00 0. -1.
        -11    1    4    4    0    0  0.83283048303E-01  0.43246326319E-03 -0.11556613090E-01  0.84083705831E-01  0.51100000000E-03 0.  1.
         11    1    4    4    0    0  0.34614742323E-01  0.13930955136E-01 -0.26329948652E-01  0.45670331881E-01  0.51100000000E-03 0. -1.
</event>
<event>
 8    1  0.2183582E+004  0.1043930E+01  0.7957747E-01            NaN
         13   -1    0    0    0    0  0.00000000000E+00  0.00000000000E+00  0.74505805969E-08  0.10566000000E+00  0.10566000000E+00 0.  1.
     999900   -1    0    0    0    0 -0.00000000000E+00 -0.00000000000E+00 -0.74505805969E-08  0.93827000000E+00  0.93827000000E+00 0. -1.
     999902    2    1    2    0    0 -0.37024041280E-02  0.93751030281E-02  0.91320966769E-02  0.10303286933E+01  0.10302389144E+01 0.  0.
     999903    2    3    3    0    0  0.11997304618E+00 -0.44239579443E-01 -0.27899559594E-01  0.13929474632E+00  0.47686148167E-01 0.  0.
         14    1    1    2    0    0  0.37024041280E-02 -0.93751030281E-02 -0.91320966769E-02  0.13601306659E-01  0.00000000000E+00 0. -1.
     999901    1    3    3    0    0 -0.12367545031E+00  0.53614682472E-01  0.37031656271E-01  0.89103394703E+00  0.88000000000E+00 0. -1.
        -11    1    4    4    0    0  0.24292464750E-01 -0.30133569431E-01 -0.15858547124E-01  0.41831931442E-01  0.51100000000E-03 0. -1.
         11    1    4    4    0    0  0.95680581428E-01 -0.14106010013E-01 -0.12041012471E-01  0.97462814874E-01  0.51100000000E-03 0.  1.
</event>
<event>
 8    1  0.2183582E+004  0.1043930E+01  0.7957747E-01            NaN
         13   -1    0    0    0    0  0.00000000000E+00  0.00000000000E+00  0.74505805969E-08  0.10566000000E+00  0.10566000000E+00 0.  1.
     999900   -1    0    0    0    0 -0.00000000000E+00 -0.00000000000E+00 -0.74505805969E-08  0.93827000000E+00  0.93827000000E+00 0.  1.
     999902    2    1    2    0    0 -0.87596490579E-02 -0.22600995311E-02 -0.12085517273E-01  0.10288336684E+01  0.10287229063E+01 0.  0.
     999903    2    3    3    0    0  0.77504755402E-01  0.98904002399E-01  0.33867074515E-01  0.13766176367E+00  0.44886452755E-01 0.  0.
         14    1    1    2    0    0  0.87596490579E-02  0.22600995311E-02  0.12085517273E-01  0.15096331649E-01  0.00000000000E+00 0.  1.
     999901    1    3    3    0    0 -0.86264404460E-01 -0.10116410193E+00 -0.45952591787E-01  0.89117190468E+00  0.88000000000E+00 0. -1.
        -11    1    4    4    0    0  0.71945263528E-01  0.92180430339E-01  0.43400703021E-01  0.12472864477E+00  0.51100000000E-03 0.  1.
         11    1    4    4    0    0  0.55594918733E-02  0.67235720593E-02 -0.95336285063E-02  0.12933118905E-01  0.51100000000E-03 0. -1.
</event>
<event>
 8    1  0.2183582E+004  0.1043930E+01  0.7957747E-01            NaN
         13   -1    0    0    0    0  0.00000000000E+00  0.00000000000E+00  0.74505805969E-08  0.10566000000E+00  0.10566000000E+00 0.  1.
     999900   -1    0    0    0    0 -0.00000000000E+00 -0.00000000000E+00 -0.74505805969E-08  0.93827000000E+00  0.93827000000E+00 0.  1.
     999902    2    1    2    0    0  0.10506169013E-01  0.99895629545E-02  0.17292918620E-02  0.10293299519E+01  0.10292264029E+01 0.  0.
     999903    2    3    3    0    0  0.10836193434E+00  0.78923172633E-01 -0.50724004089E-02  0.14120053766E+00  0.44053224590E-01 0.  0.
         14    1    1    2    0    0 -0.10506169013E-01 -0.99895629545E-02 -0.17292918620E-02  0.14600048140E-01  0.00000000000E+00 0. -1.
     999901    1    3    3    0    0 -0.97855765327E-01 -0.68933609678E-01  0.68016922708E-02  0.88812941420E+00  0.88000000000E+00 0. -1.
        -11    1    4    4    0    0  0.81462390108E-01  0.35384819784E-01  0.53178268464E-02  0.88976102840E-01  0.51100000000E-03 0.  1.
         11    1    4    4    0    0  0.26899544233E-01  0.43538352849E-01 -0.10390227255E-01  0.52224434819E-01  0.51100000000E-03 0. -1.
</event>
<event>
 8    1  0.2183582E+004  0.1043930E+01  0.7957747E-01            NaN
         13   -1    0    0    0    0  0.00000000000E+00  0.00000000000E+00  0.74505805969E-08  0.10566000000E+00  0.10566000000E+00 0. -1.
     999900   -1    0    0    0    0 -0.00000000000E+00 -0.00000000000E+00 -0.74505805969E-08  0.93827000000E+00  0.93827000000E+00 0. -1.
     999902    2    1    2    0    0  0.44407643240E-02 -0.10031920975E-01  0.88535146612E-02  0.10298323212E+01  0.10297358230E+01 0.  0.
     999903    2    3    3    0    0  0.38914822765E-01  0.56468621878E-01  0.11415094317E+00  0.14039523439E+00  0.44467013898E-01 0.  0.
         14    1    1    2    0    0 -0.44407643240E-02  0.10031920975E-01 -0.88535146612E-02  0.14097678819E-01  0.00000000000E+00 0. -1.
     999901    1    3    3    0    0 -0.34474058442E-01 -0.66500542853E-01 -0.10529742851E+00  0.88943708679E+00  0.88000000000E+00 0.  1.
        -11    1    4    4    0    0  0.32913038748E-01  0.46744738755E-01  0.52265197436E-01  0.77461285200E-01  0.51100000000E-03 0.  1.
         11    1    4    4    0    0  0.60017840171E-02  0.97238831231E-02  0.61885745737E-01  0.62933949191E-01  0.51100000000E-03 0. -1.
</event>
<event>
 8    1  0.2183582E+004  0.1043930E+01  0.7957747E-01            NaN
         13   -1    0    0    0    0  0.00000000000E+00  0.00000000000E+00  0.74505805969E-08  0.10566000000E+00  0.10566000000E+00 0.  1.
     999900   -1    0    0    0    0 -0.00000000000E+00 -0.00000000000E+00 -0.74505805969E-08  0.93827000000E+00  0.93827000000E+00 0.  1.
     999902    2    1    2    0    0  0.94408167678E-02 -0.13750848956E-02 -0.87469097660E-02  0.10309867272E+01  0.10309054774E+01 0.  0.
     999903    2    3    3    0    0 -0.51614913044E-02 -0.55179635881E-01  0.11973680474E+00  0.13991084830E+00  0.46547930708E-01 0.  0.
         14    1    1    2    0    0 -0.94408167678E-02  0.13750848956E-02  0.87469097660E-02  0.12943272777E-01  0.00000000000E+00 0.  1.
     999901    1    3    3    0    0  0.14602308072E-01  0.53804550986E-01 -0.12848371451E+00  0.89107587892E+00  0.88000000000E+00 0.  1.
        -11    1    4    4    0    0  0.10916980928E-02 -0.13732185097E-01  0.83106109180E-01  0.84241624013E-01  0.51100000000E-03 0.  1.
         11    1    4    4    0    0 -0.62531893971E-02 -0.41447450785E-01  0.36630695562E-01  0.55669224286E-01  0.51100000000E-03 0. -1.
</event>
<event>
 8    1  0.2183582E+004  0.1043930E+01  0.7957747E-01            NaN
         13   -1    0    0    0    0  0.00000000000E+00  0.00000000000E+00  0.74505805969E-08  0.10566000000E+00  0.10566000000E+00 0.  1.
     999900   -1    0    0    0    0 -0.00000000000E+00 -0.00000000000E+00 -0.74505805969E-08  0.93827000000E+00  0.93827000000E+00 0.  1.
     999902    2    1    2    0    0 -0.23283836150E-02  0.56573759950E-02 -0.12603926700E-01  0.10299197808E+01  0.10298244844E+01 0.  0.
     999903    2    3    3    0    0  0.97379424337E-01 -0.67560287629E-01 -0.60563078679E-01  0.13997452773E+00  0.43334018558E-01 0.  0.
         14    1    1    2    0    0  0.23283836150E-02 -0.56573759950E-02  0.12603926700E-01  0.14010219187E-01  0.00000000000E+00 0.  1.
     999901    1    3    3    0    0 -0.99707807952E-01  0.73217663624E-01  0.47959151979E-01  0.88994525309E+00  0.88000000000E+00 0. -1.
        -11    1    4    4    0    0  0.78406059586E-01 -0.31426653778E-01 -0.48543235200E-01  0.97426133826E-01  0.51100000000E-03 0. -1.
         11    1    4    4    0    0  0.18973364751E-01 -0.36133633852E-01 -0.12019843479E-01  0.42548393901E-01  0.51100000000E-03 0.  1.
</event>
<event>
 8    1  0.2183582E+004  0.1043930E+01  0.7957747E-01            NaN
         13   -1    0    0    0    0  0.00000000000E+00  0.00000000000E+00  0.74505805969E-08  0.10566000000E+00  0.10566000000E+00 0.  1.
     999900   -1    0    0    0    0 -0.00000000000E+00 -0.00000000000E+00 -0.74505805969E-08  0.93827000000E+00  0.93827000000E+00 0.  1.
     999902    2    1    2    0    0 -0.66692279225E-02  0.12401118455E-01 -0.23444042285E-02  0.10296554572E+01  0.10295565055E+01 0.  0.
     999903    2    3    3    0    0 -0.12461032200E+00  0.19862789519E-01 -0.43687508637E-01  0.14079380856E+00  0.44632223328E-01 0.  0.
         14    1    1    2    0    0  0.66692279225E-02 -0.12401118455E-01  0.23444042285E-02  0.14274542767E-01  0.00000000000E+00 0. -1.
     999901    1    3    3    0    0  0.11794109408E+00 -0.74616710640E-02  0.41343104409E-01  0.88886164868E+00  0.88000000000E+00 0.  1.
        -11    1    4    4    0    0 -0.38104061307E-01 -0.62099345506E-02  0.36686758371E-02  0.38784057016E-01  0.51100000000E-03 0.  1.
         11    1    4    4    0    0 -0.86506260697E-01  0.26072724069E-01 -0.47356184474E-01  0.10200975154E+00  0.51100000000E-03 0. -1.
</event>
<event>
 8    1  0.2183582E+004  0.1043930E+01  0.7957747E-01            NaN
         13   -1    0    0    0    0  0.00000000000E+00  0.00000000000E+00  0.74505805969E-08  0.10566000000E+00  0.10566000000E+00 0. -1.
     999900   -1    0    0    0    0 -0.00000000000E+00 -0.00000000000E+00 -0.74505805969E-08  0.93827000000E+00  0.93827000000E+00 0. -1.
     999902    2    1    2    0    0  0.14702626627E-02 -0.86006902227E-02 -0.12987265150E-01  0.10282838311E+01  0.10281647897E+01 0.  0.
     999903    2    3    3    0    0  0.64038762843E-01 -0.55474729374E-01 -0.10236285380E+00  0.14030861265E+00  0.45054902064E-01 0.  0.
         14    1    1    2    0    0 -0.14702626627E-02  0.86006902227E-02  0.12987265150E-01  0.15646168882E-01  0.00000000000E+00 0. -1.
     999901    1    3    3    0    0 -0.62568500181E-01  0.46874039151E-01  0.89375588654E-01  0.88797521847E+00  0.88000000000E+00 0.  1.
        -11    1    4    4    0    0  0.52000098894E-01 -0.27658717645E-01 -0.40691002788E-01  0.71589341215E-01  0.51100000000E-03 0. -1.
         11    1    4    4    0    0  0.12038663950E-01 -0.27816011729E-01 -0.61671851016E-01  0.68719271437E-01  0.51100000000E-03 0.  1.
</event>
<event>
 8    1  0.2183582E+004  0.1043930E+01  0.7957747E-01            NaN
         13   -1    0    0    0    0  0.00000000000E+00  0.00000000000E+00  0.74505805969E-08  0.10566000000E+00  0.10566000000E+00 0.  1.
     999900   -1    0    0    0    0 -0.00000000000E+00 -0.00000000000E+00 -0.74505805969E-08  0.93827000000E+00  0.93827000000E+00 0.  1.
     999902    2    1    2    0    0 -0.11601869753E-01  0.45928870921E-02 -0.44451265817E-02  0.10306839763E+01  0.10305988559E+01 0.  0.
     999903    2    3    3    0    0 -0.46473937514E-01  0.10340384601E+00  0.74454008376E-01  0.14096225564E+00  0.38402811290E-01 0.  0.
         14    1    1    2    0    0  0.11601869753E-01 -0.45928870921E-02  0.44451265817E-02  0.13246023703E-01  0.00000000000E+00 0.  1.
     999901    1    3    3    0    0  0.34872067761E-01 -0.98810958914E-01 -0.78899134958E-01  0.88972172066E+00  0.88000000000E+00 0.  1.
        -11    1    4    4    0    0 -0.48999413342E-01  0.98338155026E-01  0.59462304651E-01  0.12492942823E+00  0.51100000000E-03 0.  1.
         11    1    4    4    0    0  0.25254758281E-02  0.50656909802E-02  0.14991703726E-01  0.16032827413E-01  0.51100000000E-03 0. -1.
</event>
<event>
 8    1  0.2183582E+004  0.1043930E+01  0.7957747E-01            NaN
         13   -1    0    0    0    0  0.00000000000E+00  0.00000000000E+00  0.74505805969E-08  0.10566000000E+00  0.10566000000E+00 0. -1.
     999900   -1    0    0    0    0 -0.00000000000E+00 -0.00000000000E+00 -0.74505805969E-08  0.93827000000E+00  0.93827000000E+00 0.  1.
     999902    2    1    2    0    0  0.77416718917E-02 -0.46416556601E-02 -0.79025416798E-02  0.10319329747E+01  0.10318632350E+01 0.  0.
     999903    2    3    3    0    0 -0.10984519377E+00  0.52798515829E-01 -0.53021689619E-01  0.14111212751E+00  0.47409736273E-01 0.  0.
         14    1    1    2    0    0 -0.77416718917E-02  0.46416556601E-02  0.79025416798E-02  0.11997025296E-01  0.00000000000E+00 0. -1.
     999901    1    3    3    0    0  0.11758686566E+00 -0.57440171489E-01  0.45119147940E-01  0.89082084719E+00  0.88000000000E+00 0. -1.
        -11    1    4    4    0    0 -0.53622444963E-01  0.10923320451E-01 -0.44412532280E-01  0.70479923936E-01  0.51100000000E-03 0.  1.
         11    1    4    4    0    0 -0.56222748807E-01  0.41875195377E-01 -0.86091573397E-02  0.70632203579E-01  0.51100000000E-03 0. -1.
</event>
<event>
 8    1  0.2183582E+004  0.1043930E+01  0.7957747E-01            NaN
         13   -1    0    0    0    0  0.00000000000E+00  0.00000000000E+00  0.74505805969E-08  0.10566000000E+00  0.10566000000E+00 0.  1.
     999900   -1    0    0    0    0 -0.00000000000E+00 -0.00000000000E+00 -0.74505805969E-08  0.93827000000E+00  0.93827000000E+00 0.  1.
     999902    2    1    2    0    0 -0.42687252779E-02 -0.91016000891E-03 -0.13433763292E-01  0.10298049725E+01  0.10297080969E+01 0.  0.
     999903    2    3    3    0    0  0.10730270258E+00  0.68189481792E-01 -0.39361486162E-01  0.13969532145E+00  0.42447389024E-01 0.  0.
         14    1    1    2    0    0  0.42687252779E-02  0.91016000891E-03  0.13433763292E-01  0.14125027537E-01  0.00000000000E+00 0.  1.
     999901    1    3    3    0    0 -0.11157142786E+00 -0.69099641801E-01  0.25927722871E-01  0.89010965101E+00  0.88000000000E+00 0.  1.
        -11    1    4    4    0    0  0.53241830139E-01  0.32880985690E-01  0.26920241985E-02  0.62636728936E-01  0.51100000000E-03 0. -1.
         11    1    4    4    0    0  0.54060872439E-01  0.35308496102E-01 -0.42053510361E-01  0.77058592516E-01  0.51100000000E-03 0.  1.
</event>
<event>
 8    1  0.2183582E+004  0.1043930E+01  0.7957747E-01            NaN
         13   -1    0    0    0    0  0.00000000000E+00  0.00000000000E+00  0.74505805969E-08  0.10566000000E+00  0.10566000000E+00 0. -1.
     999900   -1    0    0    0    0 -0.00000000000E+00 -0.00000000000E+00 -0.74505805969E-08  0.93827000000E+00  0.93827000000E+00 0.  1.
     999902    2    1    2    0    0  0.10600194304E-01  0.69196889609E-02 -0.34030901342E-02  0.10308217111E+01  0.10307383630E+01 0.  0.
     999903    2    3    3    0    0 -0.79351454544E-01  0.33322212830E-01 -0.10131556843E+00  0.14044244037E+00  0.45301340426E-01 0.  0.
         14    1    1    2    0    0 -0.10600194304E-01 -0.69196889609E-02  0.34030901342E-02  0.13108288868E-01  0.00000000000E+00 0. -1.
     999901    1    3    3    0    0  0.89951648848E-01 -0.26402523869E-01  0.97912478296E-01  0.89037927076E+00  0.88000000000E+00 0. -1.
        -11    1    4    4    0    0 -0.14977790727E-01 -0.11226021903E-01 -0.15757473802E-01  0.24472778438E-01  0.51100000000E-03 0. -1.
         11    1    4    4    0    0 -0.64373663817E-01  0.44548234733E-01 -0.85558094629E-01  0.11596966193E+00  0.51100000000E-03 0.  1.
</event>
<event>
 8    1  0.2183582E+004  0.1043930E+01  0.7957747E-01            NaN
         13   -1    0    0    0    0  0.00000000000E+00  0.00000000000E+00  0.74505805969E-08  0.10566000000E+00  0.10566000000E+00 0. -1.
     999900   -1    0    0    0    0 -0.00000000000E+00 -0.00000000000E+00 -0.74505805969E-08  0.93827000000E+00  0.93827000000E+00 0.  1.
     999902    2    1    2    0    0  0.12626046550E-01 -0.44872954500E-02 -0.67865433463E-02  0.10289096790E+01  0.10288000377E+01 0.  0.
     999903    2    3    3    0    0  0.54543215208E-01 -0.58598522165E-01 -0.10684021440E+00  0.14059902897E+00  0.44096557794E-01 0.  0.
         14    1    1    2    0    0 -0.12626046550E-01  0.44872954500E-02  0.67865433463E-02  0.15020320986E-01  0.00000000000E+00 0.  1.
     999901    1    3    3    0    0 -0.41917168658E-01  0.54111226715E-01  0.10005367106E+00  0.88831065004E+00  0.88000000000E+00 0. -1.
        -11    1    4    4    0    0  0.47965524783E-01 -0.56160238129E-01 -0.65664467521E-01  0.98826855308E-01  0.51100000000E-03 0. -1.
         11    1    4    4    0    0  0.65776904250E-02 -0.24382840366E-02 -0.41175746882E-01  0.41772173664E-01  0.51100000000E-03 0.  1.
</event>
<event>
 8    1  0.2183582E+004  0.1043930E+01  0.7957747E-01            NaN
         13   -1    0    0    0    0  0.00000000000E+00  0.00000000000E+00  0.74505805969E-08  0.10566000000E+00  0.10566000000E+00 0.  1.
     999900   -1    0    0    0    0 -0.00000000000E+00 -0.00000000000E+00 -0.74505805969E-08  0.93827000000E+00  0.93827000000E+00 0.  1.
     999902    2    1    2    0    0 -0.87226474166E-02  0.10676930597E-01  0.53440381222E-02  0.10291435140E+01  0.10290372842E+01 0.  0.
     999903    2    3    3    0    0  0.21515545796E-01  0.15568081832E-01  0.12940447530E+00  0.13991392398E+00  0.46098850430E-01 0.  0.
         14    1    1    2    0    0  0.87226474166E-02 -0.10676930597E-01 -0.53440381222E-02  0.14786486005E-01  0.00000000000E+00 0. -1.
     999901    1    3    3    0    0 -0.30238193213E-01 -0.48911512354E-02 -0.12406043718E+00  0.88922959002E+00  0.88000000000E+00 0.  1.
        -11    1    4    4    0    0  0.20163767764E-01  0.29416894035E-01  0.66235421640E-01  0.75228474568E-01  0.51100000000E-03 0.  1.
         11    1    4    4    0    0  0.13517780318E-02 -0.13848812203E-01  0.63169053665E-01  0.64685449409E-01  0.51100000000E-03 0. -1.
</event>
<event>
 8    1  0.2183582E+004  0.1043930E+01  0.7957747E-01            NaN
         13   -1    0    0    0    0  0.00000000000E+00  0.00000000000E+00  0.74505805969E-08  0.10566000000E+00  0.10566000000E+00 0.  1.
     999900   -1    0    0    0    0 -0.00000000000E+00 -0.00000000000E+00 -0.74505805969E-08  0.93827000000E+00  0.93827000000E+00 0. -1.
     999902    2    1    2    0    0  0.12729259111E-01 -0.19688942356E-02  0.56810618233E-03  0.10310368496E+01  0.10309562318E+01 0.  0.
     999903    2    3    3    0    0 -0.43053100254E-01 -0.12386066500E+00 -0.20463942796E-01  0.14063715146E+00  0.46529578135E-01 0.  0.
         14    1    1    2    0    0 -0.12729259111E-01  0.19688942356E-02 -0.56810618233E-03  0.12893150378E-01  0.00000000000E+00 0.  1.
     999901    1    3    3    0    0  0.55782359366E-01  0.12189177076E+00  0.21032048978E-01  0.89039969816E+00  0.88000000000E+00 0. -1.
        -11    1    4    4    0    0 -0.23713251459E-01 -0.15917559446E-01  0.22254948338E-02  0.28651368933E-01  0.51100000000E-03 0. -1.
         11    1    4    4    0    0 -0.19339848795E-01 -0.10794310555E+00 -0.22689437630E-01  0.11198578253E+00  0.51100000000E-03 0.  1.
</event>
<event>
 8    1  0.2183582E+004  0.1043930E+01  0.7957747E-01            NaN
         13   -1    0    0    0    0  0.00000000000E+00  0.00000000000E+00  0.74505805969E-08  0.10566000000E+00  0.10566000000E+00 0.  1.
     999900   -1    0    0    0    0 -0.00000000000E+00 -0.00000000000E+00 -0.74505805969E-08  0.93827000000E+00  0.93827000000E+00 0.  1.
     999902    2    1    2    0    0 -0.40864987440E-02  0.12652585740E-01 -0.32609646076E-02  0.10302398105E+01  0.10301488465E+01 0.  0.
     999903    2    3    3    0    0 -0.86443255790E-01  0.64284351036E-02 -0.10264464048E+00  0.14080263426E+00  0.42139035894E-01 0.  0.
         14    1    1    2    0    0  0.40864987440E-02 -0.12652585740E-01  0.32609646076E-02  0.13690189482E-01  0.00000000000E+00 0.  1.
     999901    1    3    3    0    0  0.82356757046E-01  0.62241506364E-02  0.99383675869E-01  0.88943717626E+00  0.88000000000E+00 0.  1.
        -11    1    4    4    0    0 -0.37637035371E-01  0.23817892648E-01 -0.49034555606E-01  0.66245658018E-01  0.51100000000E-03 0.  1.
         11    1    4    4    0    0 -0.48806220419E-01 -0.17389457545E-01 -0.53610084871E-01  0.74556976241E-01  0.51100000000E-03 0. -1.
</event>
<event>
 8    1  0.2183582E+004  0.1043930E+01  0.7957747E-01            NaN
         13   -1    0    0    0    0  0.00000000000E+00  0.00000000000E+00  0.74505805969E-08  0.10566000000E+00  0.10566000000E+00 0. -1.
     999900   -1    0    0    0    0 -0.00000000000E+00 -0.00000000000E+00 -0.74505805969E-08  0.93827000000E+00  0.93827000000E+00 0. -1.
     999902    2    1    2    0    0 -0.17217622052E-02  0.46573493381E-02  0.12594144161E-01  0.10303923549E+01  0.10303034200E+01 0.  0.
     999903    2    3    3    0    0 -0.84247874113E-01  0.99496594413E-01  0.30419910497E-01  0.14127886410E+00  0.45133910706E-01 0.  0.
         14    1    1    2    0    0  0.17217622052E-02 -0.46573493381E-02 -0.12594144161E-01  0.13537645109E-01  0.00000000000E+00 0.  1.
     999901    1    3    3    0    0  0.82526111908E-01 -0.94839245075E-01 -0.17825766336E-01  0.88911349079E+00  0.88000000000E+00 0.  1.
        -11    1    4    4    0    0 -0.71263600192E-01  0.93721659494E-01  0.39753769190E-01  0.12426935848E+00  0.51100000000E-03 0. -1.
         11    1    4    4    0    0 -0.12984273921E-01  0.57749349195E-02 -0.93338586931E-02  0.17009505627E-01  0.51100000000E-03 0.  1.
</event>
<event>
 8    1  0.2183582E+004  0.1043930E+01  0.7957747E-01            NaN
         13   -1    0    0    0    0  0.00000000000E+00  0.00000000000E+00  0.74505805969E-08  0.10566000000E+00  0.10566000000E+00 0.  1.
     999900   -1    0    0    0    0 -0.00000000000E+00 -0.00000000000E+00 -0.74505805969E-08  0.93827000000E+00  0.93827000000E+00 0. -1.
     999902    2    1    2    0    0  0.91406570009E-02 -0.89453581072E-02 -0.59760960026E-02  0.10298131744E+01  0.10297164121E+01 0.  0.
     999903    2    3    3    0    0  0.30048400865E-01  0.87109869357E-01 -0.95736982222E-01  0.13980151313E+00  0.43449483007E-01 0.  0.
         14    1    1    2    0    0 -0.91406570009E-02  0.89453581072E-02  0.59760960026E-02  0.14116825617E-01  0.00000000000E+00 0.  1.
     999901    1    3    3    0    0 -0.20907743864E-01 -0.96055227464E-01  0.89760886220E-01  0.89001166126E+00  0.88000000000E+00 0. -1.
        -11    1    4    4    0    0  0.18346978031E-01  0.11683074271E-01 -0.72317599114E-02  0.22927391908E-01  0.51100000000E-03 0.  1.
         11    1    4    4    0    0  0.11701422834E-01  0.75426795086E-01 -0.88505222311E-01  0.11687412122E+00  0.51100000000E-03 0. -1.
</event>
<event>
 8    1  0.2183582E+004  0.1043930E+01  0.7957747E-01            NaN
         13   -1    0    0    0    0  0.00000000000E+00  0.00000000000E+00  0.74505805969E-08  0.10566000000E+00  0.10566000000E+00 0.  1.
     999900   -1    0    0    0    0 -0.00000000000E+00 -0.00000000000E+00 -0.74505805969E-08  0.93827000000E+00  0.93827000000E+00 0.  1.
     999902    2    1    2    0    0  0.59002116394E-02 -0.58836215875E-02  0.90545169800E-02  0.10316249694E+01  0.10315515807E+01 0.  0.
     999903    2    3    3    0    0  0.96994705066E-01 -0.16735944447E-01  0.93395776894E-01  0.14284522854E+00  0.44653370826E-01 0.  0.
         14    1    1    2    0    0 -0.59002116394E-02  0.58836215875E-02 -0.90545169800E-02  0.12305030602E-01  0.00000000000E+00 0. -1.
     999901    1    3    3    0    0 -0.91094493427E-01  0.10852322860E-01 -0.84341259914E-01  0.88877974086E+00  0.88000000000E+00 0.  1.
        -11    1    4    4    0    0  0.93017060639E-01 -0.20561075719E-01  0.68486479727E-01  0.11732685298E+00  0.51100000000E-03 0.  1.
         11    1    4    4    0    0  0.39776444276E-02  0.38251312714E-02  0.24909297168E-01  0.25518375552E-01  0.51100000000E-03 0. -1.
</event>
<event>
 8    1  0.2183582E+004  0.1043930E+01  0.7957747E-01            NaN
         13   -1    0    0    0    0  0.00000000000E+00  0.00000000000E+00  0.74505805969E-08  0.10566000000E+00  0.10566000000E+00 0. -1.
     999900   -1    0    0    0    0 -0.00000000000E+00 -0.00000000000E+00 -0.74505805969E-08  0.93827000000E+00  0.93827000000E+00 0.  1.
     999902    2    1    2    0    0 -0.39246044642E-03  0.13660689348E-01 -0.12378410065E-02  0.10302077295E+01  0.10301163357E+01 0.  0.
     999903    2    3    3    0    0 -0.74735758773E-01 -0.10217138491E+00 -0.34658386812E-01  0.13888235210E+00  0.45416719527E-01 0.  0.
         14    1    1    2    0    0  0.39246044642E-03 -0.13660689348E-01  0.12378410065E-02  0.13722270549E-01  0.00000000000E+00 0.  1.
     999901    1    3    3    0    0  0.74343298327E-01  0.11583207426E+00  0.33420545805E-01  0.89132537735E+00  0.88000000000E+00 0. -1.
        -11    1    4    4    0    0 -0.11432963797E-01  0.27205679930E-02 -0.52836836482E-02  0.12895448239E-01  0.51100000000E-03 0.  1.
         11    1    4    4    0    0 -0.63302794976E-01 -0.10489195291E+00 -0.29374703164E-01  0.12598690386E+00  0.51100000000E-03 0. -1.
</event>
<event>
 8    1  0.2183582E+004  0.1043930E+01  0.7957747E-01            NaN
         13   -1    0    0    0    0  0.00000000000E+00  0.00000000000E+00  0.74505805969E-08  0.10566000000E+00  0.10566000000E+00 0. -1.
     999900   -1    0    0    0    0 -0.00000000000E+00 -0.00000000000E+00 -0.74505805969E-08  0.93827000000E+00  0.93827000000E+00 0.  1.
     999902    2    1    2    0    0  0.42301576812E-03 -0.11987334081E-01  0.62983759598E-02  0.10303821345E+01  0.10302930643E+01 0.  0.
     999903    2    3    3    0    0  0.58095912744E-01  0.10806652130E+00  0.47867655770E-01  0.13938993683E+00  0.45658886486E-01 0.  0.
         14    1    1    2    0    0 -0.42301576812E-03  0.11987334081E-01 -0.62983759598E-02  0.13547865531E-01  0.00000000000E+00 0.  1.
     999901    1    3    3    0    0 -0.57672896976E-01 -0.12005385538E+00 -0.41569279810E-01  0.89099219764E+00  0.88000000000E+00 0.  1.
        -11    1    4    4    0    0  0.35288745748E-01  0.30968300190E-01  0.23831849656E-02  0.47013528741E-01  0.51100000000E-03 0. -1.
         11    1    4    4    0    0  0.22807166996E-01  0.77098221113E-01  0.45484470804E-01  0.92376408084E-01  0.51100000000E-03 0.  1.
</event>
<event>
 8    1  0.2183582E+004  0.1043930E+01  0.7957747E-01            NaN
         13   -1    0    0    0    0  0.00000000000E+00  0.00000000000E+00  0.74505805969E-08  0.10566000000E+00  0.10566000000E+00 0. -1.
     999900   -1    0    0    0    0 -0.00000000000E+00 -0.00000000000E+00 -0.74505805969E-08  0.93827000000E+00  0.93827000000E+00 0.  1.
     999902    2    1    2    0    0 -0.56972286777E-02  0.87232535055E-02  0.85393648224E-02  0.10304587596E+01  0.10303707007E+01 0.  0.
     999903    2    3    3    0    0  0.47615691021E-01  0.38282016745E-01 -0.11897188031E+00  0.13918152690E+00  0.38528201231E-01 0.  0.
         14    1    1    2    0    0  0.56972286777E-02 -0.87232535055E-02 -0.85393648224E-02  0.13471240399E-01  0.00000000000E+00 0.  1.
     999901    1    3    3    0    0 -0.53312919699E-01 -0.29558763239E-01  0.12751124513E+00  0.89127723270E+00  0.88000000000E+00 0. -1.
        -11    1    4    4    0    0  0.33147633934E-01  0.40863289244E-01 -0.11004565325E+00  0.12197901854E+00  0.51100000000E-03 0. -1.
         11    1    4    4    0    0  0.14468057087E-01 -0.25812724990E-02 -0.89262270552E-02  0.17202508365E-01  0.51100000000E-03 0.  1.
</event>
<event>
 8    1  0.2183582E+004  0.1043930E+01  0.7957747E-01            NaN
         13   -1    0    0    0    0  0.00000000000E+00  0.00000000000E+00  0.74505805969E-08  0.10566000000E+00  0.10566000000E+00 0.  1.
     999900   -1    0    0    0    0 -0.00000000000E+00 -0.00000000000E+00 -0.74505805969E-08  0.93827000000E+00  0.93827000000E+00 0.  1.
     999902    2    1    2    0    0 -0.90439245920E-02  0.13411711265E-01  0.46377823123E-02  0.10271021779E+01  0.10269643170E+01 0.  0.
     999903    2    3    3    0    0  0.68569897708E-01 -0.88851936571E-01  0.59414171077E-01  0.13610149787E+00  0.48959947862E-01 0.  0.
         14    1    1    2    0    0  0.90439245920E-02 -0.13411711265E-01 -0.46377823123E-02  0.16827822077E-01  0.00000000000E+00 0.  1.
     999901    1    3    3    0    0 -0.77613822300E-01  0.10226364784E+00 -0.54776388764E-01  0.89100068005E+00  0.88000000000E+00 0.  1.
        -11    1    4    4    0    0  0.43932022906E-01 -0.58043537492E-01  0.63286766695E-01  0.96460099735E-01  0.51100000000E-03 0.  1.
         11    1    4    4    0    0  0.24637874803E-01 -0.30808399079E-01 -0.38725956182E-02  0.39641398139E-01  0.51100000000E-03 0. -1.
</event>
<event>
 8    1  0.2183582E+004  0.1043930E+01  0.7957747E-01            NaN
         13   -1    0    0    0    0  0.00000000000E+00  0.00000000000E+00  0.74505805969E-08  0.10566000000E+00  0.10566000000E+00 0.  1.
     999900   -1    0    0    0    0 -0.00000000000E+00 -0.00000000000E+00 -0.74505805969E-08  0.93827000000E+00  0.93827000000E+00 0. -1.
     999902    2    1    2    0    0 -0.62631291531E-02 -0.11828295041E-01 -0.80125397345E-02  0.10283307647E+01  0.10282124418E+01 0.  0.
     999903    2    3    3    0    0  0.40416037935E-01 -0.12580092298E+00  0.66159137011E-02  0.13963357426E+00  0.44659113317E-01 0.  0.
         14    1    1    2    0    0  0.62631291531E-02  0.11828295041E-01  0.80125397345E-02  0.15599235346E-01  0.00000000000E+00 0.  1.
     999901    1    3    3    0    0 -0.46679167088E-01  0.11397262794E+00 -0.14628453436E-01  0.88869719039E+00  0.88000000000E+00 0. -1.
        -11    1    4    4    0    0  0.13142618214E-01 -0.12668395214E-01  0.14021525532E-01  0.23023486922E-01  0.51100000000E-03 0.  1.
         11    1    4    4    0    0  0.27273419721E-01 -0.11313252777E+00 -0.74056118305E-02  0.11661008734E+00  0.51100000000E-03 0. -1.
</event>
<event>
 8    1  0.2183582E+004  0.1043930E+01  0.7957747E-01            NaN
         13   -1    0    0    0    0  0.00000000000E+00  0.00000000000E+00  0.74505805969E-08  0.10566000000E+00  0.10566000000E+00 0.  1.
     999900   -1    0    0    0    0 -0.00000000000E+00 -0.00000000000E+00 -0.74505805969E-08  0.93827000000E+00  0.93827000000E+00 0. -1.
     999902    2    1    2    0    0 -0.15777413864E-01 -0.10888162349E-01  0.43737997468E-02  0.10242676250E+01  0.10240788830E+01 0.  0.
     999903    2    3    3    0    0 -0.10774263625E+00  0.60689853705E-01 -0.33059970020E-01  0.13579573367E+00  0.45340772562E-01 0.  0.
         14    1    1    2    0    0  0.15777413864E-01  0.10888162349E-01 -0.43737997468E-02  0.19662375029E-01  0.00000000000E+00 0. -1.
     999901    1    3    3    0    0  0.91965222388E-01 -0.71578016054E-01  0.37433769766E-01  0.88847189130E+00  0.88000000000E+00 0.  1.
        -11    1    4    4    0    0 -0.27261121143E-01  0.40332118904E-01 -0.11485119385E-01  0.50020172226E-01  0.51100000000E-03 0.  1.
         11    1    4    4    0    0 -0.80481515108E-01  0.20357734801E-01 -0.21574850635E-01  0.85775561445E-01  0.51100000000E-03 0. -1.
</event>
<event>
 8    1  0.2183582E+004  0.1043930E+01  0.7957747E-01            NaN
         13   -1    0    0    0    0  0.00000000000E+00  0.00000000000E+00  0.74505805969E-08  0.10566000000E+00  0.10566000000E+00 0.  1.
     999900   -1    0    0    0    0 -0.00000000000E+00 -0.00000000000E+00 -0.74505805969E-08  0.93827000000E+00  0.93827000000E+00 0. -1.
     999902    2    1    2    0    0  0.13930079875E-02  0.12602063759E-02  0.14668159696E-01  0.10291420488E+01  0.10290357978E+01 0.  0.
     999903    2    3    3    0    0  0.75923568766E-01 -0.30927404869E-01  0.10533621491E+00  0.14076625950E+00  0.44704909983E-01 0.  0.
         14    1    1    2    0    0 -0.13930079875E-02 -0.12602063759E-02 -0.14668159696E-01  0.14787951184E-01  0.00000000000E+00 0. -1.
     999901    1    3    3    0    0 -0.74530560778E-01  0.32187611244E-01 -0.90668055211E-01  0.88837578932E+00  0.88000000000E+00 0. -1.
        -11    1    4    4    0    0  0.18925161033E-01 -0.20804113007E-01  0.63156655734E-01  0.69137523260E-01  0.51100000000E-03 0.  1.
         11    1    4    4    0    0  0.56998407733E-01 -0.10123291861E-01  0.42179559174E-01  0.71628736239E-01  0.51100000000E-03 0. -1.
</event>
<event>
 8    1  0.2183582E+004  0.1043930E+01  0.7957747E-01            NaN
         13   -1    0    0    0    0  0.00000000000E+00  0.00000000000E+00  0.74505805969E-08  0.10566000000E+00  0.10566000000E+00 0.  1.
     999900   -1    0    0    0    0 -0.00000000000E+00 -0.00000000000E+00 -0.74505805969E-08  0.93827000000E+00  0.93827000000E+00 0.  1.
     999902    2    1    2    0    0  0.76257344538E-02 -0.56143525649E-02  0.11123573424E-01  0.10293215550E+01  0.10292178860E+01 0.  0.
     999903    2    3    3    0    0 -0.10256758634E+00 -0.81906266908E-01  0.79544800101E-02  0.13916815959E+00  0.45560471526E-01 0.  0.
         14    1    1    2    0    0 -0.76257344538E-02  0.56143525649E-02 -0.11123573424E-01  0.14608445037E-01  0.00000000000E+00 0. -1.
     999901    1    3    3    0    0  0.11019332079E+00  0.76291914343E-01  0.31690934140E-02  0.89015339537E+00  0.88000000000E+00 0. -1.
        -11    1    4    4    0    0 -0.77317394293E-01 -0.33642839814E-01  0.17010972042E-02  0.84338454953E-01  0.51100000000E-03 0.  1.
         11    1    4    4    0    0 -0.25250192043E-01 -0.48263427094E-01  0.62533828059E-02  0.54829704637E-01  0.51100000000E-03 0. -1.
</event>
<event>
 8    1  0.2183582E+004  0.1043930E+01  0.7957747E-01            NaN
         13   -1    0    0    0    0  0.00000000000E+00  0.00000000000E+00  0.74505805969E-08  0.10566000000E+00  0.10566000000E+00 0. -1.
     999900   -1    0    0    0    0 -0.00000000000E+00 -0.00000000000E+00 -0.74505805969E-08  0.93827000000E+00  0.93827000000E+00 0. -1.
     999902    2    1    2    0    0 -0.19708785680E-03 -0.45487989700E-02 -0.12629844951E-01  0.10305045242E+01  0.10304170666E+01 0.  0.
     999903    2    3    3    0    0  0.55608709681E-01 -0.92250391589E-01 -0.80554917004E-01  0.14178653084E+00  0.44853788409E-01 0.  0.
         14    1    1    2    0    0  0.19708785680E-03  0.45487989700E-02  0.12629844951E-01  0.13425475752E-01  0.00000000000E+00 0. -1.
     999901    1    3    3    0    0 -0.55805797538E-01  0.87701592619E-01  0.67925072053E-01  0.88871799340E+00  0.88000000000E+00 0.  1.
        -11    1    4    4    0    0  0.59525255605E-02 -0.51525726315E-02 -0.26980815507E-01  0.28110622399E-01  0.51100000000E-03 0. -1.
         11    1    4    4    0    0  0.49656184121E-01 -0.87097818957E-01 -0.53574101497E-01  0.11367590844E+00  0.51100000000E-03 0.  1.
</event>
<event>
 8    1  0.2880400E+004  0.1043930E+01  0.7957747E-01            NaN
         13   -1    0    0    0    0  0.00000000000E+00  0.00000000000E+00  0.74505805969E-08  0.10566000000E+00  0.10566000000E+00 0. -1.
     999900   -1    0    0    0    0 -0.00000000000E+00 -0.00000000000E+00 -0.74505805969E-08  0.93827000000E+00  0.93827000000E+00 0. -1.
     999902    2    1    2    0    0  0.72513117213E-02  0.10202564047E-01 -0.74957963035E-02  0.10293402503E+01  0.10292368484E+01 0.  0.
     999903    2    3    3    0    0  0.10477511308E+00  0.82568486720E-01 -0.31215645461E-02  0.14098961427E+00  0.45529636996E-01 0.  0.
         14    1    1    2    0    0 -0.72513117213E-02 -0.10202564047E-01  0.74957963035E-02  0.14589749725E-01  0.00000000000E+00 0.  1.
     999901    1    3    3    0    0 -0.97523801360E-01 -0.72365922673E-01 -0.43742317574E-02  0.88835063601E+00  0.88000000000E+00 0. -1.
        -11    1    4    4    0    0  0.30808448379E-01  0.51965595129E-01 -0.71713803719E-02  0.60838091572E-01  0.51100000000E-03 0. -1.
         11    1    4    4    0    0  0.73966664702E-01  0.30602891591E-01  0.40498158258E-02  0.80151522693E-01  0.51100000000E-03 0.  1.
</event>
<event>
 8    1  0.2183582E+004  0.1043930E+01  0.7957747E-01            NaN
         13   -1    0    0    0    0  0.00000000000E+00  0.00000000000E+00  0.74505805969E-08  0.10566000000E+00  0.10566000000E+00 0.  1.
     999900   -1    0    0    0    0 -0.00000000000E+00 -0.00000000000E+00 -0.74505805969E-08  0.93827000000E+00  0.93827000000E+00 0.  1.
     999902    2    1    2    0    0 -0.61395821879E-02  0.38351201453E-02 -0.14522481777E-01  0.10277033216E+01  0.10275752099E+01 0.  0.
     999903    2    3    3    0    0  0.12852292388E+00 -0.19610865084E-01 -0.20793381036E-01  0.13712877166E+00  0.38330240433E-01 0.  0.
         14    1    1    2    0    0  0.61395821879E-02 -0.38351201453E-02  0.14522481777E-01  0.16226678432E-01  0.00000000000E+00 0.  1.
     999901    1    3    3    0    0 -0.13466250606E+00  0.23445985229E-01  0.62708992593E-02  0.89057454991E+00  0.88000000000E+00 0.  1.
        -11    1    4    4    0    0  0.75028349373E-01  0.60898604399E-02 -0.37075438152E-02  0.75368074222E-01  0.51100000000E-03 0.  1.
         11    1    4    4    0    0  0.53494574503E-01 -0.25700725524E-01 -0.17085837221E-01  0.61760697440E-01  0.51100000000E-03 0. -1.
</event>
<event>
 8    1  0.2183582E+004  0.1043930E+01  0.7957747E-01            NaN
         13   -1    0    0    0    0  0.00000000000E+00  0.00000000000E+00  0.74505805969E-08  0.10566000000E+00  0.10566000000E+00 0. -1.
     999900   -1    0    0    0    0 -0.00000000000E+00 -0.00000000000E+00 -0.74505805969E-08  0.93827000000E+00  0.93827000000E+00 0.  1.
     999902    2    1    2    0    0  0.12699411772E-01  0.32297117128E-02 -0.34347686514E-02  0.10303836450E+01  0.10302945949E+01 0.  0.
     999903    2    3    3    0    0 -0.11310340706E+00 -0.55049358357E-01  0.45191621895E-01  0.13820242741E+00  0.35139944629E-01 0.  0.
         14    1    1    2    0    0 -0.12699411772E-01 -0.32297117128E-02  0.34347686514E-02  0.13546354963E-01  0.00000000000E+00 0. -1.
     999901    1    3    3    0    0  0.12580281883E+00  0.58279070070E-01 -0.48626390547E-01  0.89218121763E+00  0.88000000000E+00 0. -1.
        -11    1    4    4    0    0 -0.86348549522E-01 -0.28792541184E-01  0.42942613224E-01  0.10064497794E+00  0.51100000000E-03 0. -1.
         11    1    4    4    0    0 -0.26754857534E-01 -0.26256817173E-01  0.22490086713E-02  0.37557449470E-01  0.51100000000E-03 0.  1.
</event>
<event>
 8    1  0.2183582E+004  0.1043930E+01  0.7957747E-01            NaN
         13   -1    0    0    0    0  0.00000000000E+00  0.00000000000E+00  0.74505805969E-08  0.10566000000E+00  0.10566000000E+00 0. -1.
     999900   -1    0    0    0    0 -0.00000000000E+00 -0.00000000000E+00 -0.74505805969E-08  0.93827000000E+00  0.93827000000E+00 0. -1.
     999902    2    1    2    0    0 -0.13630096501E-02 -0.63533243603E-02  0.11061700449E-01  0.10311009805E+01  0.10310211677E+01 0.  0.
     999903    2    3    3    0    0  0.94493294655E-01  0.93688810994E-01  0.65076991242E-03  0.14019961251E+00  0.44146707772E-01 0.  0.
         14    1    1    2    0    0  0.13630096501E-02  0.63533243603E-02 -0.11061700449E-01  0.12829019548E-01  0.00000000000E+00 0.  1.
     999901    1    3    3    0    0 -0.95856304306E-01 -0.10004213535E+00  0.10410930536E-01  0.89090136794E+00  0.88000000000E+00 0.  1.
        -11    1    4    4    0    0  0.71829806880E-01  0.63116626754E-01 -0.18808225955E-01  0.97453785015E-01  0.51100000000E-03 0.  1.
         11    1    4    4    0    0  0.22663487775E-01  0.30572184240E-01  0.19458995867E-01  0.42745827498E-01  0.51100000000E-03 0. -1.
</event>
<event>
 8    1  0.2183582E+004  0.1043930E+01  0.7957747E-01            NaN
         13   -1    0    0    0    0  0.00000000000E+00  0.00000000000E+00  0.74505805969E-08  0.10566000000E+00  0.10566000000E+00 0.  1.
     999900   -1    0    0    0    0 -0.00000000000E+00 -0.00000000000E+00 -0.74505805969E-08  0.93827000000E+00  0.93827000000E+00 0.  1.
     999902    2    1    2    0    0  0.76096973512E-02  0.13317703780E-02  0.12178632335E-01  0.10295077883E+01  0.10294067641E+01 0.  0.
     999903    2    3    3    0    0 -0.97968025126E-01  0.65762046414E-01  0.57516147124E-01  0.13970252518E+00  0.47815349677E-01 0.  0.
         14    1    1    2    0    0 -0.76096973512E-02 -0.13317703780E-02 -0.12178632335E-01  0.14422211747E-01  0.00000000000E+00 0. -1.
     999901    1    3    3    0    0  0.10557772248E+00 -0.64430276036E-01 -0.45337514789E-01  0.88980526308E+00  0.88000000000E+00 0.  1.
        -11    1    4    4    0    0 -0.37703961746E-03  0.10722666496E-01 -0.44949819980E-02  0.11644042246E-01  0.51100000000E-03 0.  1.
         11    1    4    4    0    0 -0.97590985509E-01  0.55039379918E-01  0.62011129122E-01  0.12805848293E+00  0.51100000000E-03 0. -1.
</event>
<event>
 8    1  0.2183582E+004  0.1043930E+01  0.7957747E-01            NaN
         13   -1    0    0    0    0  0.00000000000E+00  0.00000000000E+00  0.74505805969E-08  0.10566000000E+00  0.10566000000E+00 0. -1.
     999900   -1    0    0    0    0 -0.00000000000E+00 -0.00000000000E+00 -0.74505805969E-08  0.93827000000E+00  0.93827000000E+00 0. -1.
     999902    2    1    2    0    0 -0.71807964178E-02 -0.16454455907E-02  0.13323159180E-01  0.10287057464E+01  0.10285930851E+01 0.  0.
     999903    2    3    3    0    0 -0.42413220438E-01  0.70688639046E-01  0.10538346681E+00  0.14025279671E+00  0.42064319201E-01 0.  0.
         14    1    1    2    0    0  0.71807964178E-02  0.16454455907E-02 -0.13323159180E-01  0.15224253641E-01  0.00000000000E+00 0.  1.
     999901    1    3    3    0    0  0.35232424020E-01 -0.72334084637E-01 -0.92060307629E-01  0.88845294965E+00  0.88000000000E+00 0. -1.
        -11    1    4    4    0    0 -0.32892146305E-01  0.56088791574E-01  0.10413721313E+00  0.12277078687E+00  0.51100000000E-03 0.  1.
         11    1    4    4    0    0 -0.95210741332E-02  0.14599847472E-01  0.12462536798E-02  0.17482009841E-01  0.51100000000E-03 0. -1.
</event>
<event>
 8    1  0.2183582E+004  0.1043930E+01  0.7957747E-01            NaN
         13   -1    0    0    0    0  0.00000000000E+00  0.00000000000E+00  0.74505805969E-08  0.10566000000E+00  0.10566000000E+00 0. -1.
     999900   -1    0    0    0    0 -0.00000000000E+00 -0.00000000000E+00 -0.74505805969E-08  0.93827000000E+00  0.93827000000E+00 0. -1.
     999902    2    1    2    0    0  0.27417427903E-02  0.44683034892E-03 -0.13871359663E-01  0.10297832184E+01  0.10296860422E+01 0.  0.
     999903    2    3    3    0    0 -0.46192058043E-01  0.12277583838E+00  0.14661389398E-01  0.13951751601E+00  0.45194780869E-01 0.  0.
         14    1    1    2    0    0 -0.27417427903E-02 -0.44683034892E-03  0.13871359663E-01  0.14146781605E-01  0.00000000000E+00 0. -1.
     999901    1    3    3    0    0  0.48933800834E-01 -0.12232900804E+00 -0.28532749061E-01  0.89026570238E+00  0.88000000000E+00 0.  1.
        -11    1    4    4    0    0 -0.83562754138E-02  0.46296403120E-01  0.25483616691E-01  0.53505701764E-01  0.51100000000E-03 0. -1.
         11    1    4    4    0    0 -0.37835782629E-01  0.76479435264E-01 -0.10822227293E-01  0.86011814247E-01  0.51100000000E-03 0.  1.
</event>
<event>
 8    1  0.2183582E+004  0.1043930E+01  0.7957747E-01            NaN
         13   -1    0    0    0    0  0.00000000000E+00  0.00000000000E+00  0.74505805969E-08  0.10566000000E+00  0.10566000000E+00 0.  1.
     999900   -1    0    0    0    0 -0.00000000000E+00 -0.00000000000E+00 -0.74505805969E-08  0.93827000000E+00  0.93827000000E+00 0.  1.
     999902    2    1    2    0    0  0.20564218363E-01 -0.22482264224E-03  0.63947432710E-02  0.10223932787E+01  0.10221664180E+01 0.  0.
     999903    2    3    3    0    0 -0.63918295776E-01  0.64867059717E-01  0.84928287595E-01  0.13248217870E+00  0.45226426665E-01 0.  0.
         14    1    1    2    0    0 -0.20564218363E-01  0.22482264224E-03 -0.63947432710E-02  0.21536721282E-01  0.00000000000E+00 0. -1.
     999901    1    3    3    0    0  0.84482514139E-01 -0.65091882359E-01 -0.78533544324E-01  0.88991110001E+00  0.88000000000E+00 0.  1.
        -11    1    4    4    0    0 -0.62321719297E-01  0.34640805420E-01  0.56856786622E-01  0.91197244488E-01  0.51100000000E-03 0.  1.
         11    1    4    4    0    0 -0.15965764795E-02  0.30226254296E-01  0.28071500973E-01  0.41284934215E-01  0.51100000000E-03 0. -1.
</event>
<event>
 8    1  0.2183582E+004  0.1043930E+01  0.7957747E-01            NaN
         13   -1    0    0    0    0  0.00000000000E+00  0.00000000000E+00  0.74505805969E-08  0.10566000000E+00  0.10566000000E+00 0.  1.
     999900   -1    0    0    0    0 -0.00000000000E+00 -0.00000000000E+00 -0.74505805969E-08  0.93827000000E+00  0.93827000000E+00 0.  1.
     999902    2    1    2    0    0 -0.51454268163E-02  0.81439549574E-02 -0.10650767031E-01  0.10295690022E+01  0.10294688398E+01 0.  0.
     999903    2    3    3    0    0  0.10079413596E+00  0.13840088535E-02  0.82774715283E-01  0.13827936994E+00  0.45914674513E-01 0.  0.
         14    1    1    2    0    0  0.51454268163E-02 -0.81439549574E-02  0.10650767031E-01  0.14360997800E-01  0.00000000000E+00 0.  1.
     999901    1    3    3    0    0 -0.10593956278E+00  0.67599461039E-02 -0.93425482314E-01  0.89128963226E+00  0.88000000000E+00 0.  1.
        -11    1    4    4    0    0  0.64139538522E-01 -0.89574677016E-02  0.75552793231E-01  0.99511819979E-01  0.51100000000E-03 0. -1.
         11    1    4    4    0    0  0.36654597438E-01  0.10341476555E-01  0.72219220517E-02  0.38767549959E-01  0.51100000000E-03 0.  1.
</event>
<event>
 8    1  0.2183582E+004  0.1043930E+01  0.7957747E-01            NaN
         13   -1    0    0    0    0  0.00000000000E+00  0.00000000000E+00  0.74505805969E-08  0.10566000000E+00  0.10566000000E+00 0. -1.
     999900   -1    0    0    0    0 -0.00000000000E+00 -0.00000000000E+00 -0.74505805969E-08  0.93827000000E+00  0.93827000000E+00 0.  1.
     999902    2    1    2    0    0  0.14568185936E-01 -0.10680604674E-01 -0.50589028250E-02  0.10251710060E+01  0.10249993618E+01 0.  0.
     999903    2    3    3    0    0  0.99400775599E-01 -0.83788821245E-01  0.90053597957E-02  0.13796235914E+00  0.45292772925E-01 0.  0.
         14    1    1    2    0    0 -0.14568185936E-01  0.10680604674E-01  0.50589028250E-02  0.18758993988E-01  0.00000000000E+00 0.  1.
     999901    1    3    3    0    0 -0.84832589664E-01  0.73108216571E-01 -0.14064262621E-01  0.88720864687E+00  0.88000000000E+00 0. -1.
        -11    1    4    4    0    0  0.57125558660E-01 -0.46988797485E-01 -0.17421940426E-01  0.75993826529E-01  0.51100000000E-03 0. -1.
         11    1    4    4    0    0  0.42275216939E-01 -0.36800023760E-01  0.26427300222E-01  0.61968532612E-01  0.51100000000E-03 0.  1.
</event>
<event>
 8    1  0.2183582E+004  0.1043930E+01  0.7957747E-01            NaN
         13   -1    0    0    0    0  0.00000000000E+00  0.00000000000E+00  0.74505805969E-08  0.10566000000E+00  0.10566000000E+00 0. -1.
     999900   -1    0    0    0    0 -0.00000000000E+00 -0.00000000000E+00 -0.74505805969E-08  0.93827000000E+00  0.93827000000E+00 0.  1.
     999902    2    1    2    0    0  0.80099259969E-02  0.11606560137E-01 -0.30768166950E-02  0.10294960832E+01  0.10293948938E+01 0.  0.
     999903    2    3    3    0    0 -0.45195320042E-01 -0.52195100050E-01 -0.11213220692E+00  0.13888139202E+00  0.44130078149E-01 0.  0.
         14    1    1    2    0    0 -0.80099259969E-02 -0.11606560137E-01  0.30768166950E-02  0.14433916782E-01  0.00000000000E+00 0.  1.
     999901    1    3    3    0    0  0.53205246039E-01  0.63801660187E-01  0.10905539022E+00  0.89061469120E+00  0.88000000000E+00 0. -1.
        -11    1    4    4    0    0 -0.49347239777E-01 -0.28519310171E-01 -0.87769469880E-01  0.10465296026E+00  0.51100000000E-03 0.  1.
         11    1    4    4    0    0  0.41519197350E-02 -0.23675789879E-01 -0.24362737037E-01  0.34228431761E-01  0.51100000000E-03 0. -1.
</event>
<event>
 8    1  0.2183582E+004  0.1043930E+01  0.7957747E-01            NaN
         13   -1    0    0    0    0  0.00000000000E+00  0.00000000000E+00  0.74505805969E-08  0.10566000000E+00  0.10566000000E+00 0.  1.
     999900   -1    0    0    0    0 -0.00000000000E+00 -0.00000000000E+00 -0.74505805969E-08  0.93827000000E+00  0.93827000000E+00 0. -1.
     999902    2    1    2    0    0  0.11308589561E-01 -0.46867580355E-02 -0.61051526985E-02  0.10302507168E+01  0.10301598986E+01 0.  0.
     999903    2    3    3    0    0 -0.78010106551E-01  0.10396898352E+00 -0.26566497887E-01  0.13884588943E+00  0.40954559513E-01 0.  0.
         14    1    1    2    0    0 -0.11308589561E-01  0.46867580355E-02  0.61051526985E-02  0.13679283176E-01  0.00000000000E+00 0.  1.
     999901    1    3    3    0    0  0.89318696112E-01 -0.10865574155E+00  0.20461345189E-01  0.89140482739E+00  0.88000000000E+00 0. -1.
        -11    1    4    4    0    0 -0.27667857668E-01  0.70717878499E-01 -0.15494361354E-01  0.77503967912E-01  0.51100000000E-03 0.  1.
         11    1    4    4    0    0 -0.50342248883E-01  0.33251105018E-01 -0.11072136533E-01  0.61341921521E-01  0.51100000000E-03 0. -1.
</event>
<event>
 8    1  0.2183582E+004  0.1043930E+01  0.7957747E-01            NaN
         13   -1    0    0    0    0  0.00000000000E+00  0.00000000000E+00  0.74505805969E-08  0.10566000000E+00  0.10566000000E+00 0.  1.
     999900   -1    0    0    0    0 -0.00000000000E+00 -0.00000000000E+00 -0.74505805969E-08  0.93827000000E+00  0.93827000000E+00 0.  1.
     999902    2    1    2    0    0 -0.88473550461E-02 -0.10504378496E-01  0.70021616447E-02  0.10285141664E+01  0.10283986301E+01 0.  0.
     999903    2    3    3    0    0  0.31795875622E-03  0.11188692050E+00  0.67883731479E-01  0.13791313415E+00  0.43509165635E-01 0.  0.
         14    1    1    2    0    0  0.88473550461E-02  0.10504378496E-01 -0.70021616447E-02  0.15415833633E-01  0.00000000000E+00 0. -1.
     999901    1    3    3    0    0 -0.91653138023E-02 -0.12239129899E+00 -0.60881569834E-01  0.89060103222E+00  0.88000000000E+00 0.  1.
        -11    1    4    4    0    0 -0.94311886225E-02  0.13928626821E-01  0.25907975512E-01  0.30893984529E-01  0.51100000000E-03 0. -1.
         11    1    4    4    0    0  0.97491473787E-02  0.97958293678E-01  0.41975755966E-01  0.10701914962E+00  0.51100000000E-03 0.  1.
</event>
<event>
 8    1  0.2183582E+004  0.1043930E+01  0.7957747E-01            NaN
         13   -1    0    0    0    0  0.00000000000E+00  0.00000000000E+00  0.74505805969E-08  0.10566000000E+00  0.10566000000E+00 0. -1.
     999900   -1    0    0    0    0 -0.00000000000E+00 -0.00000000000E+00 -0.74505805969E-08  0.93827000000E+00  0.93827000000E+00 0. -1.
     999902    2    1    2    0    0  0.97291270748E-02  0.89455122680E-02  0.29886319558E-02  0.10303797224E+01  0.10302906203E+01 0.  0.
     999903    2    3    3    0    0  0.67375096533E-01  0.86145647509E-01 -0.77512082343E-01  0.14146843112E+00  0.45218556776E-01 0.  0.
         14    1    1    2    0    0 -0.97291270748E-02 -0.89455122680E-02 -0.29886319558E-02  0.13550277648E-01  0.00000000000E+00 0. -1.
     999901    1    3    3    0    0 -0.57645969458E-01 -0.77200135241E-01  0.80500714299E-01  0.88891129123E+00  0.88000000000E+00 0.  1.
        -11    1    4    4    0    0  0.46279420500E-01  0.48431460305E-01 -0.20755731042E-01  0.70131680439E-01  0.51100000000E-03 0.  1.
         11    1    4    4    0    0  0.21095676033E-01  0.37714187204E-01 -0.56756351302E-01  0.71336750682E-01  0.51100000000E-03 0. -1.
</event>
<event>
 8    1  0.2183582E+004  0.1043930E+01  0.7957747E-01            NaN
         13   -1    0    0    0    0  0.00000000000E+00  0.00000000000E+00  0.74505805969E-08  0.10566000000E+00  0.10566000000E+00 0. -1.
     999900   -1    0    0    0    0 -0.00000000000E+00 -0.00000000000E+00 -0.74505805969E-08  0.93827000000E+00  0.93827000000E+00 0.  1.
     999902    2    1    2    0    0 -0.12971028885E-01  0.25016537189E-02  0.18161450630E-02  0.10305956742E+01  0.10305094077E+01 0.  0.
     999903    2    3    3    0    0 -0.57158005699E-01 -0.12017392370E+00 -0.11073127921E-01  0.14089464600E+00  0.44943047932E-01 0.  0.
         14    1    1    2    0    0  0.12971028885E-01 -0.25016537189E-02 -0.18161450630E-02  0.13334325800E-01  0.00000000000E+00 0.  1.
     999901    1    3    3    0    0  0.44186976814E-01  0.12267557742E+00  0.12889272984E-01  0.88970102820E+00  0.88000000000E+00 0. -1.
        -11    1    4    4    0    0 -0.18266382286E-01 -0.83618961582E-01 -0.16752970899E-01  0.87216481315E-01  0.51100000000E-03 0. -1.
         11    1    4    4    0    0 -0.38891623413E-01 -0.36554962118E-01  0.56798429785E-02  0.53678164689E-01  0.51100000000E-03 0.  1.
</event>
<event>
 8    1  0.2183582E+004  0.1043930E+01  0.7957747E-01            NaN
         13   -1    0    0    0    0  0.00000000000E+00  0.00000000000E+00  0.74505805969E-08  0.10566000000E+00  0.10566000000E+00 0. -1.
     999900   -1    0    0    0    0 -0.00000000000E+00 -0.00000000000E+00 -0.74505805969E-08  0.93827000000E+00  0.93827000000E+00 0. -1.
     999902    2    1    2    0    0  0.62263644590E-03  0.10737788716E-01 -0.14545110009E-01  0.10258400025E+01  0.10256804877E+01 0.  0.
     999903    2    3    3    0    0 -0.61604423434E-01  0.10853216162E+00 -0.37327545526E-01  0.13794643589E+00  0.45404167494E-01 0.  0.
         14    1    1    2    0    0 -0.62263644590E-03 -0.10737788716E-01  0.14545110009E-01  0.18089997452E-01  0.00000000000E+00 0. -1.
     999901    1    3    3    0    0  0.62227059880E-01 -0.97794372904E-01  0.22782435518E-01  0.88789356666E+00  0.88000000000E+00 0.  1.
        -11    1    4    4    0    0 -0.23882800815E-01  0.74624341062E-01 -0.65788421819E-02  0.78630291486E-01  0.51100000000E-03 0.  1.
         11    1    4    4    0    0 -0.37721622619E-01  0.33907820558E-01 -0.30748703345E-01  0.59316144399E-01  0.51100000000E-03 0. -1.
</event>
<event>
 8    1  0.2183582E+004  0.1043930E+01  0.7957747E-01            NaN
         13   -1    0    0    0    0  0.00000000000E+00  0.00000000000E+00  0.74505805969E-08  0.10566000000E+00  0.10566000000E+00 0. -1.
     999900   -1    0    0    0    0 -0.00000000000E+00 -0.00000000000E+00 -0.74505805969E-08  0.93827000000E+00  0.93827000000E+00 0.  1.
     999902    2    1    2    0    0 -0.16142529282E-02 -0.12303842067E-01  0.63390656449E-02  0.10299953635E+01  0.10299010995E+01 0.  0.
     999903    2    3    3    0    0 -0.64781634508E-01  0.36062519061E-01  0.11029008178E+00  0.14031270277E+00  0.45017629532E-01 0.  0.
         14    1    1    2    0    0  0.16142529282E-02  0.12303842067E-01 -0.63390656449E-02  0.13934636535E-01  0.00000000000E+00 0.  1.
     999901    1    3    3    0    0  0.63167381580E-01 -0.48366361127E-01 -0.10395101614E+00  0.88968266069E+00  0.88000000000E+00 0.  1.
        -11    1    4    4    0    0 -0.46071038762E-01  0.37994132977E-01  0.52426182120E-01  0.79466096205E-01  0.51100000000E-03 0. -1.
         11    1    4    4    0    0 -0.18710595746E-01 -0.19316139167E-02  0.57863899662E-01  0.60846606566E-01  0.51100000000E-03 0.  1.
</event>
<event>
 8    1  0.2183582E+004  0.1043930E+01  0.7957747E-01            NaN
         13   -1    0    0    0    0  0.00000000000E+00  0.00000000000E+00  0.74505805969E-08  0.10566000000E+00  0.10566000000E+00 0. -1.
     999900   -1    0    0    0    0 -0.00000000000E+00 -0.00000000000E+00 -0.74505805969E-08  0.93827000000E+00  0.93827000000E+00 0. -1.
     999902    2    1    2    0    0  0.79796911088E-02  0.47692806728E-02 -0.10479683624E-01  0.10299212428E+01  0.10298259664E+01 0.  0.
     999903    2    3    3    0    0  0.47771487353E-01 -0.12315104204E+00 -0.10436905753E-01  0.13978249082E+00  0.44518777833E-01 0.  0.
         14    1    1    2    0    0 -0.79796911088E-02 -0.47692806728E-02  0.10479683624E-01  0.14008757161E-01  0.00000000000E+00 0. -1.
     999901    1    3    3    0    0 -0.39791796245E-01  0.12792032271E+00 -0.42777871024E-04  0.89013875202E+00  0.88000000000E+00 0. -1.
        -11    1    4    4    0    0  0.15021086272E-01 -0.15128989446E-01 -0.16162975932E-01  0.26758592385E-01  0.51100000000E-03 0.  1.
         11    1    4    4    0    0  0.32750401082E-01 -0.10802205259E+00  0.57260701795E-02  0.11302389844E+00  0.51100000000E-03 0. -1.
</event>
<event>
 8    1  0.2183582E+004  0.1043930E+01  0.7957747E-01            NaN
         13   -1    0    0    0    0  0.00000000000E+00  0.00000000000E+00  0.74505805969E-08  0.10566000000E+00  0.10566000000E+00 0. -1.
     999900   -1    0    0    0    0 -0.00000000000E+00 -0.00000000000E+00 -0.74505805969E-08  0.93827000000E+00  0.93827000000E+00 0.  1.
     999902    2    1    2    0    0  0.11774182598E-01 -0.26504232938E-02  0.68532872746E-02  0.10300511072E+01  0.10299576009E+01 0.  0.
     999903    2    3    3    0    0  0.12605384895E+00 -0.65127215664E-02 -0.44891085062E-01  0.14114602813E+00  0.44441009923E-01 0.  0.
         14    1    1    2    0    0 -0.11774182598E-01  0.26504232938E-02 -0.68532872746E-02  0.13878892822E-01  0.00000000000E+00 0.  1.
     999901    1    3    3    0    0 -0.11427966635E+00  0.38622982726E-02  0.51744372337E-01  0.88890507905E+00  0.88000000000E+00 0. -1.
        -11    1    4    4    0    0  0.59712089378E-01  0.90015692099E-02 -0.40819913112E-01  0.72890934234E-01  0.51100000000E-03 0. -1.
         11    1    4    4    0    0  0.66341759567E-01 -0.15514290776E-01 -0.40711719502E-02  0.68255093896E-01  0.51100000000E-03 0.  1.
</event>
<event>
 8    1  0.2183582E+004  0.1043930E+01  0.7957747E-01            NaN
         13   -1    0    0    0    0  0.00000000000E+00  0.00000000000E+00  0.74505805969E-08  0.10566000000E+00  0.10566000000E+00 0. -1.
     999900   -1    0    0    0    0 -0.00000000000E+00 -0.00000000000E+00 -0.74505805969E-08  0.93827000000E+00  0.93827000000E+00 0.  1.
     999902    2    1    2    0    0 -0.12082261185E-01  0.31960267042E-02 -0.51319709912E-02  0.10304195319E+01  0.10303309560E+01 0.  0.
     999903    2    3    3    0    0 -0.53604454499E-01 -0.44644732791E-02 -0.12164519986E+00  0.14173617530E+00  0.48971621138E-01 0.  0.
         14    1    1    2    0    0  0.12082261185E-01 -0.31960267042E-02  0.51319709912E-02  0.13510468100E-01  0.00000000000E+00 0.  1.
     999901    1    3    3    0    0  0.41522193314E-01  0.76604999833E-02  0.11651322886E+00  0.88868335660E+00  0.88000000000E+00 0. -1.
        -11    1    4    4    0    0 -0.46992103866E-01  0.59487500346E-02 -0.49392469066E-01  0.68436266512E-01  0.51100000000E-03 0.  1.
         11    1    4    4    0    0 -0.66123506329E-02 -0.10413223314E-01 -0.72252730789E-01  0.73299908787E-01  0.51100000000E-03 0. -1.
</event>
<event>
 8    1  0.2183582E+004  0.1043930E+01  0.7957747E-01            NaN
         13   -1    0    0    0    0  0.00000000000E+00  0.00000000000E+00  0.74505805969E-08  0.10566000000E+00  0.10566000000E+00 0. -1.
     999900   -1    0    0    0    0 -0.00000000000E+00 -0.00000000000E+00 -0.74505805969E-08  0.93827000000E+00  0.93827000000E+00 0. -1.
     999902    2    1    2    0    0  0.74619654555E-02  0.82200550460E-02 -0.71843174218E-02  0.10307063602E+01  0.10306215291E+01 0.  0.
     999903    2    3    3    0    0  0.76477945914E-01 -0.99924426648E-01 -0.33708409924E-01  0.14100868008E+00  0.53976140162E-01 0.  0.
         14    1    1    2    0    0 -0.74619654555E-02 -0.82200550460E-02  0.71843174218E-02  0.13223639825E-01  0.00000000000E+00 0.  1.
     999901    1    3    3    0    0 -0.69015980458E-01  0.10814448169E+00  0.26524092503E-01  0.88969768009E+00  0.88000000000E+00 0.  1.
        -11    1    4    4    0    0  0.58435710036E-01 -0.44768285795E-01 -0.37946400134E-01  0.82819816618E-01  0.51100000000E-03 0. -1.
         11    1    4    4    0    0  0.18042235877E-01 -0.55156140853E-01  0.42379902099E-02  0.58188863464E-01  0.51100000000E-03 0.  1.
</event>
<event>
 8    1  0.2183582E+004  0.1043930E+01  0.7957747E-01            NaN
         13   -1    0    0    0    0  0.00000000000E+00  0.00000000000E+00  0.74505805969E-08  0.10566000000E+00  0.10566000000E+00 0.  1.
     999900   -1    0    0    0    0 -0.00000000000E+00 -0.00000000000E+00 -0.74505805969E-08  0.93827000000E+00  0.93827000000E+00 0.  1.
     999902    2    1    2    0    0  0.12427299019E-01  0.54823787350E-02  0.22465449523E-02  0.10301626037E+01  0.10300706038E+01 0.  0.
     999903    2    3    3    0    0  0.27629881890E-01  0.92761941112E-01  0.94571237357E-01  0.14090859645E+00  0.39285182006E-01 0.  0.
         14    1    1    2    0    0 -0.12427299019E-01 -0.54823787350E-02 -0.22465449523E-02  0.13767396330E-01  0.00000000000E+00 0.  1.
     999901    1    3    3    0    0 -0.15202582871E-01 -0.87279562377E-01 -0.92324692404E-01  0.88925400722E+00  0.88000000000E+00 0.  1.
        -11    1    4    4    0    0  0.35419189228E-01  0.52100135028E-01  0.54877093078E-01  0.83550580496E-01  0.51100000000E-03 0.  1.
         11    1    4    4    0    0 -0.77893073378E-02  0.40661806084E-01  0.39694144278E-01  0.57358015951E-01  0.51100000000E-03 0. -1.
</event>
<event>
 8    1  0.2183582E+004  0.1043930E+01  0.7957747E-01            NaN
         13   -1    0    0    0    0  0.00000000000E+00  0.00000000000E+00  0.74505805969E-08  0.10566000000E+00  0.10566000000E+00 0.  1.
     999900   -1    0    0    0    0 -0.00000000000E+00 -0.00000000000E+00 -0.74505805969E-08  0.93827000000E+00  0.93827000000E+00 0. -1.
     999902    2    1    2    0    0  0.11718061968E-01 -0.71103171742E-02 -0.18913512867E-02  0.10300935700E+01  0.10300006389E+01 0.  0.
     999903    2    3    3    0    0  0.86775637660E-01 -0.99625763426E-01 -0.16997050254E-01  0.14193765481E+00  0.49011163090E-01 0.  0.
         14    1    1    2    0    0 -0.11718061968E-01  0.71103171742E-02  0.18913512867E-02  0.13836430041E-01  0.00000000000E+00 0.  1.
     999901    1    3    3    0    0 -0.75057575692E-01  0.92515446252E-01  0.15105698967E-01  0.88815591514E+00  0.88000000000E+00 0.  1.
        -11    1    4    4    0    0  0.15180887383E-01 -0.18032562241E-01 -0.23372190947E-01  0.33198690838E-01  0.51100000000E-03 0. -1.
         11    1    4    4    0    0  0.71594750277E-01 -0.81593201185E-01  0.63751406929E-02  0.10873896398E+00  0.51100000000E-03 0.  1.
</event>
<event>
 8    1  0.2183582E+004  0.1043930E+01  0.7957747E-01            NaN
         13   -1    0    0    0    0  0.00000000000E+00  0.00000000000E+00  0.74505805969E-08  0.10566000000E+00  0.10566000000E+00 0.  1.
     999900   -1    0    0    0    0 -0.00000000000E+00 -0.00000000000E+00 -0.74505805969E-08  0.93827000000E+00  0.93827000000E+00 0. -1.
     999902    2    1    2    0    0  0.81525519593E-02  0.70475479100E-02  0.69623440630E-02  0.10311001025E+01  0.10310202787E+01 0.  0.
     999903    2    3    3    0    0  0.27529901111E-01 -0.10035369023E+00  0.83866928619E-01  0.14102998013E+00  0.45022605220E-01 0.  0.
         14    1    1    2    0    0 -0.81525519593E-02 -0.70475479100E-02 -0.69623440630E-02  0.12829897499E-01  0.00000000000E+00 0.  1.
     999901    1    3    3    0    0 -0.19377349152E-01  0.10740123814E+00 -0.76904584556E-01  0.89007012237E+00  0.88000000000E+00 0. -1.
        -11    1    4    4    0    0  0.21025146833E-01 -0.38827031321E-01  0.60482911011E-01  0.74886840005E-01  0.51100000000E-03 0.  1.
         11    1    4    4    0    0  0.65047542775E-02 -0.61526658910E-01  0.23384017608E-01  0.66143140123E-01  0.51100000000E-03 0. -1.
</event>
<event>
 8    1  0.2183582E+004  0.1043930E+01  0.7957747E-01            NaN
         13   -1    0    0    0    0  0.00000000000E+00  0.00000000000E+00  0.74505805969E-08  0.10566000000E+00  0.10566000000E+00 0. -1.
     999900   -1    0    0    0    0 -0.00000000000E+00 -0.00000000000E+00 -0.74505805969E-08  0.93827000000E+00  0.93827000000E+00 0.  1.
     999902    2    1    2    0    0 -0.88337609072E-02 -0.18905058341E-02  0.10670152692E-01  0.10299492453E+01  0.10298543520E+01 0.  0.
     999903    2    3    3    0    0 -0.13051975652E+00  0.24011905160E-01  0.83916417124E-02  0.14119528156E+00  0.47473249856E-01 0.  0.
         14    1    1    2    0    0  0.88337609072E-02  0.18905058341E-02 -0.10670152692E-01  0.13980754720E-01  0.00000000000E+00 0.  1.
     999901    1    3    3    0    0  0.12168599561E+00 -0.25902410994E-01  0.22785109800E-02  0.88875396372E+00  0.88000000000E+00 0.  1.
        -11    1    4    4    0    0 -0.32274120520E-01  0.22987391091E-01  0.15807437022E-01  0.42663511233E-01  0.51100000000E-03 0.  1.
         11    1    4    4    0    0 -0.98245635998E-01  0.10245140686E-02 -0.74157953095E-02  0.98531770323E-01  0.51100000000E-03 0. -1.
</event>
<event>
 8    1  0.2183582E+004  0.1043930E+01  0.7957747E-01            NaN
         13   -1    0    0    0    0  0.00000000000E+00  0.00000000000E+00  0.74505805969E-08  0.10566000000E+00  0.10566000000E+00 0. -1.
     999900   -1    0    0    0    0 -0.00000000000E+00 -0.00000000000E+00 -0.74505805969E-08  0.93827000000E+00  0.93827000000E+00 0. -1.
     999902    2    1    2    0    0 -0.10267911821E-01  0.96237944701E-02 -0.37439569694E-02  0.10293675604E+01  0.10292645480E+01 0.  0.
     999903    2    3    3    0    0  0.10976627372E+00  0.51603959555E-01  0.41984484682E-01  0.13905209365E+00  0.53490039325E-01 0.  0.
         14    1    1    2    0    0  0.10267911821E-01 -0.96237944701E-02  0.37439569694E-02  0.14562439595E-01  0.00000000000E+00 0. -1.
     999901    1    3    3    0    0 -0.12003418554E+00 -0.41980165085E-01 -0.45728441651E-01  0.89031546675E+00  0.88000000000E+00 0.  1.
        -11    1    4    4    0    0  0.76946717609E-01  0.71846724658E-02  0.26334424542E-01  0.81646677251E-01  0.51100000000E-03 0. -1.
         11    1    4    4    0    0  0.32819556113E-01  0.44419287090E-01  0.15650060140E-01  0.57405416403E-01  0.51100000000E-03 0.  1.
</event>
<event>
 8    1  0.2183582E+004  0.1043930E+01  0.7957747E-01            NaN
         13   -1    0    0    0    0  0.00000000000E+00  0.00000000000E+00  0.74505805969E-08  0.10566000000E+00  0.10566000000E+00 0. -1.
     999900   -1    0    0    0    0 -0.00000000000E+00 -0.00000000000E+00 -0.74505805969E-08  0.93827000000E+00  0.93827000000E+00 0.  1.
     999902    2    1    2    0    0 -0.53930009071E-02  0.47276740874E-03  0.13807082081E-01  0.10290995083E+01  0.10289926407E+01 0.  0.
     999903    2    3    3    0    0 -0.19097577275E-01  0.88489699516E-01  0.97916311764E-01  0.14061250320E+00  0.44599636422E-01 0.  0.
         14    1    1    2    0    0  0.53930009071E-02 -0.47276740874E-03 -0.13807082081E-01  0.14830491678E-01  0.00000000000E+00 0.  1.
     999901    1    3    3    0    0  0.13704576368E-01 -0.88016932107E-01 -0.84109229683E-01  0.88848700512E+00  0.88000000000E+00 0.  1.
        -11    1    4    4    0    0 -0.14460879280E-01  0.92659522546E-01  0.86444412320E-01  0.12754529270E+00  0.51100000000E-03 0.  1.
         11    1    4    4    0    0 -0.46366979946E-02 -0.41698230301E-02  0.11471899444E-01  0.13067210500E-01  0.51100000000E-03 0. -1.
</event>
<event>
 8    1  0.2299720E+004  0.1043930E+01  0.7957747E-01            NaN
         13   -1    0    0    0    0  0.00000000000E+00  0.00000000000E+00  0.74505805969E-08  0.10566000000E+00  0.10566000000E+00 0.  1.
     999900   -1    0    0    0    0 -0.00000000000E+00 -0.00000000000E+00 -0.74505805969E-08  0.93827000000E+00  0.93827000000E+00 0. -1.
     999902    2    1    2    0    0  0.91022371804E-02  0.91917561698E-02 -0.46505390169E-02  0.10301834871E+01  0.10300917680E+01 0.  0.
     999903    2    3    3    0    0  0.66495212495E-01 -0.10342845945E+00  0.48682137248E-01  0.13955357468E+00  0.44566693946E-01 0.  0.
         14    1    1    2    0    0 -0.91022371804E-02 -0.91917561698E-02  0.46505390169E-02  0.13746512879E-01  0.00000000000E+00 0.  1.
     999901    1    3    3    0    0 -0.57392975314E-01  0.11262021562E+00 -0.53332676265E-01  0.89062991244E+00  0.88000000000E+00 0.  1.
        -11    1    4    4    0    0  0.35483408326E-01 -0.18304713398E-01  0.18975232976E-01  0.44209222867E-01  0.51100000000E-03 0. -1.
         11    1    4    4    0    0  0.31011804169E-01 -0.85123746052E-01  0.29706904273E-01  0.95344351811E-01  0.51100000000E-03 0.  1.
</event>
<event>
 8    1  0.2183582E+004  0.1043930E+01  0.7957747E-01            NaN
         13   -1    0    0    0    0  0.00000000000E+00  0.00000000000E+00  0.74505805969E-08  0.10566000000E+00  0.10566000000E+00 0.  1.
     999900   -1    0    0    0    0 -0.00000000000E+00 -0.00000000000E+00 -0.74505805969E-08  0.93827000000E+00  0.93827000000E+00 0. -1.
     999902    2    1    2    0    0 -0.81127719391E-02  0.85290314836E-02 -0.67772647637E-02  0.10303471886E+01  0.10302576553E+01 0.  0.
     999903    2    3    3    0    0 -0.38551658549E-01  0.11482297301E+00  0.57098321916E-01  0.14113123153E+00  0.44578701622E-01 0.  0.
         14    1    1    2    0    0  0.81127719391E-02 -0.85290314836E-02  0.67772647637E-02  0.13582811353E-01  0.00000000000E+00 0.  1.
     999901    1    3    3    0    0  0.30438886610E-01 -0.10629394153E+00 -0.63875586680E-01  0.88921595712E+00  0.88000000000E+00 0. -1.
        -11    1    4    4    0    0 -0.43852052526E-01  0.73858818879E-01  0.49468336676E-01  0.99123685825E-01  0.51100000000E-03 0.  1.
         11    1    4    4    0    0  0.53003939766E-02  0.40964154132E-01  0.76299852397E-02  0.42007545701E-01  0.51100000000E-03 0. -1.
</event>
<event>
 8    1  0.2183582E+004  0.1043930E+01  0.7957747E-01            NaN
         13   -1    0    0    0    0  0.00000000000E+00  0.00000000000E+00  0.74505805969E-08  0.10566000000E+00  0.10566000000E+00 0. -1.
     999900   -1    0    0    0    0 -0.00000000000E+00 -0.00000000000E+00 -0.74505805969E-08  0.93827000000E+00  0.93827000000E+00 0. -1.
     999902    2    1    2    0    0  0.12156435417E-01  0.51127911059E-02  0.32469172292E-02  0.10303483202E+01  0.10302588019E+01 0.  0.
     999903    2    3    3    0    0  0.16605128287E-02  0.10975929530E+00  0.75936639091E-01  0.14110996581E+00  0.45779789067E-01 0.  0.
         14    1    1    2    0    0 -0.12156435417E-01 -0.51127911059E-02 -0.32469172292E-02  0.13581679809E-01  0.00000000000E+00 0.  1.
     999901    1    3    3    0    0  0.10495922589E-01 -0.10464650420E+00 -0.72689721862E-01  0.88923835438E+00  0.88000000000E+00 0.  1.
        -11    1    4    4    0    0 -0.61058624114E-02  0.79005671737E-01  0.75399096433E-01  0.10938218587E+00  0.51100000000E-03 0. -1.
         11    1    4    4    0    0  0.77663752401E-02  0.30753623567E-01  0.53754265793E-03  0.31727779941E-01  0.51100000000E-03 0.  1.
</event>
<event>
 8    1  0.2183582E+004  0.1043930E+01  0.7957747E-01            NaN
         13   -1    0    0    0    0  0.00000000000E+00  0.00000000000E+00  0.74505805969E-08  0.10566000000E+00  0.10566000000E+00 0. -1.
     999900   -1    0    0    0    0 -0.00000000000E+00 -0.00000000000E+00 -0.74505805969E-08  0.93827000000E+00  0.93827000000E+00 0. -1.
     999902    2    1    2    0    0 -0.13074760371E-02 -0.29479399884E-02  0.13505220089E-01  0.10300450868E+01  0.10299514989E+01 0.  0.
     999903    2    3    3    0    0 -0.30260350634E-01 -0.19233980358E-01 -0.12604139168E+00  0.13843039376E+00  0.44619577327E-01 0.  0.
         14    1    1    2    0    0  0.13074760371E-02  0.29479399884E-02 -0.13505220089E-01  0.13884913158E-01  0.00000000000E+00 0.  1.
     999901    1    3    3    0    0  0.28952874597E-01  0.16286040370E-01  0.13954661177E+00  0.89161469308E+00  0.88000000000E+00 0.  1.
        -11    1    4    4    0    0  0.83148603869E-02 -0.16521865656E-01 -0.43901258455E-01  0.47641269535E-01  0.51100000000E-03 0.  1.
         11    1    4    4    0    0 -0.38575211021E-01 -0.27121147023E-02 -0.82140133222E-01  0.90789124228E-01  0.51100000000E-03 0. -1.
</event>
<event>
 8    1  0.2183582E+004  0.1043930E+01  0.7957747E-01            NaN
         13   -1    0    0    0    0  0.00000000000E+00  0.00000000000E+00  0.74505805969E-08  0.10566000000E+00  0.10566000000E+00 0. -1.
     999900   -1    0    0    0    0 -0.00000000000E+00 -0.00000000000E+00 -0.74505805969E-08  0.93827000000E+00  0.93827000000E+00 0. -1.
     999902    2    1    2    0    0  0.13529308937E-01  0.91531207936E-02 -0.47204914887E-02  0.10269269161E+01  0.10267861444E+01 0.  0.
     999903    2    3    3    0    0 -0.58658874485E-01  0.11506834666E+00  0.13705247644E-01  0.13745028534E+00  0.44979541650E-01 0.  0.
         14    1    1    2    0    0 -0.13529308937E-01 -0.91531207936E-02  0.47204914887E-02  0.17003083852E-01  0.00000000000E+00 0. -1.
     999901    1    3    3    0    0  0.72188183422E-01 -0.10591522587E+00 -0.18425739132E-01  0.88947663081E+00  0.88000000000E+00 0. -1.
        -11    1    4    4    0    0 -0.31392022737E-01  0.10073150670E+00  0.59490761088E-02  0.10567851324E+00  0.51100000000E-03 0.  1.
         11    1    4    4    0    0 -0.27266851748E-01  0.14336839966E-01  0.77561715347E-02  0.31771772099E-01  0.51100000000E-03 0. -1.
</event>
<event>
 8    1  0.2183582E+004  0.1043930E+01  0.7957747E-01            NaN
         13   -1    0    0    0    0  0.00000000000E+00  0.00000000000E+00  0.74505805969E-08  0.10566000000E+00  0.10566000000E+00 0. -1.
     999900   -1    0    0    0    0 -0.00000000000E+00 -0.00000000000E+00 -0.74505805969E-08  0.93827000000E+00  0.93827000000E+00 0.  1.
     999902    2    1    2    0    0 -0.79636327565E-02 -0.39470499773E-02  0.11551629929E-01  0.10293547194E+01  0.10292515240E+01 0.  0.
     999903    2    3    3    0    0 -0.73011996879E-01  0.39704365100E-01 -0.10098169640E+00  0.13873668386E+00  0.46296610507E-01 0.  0.
         14    1    1    2    0    0  0.79636327565E-02  0.39470499773E-02 -0.11551629929E-01  0.14575280588E-01  0.00000000000E+00 0.  1.
     999901    1    3    3    0    0  0.65048364122E-01 -0.43651415078E-01  0.11253332633E+00  0.89061803555E+00  0.88000000000E+00 0. -1.
        -11    1    4    4    0    0 -0.53790477648E-01  0.11396293631E-01 -0.84345490631E-01  0.10068621507E+00  0.51100000000E-03 0. -1.
         11    1    4    4    0    0 -0.19221519231E-01  0.28308071470E-01 -0.16636205770E-01  0.38050468792E-01  0.51100000000E-03 0.  1.
</event>
<event>
 8    1  0.2183582E+004  0.1043930E+01  0.7957747E-01            NaN
         13   -1    0    0    0    0  0.00000000000E+00  0.00000000000E+00  0.74505805969E-08  0.10566000000E+00  0.10566000000E+00 0.  1.
     999900   -1    0    0    0    0 -0.00000000000E+00 -0.00000000000E+00 -0.74505805969E-08  0.93827000000E+00  0.93827000000E+00 0. -1.
     999902    2    1    2    0    0 -0.51266581181E-02  0.49700665827E-02  0.11656398732E-01  0.10302604785E+01  0.10301697908E+01 0.  0.
     999903    2    3    3    0    0  0.12298672186E+00 -0.41662677343E-01 -0.21916768443E-01  0.13912928255E+00  0.44889866167E-01 0.  0.
         14    1    1    2    0    0  0.51266581181E-02 -0.49700665827E-02 -0.11656398732E-01  0.13669521451E-01  0.00000000000E+00 0.  1.
     999901    1    3    3    0    0 -0.12811337998E+00  0.46632743926E-01  0.33573167175E-01  0.89113119600E+00  0.88000000000E+00 0.  1.
        -11    1    4    4    0    0  0.34546333313E-01 -0.27720966826E-01 -0.22303548043E-01  0.49594460612E-01  0.51100000000E-03 0. -1.
         11    1    4    4    0    0  0.88440388551E-01 -0.13941710517E-01  0.38677960025E-03  0.89534821933E-01  0.51100000000E-03 0.  1.
</event>
<event>
 8    1  0.2183582E+004  0.1043930E+01  0.7957747E-01            NaN
         13   -1    0    0    0    0  0.00000000000E+00  0.00000000000E+00  0.74505805969E-08  0.10566000000E+00  0.10566000000E+00 0.  1.
     999900   -1    0    0    0    0 -0.00000000000E+00 -0.00000000000E+00 -0.74505805969E-08  0.93827000000E+00  0.93827000000E+00 0. -1.
     999902    2    1    2    0    0  0.86119790834E-02  0.69415871891E-02 -0.80887476480E-02  0.10302267283E+01  0.10301355892E+01 0.  0.
     999903    2    3    3    0    0  0.14349494473E-01  0.12919337942E+00 -0.32648933051E-01  0.14141762480E+00  0.45123768647E-01 0.  0.
         14    1    1    2    0    0 -0.86119790834E-02 -0.69415871891E-02  0.80887476480E-02  0.13703271688E-01  0.00000000000E+00 0.  1.
     999901    1    3    3    0    0 -0.57375153891E-02 -0.12225179223E+00  0.24560185403E-01  0.88880910352E+00  0.88000000000E+00 0. -1.
        -11    1    4    4    0    0  0.45850330904E-02  0.10054890349E+00 -0.55759256371E-02  0.10080901046E+00  0.51100000000E-03 0.  1.
         11    1    4    4    0    0  0.97644613821E-02  0.28644475927E-01 -0.27073007413E-01  0.40608614340E-01  0.51100000000E-03 0. -1.
</event>
<event>
 8    1  0.2183582E+004  0.1043930E+01  0.7957747E-01            NaN
         13   -1    0    0    0    0  0.00000000000E+00  0.00000000000E+00  0.74505805969E-08  0.10566000000E+00  0.10566000000E+00 0. -1.
     999900   -1    0    0    0    0 -0.00000000000E+00 -0.00000000000E+00 -0.74505805969E-08  0.93827000000E+00  0.93827000000E+00 0.  1.
     999902    2    1    2    0    0  0.11903263140E-01 -0.44610527481E-02  0.71458224957E-02  0.10293474267E+01  0.10292441272E+01 0.  0.
     999903    2    3    3    0    0 -0.34477550800E-01 -0.40095549314E-01 -0.11953923214E+00  0.13835354326E+00  0.45340052153E-01 0.  0.
         14    1    1    2    0    0 -0.11903263140E-01  0.44610527481E-02 -0.71458224957E-02  0.14582573303E-01  0.00000000000E+00 0.  1.
     999901    1    3    3    0    0  0.46380813940E-01  0.35634496566E-01  0.12668505464E+00  0.89099388343E+00  0.88000000000E+00 0.  1.
        -11    1    4    4    0    0 -0.42566925251E-01 -0.19010863179E-01 -0.72925614073E-01  0.86554967234E-01  0.51100000000E-03 0. -1.
         11    1    4    4    0    0  0.80893744502E-02 -0.21084686135E-01 -0.46613618067E-01  0.51798576030E-01  0.51100000000E-03 0.  1.
</event>
<event>
 8    1  0.2183582E+004  0.1043930E+01  0.7957747E-01            NaN
         13   -1    0    0    0    0  0.00000000000E+00  0.00000000000E+00  0.74505805969E-08  0.10566000000E+00  0.10566000000E+00 0.  1.
     999900   -1    0    0    0    0 -0.00000000000E+00 -0.00000000000E+00 -0.74505805969E-08  0.93827000000E+00  0.93827000000E+00 0.  1.
     999902    2    1    2    0    0  0.34311352998E-02  0.14273033630E-01  0.87657687331E-03  0.10292241996E+01  0.10291191342E+01 0.  0.
     999903    2    3    3    0    0  0.97364372196E-01  0.72712276759E-01 -0.54123808243E-01  0.14059399502E+00  0.45501523616E-01 0.  0.
         14    1    1    2    0    0 -0.34311352998E-02 -0.14273033630E-01 -0.87657687331E-03  0.14705800402E-01  0.00000000000E+00 0. -1.
     999901    1    3    3    0    0 -0.93933236896E-01 -0.58439243130E-01  0.55000385116E-01  0.88863020458E+00  0.88000000000E+00 0.  1.
        -11    1    4    4    0    0  0.12697291368E-01  0.32541588166E-01 -0.23083979429E-01  0.41872513606E-01  0.51100000000E-03 0. -1.
         11    1    4    4    0    0  0.84667080829E-01  0.40170688594E-01 -0.31039828814E-01  0.98721481411E-01  0.51100000000E-03 0.  1.
</event>
<event>
 8    1  0.2183582E+004  0.1043930E+01  0.7957747E-01            NaN
         13   -1    0    0    0    0  0.00000000000E+00  0.00000000000E+00  0.74505805969E-08  0.10566000000E+00  0.10566000000E+00 0. -1.
     999900   -1    0    0    0    0 -0.00000000000E+00 -0.00000000000E+00 -0.74505805969E-08  0.93827000000E+00  0.93827000000E+00 0. -1.
     999902    2    1    2    0    0 -0.73327921707E-02 -0.90339511343E-02  0.78706848390E-02  0.10298825876E+01  0.10297867811E+01 0.  0.
     999903    2    3    3    0    0  0.11325946177E+00 -0.36020622914E-01  0.59405131509E-01  0.13975530946E+00  0.43328811625E-01 0.  0.
         14    1    1    2    0    0  0.73327921707E-02  0.90339511343E-02 -0.78706848390E-02  0.14047412358E-01  0.00000000000E+00 0.  1.
     999901    1    3    3    0    0 -0.12059225395E+00  0.26986671780E-01 -0.51534446670E-01  0.89012727818E+00  0.88000000000E+00 0. -1.
        -11    1    4    4    0    0  0.37678520671E-01 -0.32343853568E-01  0.14372707983E-01  0.51697501287E-01  0.51100000000E-03 0. -1.
         11    1    4    4    0    0  0.75580941104E-01 -0.36767693454E-02  0.45032423527E-01  0.88057808176E-01  0.51100000000E-03 0.  1.
</event>
<event>
 8    1  0.2183582E+004  0.1043930E+01  0.7957747E-01            NaN
         13   -1    0    0    0    0  0.00000000000E+00  0.00000000000E+00  0.74505805969E-08  0.10566000000E+00  0.10566000000E+00 0. -1.
     999900   -1    0    0    0    0 -0.00000000000E+00 -0.00000000000E+00 -0.74505805969E-08  0.93827000000E+00  0.93827000000E+00 0.  1.
     999902    2    1    2    0    0 -0.10612283987E-01 -0.89113206331E-02  0.16756326787E-02  0.10299714918E+01  0.10298769023E+01 0.  0.
     999903    2    3    3    0    0  0.18261312665E-01 -0.11936345822E+00 -0.56514088753E-01  0.14069121933E+00  0.44934021318E-01 0.  0.
         14    1    1    2    0    0  0.10612283987E-01  0.89113206331E-02 -0.16756326787E-02  0.13958508219E-01  0.00000000000E+00 0.  1.
     999901    1    3    3    0    0 -0.28873596652E-01  0.11045213759E+00  0.58189721431E-01  0.88928027245E+00  0.88000000000E+00 0. -1.
        -11    1    4    4    0    0  0.11629054571E-01 -0.88369244684E-01 -0.18214689612E-01  0.90974690738E-01  0.51100000000E-03 0. -1.
         11    1    4    4    0    0  0.66322580941E-02 -0.30994213536E-01 -0.38299399141E-01  0.49716528596E-01  0.51100000000E-03 0.  1.
</event>
<event>
 8    1  0.2183582E+004  0.1043930E+01  0.7957747E-01            NaN
         13   -1    0    0    0    0  0.00000000000E+00  0.00000000000E+00  0.74505805969E-08  0.10566000000E+00  0.10566000000E+00 0.  1.
     999900   -1    0    0    0    0 -0.00000000000E+00 -0.00000000000E+00 -0.74505805969E-08  0.93827000000E+00  0.93827000000E+00 0.  1.
     999902    2    1    2    0    0  0.13647904862E-02 -0.13236393095E-01 -0.65996396878E-03  0.10306070759E+01  0.10305209578E+01 0.  0.
     999903    2    3    3    0    0 -0.44737770608E-01  0.20202456909E-01 -0.12342352325E+00  0.14026192126E+00  0.45060327121E-01 0.  0.
         14    1    1    2    0    0 -0.13647904862E-02  0.13236393095E-01  0.65996396878E-03  0.13322924141E-01  0.00000000000E+00 0.  1.
     999901    1    3    3    0    0  0.46102561094E-01 -0.33438850004E-01  0.12276355928E+00  0.89034515460E+00  0.88000000000E+00 0. -1.
        -11    1    4    4    0    0 -0.52693000725E-02 -0.92514699354E-02 -0.54607331317E-01  0.55637909502E-01  0.51100000000E-03 0.  1.
         11    1    4    4    0    0 -0.39468470535E-01  0.29453926845E-01 -0.68816191933E-01  0.84624011758E-01  0.51100000000E-03 0. -1.
</event>
<event>
 8    1  0.2183582E+004  0.1043930E+01  0.7957747E-01            NaN
         13   -1    0    0    0    0  0.00000000000E+00  0.00000000000E+00  0.74505805969E-08  0.10566000000E+00  0.10566000000E+00 0. -1.
     999900   -1    0    0    0    0 -0.00000000000E+00 -0.00000000000E+00 -0.74505805969E-08  0.93827000000E+00  0.93827000000E+00 0. -1.
     999902    2    1    2    0    0  0.11178113823E-01  0.85977670071E-02  0.30115799980E-02  0.10295098252E+01  0.10294088298E+01 0.  0.
     999903    2    3    3    0    0 -0.37680212268E-01  0.51179625428E-01  0.11637052553E+00  0.13987473081E+00  0.44538619779E-01 0.  0.
         14    1    1    2    0    0 -0.11178113823E-01 -0.85977670071E-02 -0.30115799980E-02  0.14420174764E-01  0.00000000000E+00 0. -1.
     999901    1    3    3    0    0  0.48858326090E-01 -0.42581858421E-01 -0.11335894554E+00  0.88963509442E+00  0.88000000000E+00 0. -1.
        -11    1    4    4    0    0 -0.13529123343E-01  0.51092573753E-01  0.71510760319E-01  0.88924339938E-01  0.51100000000E-03 0.  1.
         11    1    4    4    0    0 -0.24151088924E-01  0.87051675331E-04  0.44859765214E-01  0.50950390875E-01  0.51100000000E-03 0. -1.
</event>
<event>
 8    1  0.2183582E+004  0.1043930E+01  0.7957747E-01            NaN
         13   -1    0    0    0    0  0.00000000000E+00  0.00000000000E+00  0.74505805969E-08  0.10566000000E+00  0.10566000000E+00 0.  1.
     999900   -1    0    0    0    0 -0.00000000000E+00 -0.00000000000E+00 -0.74505805969E-08  0.93827000000E+00  0.93827000000E+00 0.  1.
     999902    2    1    2    0    0  0.98802117373E-03 -0.11135183986E-01 -0.48012705677E-03  0.10327407628E+01  0.10326801460E+01 0.  0.
     999903    2    3    3    0    0  0.69966761425E-01 -0.57094925377E-01  0.10118417315E+00  0.14301833729E+00  0.45396362134E-01 0.  0.
         14    1    1    2    0    0 -0.98802117373E-03  0.11135183986E-01  0.48012705677E-03  0.11189237250E-01  0.00000000000E+00 0. -1.
     999901    1    3    3    0    0 -0.68978740251E-01  0.45959741391E-01 -0.10166430021E+00  0.88972242546E+00  0.88000000000E+00 0.  1.
        -11    1    4    4    0    0  0.36829965542E-01 -0.22584550010E-01  0.79511710477E-01  0.90492438828E-01  0.51100000000E-03 0. -1.
         11    1    4    4    0    0  0.33136795883E-01 -0.34510375367E-01  0.21672462678E-01  0.52525898459E-01  0.51100000000E-03 0.  1.
</event>
<event>
 8    1  0.2183582E+004  0.1043930E+01  0.7957747E-01            NaN
         13   -1    0    0    0    0  0.00000000000E+00  0.00000000000E+00  0.74505805969E-08  0.10566000000E+00  0.10566000000E+00 0. -1.
     999900   -1    0    0    0    0 -0.00000000000E+00 -0.00000000000E+00 -0.74505805969E-08  0.93827000000E+00  0.93827000000E+00 0. -1.
     999902    2    1    2    0    0 -0.13280119255E-01 -0.22415560107E-02 -0.88713243800E-03  0.10304328468E+01  0.10303444466E+01 0.  0.
     999903    2    3    3    0    0 -0.43443154366E-01  0.44241353683E-01  0.11795291019E+00  0.14071748483E+00  0.45209694492E-01 0.  0.
         14    1    1    2    0    0  0.13280119255E-01  0.22415560107E-02  0.88713243800E-03  0.13497153209E-01  0.00000000000E+00 0.  1.
     999901    1    3    3    0    0  0.30163035111E-01 -0.46482909694E-01 -0.11884004263E+00  0.88971536196E+00  0.88000000000E+00 0. -1.
        -11    1    4    4    0    0 -0.56637446110E-02  0.18818676654E-01  0.77006945846E-01  0.79476735109E-01  0.51100000000E-03 0. -1.
         11    1    4    4    0    0 -0.37779409755E-01  0.25422677029E-01  0.40945964348E-01  0.61240749719E-01  0.51100000000E-03 0.  1.
</event>
<event>
 8    1  0.2183582E+004  0.1043930E+01  0.7957747E-01            NaN
         13   -1    0    0    0    0  0.00000000000E+00  0.00000000000E+00  0.74505805969E-08  0.10566000000E+00  0.10566000000E+00 0. -1.
     999900   -1    0    0    0    0 -0.00000000000E+00 -0.00000000000E+00 -0.74505805969E-08  0.93827000000E+00  0.93827000000E+00 0.  1.
     999902    2    1    2    0    0  0.38224732131E-02  0.11804921642E-01 -0.53468220787E-02  0.10304186721E+01  0.10303300848E+01 0.  0.
     999903    2    3    3    0    0  0.58462118862E-01 -0.29329417191E-01 -0.11619468851E+00  0.14083181615E+00  0.45325056514E-01 0.  0.
         14    1    1    2    0    0 -0.38224732131E-02 -0.11804921642E-01  0.53468220787E-02  0.13511327943E-01  0.00000000000E+00 0. -1.
     999901    1    3    3    0    0 -0.54639645649E-01  0.41134338834E-01  0.11084786643E+00  0.88958685591E+00  0.88000000000E+00 0. -1.
        -11    1    4    4    0    0  0.19024887251E-01 -0.31054053778E-01 -0.34829671763E-01  0.50395116302E-01  0.51100000000E-03 0. -1.
         11    1    4    4    0    0  0.39437231611E-01  0.17246365863E-02 -0.81365016746E-01  0.90436699849E-01  0.51100000000E-03 0.  1.
</event>
<event>
 8    1  0.2183582E+004  0.1043930E+01  0.7957747E-01            NaN
         13   -1    0    0    0    0  0.00000000000E+00  0.00000000000E+00  0.74505805969E-08  0.10566000000E+00  0.10566000000E+00 0. -1.
     999900   -1    0    0    0    0 -0.00000000000E+00 -0.00000000000E+00 -0.74505805969E-08  0.93827000000E+00  0.93827000000E+00 0.  1.
     999902    2    1    2    0    0  0.17915301672E-01 -0.19825880303E-02  0.12995563492E-01  0.10217089883E+01  0.10214673188E+01 0.  0.
     999903    2    3    3    0    0  0.96932684146E-01  0.80544658211E-01 -0.44939346142E-02  0.13415032793E+00  0.45746342070E-01 0.  0.
         14    1    1    2    0    0 -0.17915301672E-01  0.19825880303E-02 -0.12995563492E-01  0.22221011673E-01  0.00000000000E+00 0.  1.
     999901    1    3    3    0    0 -0.79017382474E-01 -0.82527246242E-01  0.17489498106E-01  0.88755866040E+00  0.88000000000E+00 0. -1.
        -11    1    4    4    0    0  0.36850371433E-01  0.51637474755E-01  0.13979217888E-01  0.64961976014E-01  0.51100000000E-03 0. -1.
         11    1    4    4    0    0  0.60082312713E-01  0.28907183456E-01 -0.18473152502E-01  0.69188351914E-01  0.51100000000E-03 0.  1.
</event>
<event>
 8    1  0.2183582E+004  0.1043930E+01  0.7957747E-01            NaN
         13   -1    0    0    0    0  0.00000000000E+00  0.00000000000E+00  0.74505805969E-08  0.10566000000E+00  0.10566000000E+00 0. -1.
     999900   -1    0    0    0    0 -0.00000000000E+00 -0.00000000000E+00 -0.74505805969E-08  0.93827000000E+00  0.93827000000E+00 0. -1.
     999902    2    1    2    0    0  0.78863362871E-02 -0.66593172359E-02  0.60525895995E-02  0.10319644391E+01  0.10318950668E+01 0.  0.
     999903    2    3    3    0    0 -0.84900866679E-01  0.10279371712E+00  0.37017744585E-03  0.14032453335E+00  0.43773647187E-01 0.  0.
         14    1    1    2    0    0 -0.78863362871E-02  0.66593172359E-02 -0.60525895995E-02  0.11965560870E-01  0.00000000000E+00 0. -1.
     999901    1    3    3    0    0  0.92787202966E-01 -0.10945303435E+00  0.56824121536E-02  0.89163990578E+00  0.88000000000E+00 0.  1.
        -11    1    4    4    0    0 -0.48731254682E-01  0.88394199448E-01  0.53138642558E-02  0.10107802903E+00  0.51100000000E-03 0.  1.
         11    1    4    4    0    0 -0.36169611997E-01  0.14399517670E-01 -0.49436868099E-02  0.39246504321E-01  0.51100000000E-03 0. -1.
</event>
<event>
 8    1  0.2183582E+004  0.1043930E+01  0.7957747E-01            NaN
         13   -1    0    0    0    0  0.00000000000E+00  0.00000000000E+00  0.74505805969E-08  0.10566000000E+00  0.10566000000E+00 0. -1.
     999900   -1    0    0    0    0 -0.00000000000E+00 -0.00000000000E+00 -0.74505805969E-08  0.93827000000E+00  0.93827000000E+00 0. -1.
     999902    2    1    2    0    0 -0.62568200230E-02 -0.12272686699E-01  0.47647502478E-02  0.10293536671E+01  0.10292504566E+01 0.  0.
     999903    2    3    3    0    0  0.43906973439E-02 -0.51449197044E-01 -0.12136834821E+00  0.13943359929E+00  0.45223385121E-01 0.  0.
         14    1    1    2    0    0  0.62568200230E-02  0.12272686699E-01 -0.47647502478E-02  0.14576332890E-01  0.00000000000E+00 0. -1.
     999901    1    3    3    0    0 -0.10647517367E-01  0.39176510346E-01  0.12613309846E+00  0.88992006782E+00  0.88000000000E+00 0.  1.
        -11    1    4    4    0    0  0.13562710556E-01  0.19389632741E-02 -0.16964449045E-01  0.21811931336E-01  0.51100000000E-03 0.  1.
         11    1    4    4    0    0 -0.91720132119E-02 -0.53388160318E-01 -0.10440389917E+00  0.11762166795E+00  0.51100000000E-03 0. -1.
</event>
<event>
 8    1  0.2183582E+004  0.1043930E+01  0.7957747E-01            NaN
         13   -1    0    0    0    0  0.00000000000E+00  0.00000000000E+00  0.74505805969E-08  0.10566000000E+00  0.10566000000E+00 0. -1.
     999900   -1    0    0    0    0 -0.00000000000E+00 -0.00000000000E+00 -0.74505805969E-08  0.93827000000E+00  0.93827000000E+00 0.  1.
     999902    2    1    2    0    0 -0.26156499273E-02 -0.96522651989E-02  0.93428969167E-02  0.10302443297E+01  0.10301534261E+01 0.  0.
     999903    2    3    3    0    0 -0.56487824310E-02 -0.44254292318E-01  0.12756687364E+00  0.14165926973E+00  0.42469875445E-01 0.  0.
         14    1    1    2    0    0  0.26156499273E-02  0.96522651989E-02 -0.93428969167E-02  0.13685670272E-01  0.00000000000E+00 0.  1.
     999901    1    3    3    0    0  0.30331325037E-02  0.34602027119E-01 -0.11822397672E+00  0.88858505999E+00  0.88000000000E+00 0.  1.
        -11    1    4    4    0    0  0.13153157954E-01 -0.39363973875E-01  0.96014795649E-01  0.10460224715E+00  0.51100000000E-03 0. -1.
         11    1    4    4    0    0 -0.18801940385E-01 -0.48903184423E-02  0.31552077988E-01  0.37057022588E-01  0.51100000000E-03 0.  1.
</event>
<event>
 8    1  0.2183582E+004  0.1043930E+01  0.7957747E-01            NaN
         13   -1    0    0    0    0  0.00000000000E+00  0.00000000000E+00  0.74505805969E-08  0.10566000000E+00  0.10566000000E+00 0. -1.
     999900   -1    0    0    0    0 -0.00000000000E+00 -0.00000000000E+00 -0.74505805969E-08  0.93827000000E+00  0.93827000000E+00 0. -1.
     999902    2    1    2    0    0 -0.20331325466E-02  0.99234914717E-02 -0.11252164822E-01  0.10287899695E+01  0.10286785605E+01 0.  0.
     999903    2    3    3    0    0 -0.86527302767E-01 -0.83726165029E-01  0.49244551266E-01  0.13774037736E+00  0.45280690045E-01 0.  0.
         14    1    1    2    0    0  0.20331325466E-02 -0.99234914717E-02  0.11252164822E-01  0.15140030519E-01  0.00000000000E+00 0. -1.
     999901    1    3    3    0    0  0.84494170220E-01  0.93649656501E-01 -0.60496716088E-01  0.89104959212E+00  0.88000000000E+00 0.  1.
        -11    1    4    4    0    0 -0.89369539629E-01 -0.70545297832E-01  0.37569017863E-01  0.11989681349E+00  0.51100000000E-03 0.  1.
         11    1    4    4    0    0  0.28422368628E-02 -0.13180867197E-01  0.11675533403E-01  0.17843563873E-01  0.51100000000E-03 0. -1.
</event>
<event>
 8    1  0.2183582E+004  0.1043930E+01  0.7957747E-01            NaN
         13   -1    0    0    0    0  0.00000000000E+00  0.00000000000E+00  0.74505805969E-08  0.10566000000E+00  0.10566000000E+00 0.  1.
     999900   -1    0    0    0    0 -0.00000000000E+00 -0.00000000000E+00 -0.74505805969E-08  0.93827000000E+00  0.93827000000E+00 0.  1.
     999902    2    1    2    0    0  0.43858853748E-02 -0.11718651112E-02 -0.12842564476E-01  0.10303086667E+01  0.10302186214E+01 0.  0.
     999903    2    3    3    0    0  0.86745967913E-01 -0.37351336751E-01 -0.95548707517E-01  0.14186483423E+00  0.45564134773E-01 0.  0.
         14    1    1    2    0    0 -0.43858853748E-02  0.11718651112E-02  0.12842564476E-01  0.13621333293E-01  0.00000000000E+00 0.  1.
     999901    1    3    3    0    0 -0.82360082538E-01  0.36179471639E-01  0.82706143041E-01  0.88844383247E+00  0.88000000000E+00 0. -1.
        -11    1    4    4    0    0  0.21807926633E-01 -0.19651709072E-01 -0.62129429239E-02  0.30010616692E-01  0.51100000000E-03 0.  1.
         11    1    4    4    0    0  0.64938041280E-01 -0.17699627679E-01 -0.89335764593E-01  0.11185421754E+00  0.51100000000E-03 0. -1.
</event>
<event>
 8    1  0.2183582E+004  0.1043930E+01  0.7957747E-01            NaN
         13   -1    0    0    0    0  0.00000000000E+00  0.00000000000E+00  0.74505805969E-08  0.10566000000E+00  0.10566000000E+00 0. -1.
     999900   -1    0    0    0    0 -0.00000000000E+00 -0.00000000000E+00 -0.74505805969E-08  0.93827000000E+00  0.93827000000E+00 0.  1.
     999902    2    1    2    0    0  0.54285187825E-02  0.54606503039E-02  0.11654310211E-01  0.10299618053E+01  0.10298670836E+01 0.  0.
     999903    2    3    3    0    0 -0.68517767857E-01 -0.16979957172E-01  0.11274132974E+00  0.14081040100E+00  0.46194784768E-01 0.  0.
         14    1    1    2    0    0 -0.54285187825E-02 -0.54606503039E-02 -0.11654310211E-01  0.13968194744E-01  0.00000000000E+00 0.  1.
     999901    1    3    3    0    0  0.73946286640E-01  0.22440607476E-01 -0.10108701953E+00  0.88915140426E+00  0.88000000000E+00 0.  1.
        -11    1    4    4    0    0 -0.10267693108E-02 -0.13675947406E-01  0.72209325950E-02  0.15507700707E-01  0.51100000000E-03 0.  1.
         11    1    4    4    0    0 -0.67490998546E-01 -0.33040097655E-02  0.10552039715E+00  0.12530270029E+00  0.51100000000E-03 0. -1.
</event>
<event>
 8    1  0.2183582E+004  0.1043930E+01  0.7957747E-01            NaN
         13   -1    0    0    0    0  0.00000000000E+00  0.00000000000E+00  0.74505805969E-08  0.10566000000E+00  0.10566000000E+00 0.  1.
     999900   -1    0    0    0    0 -0.00000000000E+00 -0.00000000000E+00 -0.74505805969E-08  0.93827000000E+00  0.93827000000E+00 0.  1.
     999902    2    1    2    0    0 -0.98131787309E-02  0.49157523357E-02  0.21719999552E-01  0.10195943990E+01  0.10193039374E+01 0.  0.
     999903    2    3    3    0    0 -0.30919337532E-01 -0.63296396253E-01  0.10323725470E+00  0.13294710152E+00  0.45327274719E-01 0.  0.
         14    1    1    2    0    0  0.98131787309E-02 -0.49157523357E-02 -0.21719999552E-01  0.24335601048E-01  0.00000000000E+00 0. -1.
     999901    1    3    3    0    0  0.21106158801E-01  0.68212148588E-01 -0.81517255147E-01  0.88664729743E+00  0.88000000000E+00 0.  1.
        -11    1    4    4    0    0 -0.18193461968E-01 -0.37336530571E-01  0.22610079766E-01  0.47291599693E-01  0.51100000000E-03 0. -1.
         11    1    4    4    0    0 -0.12725875563E-01 -0.25959865682E-01  0.80627174932E-01  0.85655501829E-01  0.51100000000E-03 0.  1.
</event>
<event>
 8    1  0.2183582E+004  0.1043930E+01  0.7957747E-01            NaN
         13   -1    0    0    0    0  0.00000000000E+00  0.00000000000E+00  0.74505805969E-08  0.10566000000E+00  0.10566000000E+00 0.  1.
     999900   -1    0    0    0    0 -0.00000000000E+00 -0.00000000000E+00 -0.74505805969E-08  0.93827000000E+00  0.93827000000E+00 0. -1.
     999902    2    1    2    0    0  0.10068431097E-01  0.14369224837E-02 -0.90229633989E-02  0.10303339741E+01  0.10302442654E+01 0.  0.
     999903    2    3    3    0    0  0.26646088930E-01 -0.28651124309E-01 -0.12868169006E+00  0.14157173362E+00  0.44189109785E-01 0.  0.
         14    1    1    2    0    0 -0.10068431097E-01 -0.14369224837E-02  0.90229633989E-02  0.13596025870E-01  0.00000000000E+00 0.  1.
     999901    1    3    3    0    0 -0.16577657833E-01  0.30088046793E-01  0.11965872666E+00  0.88876224051E+00  0.88000000000E+00 0.  1.
        -11    1    4    4    0    0  0.68368681144E-02 -0.21605239935E-01 -0.18097265794E-01  0.29005194508E-01  0.51100000000E-03 0.  1.
         11    1    4    4    0    0  0.19809220815E-01 -0.70458843740E-02 -0.11058442426E+00  0.11256653911E+00  0.51100000000E-03 0. -1.
</event>
<event>
 8    1  0.2183582E+004  0.1043930E+01  0.7957747E-01            NaN
         13   -1    0    0    0    0  0.00000000000E+00  0.00000000000E+00  0.74505805969E-08  0.10566000000E+00  0.10566000000E+00 0.  1.
     999900   -1    0    0    0    0 -0.00000000000E+00 -0.00000000000E+00 -0.74505805969E-08  0.93827000000E+00  0.93827000000E+00 0.  1.
     999902    2    1    2    0    0 -0.11317269336E-01  0.42176814205E-02 -0.48919773637E-02  0.10308992339E+01  0.10308168749E+01 0.  0.
     999903    2    3    3    0    0 -0.10027522801E-01  0.94093401100E-01 -0.95894061052E-01  0.14165197491E+00  0.43766330759E-01 0.  0.
         14    1    1    2    0    0  0.11317269336E-01 -0.42176814205E-02  0.48919773637E-02  0.13030766068E-01  0.00000000000E+00 0.  1.
     999901    1    3    3    0    0 -0.12897465353E-02 -0.89875719680E-01  0.91002083688E-01  0.88924725902E+00  0.88000000000E+00 0.  1.
        -11    1    4    4    0    0 -0.22356909590E-01  0.32716115874E-01 -0.51129267208E-01  0.64688783653E-01  0.51100000000E-03 0.  1.
         11    1    4    4    0    0  0.12329386789E-01  0.61377285226E-01 -0.44764793844E-01  0.76963191262E-01  0.51100000000E-03 0. -1.
</event>
<event>
 8    1  0.2183582E+004  0.1043930E+01  0.7957747E-01            NaN
         13   -1    0    0    0    0  0.00000000000E+00  0.00000000000E+00  0.74505805969E-08  0.10566000000E+00  0.10566000000E+00 0. -1.
     999900   -1    0    0    0    0 -0.00000000000E+00 -0.00000000000E+00 -0.74505805969E-08  0.93827000000E+00  0.93827000000E+00 0. -1.
     999902    2    1    2    0    0  0.13554737655E-01  0.74369465615E-03 -0.39257482242E-02  0.10297986344E+01  0.10297016713E+01 0.  0.
     999903    2    3    3    0    0 -0.73034087776E-01  0.84278938039E-01 -0.70498115653E-01  0.13912044241E+00  0.44131573866E-01 0.  0.
         14    1    1    2    0    0 -0.13554737655E-01 -0.74369465615E-03  0.39257482242E-02  0.14131365601E-01  0.00000000000E+00 0. -1.
     999901    1    3    3    0    0  0.86588825431E-01 -0.83535243383E-01  0.66572367429E-01  0.89067819199E+00  0.88000000000E+00 0.  1.
        -11    1    4    4    0    0 -0.51695690585E-01  0.46134014466E-01 -0.65106605237E-01  0.95078509046E-01  0.51100000000E-03 0. -1.
         11    1    4    4    0    0 -0.21338397191E-01  0.38144923573E-01 -0.53915104160E-02  0.44041933366E-01  0.51100000000E-03 0.  1.
</event>
<event>
 8    1  0.2183582E+004  0.1043930E+01  0.7957747E-01            NaN
         13   -1    0    0    0    0  0.00000000000E+00  0.00000000000E+00  0.74505805969E-08  0.10566000000E+00  0.10566000000E+00 0.  1.
     999900   -1    0    0    0    0 -0.00000000000E+00 -0.00000000000E+00 -0.74505805969E-08  0.93827000000E+00  0.93827000000E+00 0.  1.
     999902    2    1    2    0    0  0.18504862354E-01  0.18950350031E-02  0.13435772415E-03  0.10253278727E+01  0.10251591132E+01 0.  0.
     999903    2    3    3    0    0 -0.11941017787E+00  0.25349213513E-01 -0.33191852557E-01  0.13365456194E+00  0.43133161788E-01 0.  0.
         14    1    1    2    0    0 -0.18504862354E-01 -0.18950350031E-02 -0.13435772415E-03  0.18602127309E-01  0.00000000000E+00 0.  1.
     999901    1    3    3    0    0  0.13791504023E+00 -0.23454178510E-01  0.33326210281E-01  0.89167331075E+00  0.88000000000E+00 0. -1.
        -11    1    4    4    0    0 -0.76144546337E-01  0.36014393317E-01 -0.28119508224E-01  0.88803132415E-01  0.51100000000E-03 0. -1.
         11    1    4    4    0    0 -0.43265631537E-01 -0.10665179804E-01 -0.50723443325E-02  0.44851429527E-01  0.51100000000E-03 0.  1.
</event>
<event>
 8    1  0.2183582E+004  0.1043930E+01  0.7957747E-01            NaN
         13   -1    0    0    0    0  0.00000000000E+00  0.00000000000E+00  0.74505805969E-08  0.10566000000E+00  0.10566000000E+00 0. -1.
     999900   -1    0    0    0    0 -0.00000000000E+00 -0.00000000000E+00 -0.74505805969E-08  0.93827000000E+00  0.93827000000E+00 0.  1.
     999902    2    1    2    0    0 -0.12361133204E-02 -0.11333776766E-01  0.79745050370E-02  0.10300168694E+01  0.10299228981E+01 0.  0.
     999903    2    3    3    0    0  0.46456471820E-01  0.95831010508E-01  0.78096766794E-01  0.13946872030E+00  0.44840078162E-01 0.  0.
         14    1    1    2    0    0  0.12361133204E-02  0.11333776766E-01 -0.79745050370E-02  0.13913130579E-01  0.00000000000E+00 0.  1.
     999901    1    3    3    0    0 -0.47692585140E-01 -0.10716478727E+00 -0.70122261757E-01  0.89054814912E+00  0.88000000000E+00 0.  1.
        -11    1    4    4    0    0  0.16934864053E-01  0.80466709027E-01  0.57188051070E-01  0.10016194481E+00  0.51100000000E-03 0. -1.
         11    1    4    4    0    0  0.29521607766E-01  0.15364301481E-01  0.20908715724E-01  0.39306775488E-01  0.51100000000E-03 0.  1.
</event>
<event>
 8    1  0.2183582E+004  0.1043930E+01  0.7957747E-01            NaN
         13   -1    0    0    0    0  0.00000000000E+00  0.00000000000E+00  0.74505805969E-08  0.10566000000E+00  0.10566000000E+00 0.  1.
     999900   -1    0    0    0    0 -0.00000000000E+00 -0.00000000000E+00 -0.74505805969E-08  0.93827000000E+00  0.93827000000E+00 0. -1.
     999902    2    1    2    0    0 -0.67409072581E-02  0.87701733038E-03  0.11729094013E-01  0.10303734283E+01  0.10302842429E+01 0.  0.
     999903    2    3    3    0    0  0.43475779619E-01  0.85561850065E-01 -0.90014143735E-01  0.13905702939E+00  0.44981526755E-01 0.  0.
         14    1    1    2    0    0  0.67409072581E-02 -0.87701733038E-03 -0.11729094013E-01  0.13556571706E-01  0.00000000000E+00 0. -1.
     999901    1    3    3    0    0 -0.50216686877E-01 -0.84684832734E-01  0.10174323775E+00  0.89131639891E+00  0.88000000000E+00 0.  1.
        -11    1    4    4    0    0  0.37693446394E-01  0.62305466404E-01 -0.38805425192E-01  0.82515993541E-01  0.51100000000E-03 0. -1.
         11    1    4    4    0    0  0.57823332257E-02  0.23256383661E-01 -0.51208718542E-01  0.56541035844E-01  0.51100000000E-03 0.  1.
</event>
<event>
 8    1  0.2183582E+004  0.1043930E+01  0.7957747E-01            NaN
         13   -1    0    0    0    0  0.00000000000E+00  0.00000000000E+00  0.74505805969E-08  0.10566000000E+00  0.10566000000E+00 0. -1.
     999900   -1    0    0    0    0 -0.00000000000E+00 -0.00000000000E+00 -0.74505805969E-08  0.93827000000E+00  0.93827000000E+00 0. -1.
     999902    2    1    2    0    0 -0.70177283643E-02 -0.52630377145E-02  0.78764303077E-02  0.10321407578E+01  0.10320734265E+01 0.  0.
     999903    2    3    3    0    0  0.55266694167E-01  0.10147001305E+00 -0.65895251475E-01  0.14044935689E+00  0.45091758123E-01 0.  0.
         14    1    1    2    0    0  0.70177283643E-02  0.52630377145E-02 -0.78764303077E-02  0.11789242205E-01  0.00000000000E+00 0. -1.
     999901    1    3    3    0    0 -0.62284422532E-01 -0.10673305077E+00  0.73771681783E-01  0.89169140091E+00  0.88000000000E+00 0. -1.
        -11    1    4    4    0    0  0.34248866395E-01  0.20802802856E-01 -0.27940871808E-01  0.48853811463E-01  0.51100000000E-03 0.  1.
         11    1    4    4    0    0  0.21017827772E-01  0.80667210196E-01 -0.37954379667E-01  0.91595545427E-01  0.51100000000E-03 0. -1.
</event>
<event>
 8    1  0.2183582E+004  0.1043930E+01  0.7957747E-01            NaN
         13   -1    0    0    0    0  0.00000000000E+00  0.00000000000E+00  0.74505805969E-08  0.10566000000E+00  0.10566000000E+00 0.  1.
     999900   -1    0    0    0    0 -0.00000000000E+00 -0.00000000000E+00 -0.74505805969E-08  0.93827000000E+00  0.93827000000E+00 0.  1.
     999902    2    1    2    0    0  0.80641615443E-02  0.16620806804E-02 -0.11725958486E-01  0.10296020094E+01  0.10295023100E+01 0.  0.
     999903    2    3    3    0    0 -0.11026233843E+00  0.58565713082E-01  0.37201075265E-01  0.13851669435E+00  0.47066214927E-01 0.  0.
         14    1    1    2    0    0 -0.80641615443E-02 -0.16620806804E-02  0.11725958486E-01  0.14327990649E-01  0.00000000000E+00 0.  1.
     999901    1    3    3    0    0  0.11832649998E+00 -0.56903632402E-01 -0.48927033751E-01  0.89108531500E+00  0.88000000000E+00 0.  1.
        -11    1    4    4    0    0 -0.62139245319E-01  0.54122611671E-01  0.36635419241E-01  0.90182913941E-01  0.51100000000E-03 0.  1.
         11    1    4    4    0    0 -0.48123093114E-01  0.44431014112E-02  0.56565602397E-03  0.48333780410E-01  0.51100000000E-03 0. -1.
</event>
<event>
 8    1  0.2183582E+004  0.1043930E+01  0.7957747E-01            NaN
         13   -1    0    0    0    0  0.00000000000E+00  0.00000000000E+00  0.74505805969E-08  0.10566000000E+00  0.10566000000E+00 0.  1.
     999900   -1    0    0    0    0 -0.00000000000E+00 -0.00000000000E+00 -0.74505805969E-08  0.93827000000E+00  0.93827000000E+00 0.  1.
     999902    2    1    2    0    0  0.33274181462E-02 -0.71874285678E-02 -0.11188942422E-01  0.10302214890E+01  0.10301302797E+01 0.  0.
     999903    2    3    3    0    0  0.13069032393E+00 -0.23609334251E-01 -0.14192103746E-01  0.14089589749E+00  0.44865094319E-01 0.  0.
         14    1    1    2    0    0 -0.33274181462E-02  0.71874285678E-02  0.11188942422E-01  0.13708510986E-01  0.00000000000E+00 0. -1.
     999901    1    3    3    0    0 -0.12736290579E+00  0.16421905683E-01  0.30031613246E-02  0.88932559152E+00  0.88000000000E+00 0.  1.
        -11    1    4    4    0    0  0.85332318245E-01 -0.34811007389E-01 -0.18411640652E-01  0.93982234518E-01  0.51100000000E-03 0. -1.
         11    1    4    4    0    0  0.45358005687E-01  0.11201673138E-01  0.42195369056E-02  0.46913662974E-01  0.51100000000E-03 0.  1.
</event>
<event>
 8    1  0.2183582E+004  0.1043930E+01  0.7957747E-01            NaN
         13   -1    0    0    0    0  0.00000000000E+00  0.00000000000E+00  0.74505805969E-08  0.10566000000E+00  0.10566000000E+00 0.  1.
     999900   -1    0    0    0    0 -0.00000000000E+00 -0.00000000000E+00 -0.74505805969E-08  0.93827000000E+00  0.93827000000E+00 0.  1.
     999902    2    1    2    0    0 -0.49044492864E-02 -0.35114807770E-02  0.13142605790E-01  0.10294692875E+01  0.10293677193E+01 0.  0.
     999903    2    3    3    0    0 -0.69342318636E-01 -0.10433505296E+00 -0.42152361959E-01  0.13965179765E+00  0.45073745558E-01 0.  0.
         14    1    1    2    0    0  0.49044492864E-02  0.35114807770E-02 -0.13142605790E-01  0.14460712534E-01  0.00000000000E+00 0. -1.
     999901    1    3    3    0    0  0.64437869350E-01  0.10082357219E+00  0.55294967749E-01  0.88981748981E+00  0.88000000000E+00 0.  1.
        -11    1    4    4    0    0 -0.59956699103E-01 -0.10258495337E+00 -0.27186840122E-01  0.12189283745E+00  0.51100000000E-03 0. -1.
         11    1    4    4    0    0 -0.93856195331E-02 -0.17500995927E-02 -0.14965521837E-01  0.17758960202E-01  0.51100000000E-03 0.  1.
</event>
<event>
 7    1  0.2545072E+004  0.1043930E+01  0.7957747E-01            NaN
         13   -1    0    0    0    0  0.00000000000E+00  0.00000000000E+00  0.74505805969E-08  0.10566000000E+00  0.10566000000E+00 0. -1.
     999900   -1    0    0    0    0 -0.00000000000E+00 -0.00000000000E+00 -0.74505805969E-08  0.93827000000E+00  0.93827000000E+00 0. -1.
     999903    2    1    2    0    0 -0.31850752272E-01  0.87965433106E-01  0.21091118455E-01  0.10581403702E+00  0.44714508950E-01 0.  0.
         14    1    1    2    0    0  0.50944674749E-01 -0.13480839438E-01  0.12366048983E-01  0.54129586038E-01  0.00000000000E+00 0.  1.
     999901    1    1    2    0    0 -0.19093922477E-01 -0.74484593667E-01 -0.33457167438E-01  0.88398637694E+00  0.88000000000E+00 0. -1.
        -11    1    3    3    0    0 -0.12624240023E-01  0.78447012786E-01  0.26361202939E-01  0.83716661380E-01  0.51100000000E-03 0. -1.
         11    1    3    3    0    0 -0.19226512249E-01  0.95184203193E-02 -0.52700844834E-02  0.22097375638E-01  0.51100000000E-03 0.  1.
</event>
<event>
 8    1  0.2183582E+004  0.1043930E+01  0.7957747E-01            NaN
         13   -1    0    0    0    0  0.00000000000E+00  0.00000000000E+00  0.74505805969E-08  0.10566000000E+00  0.10566000000E+00 0. -1.
     999900   -1    0    0    0    0 -0.00000000000E+00 -0.00000000000E+00 -0.74505805969E-08  0.93827000000E+00  0.93827000000E+00 0. -1.
     999902    2    1    2    0    0 -0.44643124599E-03 -0.15718529840E-01 -0.34580843992E-02  0.10278293842E+01  0.10277032710E+01 0.  0.
     999903    2    3    3    0    0 -0.58790314896E-01  0.10065766399E+00  0.54498707224E-01  0.13636630761E+00  0.45137504538E-01 0.  0.
         14    1    1    2    0    0  0.44643124599E-03  0.15718529840E-01  0.34580843992E-02  0.16100615793E-01  0.00000000000E+00 0. -1.
     999901    1    3    3    0    0  0.58343883650E-01 -0.11637619383E+00 -0.57956791624E-01  0.89146307660E+00  0.88000000000E+00 0.  1.
        -11    1    4    4    0    0 -0.63414908205E-01  0.95155419283E-01  0.41773784136E-01  0.12174282140E+00  0.51100000000E-03 0.  1.
         11    1    4    4    0    0  0.46245933087E-02  0.55022447045E-02  0.12724923089E-01  0.14623486201E-01  0.51100000000E-03 0. -1.
</event>
<event>
 8    1  0.2183582E+004  0.1043930E+01  0.7957747E-01            NaN
         13   -1    0    0    0    0  0.00000000000E+00  0.00000000000E+00  0.74505805969E-08  0.10566000000E+00  0.10566000000E+00 0.  1.
     999900   -1    0    0    0    0 -0.00000000000E+00 -0.00000000000E+00 -0.74505805969E-08  0.93827000000E+00  0.93827000000E+00 0. -1.
     999902    2    1    2    0    0 -0.11283426217E-01 -0.78065542004E-02  0.29413822841E-02  0.10298975474E+01  0.10298019462E+01 0.  0.
     999903    2    3    3    0    0  0.51054814508E-01 -0.10024469372E+00  0.70512181545E-01  0.14029275943E+00  0.45326569459E-01 0.  0.
         14    1    1    2    0    0  0.11283426217E-01  0.78065542004E-02 -0.29413822841E-02  0.14032452580E-01  0.00000000000E+00 0. -1.
     999901    1    3    3    0    0 -0.62338240725E-01  0.92438139524E-01 -0.67570799261E-01  0.88960478799E+00  0.88000000000E+00 0.  1.
        -11    1    4    4    0    0  0.31656275879E-01 -0.95870085926E-01  0.54347816451E-01  0.11466097615E+00  0.51100000000E-03 0. -1.
         11    1    4    4    0    0  0.19398538629E-01 -0.43746077982E-02  0.16164365093E-01  0.25631783282E-01  0.51100000000E-03 0.  1.
</event>
<event>
 8    1  0.2183582E+004  0.1043930E+01  0.7957747E-01            NaN
         13   -1    0    0    0    0  0.00000000000E+00  0.00000000000E+00  0.74505805969E-08  0.10566000000E+00  0.10566000000E+00 0.  1.
     999900   -1    0    0    0    0 -0.00000000000E+00 -0.00000000000E+00 -0.74505805969E-08  0.93827000000E+00  0.93827000000E+00 0. -1.
     999902    2    1    2    0    0  0.45403900931E-02  0.12894363502E-02  0.13358836374E-01  0.10297618562E+01  0.10296643843E+01 0.  0.
     999903    2    3    3    0    0 -0.37099294712E-01  0.12653554378E+00 -0.57546322528E-02  0.13971366908E+00  0.45816940407E-01 0.  0.
         14    1    1    2    0    0 -0.45403900931E-02 -0.12894363502E-02 -0.13358836374E-01  0.14168143759E-01  0.00000000000E+00 0. -1.
     999901    1    3    3    0    0  0.41639684805E-01 -0.12524610743E+00  0.19113468627E-01  0.89004818716E+00  0.88000000000E+00 0. -1.
        -11    1    4    4    0    0  0.37813884233E-02  0.67788684891E-01  0.16688645321E-03  0.67896197756E-01  0.51100000000E-03 0.  1.
         11    1    4    4    0    0 -0.40880683135E-01  0.58746858892E-01 -0.59215187061E-02  0.71817471328E-01  0.51100000000E-03 0. -1.
</event>
<event>
 7    1  0.2183582E+004  0.1043930E+01  0.7957747E-01            NaN
         13   -1    0    0    0    0  0.00000000000E+00  0.00000000000E+00  0.74505805969E-08  0.10566000000E+00  0.10566000000E+00 0.  1.
     999900   -1    0    0    0    0 -0.00000000000E+00 -0.00000000000E+00 -0.74505805969E-08  0.93827000000E+00  0.93827000000E+00 0.  1.
     999903    2    1    2    0    0  0.97442941254E-01  0.12721171305E-01  0.48809496729E-01  0.11988929530E+00  0.48312743217E-01 0.  0.
         14    1    1    2    0    0 -0.11839679521E-01  0.12726282605E-01  0.31401467550E-01  0.35891342193E-01  0.00000000000E+00 0.  1.
     999901    1    1    2    0    0 -0.85603261733E-01 -0.25447453910E-01 -0.80210964279E-01  0.88814936251E+00  0.88000000000E+00 0.  1.
        -11    1    3    3    0    0  0.17866826590E-01 -0.97961371014E-03 -0.95216732634E-02  0.20275761839E-01  0.51100000000E-03 0. -1.
         11    1    3    3    0    0  0.79576114664E-01  0.13700785016E-01  0.58331169992E-01  0.99613533461E-01  0.51100000000E-03 0.  1.
</event>
<event>
 8    1  0.2183582E+004  0.1043930E+01  0.7957747E-01            NaN
         13   -1    0    0    0    0  0.00000000000E+00  0.00000000000E+00  0.74505805969E-08  0.10566000000E+00  0.10566000000E+00 0.  1.
     999900   -1    0    0    0    0 -0.00000000000E+00 -0.00000000000E+00 -0.74505805969E-08  0.93827000000E+00  0.93827000000E+00 0. -1.
     999902    2    1    2    0    0 -0.41167052008E-02  0.48336875059E-02 -0.11999808464E-01  0.10303540212E+01  0.10302645786E+01 0.  0.
     999903    2    3    3    0    0 -0.89066032491E-01  0.34893978941E-01  0.91437425603E-01  0.13972543942E+00  0.44855854807E-01 0.  0.
         14    1    1    2    0    0  0.41167052008E-02 -0.48336875059E-02  0.11999808464E-01  0.13575978778E-01  0.00000000000E+00 0.  1.
     999901    1    3    3    0    0  0.84949327290E-01 -0.30060291435E-01 -0.10343723407E+00  0.89062858180E+00  0.88000000000E+00 0. -1.
        -11    1    4    4    0    0 -0.19669245156E-01  0.20117171650E-01  0.50493513191E-01  0.57805153711E-01  0.51100000000E-03 0. -1.
         11    1    4    4    0    0 -0.69396787336E-01  0.14776807291E-01  0.40943912412E-01  0.81920285710E-01  0.51100000000E-03 0.  1.
</event>
<event>
 8    1  0.2183582E+004  0.1043930E+01  0.7957747E-01            NaN
         13   -1    0    0    0    0  0.00000000000E+00  0.00000000000E+00  0.74505805969E-08  0.10566000000E+00  0.10566000000E+00 0. -1.
     999900   -1    0    0    0    0 -0.00000000000E+00 -0.00000000000E+00 -0.74505805969E-08  0.93827000000E+00  0.93827000000E+00 0. -1.
     999902    2    1    2    0    0 -0.80698085369E-02 -0.91312824173E-02 -0.64763040874E-02  0.10301298318E+01  0.10300373904E+01 0.  0.
     999903    2    3    3    0    0  0.15115856013E-01  0.12482778485E+00 -0.39171271567E-01  0.13909023241E+00  0.44735212781E-01 0.  0.
         14    1    1    2    0    0  0.80698085369E-02  0.91312824173E-02  0.64763040874E-02  0.13800168225E-01  0.00000000000E+00 0. -1.
     999901    1    3    3    0    0 -0.23185664550E-01 -0.13395906726E+00  0.32694967480E-01  0.89103959937E+00  0.88000000000E+00 0. -1.
        -11    1    4    4    0    0  0.17770531229E-02  0.50000661806E-01  0.64386626472E-02  0.50447414170E-01  0.51100000000E-03 0. -1.
         11    1    4    4    0    0  0.13338802890E-01  0.74827123040E-01 -0.45609934215E-01  0.88642818237E-01  0.51100000000E-03 0.  1.
</event>
<event>
 8    1  0.2183582E+004  0.1043930E+01  0.7957747E-01            NaN
         13   -1    0    0    0    0  0.00000000000E+00  0.00000000000E+00  0.74505805969E-08  0.10566000000E+00  0.10566000000E+00 0.  1.
     999900   -1    0    0    0    0 -0.00000000000E+00 -0.00000000000E+00 -0.74505805969E-08  0.93827000000E+00  0.93827000000E+00 0. -1.
     999902    2    1    2    0    0 -0.11317036220E-02 -0.12902910233E-01  0.45434033100E-02  0.10302038075E+01  0.10301123612E+01 0.  0.
     999903    2    3    3    0    0  0.10765716499E+00 -0.78991757467E-01 -0.60873855777E-02  0.14098180640E+00  0.44822433554E-01 0.  0.
         14    1    1    2    0    0  0.11317036220E-02  0.12902910233E-01 -0.45434033100E-02  0.13726192451E-01  0.00000000000E+00 0. -1.
     999901    1    3    3    0    0 -0.10878886861E+00  0.66088847235E-01  0.10630788888E-01  0.88922200115E+00  0.88000000000E+00 0.  1.
        -11    1    4    4    0    0  0.51300882432E-01 -0.42834028316E-01 -0.25072388599E-01  0.71382212848E-01  0.51100000000E-03 0. -1.
         11    1    4    4    0    0  0.56356282559E-01 -0.36157729152E-01  0.18985003021E-01  0.69599593548E-01  0.51100000000E-03 0.  1.
</event>
<event>
 8    1  0.2183582E+004  0.1043930E+01  0.7957747E-01            NaN
         13   -1    0    0    0    0  0.00000000000E+00  0.00000000000E+00  0.74505805969E-08  0.10566000000E+00  0.10566000000E+00 0.  1.
     999900   -1    0    0    0    0 -0.00000000000E+00 -0.00000000000E+00 -0.74505805969E-08  0.93827000000E+00  0.93827000000E+00 0. -1.
     999902    2    1    2    0    0 -0.67907455216E-02 -0.50453804886E-02  0.11078565385E-01  0.10299906779E+01  0.10298963501E+01 0.  0.
     999903    2    3    3    0    0  0.53180323052E-02  0.66882593357E-01 -0.11185996048E+00  0.13845596908E+00  0.46431044080E-01 0.  0.
         14    1    1    2    0    0  0.67907455216E-02  0.50453804886E-02 -0.11078565385E-01  0.13939322079E-01  0.00000000000E+00 0. -1.
     999901    1    3    3    0    0 -0.12108777827E-01 -0.71927973846E-01  0.12293852587E+00  0.89153470884E+00  0.88000000000E+00 0.  1.
        -11    1    4    4    0    0  0.15418142783E-01  0.79617211069E-02 -0.47699968820E-01  0.50760774978E-01  0.51100000000E-03 0. -1.
         11    1    4    4    0    0 -0.10100110478E-01  0.58920872251E-01 -0.64159991659E-01  0.87695194105E-01  0.51100000000E-03 0.  1.
</event>
<event>
 8    1  0.2183582E+004  0.1043930E+01  0.7957747E-01            NaN
         13   -1    0    0    0    0  0.00000000000E+00  0.00000000000E+00  0.74505805969E-08  0.10566000000E+00  0.10566000000E+00 0.  1.
     999900   -1    0    0    0    0 -0.00000000000E+00 -0.00000000000E+00 -0.74505805969E-08  0.93827000000E+00  0.93827000000E+00 0. -1.
     999902    2    1    2    0    0 -0.31949752465E-02  0.12192735146E-01  0.53807302551E-02  0.10302251499E+01  0.10301339897E+01 0.  0.
     999903    2    3    3    0    0 -0.66120654126E-01  0.45466416803E-01 -0.10642204534E+00  0.14030007467E+00  0.43810081722E-01 0.  0.
         14    1    1    2    0    0  0.31949752465E-02 -0.12192735146E-01 -0.53807302551E-02  0.13704850063E-01  0.00000000000E+00 0.  1.
     999901    1    3    3    0    0  0.62925678879E-01 -0.33273681657E-01  0.11180277559E+00  0.88992507526E+00  0.88000000000E+00 0.  1.
        -11    1    4    4    0    0 -0.42908480004E-01  0.47327733708E-01 -0.56803823858E-01  0.85486768334E-01  0.51100000000E-03 0. -1.
         11    1    4    4    0    0 -0.23212174122E-01 -0.18613169049E-02 -0.49618221480E-01  0.54813306340E-01  0.51100000000E-03 0.  1.
</event>
<event>
 7    1  0.2183582E+004  0.1043930E+01  0.7957747E-01            NaN
         13   -1    0    0    0    0  0.00000000000E+00  0.00000000000E+00  0.74505805969E-08  0.10566000000E+00  0.10566000000E+00 0. -1.
     999900   -1    0    0    0    0 -0.00000000000E+00 -0.00000000000E+00 -0.74505805969E-08  0.93827000000E+00  0.93827000000E+00 0. -1.
     999903    2    1    2    0    0 -0.34554285354E-01  0.14916384816E-01 -0.99129306650E-01  0.11505996144E+00  0.44673013310E-01 0.  0.
         14    1    1    2    0    0  0.15472216826E-02 -0.38677489155E-01 -0.12977911240E-01  0.40826073071E-01  0.00000000000E+00 0. -1.
     999901    1    1    2    0    0  0.33007063671E-01  0.23761104339E-01  0.11210721789E+00  0.88804396549E+00  0.88000000000E+00 0.  1.
        -11    1    3    3    0    0 -0.36836950102E-01  0.26314496462E-01 -0.87978341865E-01  0.98943738434E-01  0.51100000000E-03 0.  1.
         11    1    3    3    0    0  0.22826647487E-02 -0.11398111647E-01 -0.11150964785E-01  0.16116223010E-01  0.51100000000E-03 0. -1.
</event>
<event>
 7    1  0.2183582E+004  0.1043930E+01  0.7957747E-01            NaN
         13   -1    0    0    0    0  0.00000000000E+00  0.00000000000E+00  0.74505805969E-08  0.10566000000E+00  0.10566000000E+00 0.  1.
     999900   -1    0    0    0    0 -0.00000000000E+00 -0.00000000000E+00 -0.74505805969E-08  0.93827000000E+00  0.93827000000E+00 0. -1.
     999903    2    1    2    0    0  0.94637980490E-01  0.48300378209E-01 -0.35134914077E-01  0.12014741489E+00  0.43722594067E-01 0.  0.
         14    1    1    2    0    0  0.77595964119E-02  0.31590286781E-01 -0.69177870540E-02  0.33256778754E-01  0.00000000000E+00 0.  1.
     999901    1    1    2    0    0 -0.10239757690E+00 -0.79890664989E-01  0.42052701131E-01  0.89052580635E+00  0.88000000000E+00 0. -1.
        -11    1    3    3    0    0  0.41396741044E-01  0.40049154049E-02 -0.28815186418E-01  0.50599462505E-01  0.51100000000E-03 0. -1.
         11    1    3    3    0    0  0.53241239446E-01  0.44295462804E-01 -0.63197276598E-02  0.69547952389E-01  0.51100000000E-03 0.  1.
</event>
<event>
 8    1  0.2183582E+004  0.1043930E+01  0.7957747E-01            NaN
         13   -1    0    0    0    0  0.00000000000E+00  0.00000000000E+00  0.74505805969E-08  0.10566000000E+00  0.10566000000E+00 0.  1.
     999900   -1    0    0    0    0 -0.00000000000E+00 -0.00000000000E+00 -0.74505805969E-08  0.93827000000E+00  0.93827000000E+00 0.  1.
     999902    2    1    2    0    0 -0.19579544027E-02 -0.20531119403E-02  0.13030559483E-01  0.10305941710E+01  0.10305078850E+01 0.  0.
     999903    2    3    3    0    0 -0.18676453160E-01 -0.53988109501E-01 -0.11885428454E+00  0.13909522865E+00  0.44244952360E-01 0.  0.
         14    1    1    2    0    0  0.19579544027E-02  0.20531119403E-02 -0.13030559483E-01  0.13335828977E-01  0.00000000000E+00 0. -1.
     999901    1    3    3    0    0  0.16718498757E-01  0.51934997560E-01  0.13188484402E+00  0.89149894237E+00  0.88000000000E+00 0. -1.
        -11    1    4    4    0    0  0.14249124376E-01 -0.22871121629E-01 -0.44266363322E-01  0.51825648021E-01  0.51100000000E-03 0.  1.
         11    1    4    4    0    0 -0.32925577536E-01 -0.31116987871E-01 -0.74587921218E-01  0.87269580627E-01  0.51100000000E-03 0. -1.
</event>
<event>
 7    1  0.2183582E+004  0.1043930E+01  0.7957747E-01            NaN
         13   -1    0    0    0    0  0.00000000000E+00  0.00000000000E+00  0.74505805969E-08  0.10566000000E+00  0.10566000000E+00 0. -1.
     999900   -1    0    0    0    0 -0.00000000000E+00 -0.00000000000E+00 -0.74505805969E-08  0.93827000000E+00  0.93827000000E+00 0.  1.
     999902    2    1    2    0    0  0.47736120637E-02  0.78762404731E-02  0.10023304104E-01  0.10303179039E+01  0.10302279815E+01 0.  0.
         14    1    1    2    0    0 -0.47736120637E-02 -0.78762404731E-02 -0.10023304104E-01  0.13612096139E-01  0.00000000000E+00 0. -1.
     999901    1    3    3    0    0  0.55785320038E-02 -0.40949476472E-01 -0.84429172107E-01  0.88500636424E+00  0.88000000000E+00 0.  1.
        -11    1    3    3    0    0 -0.21868670674E-01  0.56466474565E-01  0.14486567881E-01  0.62264141179E-01  0.51100000000E-03 0.  1.
         11    1    3    3    0    0  0.21063750733E-01 -0.76407576197E-02  0.79965908330E-01  0.83047398442E-01  0.51100000000E-03 0. -1.
</event>
<event>
 8    1  0.2183582E+004  0.1043930E+01  0.7957747E-01            NaN
         13   -1    0    0    0    0  0.00000000000E+00  0.00000000000E+00  0.74505805969E-08  0.10566000000E+00  0.10566000000E+00 0.  1.
     999900   -1    0    0    0    0 -0.00000000000E+00 -0.00000000000E+00 -0.74505805969E-08  0.93827000000E+00  0.93827000000E+00 0. -1.
     999902    2    1    2    0    0  0.94700972083E-02  0.68786478630E-02  0.71197221280E-02  0.10302300372E+01  0.10301389424E+01 0.  0.
     999903    2    3    3    0    0 -0.98807157801E-01  0.86752652767E-01  0.16416718091E-01  0.13995465579E+00  0.45043532825E-01 0.  0.
         14    1    1    2    0    0 -0.94700972083E-02 -0.68786478630E-02 -0.71197221280E-02  0.13699962801E-01  0.00000000000E+00 0. -1.
     999901    1    3    3    0    0  0.10827725501E+00 -0.79874004904E-01 -0.92969959634E-02  0.89027538141E+00  0.88000000000E+00 0. -1.
        -11    1    4    4    0    0 -0.39352635121E-01  0.78398750684E-02  0.29639484918E-02  0.40238534314E-01  0.51100000000E-03 0.  1.
         11    1    4    4    0    0 -0.59454522680E-01  0.78912777698E-01  0.13452769600E-01  0.99716121475E-01  0.51100000000E-03 0. -1.
</event>
<event>
 8    1  0.2183582E+004  0.1043930E+01  0.7957747E-01            NaN
         13   -1    0    0    0    0  0.00000000000E+00  0.00000000000E+00  0.74505805969E-08  0.10566000000E+00  0.10566000000E+00 0. -1.
     999900   -1    0    0    0    0 -0.00000000000E+00 -0.00000000000E+00 -0.74505805969E-08  0.93827000000E+00  0.93827000000E+00 0. -1.
     999902    2    1    2    0    0  0.11545948292E-01  0.70579671613E-02 -0.40357261871E-02  0.10298087073E+01  0.10297118833E+01 0.  0.
     999903    2    3    3    0    0 -0.32565180363E-01 -0.23013397180E-01 -0.12334999981E+00  0.14015373229E+00  0.53270430805E-01 0.  0.
         14    1    1    2    0    0 -0.11545948292E-01 -0.70579671613E-02  0.40357261871E-02  0.14121292727E-01  0.00000000000E+00 0.  1.
     999901    1    3    3    0    0  0.44111128655E-01  0.30071364342E-01  0.11931427363E+00  0.88965497499E+00  0.88000000000E+00 0.  1.
        -11    1    4    4    0    0 -0.25660263266E-01 -0.51201531381E-02 -0.11707955014E+00  0.11996894290E+00  0.51100000000E-03 0. -1.
         11    1    4    4    0    0 -0.69049170972E-02 -0.17893244042E-01 -0.62704496760E-02  0.20184789387E-01  0.51100000000E-03 0.  1.
</event>
<event>
 8    1  0.2183582E+004  0.1043930E+01  0.7957747E-01            NaN
         13   -1    0    0    0    0  0.00000000000E+00  0.00000000000E+00  0.74505805969E-08  0.10566000000E+00  0.10566000000E+00 0. -1.
     999900   -1    0    0    0    0 -0.00000000000E+00 -0.00000000000E+00 -0.74505805969E-08  0.93827000000E+00  0.93827000000E+00 0.  1.
     999902    2    1    2    0    0 -0.59551565823E-02  0.79685293051E-02  0.93879495913E-02  0.10302517345E+01  0.10301609299E+01 0.  0.
     999903    2    3    3    0    0  0.10554542831E+00 -0.75341433647E-01 -0.20948430834E-01  0.13879605623E+00  0.44825655724E-01 0.  0.
         14    1    1    2    0    0  0.59551565823E-02 -0.79685293051E-02 -0.93879495913E-02  0.13678265487E-01  0.00000000000E+00 0.  1.
     999901    1    3    3    0    0 -0.11150058489E+00  0.83309962952E-01  0.30336380425E-01  0.89145567828E+00  0.88000000000E+00 0. -1.
        -11    1    4    4    0    0  0.56976762292E-01 -0.15146539137E-01 -0.12114749243E-02  0.58970313562E-01  0.51100000000E-03 0. -1.
         11    1    4    4    0    0  0.48568666016E-01 -0.60194894510E-01 -0.19736955909E-01  0.79825742673E-01  0.51100000000E-03 0.  1.
</event>
<event>
 8    1  0.2183582E+004  0.1043930E+01  0.7957747E-01            NaN
         13   -1    0    0    0    0  0.00000000000E+00  0.00000000000E+00  0.74505805969E-08  0.10566000000E+00  0.10566000000E+00 0. -1.
     999900   -1    0    0    0    0 -0.00000000000E+00 -0.00000000000E+00 -0.74505805969E-08  0.93827000000E+00  0.93827000000E+00 0. -1.
     999902    2    1    2    0    0  0.98831605196E-02  0.11016927506E-01  0.26942327546E-02  0.10288864484E+01  0.10287764652E+01 0.  0.
     999903    2    3    3    0    0  0.58531256779E-01  0.99329707944E-01  0.66718737581E-01  0.14081836452E+00  0.45674094849E-01 0.  0.
         14    1    1    2    0    0 -0.98831605196E-02 -0.11016927506E-01 -0.26942327546E-02  0.15043551565E-01  0.00000000000E+00 0. -1.
     999901    1    3    3    0    0 -0.48648096259E-01 -0.88312780437E-01 -0.64024504826E-01  0.88806808392E+00  0.88000000000E+00 0. -1.
        -11    1    4    4    0    0  0.21200691823E-01  0.39421965299E-01  0.16185099032E-02  0.44793318442E-01  0.51100000000E-03 0. -1.
         11    1    4    4    0    0  0.37330564956E-01  0.59907742645E-01  0.65100227677E-01  0.96025046074E-01  0.51100000000E-03 0.  1.
</event>
<event>
 8    1  0.2183582E+004  0.1043930E+01  0.7957747E-01            NaN
         13   -1    0    0    0    0  0.00000000000E+00  0.00000000000E+00  0.74505805969E-08  0.10566000000E+00  0.10566000000E+00 0.  1.
     999900   -1    0    0    0    0 -0.00000000000E+00 -0.00000000000E+00 -0.74505805969E-08  0.93827000000E+00  0.93827000000E+00 0. -1.
     999902    2    1    2    0    0  0.90016970366E-02  0.22110955005E-02  0.12107325238E-01  0.10286818258E+01  0.10285688075E+01 0.  0.
     999903    2    3    3    0    0 -0.12840724664E+00  0.50127463193E-02  0.23019482453E-01  0.13794721758E+00  0.44564443787E-01 0.  0.
         14    1    1    2    0    0 -0.90016970366E-02 -0.22110955005E-02 -0.12107325238E-01  0.15248174228E-01  0.00000000000E+00 0. -1.
     999901    1    3    3    0    0  0.13740894368E+00 -0.28016508188E-02 -0.10912157215E-01  0.89073460819E+00  0.88000000000E+00 0.  1.
        -11    1    4    4    0    0 -0.30109357838E-01 -0.15131529633E-01  0.16147005576E-01  0.37370088688E-01  0.51100000000E-03 0.  1.
         11    1    4    4    0    0 -0.98297888807E-01  0.20144275952E-01  0.68724768769E-02  0.10057712890E+00  0.51100000000E-03 0. -1.
</event>
<event>
 8    1  0.2183582E+004  0.1043930E+01  0.7957747E-01            NaN
         13   -1    0    0    0    0  0.00000000000E+00  0.00000000000E+00  0.74505805969E-08  0.10566000000E+00  0.10566000000E+00 0. -1.
     999900   -1    0    0    0    0 -0.00000000000E+00 -0.00000000000E+00 -0.74505805969E-08  0.93827000000E+00  0.93827000000E+00 0. -1.
     999902    2    1    2    0    0  0.25660916317E-03  0.16518626990E-01  0.85573463916E-03  0.10273872322E+01  0.10272540395E+01 0.  0.
     999903    2    3    3    0    0 -0.35782425242E-01 -0.83638525639E-02 -0.12447772233E+00  0.13742856727E+00  0.45183755482E-01 0.  0.
         14    1    1    2    0    0 -0.25660916317E-03 -0.16518626990E-01 -0.85573463916E-03  0.16542767836E-01  0.00000000000E+00 0. -1.
     999901    1    3    3    0    0  0.36039034405E-01  0.24882479554E-01  0.12533345697E+00  0.88995866490E+00  0.88000000000E+00 0.  1.
        -11    1    4    4    0    0 -0.30615879485E-01  0.92679930611E-02 -0.41285504993E-01  0.52230085348E-01  0.51100000000E-03 0. -1.
         11    1    4    4    0    0 -0.51665457570E-02 -0.17631845625E-01 -0.83192217335E-01  0.85198481919E-01  0.51100000000E-03 0.  1.
</event>
<event>
 8    1  0.2183582E+004  0.1043930E+01  0.7957747E-01            NaN
         13   -1    0    0    0    0  0.00000000000E+00  0.00000000000E+00  0.74505805969E-08  0.10566000000E+00  0.10566000000E+00 0.  1.
     999900   -1    0    0    0    0 -0.00000000000E+00 -0.00000000000E+00 -0.74505805969E-08  0.93827000000E+00  0.93827000000E+00 0. -1.
     999902    2    1    2    0    0  0.63504602266E-02  0.45401523585E-02  0.10782982043E-01  0.10306178240E+01  0.10305318457E+01 0.  0.
     999903    2    3    3    0    0 -0.56230373368E-01 -0.10484839302E+00  0.59806892060E-01  0.14028891939E+00  0.44148342651E-01 0.  0.
         14    1    1    2    0    0 -0.63504602266E-02 -0.45401523585E-02 -0.10782982043E-01  0.13312176016E-01  0.00000000000E+00 0.  1.
     999901    1    3    3    0    0  0.62580833595E-01  0.10938854538E+00 -0.49023910017E-01  0.89032890459E+00  0.88000000000E+00 0. -1.
        -11    1    4    4    0    0 -0.42422878536E-02 -0.48049786117E-02  0.19535235846E-01  0.20566268166E-01  0.51100000000E-03 0.  1.
         11    1    4    4    0    0 -0.51988085515E-01 -0.10004341441E+00  0.40271656214E-01  0.11972265123E+00  0.51100000000E-03 0. -1.
</event>
<event>
 8    1  0.2183582E+004  0.1043930E+01  0.7957747E-01            NaN
         13   -1    0    0    0    0  0.00000000000E+00  0.00000000000E+00  0.74505805969E-08  0.10566000000E+00  0.10566000000E+00 0.  1.
     999900   -1    0    0    0    0 -0.00000000000E+00 -0.00000000000E+00 -0.74505805969E-08  0.93827000000E+00  0.93827000000E+00 0. -1.
     999902    2    1    2    0    0  0.47156808739E-02 -0.91051667075E-02  0.85484768849E-02  0.10305801624E+01  0.10304936938E+01 0.  0.
     999903    2    3    3    0    0 -0.10906503909E+00 -0.33951162986E-01  0.68894035394E-01  0.14085831699E+00  0.45241718957E-01 0.  0.
         14    1    1    2    0    0 -0.47156808739E-02  0.91051667075E-02 -0.85484768849E-02  0.13349837599E-01  0.00000000000E+00 0.  1.
     999901    1    3    3    0    0  0.11378071996E+00  0.24845996279E-01 -0.60345558510E-01  0.88972184541E+00  0.88000000000E+00 0. -1.
        -11    1    4    4    0    0 -0.86748594897E-01 -0.33315007697E-01  0.33054811624E-01  0.98631081039E-01  0.51100000000E-03 0. -1.
         11    1    4    4    0    0 -0.22316444188E-01 -0.63615528919E-03  0.35839223771E-01  0.42227235953E-01  0.51100000000E-03 0.  1.
</event>
<event>
 8    1  0.2183582E+004  0.1043930E+01  0.7957747E-01            NaN
         13   -1    0    0    0    0  0.00000000000E+00  0.00000000000E+00  0.74505805969E-08  0.10566000000E+00  0.10566000000E+00 0.  1.
     999900   -1    0    0    0    0 -0.00000000000E+00 -0.00000000000E+00 -0.74505805969E-08  0.93827000000E+00  0.93827000000E+00 0. -1.
     999902    2    1    2    0    0 -0.60175411201E-02  0.55018072916E-02  0.10957746548E-01  0.10302715633E+01  0.10301810235E+01 0.  0.
     999903    2    3    3    0    0  0.80597508977E-01 -0.97281129306E-01  0.38949202690E-01  0.13962571863E+00  0.44930216326E-01 0.  0.
         14    1    1    2    0    0  0.60175411201E-02 -0.55018072916E-02 -0.10957746548E-01  0.13658436734E-01  0.00000000000E+00 0.  1.
     999901    1    3    3    0    0 -0.86615050098E-01  0.10278293660E+00 -0.27991456142E-01  0.89064584464E+00  0.88000000000E+00 0.  1.
        -11    1    4    4    0    0  0.41957389824E-01 -0.24601315131E-01  0.29209181393E-01  0.56736977939E-01  0.51100000000E-03 0. -1.
         11    1    4    4    0    0  0.38640119153E-01 -0.72679814175E-01  0.97400212961E-02  0.82888740686E-01  0.51100000000E-03 0.  1.
</event>
<event>
 8    1  0.2183582E+004  0.1043930E+01  0.7957747E-01            NaN
         13   -1    0    0    0    0  0.00000000000E+00  0.00000000000E+00  0.74505805969E-08  0.10566000000E+00  0.10566000000E+00 0.  1.
     999900   -1    0    0    0    0 -0.00000000000E+00 -0.00000000000E+00 -0.74505805969E-08  0.93827000000E+00  0.93827000000E+00 0.  1.
     999902    2    1    2    0    0 -0.11095672616E-01 -0.85275409920E-02  0.11433644132E-02  0.10298893380E+01  0.10297936242E+01 0.  0.
     999903    2    3    3    0    0 -0.50869508005E-01  0.78521198613E-01 -0.93609682178E-01  0.13964354002E+00  0.44545035590E-01 0.  0.
         14    1    1    2    0    0  0.11095672616E-01  0.85275409920E-02 -0.11433644132E-02  0.14040661963E-01  0.00000000000E+00 0. -1.
     999901    1    3    3    0    0  0.39773835388E-01 -0.87048739605E-01  0.94753046591E-01  0.89024579802E+00  0.88000000000E+00 0. -1.
        -11    1    4    4    0    0 -0.32133303496E-01  0.77966612678E-01 -0.70757498494E-01  0.11008281701E+00  0.51100000000E-03 0. -1.
         11    1    4    4    0    0 -0.18736204509E-01  0.55458593475E-03 -0.22852183684E-01  0.29560723013E-01  0.51100000000E-03 0.  1.
</event>
<event>
 8    1  0.2183582E+004  0.1043930E+01  0.7957747E-01            NaN
         13   -1    0    0    0    0  0.00000000000E+00  0.00000000000E+00  0.74505805969E-08  0.10566000000E+00  0.10566000000E+00 0.  1.
     999900   -1    0    0    0    0 -0.00000000000E+00 -0.00000000000E+00 -0.74505805969E-08  0.93827000000E+00  0.93827000000E+00 0.  1.
     999902    2    1    2    0    0 -0.28819042919E-02 -0.14087701906E-01 -0.94381898481E-03  0.10295196040E+01  0.10294187465E+01 0.  0.
     999903    2    3    3    0    0  0.75842509676E-01  0.92682841901E-01 -0.52160689134E-01  0.13810463324E+00  0.44832541480E-01 0.  0.
         14    1    1    2    0    0  0.28819042919E-02  0.14087701906E-01  0.94381898481E-03  0.14410395956E-01  0.00000000000E+00 0. -1.
     999901    1    3    3    0    0 -0.78724413968E-01 -0.10677054381E+00  0.51216870149E-01  0.89141497080E+00  0.88000000000E+00 0. -1.
        -11    1    4    4    0    0  0.35415639427E-02  0.30957220161E-01 -0.22778180386E-01  0.38600502302E-01  0.51100000000E-03 0. -1.
         11    1    4    4    0    0  0.72300945733E-01  0.61725621740E-01 -0.29382508748E-01  0.99504130942E-01  0.51100000000E-03 0.  1.
</event>
<event>
 8    1  0.2183582E+004  0.1043930E+01  0.7957747E-01            NaN
         13   -1    0    0    0    0  0.00000000000E+00  0.00000000000E+00  0.74505805969E-08  0.10566000000E+00  0.10566000000E+00 0. -1.
     999900   -1    0    0    0    0 -0.00000000000E+00 -0.00000000000E+00 -0.74505805969E-08  0.93827000000E+00  0.93827000000E+00 0. -1.
     999902    2    1    2    0    0 -0.12569980475E-01 -0.11120347731E-01  0.36446848802E-02  0.10267558837E+01  0.10266122415E+01 0.  0.
     999903    2    3    3    0    0  0.17591965122E-01 -0.12172665283E+00  0.45018386841E-01  0.13835547797E+00  0.44595155397E-01 0.  0.
         14    1    1    2    0    0  0.12569980475E-01  0.11120347731E-01 -0.36446848802E-02  0.17174116300E-01  0.00000000000E+00 0.  1.
     999901    1    3    3    0    0 -0.30161945596E-01  0.11060630510E+00 -0.41373701961E-01  0.88840040573E+00  0.88000000000E+00 0. -1.
        -11    1    4    4    0    0 -0.46493083574E-02 -0.62458371009E-01  0.36667173623E-02  0.62740498201E-01  0.51100000000E-03 0.  1.
         11    1    4    4    0    0  0.22241273479E-01 -0.59268281819E-01  0.41351669479E-01  0.75614979769E-01  0.51100000000E-03 0. -1.
</event>
<event>
 8    1  0.2183582E+004  0.1043930E+01  0.7957747E-01            NaN
         13   -1    0    0    0    0  0.00000000000E+00  0.00000000000E+00  0.74505805969E-08  0.10566000000E+00  0.10566000000E+00 0. -1.
     999900   -1    0    0    0    0 -0.00000000000E+00 -0.00000000000E+00 -0.74505805969E-08  0.93827000000E+00  0.93827000000E+00 0.  1.
     999902    2    1    2    0    0 -0.11209744280E-01 -0.29784777369E-02  0.92838391998E-02  0.10290733730E+01  0.10289661256E+01 0.  0.
     999903    2    3    3    0    0 -0.26291604113E-01  0.12372200200E+00 -0.35456092637E-01  0.13874639058E+00  0.44665917299E-01 0.  0.
         14    1    1    2    0    0  0.11209744280E-01  0.29784777369E-02 -0.92838391998E-02  0.14856627031E-01  0.00000000000E+00 0. -1.
     999901    1    3    3    0    0  0.15081859833E-01 -0.12670047974E+00  0.44739931837E-01  0.89032698239E+00  0.88000000000E+00 0. -1.
        -11    1    4    4    0    0  0.11689824638E-02  0.68037811483E-01 -0.35291835301E-01  0.76656931006E-01  0.51100000000E-03 0. -1.
         11    1    4    4    0    0 -0.27460586577E-01  0.55684190522E-01 -0.16425733620E-03  0.62089459578E-01  0.51100000000E-03 0.  1.
</event>
<event>
 8    1  0.2183582E+004  0.1043930E+01  0.7957747E-01            NaN
         13   -1    0    0    0    0  0.00000000000E+00  0.00000000000E+00  0.74505805969E-08  0.10566000000E+00  0.10566000000E+00 0. -1.
     999900   -1    0    0    0    0 -0.00000000000E+00 -0.00000000000E+00 -0.74505805969E-08  0.93827000000E+00  0.93827000000E+00 0. -1.
     999902    2    1    2    0    0  0.10180139446E-01  0.19568454945E-03  0.10708061962E-01  0.10291537988E+01  0.10290477178E+01 0.  0.
     999903    2    3    3    0    0  0.12925926140E+00 -0.12287861873E-01  0.31961007631E-01  0.14079161818E+00  0.44066149524E-01 0.  0.
         14    1    1    2    0    0 -0.10180139446E-01 -0.19568454945E-03 -0.10708061962E-01  0.14776201223E-01  0.00000000000E+00 0. -1.
     999901    1    3    3    0    0 -0.11907912195E+00  0.12483546423E-01 -0.21252945669E-01  0.88836218060E+00  0.88000000000E+00 0.  1.
        -11    1    4    4    0    0  0.55258940703E-01 -0.15889680284E-01 -0.55129152293E-02  0.57764053030E-01  0.51100000000E-03 0. -1.
         11    1    4    4    0    0  0.74000320697E-01  0.36018184110E-02  0.37473922861E-01  0.83027565150E-01  0.51100000000E-03 0.  1.
</event>
<event>
 8    1  0.2183582E+004  0.1043930E+01  0.7957747E-01            NaN
         13   -1    0    0    0    0  0.00000000000E+00  0.00000000000E+00  0.74505805969E-08  0.10566000000E+00  0.10566000000E+00 0. -1.
     999900   -1    0    0    0    0 -0.00000000000E+00 -0.00000000000E+00 -0.74505805969E-08  0.93827000000E+00  0.93827000000E+00 0. -1.
     999902    2    1    2    0    0  0.44776113626E-03  0.11964513629E-01  0.56474553104E-02  0.10306920308E+01  0.10306070146E+01 0.  0.
     999903    2    3    3    0    0  0.27303878737E-01 -0.10859660178E-01  0.13028886045E+00  0.14121034251E+00  0.45844734279E-01 0.  0.
         14    1    1    2    0    0 -0.44776113626E-03 -0.11964513629E-01 -0.56474553104E-02  0.13237969176E-01  0.00000000000E+00 0.  1.
     999901    1    3    3    0    0 -0.26856117601E-01  0.22824173807E-01 -0.12464140514E+00  0.88948168831E+00  0.88000000000E+00 0. -1.
        -11    1    4    4    0    0  0.23643013733E-01 -0.24485832189E-01  0.11688968850E+00  0.12174567128E+00  0.51100000000E-03 0.  1.
         11    1    4    4    0    0  0.36608650037E-02  0.13626172011E-01  0.13399171955E-01  0.19464671236E-01  0.51100000000E-03 0. -1.
</event>
<event>
 8    1  0.2183582E+004  0.1043930E+01  0.7957747E-01            NaN
         13   -1    0    0    0    0  0.00000000000E+00  0.00000000000E+00  0.74505805969E-08  0.10566000000E+00  0.10566000000E+00 0. -1.
     999900   -1    0    0    0    0 -0.00000000000E+00 -0.00000000000E+00 -0.74505805969E-08  0.93827000000E+00  0.93827000000E+00 0. -1.
     999902    2    1    2    0    0  0.48433782685E-02 -0.12425485586E-01 -0.70806431477E-03  0.10305751372E+01  0.10304886031E+01 0.  0.
     999903    2    3    3    0    0 -0.90981049819E-01 -0.77849777068E-02  0.96203566503E-01  0.14007206618E+00  0.45021108504E-01 0.  0.
         14    1    1    2    0    0 -0.48433782685E-02  0.12425485586E-01  0.70806431477E-03  0.13354862791E-01  0.00000000000E+00 0.  1.
     999901    1    3    3    0    0  0.95824428087E-01 -0.46405078788E-02 -0.96911630818E-01  0.89050307103E+00  0.88000000000E+00 0. -1.
        -11    1    4    4    0    0 -0.19914530203E-01 -0.20763634817E-01  0.19846201705E-01  0.34954969420E-01  0.51100000000E-03 0.  1.
         11    1    4    4    0    0 -0.71066519615E-01  0.12978657110E-01  0.76357364798E-01  0.10511709676E+00  0.51100000000E-03 0. -1.
</event>
<event>
 8    1  0.2183582E+004  0.1043930E+01  0.7957747E-01            NaN
         13   -1    0    0    0    0  0.00000000000E+00  0.00000000000E+00  0.74505805969E-08  0.10566000000E+00  0.10566000000E+00 0.  1.
     999900   -1    0    0    0    0 -0.00000000000E+00 -0.00000000000E+00 -0.74505805969E-08  0.93827000000E+00  0.93827000000E+00 0.  1.
     999902    2    1    2    0    0  0.67158758437E-02  0.25394565850E-02  0.10958502661E-01  0.10308288318E+01  0.10307455747E+01 0.  0.
     999903    2    3    3    0    0  0.61461951363E-01  0.55622644489E-01  0.10695049191E+00  0.14233042457E+00  0.44137195103E-01 0.  0.
         14    1    1    2    0    0 -0.67158758437E-02 -0.25394565850E-02 -0.10958502661E-01  0.13101168218E-01  0.00000000000E+00 0. -1.
     999901    1    3    3    0    0 -0.54746075519E-01 -0.53083187904E-01 -0.95991989253E-01  0.88849840721E+00  0.88000000000E+00 0.  1.
        -11    1    4    4    0    0 -0.29682811774E-02  0.19671119505E-01  0.18805380321E-01  0.27380049046E-01  0.51100000000E-03 0.  1.
         11    1    4    4    0    0  0.64430232540E-01  0.35951524984E-01  0.88145111593E-01  0.11495037552E+00  0.51100000000E-03 0. -1.
</event>
<event>
 8    1  0.2183582E+004  0.1043930E+01  0.7957747E-01            NaN
         13   -1    0    0    0    0  0.00000000000E+00  0.00000000000E+00  0.74505805969E-08  0.10566000000E+00  0.10566000000E+00 0.  1.
     999900   -1    0    0    0    0 -0.00000000000E+00 -0.00000000000E+00 -0.74505805969E-08  0.93827000000E+00  0.93827000000E+00 0.  1.
     999902    2    1    2    0    0 -0.12122347694E-01 -0.19215899553E-02 -0.75152870187E-02  0.10295382190E+01  0.10294376237E+01 0.  0.
     999903    2    3    3    0    0  0.98817276456E-01 -0.21707605719E-01 -0.81403430132E-01  0.13928064710E+00  0.50363736420E-01 0.  0.
         14    1    1    2    0    0  0.12122347694E-01  0.19215899553E-02  0.75152870187E-02  0.14391781007E-01  0.00000000000E+00 0.  1.
     999901    1    3    3    0    0 -0.11093962415E+00  0.19786015764E-01  0.73888143114E-01  0.89025757190E+00  0.88000000000E+00 0. -1.
        -11    1    4    4    0    0  0.17303306655E-01 -0.24563388701E-01 -0.12652929532E-01  0.32605555239E-01  0.51100000000E-03 0.  1.
         11    1    4    4    0    0  0.81513969801E-01  0.28557829819E-02 -0.68750500600E-01  0.10667509186E+00  0.51100000000E-03 0. -1.
</event>
<event>
 8    1  0.2183582E+004  0.1043930E+01  0.7957747E-01            NaN
         13   -1    0    0    0    0  0.00000000000E+00  0.00000000000E+00  0.74505805969E-08  0.10566000000E+00  0.10566000000E+00 0. -1.
     999900   -1    0    0    0    0 -0.00000000000E+00 -0.00000000000E+00 -0.74505805969E-08  0.93827000000E+00  0.93827000000E+00 0. -1.
     999902    2    1    2    0    0 -0.12861432616E-02  0.13601919620E-01  0.14629980156E-02  0.10301893033E+01  0.10300976623E+01 0.  0.
     999903    2    3    3    0    0 -0.90630916080E-01  0.32508802705E-01 -0.91919867991E-01  0.14054874764E+00  0.45098815167E-01 0.  0.
         14    1    1    2    0    0  0.12861432616E-02 -0.13601919620E-01 -0.14629980156E-02  0.13740696672E-01  0.00000000000E+00 0. -1.
     999901    1    3    3    0    0  0.89344772818E-01 -0.18906883084E-01  0.93382866006E-01  0.88964055569E+00  0.88000000000E+00 0.  1.
        -11    1    4    4    0    0 -0.71464920653E-01  0.42368757506E-02 -0.55243730872E-01  0.90428518299E-01  0.51100000000E-03 0. -1.
         11    1    4    4    0    0 -0.19165995426E-01  0.28271926954E-01 -0.36676137119E-01  0.50120229343E-01  0.51100000000E-03 0.  1.
</event>
<event>
 8    1  0.2183582E+004  0.1043930E+01  0.7957747E-01            NaN
         13   -1    0    0    0    0  0.00000000000E+00  0.00000000000E+00  0.74505805969E-08  0.10566000000E+00  0.10566000000E+00 0. -1.
     999900   -1    0    0    0    0 -0.00000000000E+00 -0.00000000000E+00 -0.74505805969E-08  0.93827000000E+00  0.93827000000E+00 0.  1.
     999902    2    1    2    0    0  0.12042207238E-02 -0.99758965172E-02 -0.10005667839E-01  0.10297496598E+01  0.10296520188E+01 0.  0.
     999903    2    3    3    0    0 -0.60649279959E-01 -0.10428649044E+00  0.55645191307E-01  0.14012593094E+00  0.44552014077E-01 0.  0.
         14    1    1    2    0    0 -0.12042207238E-02  0.99758965172E-02  0.10005667839E-01  0.14180340185E-01  0.00000000000E+00 0.  1.
     999901    1    3    3    0    0  0.61853500683E-01  0.94310593922E-01 -0.65650859145E-01  0.88962372888E+00  0.88000000000E+00 0.  1.
        -11    1    4    4    0    0 -0.40865860910E-01 -0.61138133935E-01  0.99038246143E-02  0.74204021939E-01  0.51100000000E-03 0.  1.
         11    1    4    4    0    0 -0.19783419049E-01 -0.43148356504E-01  0.45741366692E-01  0.65921908999E-01  0.51100000000E-03 0. -1.
</event>
<event>
 8    1  0.2183582E+004  0.1043930E+01  0.7957747E-01            NaN
         13   -1    0    0    0    0  0.00000000000E+00  0.00000000000E+00  0.74505805969E-08  0.10566000000E+00  0.10566000000E+00 0.  1.
     999900   -1    0    0    0    0 -0.00000000000E+00 -0.00000000000E+00 -0.74505805969E-08  0.93827000000E+00  0.93827000000E+00 0. -1.
     999902    2    1    2    0    0  0.93879519832E-02  0.10070646959E-01 -0.26225369913E-02  0.10299146772E+01  0.10298193109E+01 0.  0.
     999903    2    3    3    0    0  0.12296383580E+00 -0.59571676141E-02  0.50782846705E-01  0.14086546191E+00  0.45919364954E-01 0.  0.
         14    1    1    2    0    0 -0.93879519832E-02 -0.10070646959E-01  0.26225369913E-02  0.14015322789E-01  0.00000000000E+00 0.  1.
     999901    1    3    3    0    0 -0.11357588382E+00  0.16027814573E-01 -0.53405383696E-01  0.88904921530E+00  0.88000000000E+00 0.  1.
        -11    1    4    4    0    0  0.63075363057E-01  0.12884989138E-01  0.43413040389E-01  0.77649710667E-01  0.51100000000E-03 0. -1.
         11    1    4    4    0    0  0.59888472744E-01 -0.18842156752E-01  0.73698063164E-02  0.63215751240E-01  0.51100000000E-03 0.  1.
</event>
<event>
 8    1  0.2183582E+004  0.1043930E+01  0.7957747E-01            NaN
         13   -1    0    0    0    0  0.00000000000E+00  0.00000000000E+00  0.74505805969E-08  0.10566000000E+00  0.10566000000E+00 0.  1.
     999900   -1    0    0    0    0 -0.00000000000E+00 -0.00000000000E+00 -0.74505805969E-08  0.93827000000E+00  0.93827000000E+00 0.  1.
     999902    2    1    2    0    0  0.10081007716E-01  0.17099269443E-02 -0.11572612810E-01  0.10284873340E+01  0.10283713922E+01 0.  0.
     999903    2    3    3    0    0  0.10045852766E+00  0.80576935172E-01  0.28412108555E-01  0.13945028242E+00  0.45327420975E-01 0.  0.
         14    1    1    2    0    0 -0.10081007716E-01 -0.17099269443E-02  0.11572612810E-01  0.15442666026E-01  0.00000000000E+00 0.  1.
     999901    1    3    3    0    0 -0.90377519945E-01 -0.78867008227E-01 -0.39984721366E-01  0.88903705156E+00  0.88000000000E+00 0. -1.
        -11    1    4    4    0    0  0.87649429705E-01  0.72417666589E-01  0.79659080735E-02  0.11397568940E+00  0.51100000000E-03 0.  1.
         11    1    4    4    0    0  0.12809097956E-01  0.81592685829E-02  0.20446200482E-01  0.25474593017E-01  0.51100000000E-03 0. -1.
</event>
<event>
 8    1  0.2183582E+004  0.1043930E+01  0.7957747E-01            NaN
         13   -1    0    0    0    0  0.00000000000E+00  0.00000000000E+00  0.74505805969E-08  0.10566000000E+00  0.10566000000E+00 0. -1.
     999900   -1    0    0    0    0 -0.00000000000E+00 -0.00000000000E+00 -0.74505805969E-08  0.93827000000E+00  0.93827000000E+00 0. -1.
     999902    2    1    2    0    0  0.54200759862E-02  0.18676372769E-01  0.89273068821E-02  0.10225318475E+01  0.10223079273E+01 0.  0.
     999903    2    3    3    0    0 -0.11468709646E+00 -0.25909094777E-01  0.41446527399E-01  0.13266045424E+00  0.45349423345E-01 0.  0.
         14    1    1    2    0    0 -0.54200759862E-02 -0.18676372769E-01 -0.89273068821E-02  0.21398152529E-01  0.00000000000E+00 0. -1.
     999901    1    3    3    0    0  0.12010717245E+00  0.44585467546E-01 -0.32519220517E-01  0.88987139323E+00  0.88000000000E+00 0. -1.
        -11    1    4    4    0    0 -0.94642180736E-01 -0.35709400625E-01  0.23077986212E-01  0.10375528052E+00  0.51100000000E-03 0. -1.
         11    1    4    4    0    0 -0.20044915728E-01  0.98003058480E-02  0.18368541187E-01  0.28905173717E-01  0.51100000000E-03 0.  1.
</event>
<event>
 8    1  0.2183582E+004  0.1043930E+01  0.7957747E-01            NaN
         13   -1    0    0    0    0  0.00000000000E+00  0.00000000000E+00  0.74505805969E-08  0.10566000000E+00  0.10566000000E+00 0. -1.
     999900   -1    0    0    0    0 -0.00000000000E+00 -0.00000000000E+00 -0.74505805969E-08  0.93827000000E+00  0.93827000000E+00 0. -1.
     999902    2    1    2    0    0 -0.58042829733E-02 -0.12570750281E-01 -0.10516915641E-01  0.10265426777E+01  0.10263954160E+01 0.  0.
     999903    2    3    3    0    0 -0.12807290425E-01 -0.10441032004E+00  0.76393854796E-01  0.13747742094E+00  0.44704346554E-01 0.  0.
         14    1    1    2    0    0  0.58042829733E-02  0.12570750281E-01  0.10516915641E-01  0.17387322338E-01  0.00000000000E+00 0. -1.
     999901    1    3    3    0    0  0.70030074512E-02  0.91839569754E-01 -0.86910770437E-01  0.88906525672E+00  0.88000000000E+00 0. -1.
        -11    1    4    4    0    0 -0.15447430811E-01 -0.28193692475E-01  0.44293912727E-01  0.54733163984E-01  0.51100000000E-03 0.  1.
         11    1    4    4    0    0  0.26401403866E-02 -0.76216627560E-01  0.32099942068E-01  0.82744256959E-01  0.51100000000E-03 0. -1.
</event>
<event>
 8    1  0.2183582E+004  0.1043930E+01  0.7957747E-01            NaN
         13   -1    0    0    0    0  0.00000000000E+00  0.00000000000E+00  0.74505805969E-08  0.10566000000E+00  0.10566000000E+00 0. -1.
     999900   -1    0    0    0    0 -0.00000000000E+00 -0.00000000000E+00 -0.74505805969E-08  0.93827000000E+00  0.93827000000E+00 0.  1.
     999902    2    1    2    0    0  0.41207034750E-02  0.62321229172E-02  0.11961216486E-01  0.10298271544E+01  0.10297305850E+01 0.  0.
     999903    2    3    3    0    0 -0.50386093287E-01 -0.43416853744E-01  0.11528380664E+00  0.14071997900E+00  0.45694363236E-01 0.  0.
         14    1    1    2    0    0 -0.41207034750E-02 -0.62321229172E-02 -0.11961216486E-01  0.14102845564E-01  0.00000000000E+00 0. -1.
     999901    1    3    3    0    0  0.54506796762E-01  0.49648976661E-01 -0.10332259015E+00  0.88910717544E+00  0.88000000000E+00 0.  1.
        -11    1    4    4    0    0 -0.36243883470E-01 -0.44544537860E-01  0.57687424664E-01  0.81399846606E-01  0.51100000000E-03 0. -1.
         11    1    4    4    0    0 -0.14142209817E-01  0.11276841155E-02  0.57596381972E-01  0.59320132394E-01  0.51100000000E-03 0.  1.
</event>
<event>
 8    1  0.2183582E+004  0.1043930E+01  0.7957747E-01            NaN
         13   -1    0    0    0    0  0.00000000000E+00  0.00000000000E+00  0.74505805969E-08  0.10566000000E+00  0.10566000000E+00 0. -1.
     999900   -1    0    0    0    0 -0.00000000000E+00 -0.00000000000E+00 -0.74505805969E-08  0.93827000000E+00  0.93827000000E+00 0.  1.
     999902    2    1    2    0    0 -0.15808638264E-02  0.11332947367E-01  0.74765184407E-02  0.10302613075E+01  0.10301706308E+01 0.  0.
     999903    2    3    3    0    0  0.73261525121E-01  0.69987950381E-01  0.87723205257E-01  0.14150862914E+00  0.45428703687E-01 0.  0.
         14    1    1    2    0    0  0.15808638264E-02 -0.11332947367E-01 -0.74765184407E-02  0.13668692492E-01  0.00000000000E+00 0.  1.
     999901    1    3    3    0    0 -0.74842388947E-01 -0.58655003015E-01 -0.80246686817E-01  0.88875267837E+00  0.88000000000E+00 0.  1.
        -11    1    4    4    0    0  0.17904557089E-01  0.48124223824E-01  0.36763514451E-01  0.63153235855E-01  0.51100000000E-03 0.  1.
         11    1    4    4    0    0  0.55356968031E-01  0.21863726558E-01  0.50959690807E-01  0.78355393284E-01  0.51100000000E-03 0. -1.
</event>
<event>
 8    1  0.2183582E+004  0.1043930E+01  0.7957747E-01            NaN
         13   -1    0    0    0    0  0.00000000000E+00  0.00000000000E+00  0.74505805969E-08  0.10566000000E+00  0.10566000000E+00 0. -1.
     999900   -1    0    0    0    0 -0.00000000000E+00 -0.00000000000E+00 -0.74505805969E-08  0.93827000000E+00  0.93827000000E+00 0.  1.
     999902    2    1    2    0    0  0.38641898699E-02 -0.72709462093E-02  0.11427563195E-01  0.10298449788E+01  0.10297486550E+01 0.  0.
     999903    2    3    3    0    0  0.37659596261E-01 -0.92860159553E-01 -0.86073470414E-01  0.13969100643E+00  0.45427750841E-01 0.  0.
         14    1    1    2    0    0 -0.38641898699E-02  0.72709462093E-02 -0.11427563195E-01  0.14085021217E-01  0.00000000000E+00 0. -1.
     999901    1    3    3    0    0 -0.33795406391E-01  0.85589213344E-01  0.97501033609E-01  0.89015397235E+00  0.88000000000E+00 0. -1.
        -11    1    4    4    0    0  0.11693868199E-01 -0.62505916504E-01 -0.28673146166E-01  0.69757770775E-01  0.51100000000E-03 0. -1.
         11    1    4    4    0    0  0.25965728062E-01 -0.30354243049E-01 -0.57400324248E-01  0.69933235658E-01  0.51100000000E-03 0.  1.
</event>
<event>
 8    1  0.2183582E+004  0.1043930E+01  0.7957747E-01            NaN
         13   -1    0    0    0    0  0.00000000000E+00  0.00000000000E+00  0.74505805969E-08  0.10566000000E+00  0.10566000000E+00 0. -1.
     999900   -1    0    0    0    0 -0.00000000000E+00 -0.00000000000E+00 -0.74505805969E-08  0.93827000000E+00  0.93827000000E+00 0. -1.
     999902    2    1    2    0    0 -0.16503086565E-02  0.12026204495E-01 -0.67552166395E-02  0.10300380575E+01  0.10299443742E+01 0.  0.
     999903    2    3    3    0    0  0.96697670073E-01  0.85164242444E-01  0.17016136764E-01  0.14122616814E+00  0.55243950510E-01 0.  0.
         14    1    1    2    0    0  0.16503086565E-02 -0.12026204495E-01  0.67552166395E-02  0.13891942451E-01  0.00000000000E+00 0. -1.
     999901    1    3    3    0    0 -0.98347978730E-01 -0.73138037948E-01 -0.23771353404E-01  0.88881188941E+00  0.88000000000E+00 0. -1.
        -11    1    4    4    0    0  0.93572850869E-01  0.75353158637E-01 -0.13661243508E-02  0.12015034063E+00  0.51100000000E-03 0.  1.
         11    1    4    4    0    0  0.31248192044E-02  0.98110838064E-02  0.18382261115E-01  0.21075827510E-01  0.51100000000E-03 0. -1.
</event>
<event>
 8    1  0.2183582E+004  0.1043930E+01  0.7957747E-01            NaN
         13   -1    0    0    0    0  0.00000000000E+00  0.00000000000E+00  0.74505805969E-08  0.10566000000E+00  0.10566000000E+00 0.  1.
     999900   -1    0    0    0    0 -0.00000000000E+00 -0.00000000000E+00 -0.74505805969E-08  0.93827000000E+00  0.93827000000E+00 0.  1.
     999902    2    1    2    0    0 -0.98877514755E-02 -0.38191972909E-02 -0.89012458917E-02  0.10300885378E+01  0.10299955387E+01 0.  0.
     999903    2    3    3    0    0  0.12606092077E+00  0.16218302588E-02  0.35567905247E-01  0.13852297563E+00  0.45050558404E-01 0.  0.
         14    1    1    2    0    0  0.98877514755E-02  0.38191972909E-02  0.89012458917E-02  0.13841462192E-01  0.00000000000E+00 0.  1.
     999901    1    3    3    0    0 -0.13594867225E+00 -0.54410275497E-02 -0.44469151138E-01  0.89156556218E+00  0.88000000000E+00 0. -1.
        -11    1    4    4    0    0  0.97414018884E-01 -0.15974338760E-01  0.17180538906E-01  0.10020031243E+00  0.51100000000E-03 0. -1.
         11    1    4    4    0    0  0.28646901891E-01  0.17596169018E-01  0.18387366341E-01  0.38322663190E-01  0.51100000000E-03 0.  1.
</event>
<event>
 8    1  0.2183582E+004  0.1043930E+01  0.7957747E-01            NaN
         13   -1    0    0    0    0  0.00000000000E+00  0.00000000000E+00  0.74505805969E-08  0.10566000000E+00  0.10566000000E+00 0.  1.
     999900   -1    0    0    0    0 -0.00000000000E+00 -0.00000000000E+00 -0.74505805969E-08  0.93827000000E+00  0.93827000000E+00 0.  1.
     999902    2    1    2    0    0 -0.94153302436E-02 -0.21028291458E-02 -0.12227847578E-01  0.10283546801E+01  0.10282367225E+01 0.  0.
     999903    2    3    3    0    0 -0.51127157391E-01  0.12070364578E+00 -0.43470347713E-02  0.13881355455E+00  0.45463720586E-01 0.  0.
         14    1    1    2    0    0  0.94153302436E-02  0.21028291458E-02  0.12227847578E-01  0.15575319913E-01  0.00000000000E+00 0.  1.
     999901    1    3    3    0    0  0.41711827147E-01 -0.12280647492E+00 -0.78808128063E-02  0.88954112553E+00  0.88000000000E+00 0.  1.
        -11    1    4    4    0    0 -0.88051237947E-02  0.70564986491E-01  0.95229373389E-02  0.71748832604E-01  0.51100000000E-03 0.  1.
         11    1    4    4    0    0 -0.42322033596E-01  0.50138659286E-01 -0.13869972110E-01  0.67064721949E-01  0.51100000000E-03 0. -1.
</event>
<event>
 8    1  0.2183582E+004  0.1043930E+01  0.7957747E-01            NaN
         13   -1    0    0    0    0  0.00000000000E+00  0.00000000000E+00  0.74505805969E-08  0.10566000000E+00  0.10566000000E+00 0. -1.
     999900   -1    0    0    0    0 -0.00000000000E+00 -0.00000000000E+00 -0.74505805969E-08  0.93827000000E+00  0.93827000000E+00 0. -1.
     999902    2    1    2    0    0 -0.80688830471E-02  0.74017400861E-02  0.12226412217E-01  0.10275172676E+01  0.10273861773E+01 0.  0.
     999903    2    3    3    0    0  0.88233655303E-01 -0.53690587433E-01  0.78676735584E-01  0.13767340664E+00  0.45782977906E-01 0.  0.
         14    1    1    2    0    0  0.80688830471E-02 -0.74017400861E-02 -0.12226412217E-01  0.16412732424E-01  0.00000000000E+00 0.  1.
     999901    1    3    3    0    0 -0.96302538350E-01  0.61092327519E-01 -0.66450323368E-01  0.88984386094E+00  0.88000000000E+00 0.  1.
        -11    1    4    4    0    0  0.71938446525E-02 -0.24828278655E-01  0.26683174200E-01  0.37154376973E-01  0.51100000000E-03 0. -1.
         11    1    4    4    0    0  0.81039810650E-01 -0.28862308778E-01  0.51993561384E-01  0.10051902966E+00  0.51100000000E-03 0.  1.
</event>
<event>
 8    1  0.2183582E+004  0.1043930E+01  0.7957747E-01            NaN
         13   -1    0    0    0    0  0.00000000000E+00  0.00000000000E+00  0.74505805969E-08  0.10566000000E+00  0.10566000000E+00 0. -1.
     999900   -1    0    0    0    0 -0.00000000000E+00 -0.00000000000E+00 -0.74505805969E-08  0.93827000000E+00  0.93827000000E+00 0.  1.
     999902    2    1    2    0    0 -0.37192960446E-02 -0.14499460490E-02 -0.13349427991E-01  0.10299964888E+01  0.10299022401E+01 0.  0.
     999903    2    3    3    0    0 -0.10622605704E-01 -0.60208212388E-01  0.11508210544E+00  0.13870818061E+00  0.47520519607E-01 0.  0.
         14    1    1    2    0    0  0.37192960446E-02  0.14499460490E-02  0.13349427991E-01  0.13933511198E-01  0.00000000000E+00 0. -1.
     999901    1    3    3    0    0  0.69033096595E-02  0.58758266339E-01 -0.12843153343E+00  0.89128830820E+00  0.88000000000E+00 0.  1.
        -11    1    4    4    0    0 -0.20209899180E-01 -0.11935364728E-01  0.62115161215E-01  0.66403669551E-01  0.51100000000E-03 0.  1.
         11    1    4    4    0    0  0.95872934759E-02 -0.48272847660E-01  0.52966944225E-01  0.72304511055E-01  0.51100000000E-03 0. -1.
</event>
<event>
 8    1  0.2183582E+004  0.1043930E+01  0.7957747E-01            NaN
         13   -1    0    0    0    0  0.00000000000E+00  0.00000000000E+00  0.74505805969E-08  0.10566000000E+00  0.10566000000E+00 0. -1.
     999900   -1    0    0    0    0 -0.00000000000E+00 -0.00000000000E+00 -0.74505805969E-08  0.93827000000E+00  0.93827000000E+00 0. -1.
     999902    2    1    2    0    0  0.42862845863E-03 -0.14152590398E-01 -0.30775232665E-02  0.10294403248E+01  0.10293383466E+01 0.  0.
     999903    2    3    3    0    0  0.80383447946E-01 -0.22600279236E-01  0.10274912799E+00  0.13946087746E+00  0.43814172539E-01 0.  0.
         14    1    1    2    0    0 -0.42862845863E-03  0.14152590398E-01  0.30775232665E-02  0.14489675179E-01  0.00000000000E+00 0. -1.
     999901    1    3    3    0    0 -0.79954819488E-01  0.84476888374E-02 -0.10582665125E+00  0.88997944736E+00  0.88000000000E+00 0. -1.
        -11    1    4    4    0    0  0.30083753935E-01  0.58267572066E-02  0.14317017195E-01  0.33826342586E-01  0.51100000000E-03 0.  1.
         11    1    4    4    0    0  0.50299694012E-01 -0.28427036442E-01  0.88432110792E-01  0.10563453488E+00  0.51100000000E-03 0. -1.
</event>
<event>
 8    1  0.2183582E+004  0.1043930E+01  0.7957747E-01            NaN
         13   -1    0    0    0    0  0.00000000000E+00  0.00000000000E+00  0.74505805969E-08  0.10566000000E+00  0.10566000000E+00 0.  1.
     999900   -1    0    0    0    0 -0.00000000000E+00 -0.00000000000E+00 -0.74505805969E-08  0.93827000000E+00  0.93827000000E+00 0.  1.
     999902    2    1    2    0    0 -0.23752047034E-02  0.11093162316E-02 -0.13173479642E-01  0.10304982188E+01  0.10304106784E+01 0.  0.
     999903    2    3    3    0    0 -0.10626810884E+00 -0.27464460467E-01  0.73597384303E-01  0.13968994591E+00  0.45271386844E-01 0.  0.
         14    1    1    2    0    0  0.23752047034E-02 -0.11093162316E-02  0.13173479642E-01  0.13431781183E-01  0.00000000000E+00 0.  1.
     999901    1    3    3    0    0  0.10389290414E+00  0.28573776699E-01 -0.86770863945E-01  0.89080827290E+00  0.88000000000E+00 0.  1.
        -11    1    4    4    0    0 -0.34212746946E-01 -0.21809352902E-01  0.48369431407E-01  0.63134958171E-01  0.51100000000E-03 0.  1.
         11    1    4    4    0    0 -0.72055361897E-01 -0.56551075655E-02  0.25227952896E-01  0.76554987741E-01  0.51100000000E-03 0. -1.
</event>
<event>
 8    1  0.2183582E+004  0.1043930E+01  0.7957747E-01            NaN
         13   -1    0    0    0    0  0.00000000000E+00  0.00000000000E+00  0.74505805969E-08  0.10566000000E+00  0.10566000000E+00 0. -1.
     999900   -1    0    0    0    0 -0.00000000000E+00 -0.00000000000E+00 -0.74505805969E-08  0.93827000000E+00  0.93827000000E+00 0. -1.
     999902    2    1    2    0    0 -0.50824166340E-03  0.86714354570E-02  0.10326500671E-01  0.10304359747E+01  0.10303476157E+01 0.  0.
     999903    2    3    3    0    0 -0.14324745054E-02 -0.79157409800E-01 -0.10423175599E+00  0.13867459719E+00  0.45808704841E-01 0.  0.
         14    1    1    2    0    0  0.50824166340E-03 -0.86714354570E-02 -0.10326500671E-01  0.13494025292E-01  0.00000000000E+00 0.  1.
     999901    1    3    3    0    0  0.92423284202E-03  0.87828845257E-01  0.11455825666E+00  0.89176137752E+00  0.88000000000E+00 0. -1.
        -11    1    4    4    0    0 -0.22321415192E-01 -0.54802667764E-01 -0.71910608306E-01  0.93128806919E-01  0.51100000000E-03 0.  1.
         11    1    4    4    0    0  0.20888940687E-01 -0.24354742036E-01 -0.32321147685E-01  0.45545790270E-01  0.51100000000E-03 0. -1.
</event>
<event>
 8    1  0.2183582E+004  0.1043930E+01  0.7957747E-01            NaN
         13   -1    0    0    0    0  0.00000000000E+00  0.00000000000E+00  0.74505805969E-08  0.10566000000E+00  0.10566000000E+00 0.  1.
     999900   -1    0    0    0    0 -0.00000000000E+00 -0.00000000000E+00 -0.74505805969E-08  0.93827000000E+00  0.93827000000E+00 0.  1.
     999902    2    1    2    0    0  0.89122610049E-03  0.48612647701E-02  0.12997138153E-01  0.10300249010E+01  0.10299310389E+01 0.  0.
     999903    2    3    3    0    0 -0.12012327712E+00  0.16240702913E-01  0.56584645017E-01  0.14060156399E+00  0.43285281649E-01 0.  0.
         14    1    1    2    0    0 -0.89122610049E-03 -0.48612647701E-02 -0.12997138153E-01  0.13905099039E-01  0.00000000000E+00 0. -1.
     999901    1    3    3    0    0  0.12101450322E+00 -0.11379438143E-01 -0.43587506865E-01  0.88942333698E+00  0.88000000000E+00 0.  1.
        -11    1    4    4    0    0 -0.78689180533E-01  0.22574152185E-02  0.56445781094E-01  0.96868314638E-01  0.51100000000E-03 0.  1.
         11    1    4    4    0    0 -0.41434096582E-01  0.13983287695E-01  0.13886392347E-03  0.43733249348E-01  0.51100000000E-03 0. -1.
</event>
<event>
 8    1  0.2183582E+004  0.1043930E+01  0.7957747E-01            NaN
         13   -1    0    0    0    0  0.00000000000E+00  0.00000000000E+00  0.74505805969E-08  0.10566000000E+00  0.10566000000E+00 0.  1.
     999900   -1    0    0    0    0 -0.00000000000E+00 -0.00000000000E+00 -0.74505805969E-08  0.93827000000E+00  0.93827000000E+00 0. -1.
     999902    2    1    2    0    0 -0.93911680552E-02  0.57119378129E-03  0.13448994196E-01  0.10275167205E+01  0.10273856214E+01 0.  0.
     999903    2    3    3    0    0  0.38022481091E-01  0.12304502801E+00  0.18528915620E-01  0.13775624721E+00  0.45251242452E-01 0.  0.
         14    1    1    2    0    0  0.93911680552E-02 -0.57119378129E-03 -0.13448994196E-01  0.16413279522E-01  0.00000000000E+00 0. -1.
     999901    1    3    3    0    0 -0.47413649146E-01 -0.12247383423E+00 -0.50799214238E-02  0.88976047327E+00  0.88000000000E+00 0. -1.
        -11    1    4    4    0    0  0.14432866503E-01  0.10657720752E+00  0.17488546143E-01  0.10896384338E+00  0.51100000000E-03 0. -1.
         11    1    4    4    0    0  0.23589614588E-01  0.16467820496E-01  0.10403694768E-02  0.28792403824E-01  0.51100000000E-03 0.  1.
</event>
<event>
 8    1  0.2183582E+004  0.1043930E+01  0.7957747E-01            NaN
         13   -1    0    0    0    0  0.00000000000E+00  0.00000000000E+00  0.74505805969E-08  0.10566000000E+00  0.10566000000E+00 0. -1.
     999900   -1    0    0    0    0 -0.00000000000E+00 -0.00000000000E+00 -0.74505805969E-08  0.93827000000E+00  0.93827000000E+00 0.  1.
     999902    2    1    2    0    0 -0.56881000109E-02  0.38884586589E-02 -0.11148462291E-01  0.10308241691E+01  0.10307408524E+01 0.  0.
     999903    2    3    3    0    0 -0.13010484901E-01  0.12854178158E+00 -0.36418534004E-01  0.14165003273E+00  0.45234498167E-01 0.  0.
         14    1    1    2    0    0  0.56881000109E-02 -0.38884586589E-02  0.11148462291E-01  0.13105830913E-01  0.00000000000E+00 0. -1.
     999901    1    3    3    0    0  0.73223848901E-02 -0.12465332292E+00  0.25270071714E-01  0.88917413635E+00  0.88000000000E+00 0. -1.
        -11    1    4    4    0    0  0.10827848441E-02  0.15103874854E-01 -0.21597529134E-01  0.26382074299E-01  0.51100000000E-03 0.  1.
         11    1    4    4    0    0 -0.14093269745E-01  0.11343790673E+00 -0.14821004870E-01  0.11526795843E+00  0.51100000000E-03 0. -1.
</event>
<event>
 8    1  0.2183582E+004  0.1043930E+01  0.7957747E-01            NaN
         13   -1    0    0    0    0  0.00000000000E+00  0.00000000000E+00  0.74505805969E-08  0.10566000000E+00  0.10566000000E+00 0. -1.
     999900   -1    0    0    0    0 -0.00000000000E+00 -0.00000000000E+00 -0.74505805969E-08  0.93827000000E+00  0.93827000000E+00 0. -1.
     999902    2    1    2    0    0 -0.16567286175E-01 -0.97554595332E-02  0.82643376859E-02  0.10230029066E+01  0.10227888363E+01 0.  0.
     999903    2    3    3    0    0  0.96298735833E-01 -0.79634005637E-01  0.63880636277E-02  0.13304489041E+00  0.45222938097E-01 0.  0.
         14    1    1    2    0    0  0.16567286175E-01  0.97554595332E-02 -0.82643376859E-02  0.20927093427E-01  0.00000000000E+00 0.  1.
     999901    1    3    3    0    0 -0.11286602201E+00  0.69878546104E-01  0.18762740582E-02  0.88995801616E+00  0.88000000000E+00 0.  1.
        -11    1    4    4    0    0  0.59135753236E-01 -0.26348811875E-01  0.17660097358E-01  0.67107654986E-01  0.51100000000E-03 0. -1.
         11    1    4    4    0    0  0.37162982598E-01 -0.53285193762E-01 -0.11272033731E-01  0.65937235423E-01  0.51100000000E-03 0.  1.
</event>
<event>
 8    1  0.2183582E+004  0.1043930E+01  0.7957747E-01            NaN
         13   -1    0    0    0    0  0.00000000000E+00  0.00000000000E+00  0.74505805969E-08  0.10566000000E+00  0.10566000000E+00 0.  1.
     999900   -1    0    0    0    0 -0.00000000000E+00 -0.00000000000E+00 -0.74505805969E-08  0.93827000000E+00  0.93827000000E+00 0.  1.
     999902    2    1    2    0    0 -0.80485468990E-02  0.41865296283E-02  0.86510724961E-02  0.10313941637E+01  0.10313179789E+01 0.  0.
     999903    2    3    3    0    0  0.16353262690E-01 -0.35546905311E-02 -0.13132485574E+00  0.13996349597E+00  0.45425735500E-01 0.  0.
         14    1    1    2    0    0  0.80485468990E-02 -0.41865296283E-02 -0.86510724961E-02  0.12535836344E-01  0.00000000000E+00 0. -1.
     999901    1    3    3    0    0 -0.24401809589E-01  0.77412201594E-02  0.13997592823E+00  0.89143066768E+00  0.88000000000E+00 0. -1.
        -11    1    4    4    0    0  0.32144663105E-01 -0.45563708957E-02 -0.83772853801E-01  0.89845378495E-01  0.51100000000E-03 0.  1.
         11    1    4    4    0    0 -0.15791400415E-01  0.10016803646E-02 -0.47552001934E-01  0.50118117478E-01  0.51100000000E-03 0. -1.
</event>
<event>
 8    1  0.2183582E+004  0.1043930E+01  0.7957747E-01            NaN
         13   -1    0    0    0    0  0.00000000000E+00  0.00000000000E+00  0.74505805969E-08  0.10566000000E+00  0.10566000000E+00 0.  1.
     999900   -1    0    0    0    0 -0.00000000000E+00 -0.00000000000E+00 -0.74505805969E-08  0.93827000000E+00  0.93827000000E+00 0. -1.
     999902    2    1    2    0    0  0.55857832326E-02 -0.35312691207E-02  0.27451136505E-02  0.10367741293E+01  0.10367494339E+01 0.  0.
     999903    2    3    3    0    0  0.72752168061E-01 -0.36515948235E-01 -0.11336083168E+00  0.14599924036E+00  0.42881319840E-01 0.  0.
         14    1    1    2    0    0 -0.55857832326E-02  0.35312691207E-02 -0.27451136505E-02  0.71558706583E-02  0.00000000000E+00 0. -1.
     999901    1    3    3    0    0 -0.67166384829E-01  0.32984679114E-01  0.11610594533E+00  0.89077488899E+00  0.88000000000E+00 0.  1.
        -11    1    4    4    0    0  0.37507517047E-02 -0.20168170626E-01 -0.32630260717E-01  0.38546313445E-01  0.51100000000E-03 0. -1.
         11    1    4    4    0    0  0.69001416357E-01 -0.16347777609E-01 -0.80730570967E-01  0.10745292691E+00  0.51100000000E-03 0.  1.
</event>
<event>
 8    1  0.2183582E+004  0.1043930E+01  0.7957747E-01            NaN
         13   -1    0    0    0    0  0.00000000000E+00  0.00000000000E+00  0.74505805969E-08  0.10566000000E+00  0.10566000000E+00 0.  1.
     999900   -1    0    0    0    0 -0.00000000000E+00 -0.00000000000E+00 -0.74505805969E-08  0.93827000000E+00  0.93827000000E+00 0. -1.
     999902    2    1    2    0    0 -0.69598608808E-02  0.98798041632E-02  0.59477501326E-03  0.10318302500E+01  0.10317593037E+01 0.  0.
     999903    2    3    3    0    0 -0.13577788291E+00 -0.47685276985E-02  0.17328183445E-01  0.14217376379E+00  0.38141064788E-01 0.  0.
         14    1    1    2    0    0  0.69598608808E-02 -0.98798041632E-02 -0.59477501326E-03  0.12099750043E-01  0.00000000000E+00 0. -1.
     999901    1    3    3    0    0  0.12881802203E+00  0.14648331862E-01 -0.16733408432E-01  0.88965648617E+00  0.88000000000E+00 0. -1.
        -11    1    4    4    0    0 -0.83740671278E-01  0.10529033953E-01  0.23421464219E-01  0.87591019455E-01  0.51100000000E-03 0. -1.
         11    1    4    4    0    0 -0.52037211635E-01 -0.15297561651E-01 -0.60932807741E-02  0.54582744332E-01  0.51100000000E-03 0.  1.
</event>
<event>
 7    1  0.2183582E+004  0.1043930E+01  0.7957747E-01            NaN
         13   -1    0    0    0    0  0.00000000000E+00  0.00000000000E+00  0.74505805969E-08  0.10566000000E+00  0.10566000000E+00 0.  1.
     999900   -1    0    0    0    0 -0.00000000000E+00 -0.00000000000E+00 -0.74505805969E-08  0.93827000000E+00  0.93827000000E+00 0.  1.
     999903    2    1    2    0    0  0.62773360226E-02  0.79838543919E-01 -0.57639408739E-01  0.10843254666E+00  0.44963515122E-01 0.  0.
         14    1    1    2    0    0 -0.28967515047E-01  0.12269759356E-02  0.42379820509E-01  0.51348530498E-01  0.00000000000E+00 0.  1.
     999901    1    1    2    0    0  0.22690179025E-01 -0.81065519855E-01  0.15259588230E-01  0.88414892284E+00  0.88000000000E+00 0. -1.
        -11    1    3    3    0    0 -0.31234735392E-02  0.34738779116E-01 -0.51140664514E-01  0.61904503466E-01  0.51100000000E-03 0.  1.
         11    1    3    3    0    0  0.94008095618E-02  0.45099764803E-01 -0.64987442251E-02  0.46528043192E-01  0.51100000000E-03 0. -1.
</event>
<event>
 8    1  0.2183582E+004  0.1043930E+01  0.7957747E-01            NaN
         13   -1    0    0    0    0  0.00000000000E+00  0.00000000000E+00  0.74505805969E-08  0.10566000000E+00  0.10566000000E+00 0.  1.
     999900   -1    0    0    0    0 -0.00000000000E+00 -0.00000000000E+00 -0.74505805969E-08  0.93827000000E+00  0.93827000000E+00 0.  1.
     999902    2    1    2    0    0 -0.12106352688E-01  0.65542503311E-02 -0.45684996655E-02  0.10294250642E+01  0.10293228695E+01 0.  0.
     999903    2    3    3    0    0  0.16514262924E-01 -0.12763709179E+00  0.23511429584E-01  0.13834990557E+00  0.44988453719E-01 0.  0.
         14    1    1    2    0    0  0.12106352688E-01 -0.65542503311E-02  0.45684996655E-02  0.14504935781E-01  0.00000000000E+00 0. -1.
     999901    1    3    3    0    0 -0.28620615612E-01  0.13419134212E+00 -0.28079929250E-01  0.89107515865E+00  0.88000000000E+00 0.  1.
        -11    1    4    4    0    0  0.31355514486E-01 -0.10184334849E+00  0.17611726689E-01  0.10800773101E+00  0.51100000000E-03 0. -1.
         11    1    4    4    0    0 -0.14841251562E-01 -0.25793743308E-01  0.58997028952E-02  0.30342174560E-01  0.51100000000E-03 0.  1.
</event>
<event>
 8    1  0.2183582E+004  0.1043930E+01  0.7957747E-01            NaN
         13   -1    0    0    0    0  0.00000000000E+00  0.00000000000E+00  0.74505805969E-08  0.10566000000E+00  0.10566000000E+00 0. -1.
     999900   -1    0    0    0    0 -0.00000000000E+00 -0.00000000000E+00 -0.74505805969E-08  0.93827000000E+00  0.93827000000E+00 0. -1.
     999902    2    1    2    0    0  0.12264778869E-01 -0.63590527097E-02  0.29800296924E-02  0.10297969561E+01  0.10296999699E+01 0.  0.
     999903    2    3    3    0    0 -0.53368092818E-01  0.11883451918E+00  0.14104144152E-01  0.13844694059E+00  0.44708301206E-01 0.  0.
         14    1    1    2    0    0 -0.12264778869E-01  0.63590527097E-02 -0.29800296924E-02  0.14133043870E-01  0.00000000000E+00 0.  1.
     999901    1    3    3    0    0  0.65632871686E-01 -0.12519357189E+00 -0.11124114460E-01  0.89135001554E+00  0.88000000000E+00 0. -1.
        -11    1    4    4    0    0 -0.41595189735E-01  0.56420715227E-01  0.24149093505E-01  0.74141059838E-01  0.51100000000E-03 0.  1.
         11    1    4    4    0    0 -0.11772903083E-01  0.62413803949E-01 -0.10044949352E-01  0.64305880748E-01  0.51100000000E-03 0. -1.
</event>
<event>
 8    1  0.2183582E+004  0.1043930E+01  0.7957747E-01            NaN
         13   -1    0    0    0    0  0.00000000000E+00  0.00000000000E+00  0.74505805969E-08  0.10566000000E+00  0.10566000000E+00 0.  1.
     999900   -1    0    0    0    0 -0.00000000000E+00 -0.00000000000E+00 -0.74505805969E-08  0.93827000000E+00  0.93827000000E+00 0. -1.
     999902    2    1    2    0    0 -0.96401740972E-02 -0.45329203681E-02 -0.93827175856E-02  0.10297343770E+01  0.10296365239E+01 0.  0.
     999903    2    3    3    0    0  0.28267344606E-01 -0.88153453350E-01 -0.95949632233E-01  0.14073313726E+00  0.45048972115E-01 0.  0.
         14    1    1    2    0    0  0.96401740972E-02  0.45329203681E-02  0.93827175856E-02  0.14195623022E-01  0.00000000000E+00 0.  1.
     999901    1    3    3    0    0 -0.37907518704E-01  0.83620532982E-01  0.86566914647E-01  0.88900123972E+00  0.88000000000E+00 0.  1.
        -11    1    4    4    0    0  0.25577682813E-01 -0.93489466489E-01 -0.89539318826E-01  0.13195472307E+00  0.51100000000E-03 0. -1.
         11    1    4    4    0    0  0.26896617938E-02  0.53360131392E-02 -0.64103134062E-02  0.87784141935E-02  0.51100000000E-03 0.  1.
</event>
<event>
 8    1  0.2183582E+004  0.1043930E+01  0.7957747E-01            NaN
         13   -1    0    0    0    0  0.00000000000E+00  0.00000000000E+00  0.74505805969E-08  0.10566000000E+00  0.10566000000E+00 0. -1.
     999900   -1    0    0    0    0 -0.00000000000E+00 -0.00000000000E+00 -0.74505805969E-08  0.93827000000E+00  0.93827000000E+00 0.  1.
     999902    2    1    2    0    0  0.10392525446E-01  0.89818471036E-02  0.27520137870E-03  0.10301912265E+01  0.10300996113E+01 0.  0.
     999903    2    3    3    0    0  0.62984472748E-01  0.76441190378E-01 -0.90500365482E-01  0.14139604226E+00  0.44634350241E-01 0.  0.
         14    1    1    2    0    0 -0.10392525446E-01 -0.89818471036E-02 -0.27520137870E-03  0.13738773539E-01  0.00000000000E+00 0. -1.
     999901    1    3    3    0    0 -0.52591947302E-01 -0.67459343275E-01  0.90775566860E-01  0.88879518420E+00  0.88000000000E+00 0. -1.
        -11    1    4    4    0    0 -0.39667298148E-02  0.82150676387E-02 -0.21923192235E-01  0.23750994937E-01  0.51100000000E-03 0.  1.
         11    1    4    4    0    0  0.66951202563E-01  0.68226122740E-01 -0.68577173246E-01  0.11764504733E+00  0.51100000000E-03 0. -1.
</event>
<event>
 8    1  0.2183582E+004  0.1043930E+01  0.7957747E-01            NaN
         13   -1    0    0    0    0  0.00000000000E+00  0.00000000000E+00  0.74505805969E-08  0.10566000000E+00  0.10566000000E+00 0. -1.
     999900   -1    0    0    0    0 -0.00000000000E+00 -0.00000000000E+00 -0.74505805969E-08  0.93827000000E+00  0.93827000000E+00 0.  1.
     999902    2    1    2    0    0 -0.47248801743E-02 -0.12491263251E-01  0.17914563444E-02  0.10304553770E+01  0.10303672736E+01 0.  0.
     999903    2    3    3    0    0 -0.21833355831E-01 -0.95039318283E-01  0.92814111660E-01  0.14175294920E+00  0.44387744212E-01 0.  0.
         14    1    1    2    0    0  0.47248801743E-02  0.12491263251E-01 -0.17914563444E-02  0.13474623041E-01  0.00000000000E+00 0. -1.
     999901    1    3    3    0    0  0.17108475657E-01  0.82548055032E-01 -0.91022655316E-01  0.88870242776E+00  0.88000000000E+00 0.  1.
        -11    1    4    4    0    0 -0.49415439730E-03 -0.81495571928E-01  0.65706131590E-01  0.10468681522E+00  0.51100000000E-03 0.  1.
         11    1    4    4    0    0 -0.21339201434E-01 -0.13543746356E-01  0.27107980070E-01  0.37066133972E-01  0.51100000000E-03 0. -1.
</event>
<event>
 8    1  0.2183582E+004  0.1043930E+01  0.7957747E-01            NaN
         13   -1    0    0    0    0  0.00000000000E+00  0.00000000000E+00  0.74505805969E-08  0.10566000000E+00  0.10566000000E+00 0. -1.
     999900   -1    0    0    0    0 -0.00000000000E+00 -0.00000000000E+00 -0.74505805969E-08  0.93827000000E+00  0.93827000000E+00 0. -1.
     999902    2    1    2    0    0 -0.50083143393E-02 -0.65440190352E-02 -0.11441704039E-01  0.10298296458E+01  0.10297331107E+01 0.  0.
     999903    2    3    3    0    0 -0.97257751654E-01  0.33428785190E-01  0.82443345026E-01  0.13914328898E+00  0.44580217506E-01 0.  0.
         14    1    1    2    0    0  0.50083143393E-02  0.65440190352E-02  0.11441704039E-01  0.14100354214E-01  0.00000000000E+00 0. -1.
     999901    1    3    3    0    0  0.92249437314E-01 -0.39972804225E-01 -0.93885049066E-01  0.89068635681E+00  0.88000000000E+00 0. -1.
        -11    1    4    4    0    0 -0.19104967259E-01 -0.99873715144E-03  0.38739639561E-01  0.43209004203E-01  0.51100000000E-03 0.  1.
         11    1    4    4    0    0 -0.78152784395E-01  0.34427522342E-01  0.43703705465E-01  0.95934284777E-01  0.51100000000E-03 0. -1.
</event>
<event>
 8    1  0.2183582E+004  0.1043930E+01  0.7957747E-01            NaN
         13   -1    0    0    0    0  0.00000000000E+00  0.00000000000E+00  0.74505805969E-08  0.10566000000E+00  0.10566000000E+00 0.  1.
     999900   -1    0    0    0    0 -0.00000000000E+00 -0.00000000000E+00 -0.74505805969E-08  0.93827000000E+00  0.93827000000E+00 0. -1.
     999902    2    1    2    0    0  0.73748437483E-05 -0.90299293678E-02 -0.11115169836E-01  0.10296091523E+01  0.10295095530E+01 0.  0.
     999903    2    3    3    0    0  0.74900710040E-01 -0.61758242229E-01  0.88364207320E-01  0.13928031803E+00  0.46546503701E-01 0.  0.
         14    1    1    2    0    0 -0.73748437483E-05  0.90299293678E-02  0.11115169836E-01  0.14320847714E-01  0.00000000000E+00 0.  1.
     999901    1    3    3    0    0 -0.74893335196E-01  0.52728312861E-01 -0.99479377155E-01  0.89032883426E+00  0.88000000000E+00 0. -1.
        -11    1    4    4    0    0  0.20358105440E-01 -0.46848995648E-01  0.43605945648E-01  0.67164130808E-01  0.51100000000E-03 0.  1.
         11    1    4    4    0    0  0.54542604599E-01 -0.14909246580E-01  0.44758261672E-01  0.72116187219E-01  0.51100000000E-03 0. -1.
</event>
<event>
 8    1  0.2183582E+004  0.1043930E+01  0.7957747E-01            NaN
         13   -1    0    0    0    0  0.00000000000E+00  0.00000000000E+00  0.74505805969E-08  0.10566000000E+00  0.10566000000E+00 0. -1.
     999900   -1    0    0    0    0 -0.00000000000E+00 -0.00000000000E+00 -0.74505805969E-08  0.93827000000E+00  0.93827000000E+00 0.  1.
     999902    2    1    2    0    0  0.14840044417E-01 -0.77792515193E-02  0.80328793210E-02  0.10253485355E+01  0.10251801541E+01 0.  0.
     999903    2    3    3    0    0 -0.11211904950E+00 -0.41443946627E-01 -0.41603479031E-01  0.13421684418E+00  0.44665756688E-01 0.  0.
         14    1    1    2    0    0 -0.14840044417E-01  0.77792515193E-02 -0.80328793210E-02  0.18581464493E-01  0.00000000000E+00 0.  1.
     999901    1    3    3    0    0  0.12695909392E+00  0.33664695108E-01  0.49636358352E-01  0.89113169133E+00  0.88000000000E+00 0.  1.
        -11    1    4    4    0    0 -0.10187470506E+00 -0.44665340833E-01 -0.24323645080E-01  0.11386548658E+00  0.51100000000E-03 0. -1.
         11    1    4    4    0    0 -0.10244344435E-01  0.32213942055E-02 -0.17279833951E-01  0.20351357594E-01  0.51100000000E-03 0.  1.
</event>
<event>
 8    1  0.2183582E+004  0.1043930E+01  0.7957747E-01            NaN
         13   -1    0    0    0    0  0.00000000000E+00  0.00000000000E+00  0.74505805969E-08  0.10566000000E+00  0.10566000000E+00 0.  1.
     999900   -1    0    0    0    0 -0.00000000000E+00 -0.00000000000E+00 -0.74505805969E-08  0.93827000000E+00  0.93827000000E+00 0.  1.
     999902    2    1    2    0    0 -0.92058675186E-02  0.49007213335E-03  0.97407647638E-02  0.10305184130E+01  0.10304311374E+01 0.  0.
     999903    2    3    3    0    0  0.53691536816E-01 -0.37065961390E-01  0.11629334988E+00  0.14106914941E+00  0.46040146270E-01 0.  0.
         14    1    1    2    0    0  0.92058675186E-02 -0.49007213335E-03 -0.97407647638E-02  0.13411586992E-01  0.00000000000E+00 0. -1.
     999901    1    3    3    0    0 -0.62897404334E-01  0.37556033523E-01 -0.10655258512E+00  0.88944926360E+00  0.88000000000E+00 0.  1.
        -11    1    4    4    0    0 -0.58259471328E-02 -0.15158508087E-01  0.20040910588E-01  0.25799636540E-01  0.51100000000E-03 0. -1.
         11    1    4    4    0    0  0.59517483949E-01 -0.21907453303E-01  0.96252439292E-01  0.11526951287E+00  0.51100000000E-03 0.  1.
</event>
<event>
 8    1  0.2183582E+004  0.1043930E+01  0.7957747E-01            NaN
         13   -1    0    0    0    0  0.00000000000E+00  0.00000000000E+00  0.74505805969E-08  0.10566000000E+00  0.10566000000E+00 0.  1.
     999900   -1    0    0    0    0 -0.00000000000E+00 -0.00000000000E+00 -0.74505805969E-08  0.93827000000E+00  0.93827000000E+00 0. -1.
     999902    2    1    2    0    0 -0.10996101163E-01 -0.10739794100E-01  0.13535949341E-02  0.10284998465E+01  0.10283840939E+01 0.  0.
     999903    2    3    3    0    0  0.91568665506E-01  0.78649599579E-01 -0.45594282125E-01  0.13680814067E+00  0.45464808096E-01 0.  0.
         14    1    1    2    0    0  0.10996101163E-01  0.10739794100E-01 -0.13535949341E-02  0.15430153510E-01  0.00000000000E+00 0. -1.
     999901    1    3    3    0    0 -0.10256476667E+00 -0.89389393679E-01  0.46947877059E-01  0.89169170582E+00  0.88000000000E+00 0.  1.
        -11    1    4    4    0    0  0.23609321081E-01  0.15661327454E-01  0.84094470100E-02  0.29557691715E-01  0.51100000000E-03 0. -1.
         11    1    4    4    0    0  0.67959344425E-01  0.62988272125E-01 -0.54003729135E-01  0.10725044896E+00  0.51100000000E-03 0.  1.
</event>
<event>
 8    1  0.2183582E+004  0.1043930E+01  0.7957747E-01            NaN
         13   -1    0    0    0    0  0.00000000000E+00  0.00000000000E+00  0.74505805969E-08  0.10566000000E+00  0.10566000000E+00 0. -1.
     999900   -1    0    0    0    0 -0.00000000000E+00 -0.00000000000E+00 -0.74505805969E-08  0.93827000000E+00  0.93827000000E+00 0. -1.
     999902    2    1    2    0    0 -0.50632113392E-02 -0.31066514902E-02 -0.12485571989E-01  0.10301033265E+01  0.10300105273E+01 0.  0.
     999903    2    3    3    0    0 -0.52949848227E-01 -0.46690775481E-01  0.11122727968E+00  0.13909402489E+00  0.44630987833E-01 0.  0.
         14    1    1    2    0    0  0.50632113392E-02  0.31066514902E-02  0.12485571989E-01  0.13826673514E-01  0.00000000000E+00 0. -1.
     999901    1    3    3    0    0  0.47886636887E-01  0.43584123991E-01 -0.12371285167E+00  0.89100930159E+00  0.88000000000E+00 0. -1.
        -11    1    4    4    0    0 -0.51052834657E-01 -0.36653440616E-01  0.60123453640E-01  0.86976763759E-01  0.51100000000E-03 0.  1.
         11    1    4    4    0    0 -0.18970135701E-02 -0.10037334865E-01  0.51103826036E-01  0.52117261135E-01  0.51100000000E-03 0. -1.
</event>
<event>
 8    1  0.2183582E+004  0.1043930E+01  0.7957747E-01            NaN
         13   -1    0    0    0    0  0.00000000000E+00  0.00000000000E+00  0.74505805969E-08  0.10566000000E+00  0.10566000000E+00 0. -1.
     999900   -1    0    0    0    0 -0.00000000000E+00 -0.00000000000E+00 -0.74505805969E-08  0.93827000000E+00  0.93827000000E+00 0.  1.
     999902    2    1    2    0    0 -0.14272644727E-01 -0.56391018883E-02 -0.14780135493E-02  0.10285127246E+01  0.10283971666E+01 0.  0.
     999903    2    3    3    0    0 -0.54432401148E-01 -0.82508644579E-01  0.88006293147E-01  0.13973312660E+00  0.44829413447E-01 0.  0.
         14    1    1    2    0    0  0.14272644727E-01  0.56391018883E-02  0.14780135493E-02  0.15417275429E-01  0.00000000000E+00 0.  1.
     999901    1    3    3    0    0  0.40159756421E-01  0.76869542691E-01 -0.89484306696E-01  0.88877959797E+00  0.88000000000E+00 0.  1.
        -11    1    4    4    0    0 -0.24917470498E-02 -0.41190853469E-01  0.25196795413E-01  0.48353229809E-01  0.51100000000E-03 0. -1.
         11    1    4    4    0    0 -0.51940654099E-01 -0.41317791111E-01  0.62809497734E-01  0.91379896788E-01  0.51100000000E-03 0.  1.
</event>
<event>
 8    1  0.2183582E+004  0.1043930E+01  0.7957747E-01            NaN
         13   -1    0    0    0    0  0.00000000000E+00  0.00000000000E+00  0.74505805969E-08  0.10566000000E+00  0.10566000000E+00 0. -1.
     999900   -1    0    0    0    0 -0.00000000000E+00 -0.00000000000E+00 -0.74505805969E-08  0.93827000000E+00  0.93827000000E+00 0. -1.
     999902    2    1    2    0    0 -0.47321840022E-02 -0.12069780625E-01 -0.13015676391E-02  0.10309005239E+01  0.10308181813E+01 0.  0.
     999903    2    3    3    0    0  0.41583731815E-01  0.12156015085E+00  0.27257198831E-01  0.13915071267E+00  0.45977047785E-01 0.  0.
         14    1    1    2    0    0  0.47321840022E-02  0.12069780625E-01  0.13015676391E-02  0.13029476125E-01  0.00000000000E+00 0. -1.
     999901    1    3    3    0    0 -0.46315915818E-01 -0.13362993147E+00 -0.28558766470E-01  0.89174981121E+00  0.88000000000E+00 0.  1.
        -11    1    4    4    0    0  0.37876534710E-01  0.82295968649E-01  0.38045547150E-01  0.98259773644E-01  0.51100000000E-03 0. -1.
         11    1    4    4    0    0  0.37071971049E-02  0.39264182197E-01 -0.10788348320E-01  0.40890939026E-01  0.51100000000E-03 0.  1.
</event>
<event>
 8    1  0.2183582E+004  0.1043930E+01  0.7957747E-01            NaN
         13   -1    0    0    0    0  0.00000000000E+00  0.00000000000E+00  0.74505805969E-08  0.10566000000E+00  0.10566000000E+00 0. -1.
     999900   -1    0    0    0    0 -0.00000000000E+00 -0.00000000000E+00 -0.74505805969E-08  0.93827000000E+00  0.93827000000E+00 0. -1.
     999902    2    1    2    0    0 -0.49585307234E-02 -0.12488978483E-01  0.10164328976E-02  0.10304542905E+01  0.10303661728E+01 0.  0.
     999903    2    3    3    0    0 -0.37323932462E-01  0.23650614926E-01  0.12552127726E+00  0.14036719044E+00  0.44664634607E-01 0.  0.
         14    1    1    2    0    0  0.49585307234E-02  0.12488978483E-01 -0.10164328976E-02  0.13475709492E-01  0.00000000000E+00 0.  1.
     999901    1    3    3    0    0  0.32365401739E-01 -0.36139593409E-01 -0.12450484437E+00  0.89008710007E+00  0.88000000000E+00 0. -1.
        -11    1    4    4    0    0 -0.26560416213E-01  0.26372008986E-01  0.42620882582E-01  0.56725120717E-01  0.51100000000E-03 0.  1.
         11    1    4    4    0    0 -0.10763516250E-01 -0.27213940596E-02  0.82900394682E-01  0.83642069720E-01  0.51100000000E-03 0. -1.
</event>
<event>
 8    1  0.2183582E+004  0.1043930E+01  0.7957747E-01            NaN
         13   -1    0    0    0    0  0.00000000000E+00  0.00000000000E+00  0.74505805969E-08  0.10566000000E+00  0.10566000000E+00 0.  1.
     999900   -1    0    0    0    0 -0.00000000000E+00 -0.00000000000E+00 -0.74505805969E-08  0.93827000000E+00  0.93827000000E+00 0.  1.
     999902    2    1    2    0    0  0.72088105399E-02 -0.11909720436E-01 -0.12290072954E-01  0.10253597473E+01  0.10251915710E+01 0.  0.
     999903    2    3    3    0    0  0.93115416057E-01  0.42311128498E-01 -0.79041919942E-01  0.13700415728E+00  0.45407066651E-01 0.  0.
         14    1    1    2    0    0 -0.72088105399E-02  0.11909720436E-01  0.12290072954E-01  0.18570252650E-01  0.00000000000E+00 0.  1.
     999901    1    3    3    0    0 -0.85906605517E-01 -0.54220848935E-01  0.66751846987E-01  0.88835559007E+00  0.88000000000E+00 0.  1.
        -11    1    4    4    0    0  0.30968311603E-01 -0.67341764125E-02 -0.31336925060E-01  0.44571845920E-01  0.51100000000E-03 0.  1.
         11    1    4    4    0    0  0.62147104454E-01  0.49045304911E-01 -0.47704994882E-01  0.92432311361E-01  0.51100000000E-03 0. -1.
</event>
<event>
 8    1  0.2183582E+004  0.1043930E+01  0.7957747E-01            NaN
         13   -1    0    0    0    0  0.00000000000E+00  0.00000000000E+00  0.74505805969E-08  0.10566000000E+00  0.10566000000E+00 0.  1.
     999900   -1    0    0    0    0 -0.00000000000E+00 -0.00000000000E+00 -0.74505805969E-08  0.93827000000E+00  0.93827000000E+00 0.  1.
     999902    2    1    2    0    0  0.75334579954E-02  0.64131843997E-02  0.93261108320E-02  0.10303337407E+01  0.10302440288E+01 0.  0.
     999903    2    3    3    0    0  0.12454685184E+00 -0.46664188518E-01 -0.10587550806E-01  0.14077997855E+00  0.44915936289E-01 0.  0.
         14    1    1    2    0    0 -0.75334579954E-02 -0.64131843997E-02 -0.93261108320E-02  0.13596259293E-01  0.00000000000E+00 0. -1.
     999901    1    3    3    0    0 -0.11701339385E+00  0.53077372918E-01  0.19913661638E-01  0.88955376216E+00  0.88000000000E+00 0.  1.
        -11    1    4    4    0    0  0.72403550159E-01 -0.24983211069E-01  0.16178902526E-01  0.78284435994E-01  0.51100000000E-03 0. -1.
         11    1    4    4    0    0  0.52143301686E-01 -0.21680977448E-01 -0.26766453332E-01  0.62495542551E-01  0.51100000000E-03 0.  1.
</event>
<event>
 8    1  0.2183582E+004  0.1043930E+01  0.7957747E-01            NaN
         13   -1    0    0    0    0  0.00000000000E+00  0.00000000000E+00  0.74505805969E-08  0.10566000000E+00  0.10566000000E+00 0.  1.
     999900   -1    0    0    0    0 -0.00000000000E+00 -0.00000000000E+00 -0.74505805969E-08  0.93827000000E+00  0.93827000000E+00 0.  1.
     999902    2    1    2    0    0  0.12918155806E-01  0.51504371412E-02 -0.47967535543E-03  0.10300146904E+01  0.10299206895E+01 0.  0.
     999903    2    3    3    0    0  0.15813478436E-01  0.11291653513E+00 -0.69309795048E-01  0.14076809912E+00  0.44850864376E-01 0.  0.
         14    1    1    2    0    0 -0.12918155806E-01 -0.51504371412E-02  0.47967535543E-03  0.13915309577E-01  0.00000000000E+00 0.  1.
     999901    1    3    3    0    0 -0.28953226304E-02 -0.10776609798E+00  0.68830119692E-01  0.88924659130E+00  0.88000000000E+00 0. -1.
        -11    1    4    4    0    0 -0.12705696812E-01  0.59669656500E-01 -0.25381883651E-01  0.66078769488E-01  0.51100000000E-03 0.  1.
         11    1    4    4    0    0  0.28519175249E-01  0.53246878625E-01 -0.43927911397E-01  0.74689329632E-01  0.51100000000E-03 0. -1.
</event>
<event>
 8    1  0.2183582E+004  0.1043930E+01  0.7957747E-01            NaN
         13   -1    0    0    0    0  0.00000000000E+00  0.00000000000E+00  0.74505805969E-08  0.10566000000E+00  0.10566000000E+00 0. -1.
     999900   -1    0    0    0    0 -0.00000000000E+00 -0.00000000000E+00 -0.74505805969E-08  0.93827000000E+00  0.93827000000E+00 0. -1.
     999902    2    1    2    0    0 -0.26362627813E-03 -0.17672329208E-01  0.53051387434E-02  0.10254766747E+01  0.10253106286E+01 0.  0.
     999903    2    3    3    0    0  0.63017226097E-01 -0.88689142123E-01  0.71957367492E-01  0.13784478386E+00  0.44568901557E-01 0.  0.
         14    1    1    2    0    0  0.26362627813E-03  0.17672329208E-01 -0.53051387434E-02  0.18453325324E-01  0.00000000000E+00 0.  1.
     999901    1    3    3    0    0 -0.63280852375E-01  0.71016812915E-01 -0.66652228748E-01  0.88763189081E+00  0.88000000000E+00 0. -1.
        -11    1    4    4    0    0  0.12401407215E-01 -0.28617740374E-01 -0.17863717854E-03  0.31193957704E-01  0.51100000000E-03 0.  1.
         11    1    4    4    0    0  0.50615818882E-01 -0.60071401749E-01  0.72136004670E-01  0.10665082616E+00  0.51100000000E-03 0. -1.
</event>
<event>
 8    1  0.2183582E+004  0.1043930E+01  0.7957747E-01            NaN
         13   -1    0    0    0    0  0.00000000000E+00  0.00000000000E+00  0.74505805969E-08  0.10566000000E+00  0.10566000000E+00 0. -1.
     999900   -1    0    0    0    0 -0.00000000000E+00 -0.00000000000E+00 -0.74505805969E-08  0.93827000000E+00  0.93827000000E+00 0. -1.
     999902    2    1    2    0    0  0.11341596541E-01 -0.45586877374E-02 -0.73734635548E-02  0.10296547973E+01  0.10295558364E+01 0.  0.
     999903    2    3    3    0    0  0.10295377447E+00  0.18863340571E-01  0.77640391275E-01  0.14051547302E+00  0.52547716461E-01 0.  0.
         14    1    1    2    0    0 -0.11341596541E-01  0.45586877374E-02  0.73734635548E-02  0.14275202653E-01  0.00000000000E+00 0.  1.
     999901    1    3    3    0    0 -0.91612177929E-01 -0.23422028308E-01 -0.85013854830E-01  0.88913932433E+00  0.88000000000E+00 0. -1.
        -11    1    4    4    0    0  0.39015956791E-01 -0.99556995371E-02  0.52159513471E-01  0.65895650874E-01  0.51100000000E-03 0.  1.
         11    1    4    4    0    0  0.63937817678E-01  0.28819040108E-01  0.25480877804E-01  0.74619822144E-01  0.51100000000E-03 0. -1.
</event>
<event>
 8    1  0.2183582E+004  0.1043930E+01  0.7957747E-01            NaN
         13   -1    0    0    0    0  0.00000000000E+00  0.00000000000E+00  0.74505805969E-08  0.10566000000E+00  0.10566000000E+00 0. -1.
     999900   -1    0    0    0    0 -0.00000000000E+00 -0.00000000000E+00 -0.74505805969E-08  0.93827000000E+00  0.93827000000E+00 0. -1.
     999902    2    1    2    0    0  0.11738526405E-01 -0.66879446142E-02  0.52992438837E-03  0.10304095553E+01  0.10303208477E+01 0.  0.
     999903    2    3    3    0    0 -0.86852019654E-02 -0.63606134040E-01 -0.11661927595E+00  0.14058893061E+00  0.45210826874E-01 0.  0.
         14    1    1    2    0    0 -0.11738526405E-01  0.66879446142E-02 -0.52992438837E-03  0.13520444711E-01  0.00000000000E+00 0.  1.
     999901    1    3    3    0    0  0.20423728370E-01  0.56918189425E-01  0.11714920034E+00  0.88982062468E+00  0.88000000000E+00 0.  1.
        -11    1    4    4    0    0  0.15814342693E-01 -0.27275929438E-01 -0.69060480705E-01  0.75918909882E-01  0.51100000000E-03 0. -1.
         11    1    4    4    0    0 -0.24499544658E-01 -0.36330204602E-01 -0.47558795242E-01  0.64670020726E-01  0.51100000000E-03 0.  1.
</event>
<event>
 8    1  0.2183582E+004  0.1043930E+01  0.7957747E-01            NaN
         13   -1    0    0    0    0  0.00000000000E+00  0.00000000000E+00  0.74505805969E-08  0.10566000000E+00  0.10566000000E+00 0.  1.
     999900   -1    0    0    0    0 -0.00000000000E+00 -0.00000000000E+00 -0.74505805969E-08  0.93827000000E+00  0.93827000000E+00 0.  1.
     999902    2    1    2    0    0 -0.10938557477E-01  0.26836236343E-02 -0.73939238086E-02  0.10304569163E+01  0.10303688332E+01 0.  0.
     999903    2    3    3    0    0  0.14479236412E-01 -0.70354793544E-01 -0.11236645668E+00  0.14085031374E+00  0.45311643446E-01 0.  0.
         14    1    1    2    0    0  0.10938557477E-01 -0.26836236343E-02  0.73939238086E-02  0.13473083715E-01  0.00000000000E+00 0.  1.
     999901    1    3    3    0    0 -0.25417793889E-01  0.73038417178E-01  0.10497253288E+00  0.88960660254E+00  0.88000000000E+00 0. -1.
        -11    1    4    4    0    0 -0.10902403272E-01 -0.30329732815E-01 -0.70864324695E-01  0.77850939142E-01  0.51100000000E-03 0.  1.
         11    1    4    4    0    0  0.25381639684E-01 -0.40025060729E-01 -0.41502131989E-01  0.62999374601E-01  0.51100000000E-03 0. -1.
</event>
<event>
 8    1  0.2183582E+004  0.1043930E+01  0.7957747E-01            NaN
         13   -1    0    0    0    0  0.00000000000E+00  0.00000000000E+00  0.74505805969E-08  0.10566000000E+00  0.10566000000E+00 0. -1.
     999900   -1    0    0    0    0 -0.00000000000E+00 -0.00000000000E+00 -0.74505805969E-08  0.93827000000E+00  0.93827000000E+00 0.  1.
     999902    2    1    2    0    0  0.27996566108E-02 -0.73297756943E-03  0.24233640670E-01  0.10195241672E+01  0.10192320064E+01 0.  0.
     999903    2    3    3    0    0  0.11615401685E+00  0.21908795587E-02  0.43861040521E-01  0.13203163500E+00  0.44855391895E-01 0.  0.
         14    1    1    2    0    0 -0.27996566108E-02  0.73297756943E-03 -0.24233640670E-01  0.24405832773E-01  0.00000000000E+00 0.  1.
     999901    1    3    3    0    0 -0.11335436024E+00 -0.29238571281E-02 -0.19627399851E-01  0.88749253222E+00  0.88000000000E+00 0. -1.
        -11    1    4    4    0    0  0.11649194834E+00  0.13139850010E-04  0.33197775987E-01  0.12113103505E+00  0.51100000000E-03 0. -1.
         11    1    4    4    0    0 -0.33793148345E-03  0.21777397087E-02  0.10663264534E-01  0.10900599959E-01  0.51100000000E-03 0.  1.
</event>
<event>
 8    1  0.2183582E+004  0.1043930E+01  0.7957747E-01            NaN
         13   -1    0    0    0    0  0.00000000000E+00  0.00000000000E+00  0.74505805969E-08  0.10566000000E+00  0.10566000000E+00 0.  1.
     999900   -1    0    0    0    0 -0.00000000000E+00 -0.00000000000E+00 -0.74505805969E-08  0.93827000000E+00  0.93827000000E+00 0. -1.
     999902    2    1    2    0    0 -0.18057692243E-02 -0.14383090411E-01  0.13143251337E-01  0.10243627021E+01  0.10241757985E+01 0.  0.
     999903    2    3    3    0    0 -0.72572553493E-02  0.24212227348E-01  0.12589683408E+00  0.13631276673E+00  0.45741204976E-01 0.  0.
         14    1    1    2    0    0  0.18057692243E-02  0.14383090411E-01 -0.13143251337E-01  0.19567297922E-01  0.00000000000E+00 0. -1.
     999901    1    3    3    0    0  0.54514861250E-02 -0.38595317759E-01 -0.11275358275E+00  0.88804993535E+00  0.88000000000E+00 0. -1.
        -11    1    4    4    0    0 -0.15960246496E-01  0.86986961489E-02  0.13840111529E-01  0.22851839992E-01  0.51100000000E-03 0. -1.
         11    1    4    4    0    0  0.87029911469E-02  0.15513531199E-01  0.11205672255E+00  0.11346092674E+00  0.51100000000E-03 0.  1.
</event>
<event>
 8    1  0.2183582E+004  0.1043930E+01  0.7957747E-01            NaN
         13   -1    0    0    0    0  0.00000000000E+00  0.00000000000E+00  0.74505805969E-08  0.10566000000E+00  0.10566000000E+00 0.  1.
     999900   -1    0    0    0    0 -0.00000000000E+00 -0.00000000000E+00 -0.74505805969E-08  0.93827000000E+00  0.93827000000E+00 0. -1.
     999902    2    1    2    0    0 -0.11611831286E-01  0.32543812971E-02  0.46136446954E-02  0.10310183254E+01  0.10309374743E+01 0.  0.
     999903    2    3    3    0    0  0.94631722030E-01 -0.56984208204E-01  0.70930824084E-01  0.14011184964E+00  0.48967191101E-01 0.  0.
         14    1    1    2    0    0  0.11611831286E-01 -0.32543812971E-02 -0.46136446954E-02  0.12911674594E-01  0.00000000000E+00 0. -1.
     999901    1    3    3    0    0 -0.10624355332E+00  0.60238589501E-01 -0.66317179389E-01  0.89090647577E+00  0.88000000000E+00 0.  1.
        -11    1    4    4    0    0  0.37889917586E-01 -0.76130290549E-02  0.47693528248E-01  0.61388417668E-01  0.51100000000E-03 0.  1.
         11    1    4    4    0    0  0.56741804445E-01 -0.49371179149E-01  0.23237295836E-01  0.78723431969E-01  0.51100000000E-03 0. -1.
</event>
<event>
 7    1  0.2183582E+004  0.1043930E+01  0.7957747E-01            NaN
         13   -1    0    0    0    0  0.00000000000E+00  0.00000000000E+00  0.74505805969E-08  0.10566000000E+00  0.10566000000E+00 0. -1.
     999900   -1    0    0    0    0 -0.00000000000E+00 -0.00000000000E+00 -0.74505805969E-08  0.93827000000E+00  0.93827000000E+00 0.  1.
     999902    2    1    2    0    0 -0.64883199147E-02  0.10566501230E-01 -0.22159198062E-02  0.10313339870E+01  0.10312570645E+01 0.  0.
         14    1    1    2    0    0  0.64883199147E-02 -0.10566501230E-01  0.22159198062E-02  0.12596013026E-01  0.00000000000E+00 0.  1.
     999901    1    3    3    0    0 -0.14146055762E+00 -0.22605834637E-01 -0.82634195208E-02  0.89162234002E+00  0.88000000000E+00 0. -1.
        -11    1    3    3    0    0  0.46467172187E-02  0.30789566884E-02 -0.13268943242E-02  0.57527145546E-02  0.51100000000E-03 0.  1.
         11    1    3    3    0    0  0.13032552049E+00  0.30093379179E-01  0.73743940388E-02  0.13395893240E+00  0.51100000000E-03 0. -1.
</event>
<event>
 8    1  0.2183582E+004  0.1043930E+01  0.7957747E-01            NaN
         13   -1    0    0    0    0  0.00000000000E+00  0.00000000000E+00  0.74505805969E-08  0.10566000000E+00  0.10566000000E+00 0. -1.
     999900   -1    0    0    0    0 -0.00000000000E+00 -0.00000000000E+00 -0.74505805969E-08  0.93827000000E+00  0.93827000000E+00 0. -1.
     999902    2    1    2    0    0  0.87881805160E-02  0.95252174834E-02  0.37291895362E-02  0.10304441282E+01  0.10303558766E+01 0.  0.
     999903    2    3    3    0    0 -0.68480203166E-01  0.10929040363E+00  0.34005827444E-01  0.14092730971E+00  0.45499228257E-01 0.  0.
         14    1    1    2    0    0 -0.87881805160E-02 -0.95252174834E-02 -0.37291895362E-02  0.13485871847E-01  0.00000000000E+00 0.  1.
     999901    1    3    3    0    0  0.77268383682E-01 -0.99765186145E-01 -0.30276637908E-01  0.88951681844E+00  0.88000000000E+00 0.  1.
        -11    1    4    4    0    0 -0.27837026485E-01  0.14032627081E-01 -0.20951433942E-02  0.31248446572E-01  0.51100000000E-03 0.  1.
         11    1    4    4    0    0 -0.40643176681E-01  0.95257776548E-01  0.36100970839E-01  0.10967886314E+00  0.51100000000E-03 0. -1.
</event>
<event>
 8    1  0.2183582E+004  0.1043930E+01  0.7957747E-01            NaN
         13   -1    0    0    0    0  0.00000000000E+00  0.00000000000E+00  0.74505805969E-08  0.10566000000E+00  0.10566000000E+00 0. -1.
     999900   -1    0    0    0    0 -0.00000000000E+00 -0.00000000000E+00 -0.74505805969E-08  0.93827000000E+00  0.93827000000E+00 0.  1.
     999902    2    1    2    0    0 -0.10068471980E-01  0.39768711992E-02  0.69258348414E-02  0.10310786646E+01  0.10309985722E+01 0.  0.
     999903    2    3    3    0    0 -0.44177757526E-01 -0.97597115825E-01 -0.79101091587E-01  0.14041523197E+00  0.44526210288E-01 0.  0.
         14    1    1    2    0    0  0.10068471980E-01 -0.39768711992E-02 -0.69258348414E-02  0.12851335370E-01  0.00000000000E+00 0.  1.
     999901    1    3    3    0    0  0.34109285546E-01  0.10157398702E+00  0.86026926428E-01  0.89066343266E+00  0.88000000000E+00 0. -1.
        -11    1    4    4    0    0 -0.52943842390E-01 -0.75300713007E-01 -0.62724780824E-01  0.11139078542E+00  0.51100000000E-03 0.  1.
         11    1    4    4    0    0  0.87660848641E-02 -0.22296402818E-01 -0.16376310763E-01  0.29024446552E-01  0.51100000000E-03 0. -1.
</event>
<event>
 8    1  0.2183582E+004  0.1043930E+01  0.7957747E-01            NaN
         13   -1    0    0    0    0  0.00000000000E+00  0.00000000000E+00  0.74505805969E-08  0.10566000000E+00  0.10566000000E+00 0.  1.
     999900   -1    0    0    0    0 -0.00000000000E+00 -0.00000000000E+00 -0.74505805969E-08  0.93827000000E+00  0.93827000000E+00 0. -1.
     999902    2    1    2    0    0 -0.16659676568E-02  0.12024479265E-01  0.69003179330E-02  0.10299665499E+01  0.10298718930E+01 0.  0.
     999903    2    3    3    0    0 -0.10372505039E+00  0.83668263179E-01 -0.12526419675E-01  0.14096357679E+00  0.44210343257E-01 0.  0.
         14    1    1    2    0    0  0.16659676568E-02 -0.12024479265E-01 -0.69003179330E-02  0.13963450054E-01  0.00000000000E+00 0. -1.
     999901    1    3    3    0    0  0.10205908273E+00 -0.71643783914E-01  0.19426737608E-01  0.88900297315E+00  0.88000000000E+00 0.  1.
        -11    1    4    4    0    0 -0.42084307406E-01  0.15306357382E-01  0.10665878141E-01  0.46036893724E-01  0.51100000000E-03 0.  1.
         11    1    4    4    0    0 -0.61640742982E-01  0.68361905796E-01 -0.23192297816E-01  0.94926683069E-01  0.51100000000E-03 0. -1.
</event>
<event>
 8    1  0.2183582E+004  0.1043930E+01  0.7957747E-01            NaN
         13   -1    0    0    0    0  0.00000000000E+00  0.00000000000E+00  0.74505805969E-08  0.10566000000E+00  0.10566000000E+00 0.  1.
     999900   -1    0    0    0    0 -0.00000000000E+00 -0.00000000000E+00 -0.74505805969E-08  0.93827000000E+00  0.93827000000E+00 0. -1.
     999902    2    1    2    0    0 -0.20929603569E-01  0.47553787210E-03 -0.33831509658E-02  0.10227233937E+01  0.10225035060E+01 0.  0.
     999903    2    3    3    0    0 -0.41818076059E-01 -0.87962464725E-01 -0.81145554166E-01  0.13463297038E+00  0.45335296023E-01 0.  0.
         14    1    1    2    0    0  0.20929603569E-01 -0.47553787210E-03  0.33831509658E-02  0.21206606336E-01  0.00000000000E+00 0. -1.
     999901    1    3    3    0    0  0.20888472490E-01  0.88438002597E-01  0.77762403200E-01  0.88809042329E+00  0.88000000000E+00 0.  1.
        -11    1    4    4    0    0 -0.30080701217E-01 -0.90523267902E-01 -0.71342322307E-01  0.11911884272E+00  0.51100000000E-03 0.  1.
         11    1    4    4    0    0 -0.11737374842E-01  0.25608031771E-02 -0.98032318587E-02  0.15514127657E-01  0.51100000000E-03 0. -1.
</event>
<event>
 8    1  0.2183582E+004  0.1043930E+01  0.7957747E-01            NaN
         13   -1    0    0    0    0  0.00000000000E+00  0.00000000000E+00  0.74505805969E-08  0.10566000000E+00  0.10566000000E+00 0.  1.
     999900   -1    0    0    0    0 -0.00000000000E+00 -0.00000000000E+00 -0.74505805969E-08  0.93827000000E+00  0.93827000000E+00 0.  1.
     999902    2    1    2    0    0  0.97843721250E-03  0.13430345179E-01 -0.35036618854E-02  0.10300157211E+01  0.10299217342E+01 0.  0.
     999903    2    3    3    0    0 -0.76785195505E-01 -0.57579589805E-01 -0.90680986954E-01  0.13946000725E+00  0.44885151410E-01 0.  0.
         14    1    1    2    0    0 -0.97843721250E-03 -0.13430345179E-01  0.35036618854E-02  0.13914278911E-01  0.00000000000E+00 0.  1.
     999901    1    3    3    0    0  0.77763632717E-01  0.71009934984E-01  0.87177325069E-01  0.89055571384E+00  0.88000000000E+00 0. -1.
        -11    1    4    4    0    0 -0.37107343109E-01 -0.29054570933E-01 -0.74166360539E-01  0.87875099780E-01  0.51100000000E-03 0.  1.
         11    1    4    4    0    0 -0.39677852395E-01 -0.28525018872E-01 -0.16514626415E-01  0.51584907473E-01  0.51100000000E-03 0. -1.
</event>
<event>
 8    1  0.2183582E+004  0.1043930E+01  0.7957747E-01            NaN
         13   -1    0    0    0    0  0.00000000000E+00  0.00000000000E+00  0.74505805969E-08  0.10566000000E+00  0.10566000000E+00 0. -1.
     999900   -1    0    0    0    0 -0.00000000000E+00 -0.00000000000E+00 -0.74505805969E-08  0.93827000000E+00  0.93827000000E+00 0.  1.
     999902    2    1    2    0    0 -0.73823750215E-02 -0.31404115007E-02 -0.10164669017E-01  0.10309807861E+01  0.10308994612E+01 0.  0.
     999903    2    3    3    0    0 -0.11454062812E+00  0.10107965132E-01 -0.71128100738E-01  0.14228795347E+00  0.44327514462E-01 0.  0.
         14    1    1    2    0    0  0.73823750215E-02  0.31404115007E-02  0.10164669017E-01  0.12949213937E-01  0.00000000000E+00 0. -1.
     999901    1    3    3    0    0  0.10715825310E+00 -0.13248376633E-01  0.60963431721E-01  0.88869283259E+00  0.88000000000E+00 0. -1.
        -11    1    4    4    0    0 -0.85837827223E-01  0.26791369691E-01 -0.49276332431E-01  0.10253939795E+00  0.51100000000E-03 0. -1.
         11    1    4    4    0    0 -0.28702800902E-01 -0.16683404559E-01 -0.21851768307E-01  0.39748555526E-01  0.51100000000E-03 0.  1.
</event>
<event>
 8    1  0.2183582E+004  0.1043930E+01  0.7957747E-01            NaN
         13   -1    0    0    0    0  0.00000000000E+00  0.00000000000E+00  0.74505805969E-08  0.10566000000E+00  0.10566000000E+00 0.  1.
     999900   -1    0    0    0    0 -0.00000000000E+00 -0.00000000000E+00 -0.74505805969E-08  0.93827000000E+00  0.93827000000E+00 0. -1.
     999902    2    1    2    0    0 -0.11287601791E-01 -0.12781613114E-02 -0.80580811154E-02  0.10300024617E+01  0.10299082944E+01 0.  0.
     999903    2    3    3    0    0 -0.29009623378E-01  0.35285881891E-01 -0.12614800252E+00  0.14118514146E+00  0.43969010908E-01 0.  0.
         14    1    1    2    0    0  0.11287601791E-01  0.12781613114E-02  0.80580811154E-02  0.13927538253E-01  0.00000000000E+00 0.  1.
     999901    1    3    3    0    0  0.17722021588E-01 -0.36564043202E-01  0.11808992140E+00  0.88881732029E+00  0.88000000000E+00 0.  1.
        -11    1    4    4    0    0 -0.37391438476E-01  0.37806833676E-01 -0.95490302760E-01  0.10929837778E+00  0.51100000000E-03 0.  1.
         11    1    4    4    0    0  0.83818150981E-02 -0.25209517850E-02 -0.30657699760E-01  0.31886763677E-01  0.51100000000E-03 0. -1.
</event>
<event>
 8    1  0.2183582E+004  0.1043930E+01  0.7957747E-01            NaN
         13   -1    0    0    0    0  0.00000000000E+00  0.00000000000E+00  0.74505805969E-08  0.10566000000E+00  0.10566000000E+00 0.  1.
     999900   -1    0    0    0    0 -0.00000000000E+00 -0.00000000000E+00 -0.74505805969E-08  0.93827000000E+00  0.93827000000E+00 0.  1.
     999902    2    1    2    0    0 -0.11109062515E-01  0.10375369615E-02  0.75321988994E-02  0.10304681363E+01  0.10303802008E+01 0.  0.
     999903    2    3    3    0    0 -0.31364396869E-01  0.15057660202E-01  0.12953171353E+00  0.14171016929E+00  0.45747663874E-01 0.  0.
         14    1    1    2    0    0  0.11109062515E-01 -0.10375369615E-02 -0.75321988994E-02  0.13461863659E-01  0.00000000000E+00 0. -1.
     999901    1    3    3    0    0  0.20255334354E-01 -0.14020123240E-01 -0.12199951463E+00  0.88875796705E+00  0.88000000000E+00 0.  1.
        -11    1    4    4    0    0  0.14816762221E-02  0.18268165000E-01  0.80789005890E-01  0.82843501922E-01  0.51100000000E-03 0.  1.
         11    1    4    4    0    0 -0.32846073091E-01 -0.32105047984E-02  0.48742707635E-01  0.58866667369E-01  0.51100000000E-03 0. -1.
</event>
<event>
 8    1  0.2183582E+004  0.1043930E+01  0.7957747E-01            NaN
         13   -1    0    0    0    0  0.00000000000E+00  0.00000000000E+00  0.74505805969E-08  0.10566000000E+00  0.10566000000E+00 0. -1.
     999900   -1    0    0    0    0 -0.00000000000E+00 -0.00000000000E+00 -0.74505805969E-08  0.93827000000E+00  0.93827000000E+00 0.  1.
     999902    2    1    2    0    0  0.49682653407E-02  0.15900961874E-01 -0.61540090768E-02  0.10261706060E+01  0.10260169182E+01 0.  0.
     999903    2    3    3    0    0  0.63516060381E-01  0.78009303158E-01 -0.84168108600E-01  0.13860568434E+00  0.44805400578E-01 0.  0.
         14    1    1    2    0    0 -0.49682653407E-02 -0.15900961874E-01  0.61540090768E-02  0.17759394041E-01  0.00000000000E+00 0. -1.
     999901    1    3    3    0    0 -0.58547795040E-01 -0.62108341285E-01  0.78014099523E-01  0.88756492162E+00  0.88000000000E+00 0. -1.
        -11    1    4    4    0    0  0.41373856091E-01  0.24851074358E-01 -0.19617473696E-01  0.52100655080E-01  0.51100000000E-03 0. -1.
         11    1    4    4    0    0  0.22142204290E-01  0.53158228800E-01 -0.64550634903E-01  0.86505029261E-01  0.51100000000E-03 0.  1.
</event>
<event>
 8    1  0.2183582E+004  0.1043930E+01  0.7957747E-01            NaN
         13   -1    0    0    0    0  0.00000000000E+00  0.00000000000E+00  0.74505805969E-08  0.10566000000E+00  0.10566000000E+00 0.  1.
     999900   -1    0    0    0    0 -0.00000000000E+00 -0.00000000000E+00 -0.74505805969E-08  0.93827000000E+00  0.93827000000E+00 0. -1.
     999902    2    1    2    0    0 -0.84030738031E-02 -0.81007763886E-02 -0.71498078575E-02  0.10302422690E+01  0.10301513378E+01 0.  0.
     999903    2    3    3    0    0  0.76264316268E-01  0.18410168585E-02 -0.10798114385E+00  0.14039151494E+00  0.47225149657E-01 0.  0.
         14    1    1    2    0    0  0.84030738031E-02  0.81007763886E-02  0.71498078575E-02  0.13687730997E-01  0.00000000000E+00 0. -1.
     999901    1    3    3    0    0 -0.84667390071E-01 -0.99417932471E-02  0.10083133599E+00  0.88985075407E+00  0.88000000000E+00 0. -1.
        -11    1    4    4    0    0  0.53576171177E-01 -0.35744865379E-02 -0.10354769088E+00  0.11664291012E+00  0.51100000000E-03 0.  1.
         11    1    4    4    0    0  0.22688145092E-01  0.54155033964E-02 -0.44334529662E-02  0.23748604821E-01  0.51100000000E-03 0. -1.
</event>
<event>
 8    1  0.2183582E+004  0.1043930E+01  0.7957747E-01            NaN
         13   -1    0    0    0    0  0.00000000000E+00  0.00000000000E+00  0.74505805969E-08  0.10566000000E+00  0.10566000000E+00 0.  1.
     999900   -1    0    0    0    0 -0.00000000000E+00 -0.00000000000E+00 -0.74505805969E-08  0.93827000000E+00  0.93827000000E+00 0. -1.
     999902    2    1    2    0    0 -0.27041366269E-02  0.10666948027E-01  0.10468061326E-01  0.10287419638E+01  0.10286298419E+01 0.  0.
     999903    2    3    3    0    0 -0.17881120705E-01  0.75481343207E-01 -0.10572320519E+00  0.13861182891E+00  0.44929671128E-01 0.  0.
         14    1    1    2    0    0  0.27041366269E-02 -0.10666948027E-01 -0.10468061326E-01  0.15188036181E-01  0.00000000000E+00 0. -1.
     999901    1    3    3    0    0  0.15176984078E-01 -0.64814395179E-01  0.11619126651E+00  0.89013013491E+00  0.88000000000E+00 0.  1.
        -11    1    4    4    0    0  0.13267918838E-01  0.35194552754E-01 -0.55812878893E-01  0.67305518238E-01  0.51100000000E-03 0.  1.
         11    1    4    4    0    0 -0.31149039542E-01  0.40286790453E-01 -0.49910326293E-01  0.71306310668E-01  0.51100000000E-03 0. -1.
</event>
<event>
 8    1  0.2183582E+004  0.1043930E+01  0.7957747E-01            NaN
         13   -1    0    0    0    0  0.00000000000E+00  0.00000000000E+00  0.74505805969E-08  0.10566000000E+00  0.10566000000E+00 0. -1.
     999900   -1    0    0    0    0 -0.00000000000E+00 -0.00000000000E+00 -0.74505805969E-08  0.93827000000E+00  0.93827000000E+00 0. -1.
     999902    2    1    2    0    0 -0.16334014097E-01  0.20376812508E-02 -0.22378016476E-02  0.10273179587E+01  0.10271836390E+01 0.  0.
     999903    2    3    3    0    0 -0.76570177251E-01  0.68977634733E-01  0.81768991580E-01  0.13874241655E+00  0.44072486067E-01 0.  0.
         14    1    1    2    0    0  0.16334014097E-01 -0.20376812508E-02  0.22378016476E-02  0.16612041344E-01  0.00000000000E+00 0.  1.
     999901    1    3    3    0    0  0.60236163154E-01 -0.66939953482E-01 -0.84006793228E-01  0.88857554211E+00  0.88000000000E+00 0. -1.
        -11    1    4    4    0    0 -0.36461111818E-01  0.60683922355E-01  0.56850200226E-01  0.90797342990E-01  0.51100000000E-03 0. -1.
         11    1    4    4    0    0 -0.40109065433E-01  0.82937123773E-02  0.24918791354E-01  0.47945073558E-01  0.51100000000E-03 0.  1.
</event>
<event>
 8    1  0.2183582E+004  0.1043930E+01  0.7957747E-01            NaN
         13   -1    0    0    0    0  0.00000000000E+00  0.00000000000E+00  0.74505805969E-08  0.10566000000E+00  0.10566000000E+00 0.  1.
     999900   -1    0    0    0    0 -0.00000000000E+00 -0.00000000000E+00 -0.74505805969E-08  0.93827000000E+00  0.93827000000E+00 0. -1.
     999902    2    1    2    0    0 -0.44989595779E-02 -0.14847517761E-01  0.55322974427E-02  0.10274589425E+01  0.10273269113E+01 0.  0.
     999903    2    3    3    0    0  0.71911263130E-02  0.12454972263E+00  0.36593505848E-01  0.13586876341E+00  0.39457451717E-01 0.  0.
         14    1    1    2    0    0  0.44989595779E-02  0.14847517761E-01 -0.55322974427E-02  0.16471057524E-01  0.00000000000E+00 0.  1.
     999901    1    3    3    0    0 -0.11690085891E-01 -0.13939724039E+00 -0.31061208406E-01  0.89159017906E+00  0.88000000000E+00 0. -1.
        -11    1    4    4    0    0 -0.12788344957E-01  0.18864195134E-01  0.19988369774E-02  0.22883533273E-01  0.51100000000E-03 0. -1.
         11    1    4    4    0    0  0.19979471270E-01  0.10568552750E+00  0.34594668871E-01  0.11298523014E+00  0.51100000000E-03 0.  1.
</event>
<event>
 8    1  0.2183582E+004  0.1043930E+01  0.7957747E-01            NaN
         13   -1    0    0    0    0  0.00000000000E+00  0.00000000000E+00  0.74505805969E-08  0.10566000000E+00  0.10566000000E+00 0. -1.
     999900   -1    0    0    0    0 -0.00000000000E+00 -0.00000000000E+00 -0.74505805969E-08  0.93827000000E+00  0.93827000000E+00 0. -1.
     999902    2    1    2    0    0  0.10937064642E-01  0.58726467837E-02  0.50954489089E-02  0.10305109478E+01  0.10304235743E+01 0.  0.
     999903    2    3    3    0    0 -0.45200714415E-01 -0.17069311170E-01  0.12406673619E+00  0.14043682115E+00  0.44670792900E-01 0.  0.
         14    1    1    2    0    0 -0.10937064642E-01 -0.58726467837E-02 -0.50954489089E-02  0.13419052232E-01  0.00000000000E+00 0.  1.
     999901    1    3    3    0    0  0.56137779058E-01  0.22941957954E-01 -0.11897128728E+00  0.89007412662E+00  0.88000000000E+00 0. -1.
        -11    1    4    4    0    0 -0.33742714491E-02 -0.14482296095E-01  0.72383367665E-01  0.73896790482E-01  0.51100000000E-03 0.  1.
         11    1    4    4    0    0 -0.41826442966E-01 -0.25870150750E-02  0.51683368528E-01  0.66540030670E-01  0.51100000000E-03 0. -1.
</event>
<event>
 8    1  0.2183582E+004  0.1043930E+01  0.7957747E-01            NaN
         13   -1    0    0    0    0  0.00000000000E+00  0.00000000000E+00  0.74505805969E-08  0.10566000000E+00  0.10566000000E+00 0.  1.
     999900   -1    0    0    0    0 -0.00000000000E+00 -0.00000000000E+00 -0.74505805969E-08  0.93827000000E+00  0.93827000000E+00 0. -1.
     999902    2    1    2    0    0 -0.52482509041E-02 -0.21815909015E-01  0.69088911084E-02  0.10204521210E+01  0.10201820036E+01 0.  0.
     999903    2    3    3    0    0  0.74385155350E-01  0.93847992831E-01  0.17109113372E-01  0.12925985104E+00  0.45549865386E-01 0.  0.
         14    1    1    2    0    0  0.52482509041E-02  0.21815909015E-01 -0.69088911084E-02  0.23477878952E-01  0.00000000000E+00 0. -1.
     999901    1    3    3    0    0 -0.79633406254E-01 -0.11566390185E+00 -0.10200222264E-01  0.89119227000E+00  0.88000000000E+00 0. -1.
        -11    1    4    4    0    0  0.10497676469E-01  0.35241931185E-01  0.21230444012E-01  0.42463958822E-01  0.51100000000E-03 0. -1.
         11    1    4    4    0    0  0.63887478880E-01  0.58606061646E-01 -0.41213306398E-02  0.86795892222E-01  0.51100000000E-03 0.  1.
</event>
<event>
 8    1  0.2183582E+004  0.1043930E+01  0.7957747E-01            NaN
         13   -1    0    0    0    0  0.00000000000E+00  0.00000000000E+00  0.74505805969E-08  0.10566000000E+00  0.10566000000E+00 0.  1.
     999900   -1    0    0    0    0 -0.00000000000E+00 -0.00000000000E+00 -0.74505805969E-08  0.93827000000E+00  0.93827000000E+00 0.  1.
     999902    2    1    2    0    0  0.92261431606E-02  0.73949876687E-02 -0.85003253235E-02  0.10293676138E+01  0.10292646022E+01 0.  0.
     999903    2    3    3    0    0 -0.62469937349E-02  0.12563249329E+00  0.42606251104E-01  0.13985572080E+00  0.43838130734E-01 0.  0.
         14    1    1    2    0    0 -0.92261431606E-02 -0.73949876687E-02  0.85003253235E-02  0.14562386166E-01  0.00000000000E+00 0.  1.
     999901    1    3    3    0    0  0.15473136896E-01 -0.11823750562E+00 -0.51106576428E-01  0.88951189304E+00  0.88000000000E+00 0.  1.
        -11    1    4    4    0    0  0.15344131067E-02  0.38132280543E-01  0.34821363338E-01  0.51664433693E-01  0.51100000000E-03 0. -1.
         11    1    4    4    0    0 -0.77814068416E-02  0.87500212744E-01  0.77848877659E-02  0.88191287104E-01  0.51100000000E-03 0.  1.
</event>
<event>
 8    1  0.2183582E+004  0.1043930E+01  0.7957747E-01            NaN
         13   -1    0    0    0    0  0.00000000000E+00  0.00000000000E+00  0.74505805969E-08  0.10566000000E+00  0.10566000000E+00 0.  1.
     999900   -1    0    0    0    0 -0.00000000000E+00 -0.00000000000E+00 -0.74505805969E-08  0.93827000000E+00  0.93827000000E+00 0. -1.
     999902    2    1    2    0    0 -0.11380521148E-01  0.70638413417E-02 -0.29692227222E-02  0.10302102916E+01  0.10301189322E+01 0.  0.
     999903    2    3    3    0    0  0.26359420233E-02 -0.12913739455E+00  0.26557336021E-01  0.13913282267E+00  0.44376067696E-01 0.  0.
         14    1    1    2    0    0  0.11380521148E-01 -0.70638413417E-02  0.29692227222E-02  0.13719708440E-01  0.00000000000E+00 0.  1.
     999901    1    3    3    0    0 -0.14016463171E-01  0.13620123590E+00 -0.29526558744E-01  0.89107746889E+00  0.88000000000E+00 0.  1.
        -11    1    4    4    0    0  0.30998280438E-02 -0.11284035055E+00  0.62104945979E-02  0.11305478765E+00  0.51100000000E-03 0.  1.
         11    1    4    4    0    0 -0.46388602052E-03 -0.16297044005E-01  0.20346841423E-01  0.26078035019E-01  0.51100000000E-03 0. -1.
</event>
<event>
 8    1  0.2183582E+004  0.1043930E+01  0.7957747E-01            NaN
         13   -1    0    0    0    0  0.00000000000E+00  0.00000000000E+00  0.74505805969E-08  0.10566000000E+00  0.10566000000E+00 0.  1.
     999900   -1    0    0    0    0 -0.00000000000E+00 -0.00000000000E+00 -0.74505805969E-08  0.93827000000E+00  0.93827000000E+00 0.  1.
     999902    2    1    2    0    0  0.54778624444E-02 -0.41145804024E-02  0.12485917586E-01  0.10296879887E+01  0.10295894906E+01 0.  0.
     999903    2    3    3    0    0 -0.12159708383E+00 -0.44878423765E-01  0.19285917636E-02  0.13956373328E+00  0.51714528575E-01 0.  0.
         14    1    1    2    0    0 -0.54778624444E-02  0.41145804024E-02 -0.12485917586E-01  0.14242011333E-01  0.00000000000E+00 0. -1.
     999901    1    3    3    0    0  0.12707494628E+00  0.40763843362E-01  0.10557325822E-01  0.89012425539E+00  0.88000000000E+00 0.  1.
        -11    1    4    4    0    0 -0.11705933884E+00 -0.27109781854E-01  0.74941526042E-02  0.12039207833E+00  0.51100000000E-03 0. -1.
         11    1    4    4    0    0 -0.45377449924E-02 -0.17768641910E-01 -0.55655608407E-02  0.19171654948E-01  0.51100000000E-03 0.  1.
</event>
<event>
 8    1  0.2183582E+004  0.1043930E+01  0.7957747E-01            NaN
         13   -1    0    0    0    0  0.00000000000E+00  0.00000000000E+00  0.74505805969E-08  0.10566000000E+00  0.10566000000E+00 0. -1.
     999900   -1    0    0    0    0 -0.00000000000E+00 -0.00000000000E+00 -0.74505805969E-08  0.93827000000E+00  0.93827000000E+00 0. -1.
     999902    2    1    2    0    0  0.72362821553E-02  0.40524103653E-02  0.11158655178E-01  0.10300267128E+01  0.10299328753E+01 0.  0.
     999903    2    3    3    0    0  0.23130403445E-01  0.45581553760E-01 -0.12105146539E+00  0.13904028821E+00  0.45453832250E-01 0.  0.
         14    1    1    2    0    0 -0.72362821553E-02 -0.40524103653E-02 -0.11158655178E-01  0.13903287186E-01  0.00000000000E+00 0.  1.
     999901    1    3    3    0    0 -0.15894121290E-01 -0.41529143394E-01  0.13221012057E+00  0.89098642460E+00  0.88000000000E+00 0.  1.
        -11    1    4    4    0    0  0.32789492971E-01  0.25506970013E-01 -0.10041074760E+00  0.10866616641E+00  0.51100000000E-03 0.  1.
         11    1    4    4    0    0 -0.96590895261E-02  0.20074583747E-01 -0.20640717791E-01  0.30374121798E-01  0.51100000000E-03 0. -1.
</event>
<event>
 8    1  0.2183582E+004  0.1043930E+01  0.7957747E-01            NaN
         13   -1    0    0    0    0  0.00000000000E+00  0.00000000000E+00  0.74505805969E-08  0.10566000000E+00  0.10566000000E+00 0.  1.
     999900   -1    0    0    0    0 -0.00000000000E+00 -0.00000000000E+00 -0.74505805969E-08  0.93827000000E+00  0.93827000000E+00 0.  1.
     999902    2    1    2    0    0  0.54441717809E-02 -0.34135243657E-02  0.14573715985E-01  0.10280025284E+01  0.10278791339E+01 0.  0.
     999903    2    3    3    0    0  0.75614643643E-01 -0.98359538978E-01 -0.41316641714E-01  0.13836081796E+00  0.45215902326E-01 0.  0.
         14    1    1    2    0    0 -0.54441717809E-02  0.34135243657E-02 -0.14573715985E-01  0.15927471632E-01  0.00000000000E+00 0. -1.
     999901    1    3    3    0    0 -0.70170471862E-01  0.94946014612E-01  0.55890357699E-01  0.88964171041E+00  0.88000000000E+00 0. -1.
        -11    1    4    4    0    0  0.12624342902E-01 -0.52372466495E-01 -0.13336884723E-01  0.55501197245E-01  0.51100000000E-03 0.  1.
         11    1    4    4    0    0  0.62990300741E-01 -0.45987072482E-01 -0.27979756991E-01  0.82859620716E-01  0.51100000000E-03 0. -1.
</event>
<event>
 8    1  0.2183582E+004  0.1043930E+01  0.7957747E-01            NaN
         13   -1    0    0    0    0  0.00000000000E+00  0.00000000000E+00  0.74505805969E-08  0.10566000000E+00  0.10566000000E+00 0.  1.
     999900   -1    0    0    0    0 -0.00000000000E+00 -0.00000000000E+00 -0.74505805969E-08  0.93827000000E+00  0.93827000000E+00 0. -1.
     999902    2    1    2    0    0 -0.12696616853E-01 -0.28716237995E-03 -0.27588138921E-02  0.10309339392E+01  0.10308520211E+01 0.  0.
     999903    2    3    3    0    0  0.14048674169E-01 -0.10416768494E+00 -0.82259809525E-01  0.14086266013E+00  0.45026002738E-01 0.  0.
         14    1    1    2    0    0  0.12696616853E-01  0.28716237995E-03  0.27588138921E-02  0.12996060781E-01  0.00000000000E+00 0.  1.
     999901    1    3    3    0    0 -0.26745291021E-01  0.10388052256E+00  0.79500995633E-01  0.89007127909E+00  0.88000000000E+00 0.  1.
        -11    1    4    4    0    0  0.26442428240E-01 -0.95736478883E-01 -0.72503230821E-01  0.12297013865E+00  0.51100000000E-03 0.  1.
         11    1    4    4    0    0 -0.12393754072E-01 -0.84312060589E-02 -0.97565787037E-02  0.17892521471E-01  0.51100000000E-03 0. -1.
</event>
<event>
 8    1  0.2183582E+004  0.1043930E+01  0.7957747E-01            NaN
         13   -1    0    0    0    0  0.00000000000E+00  0.00000000000E+00  0.74505805969E-08  0.10566000000E+00  0.10566000000E+00 0.  1.
     999900   -1    0    0    0    0 -0.00000000000E+00 -0.00000000000E+00 -0.74505805969E-08  0.93827000000E+00  0.93827000000E+00 0.  1.
     999902    2    1    2    0    0  0.89236675742E-03  0.74602360723E-03  0.12188982033E-01  0.10316856481E+01  0.10316129858E+01 0.  0.
     999903    2    3    3    0    0 -0.70526622691E-01 -0.10921158463E+00  0.34597862840E-01  0.14168929668E+00  0.44471001266E-01 0.  0.
         14    1    1    2    0    0 -0.89236675742E-03 -0.74602360723E-03 -0.12188982033E-01  0.12244351867E-01  0.00000000000E+00 0. -1.
     999901    1    3    3    0    0  0.71418989448E-01  0.10995760824E+00 -0.22408880807E-01  0.88999635145E+00  0.88000000000E+00 0.  1.
        -11    1    4    4    0    0 -0.61099043914E-01 -0.82026600810E-01  0.81544076346E-02  0.10260707526E+00  0.51100000000E-03 0. -1.
         11    1    4    4    0    0 -0.94275787771E-02 -0.27184983824E-01  0.26443455206E-01  0.39082221422E-01  0.51100000000E-03 0.  1.
</event>
<event>
 8    1  0.2183582E+004  0.1043930E+01  0.7957747E-01            NaN
         13   -1    0    0    0    0  0.00000000000E+00  0.00000000000E+00  0.74505805969E-08  0.10566000000E+00  0.10566000000E+00 0. -1.
     999900   -1    0    0    0    0 -0.00000000000E+00 -0.00000000000E+00 -0.74505805969E-08  0.93827000000E+00  0.93827000000E+00 0.  1.
     999902    2    1    2    0    0  0.93192578085E-02 -0.84395847122E-02  0.25070606896E-02  0.10311096837E+01  0.10310299799E+01 0.  0.
     999903    2    3    3    0    0 -0.70700304440E-01  0.18361218357E-01  0.11114491719E+00  0.14042253480E+00  0.45051395933E-01 0.  0.
         14    1    1    2    0    0 -0.93192578085E-02  0.84395847122E-02 -0.25070606896E-02  0.12820316280E-01  0.00000000000E+00 0.  1.
     999901    1    3    3    0    0  0.80019562249E-01 -0.26800803069E-01 -0.10863785650E+00  0.89068714892E+00  0.88000000000E+00 0.  1.
        -11    1    4    4    0    0 -0.27654339747E-01  0.29163354537E-01  0.41001038652E-01  0.57416113123E-01  0.51100000000E-03 0. -1.
         11    1    4    4    0    0 -0.43045964693E-01 -0.10802136180E-01  0.70143878536E-01  0.83006421676E-01  0.51100000000E-03 0.  1.
</event>
<event>
 8    1  0.2183582E+004  0.1043930E+01  0.7957747E-01            NaN
         13   -1    0    0    0    0  0.00000000000E+00  0.00000000000E+00  0.74505805969E-08  0.10566000000E+00  0.10566000000E+00 0.  1.
     999900   -1    0    0    0    0 -0.00000000000E+00 -0.00000000000E+00 -0.74505805969E-08  0.93827000000E+00  0.93827000000E+00 0.  1.
     999902    2    1    2    0    0  0.11208185223E-01  0.19998048117E-02 -0.11223381770E-01  0.10279429135E+01  0.10278185864E+01 0.  0.
     999903    2    3    3    0    0 -0.93449644158E-01  0.85893909059E-01  0.25342824801E-01  0.13702845668E+00  0.44988215827E-01 0.  0.
         14    1    1    2    0    0 -0.11208185223E-01 -0.19998048117E-02  0.11223381770E-01  0.15987086465E-01  0.00000000000E+00 0.  1.
     999901    1    3    3    0    0  0.10465782938E+00 -0.83894104248E-01 -0.36566206572E-01  0.89091445686E+00  0.88000000000E+00 0.  1.
        -11    1    4    4    0    0 -0.22536612984E-01  0.21606138912E-01  0.27025715052E-01  0.41296180920E-01  0.51100000000E-03 0.  1.
         11    1    4    4    0    0 -0.70913031173E-01  0.64287770147E-01 -0.16828902512E-02  0.95732275755E-01  0.51100000000E-03 0. -1.
</event>
<event>
 8    1  0.2183582E+004  0.1043930E+01  0.7957747E-01            NaN
         13   -1    0    0    0    0  0.00000000000E+00  0.00000000000E+00  0.74505805969E-08  0.10566000000E+00  0.10566000000E+00 0. -1.
     999900   -1    0    0    0    0 -0.00000000000E+00 -0.00000000000E+00 -0.74505805969E-08  0.93827000000E+00  0.93827000000E+00 0.  1.
     999902    2    1    2    0    0 -0.13742033494E-01 -0.19106750218E-02 -0.22984415271E-02  0.10298666790E+01  0.10297706539E+01 0.  0.
     999903    2    3    3    0    0  0.35901647852E-01 -0.17612918289E-01 -0.12617557787E+00  0.13966636423E+00  0.44578847429E-01 0.  0.
         14    1    1    2    0    0  0.13742033494E-01  0.19106750218E-02  0.22984415271E-02  0.14063320982E-01  0.00000000000E+00 0. -1.
     999901    1    3    3    0    0 -0.49643681346E-01  0.15702243267E-01  0.12387713634E+00  0.89020031479E+00  0.88000000000E+00 0. -1.
        -11    1    4    4    0    0  0.16216779033E-01 -0.21511316811E-01 -0.11173605042E+00  0.11493879570E+00  0.51100000000E-03 0.  1.
         11    1    4    4    0    0  0.19684868819E-01  0.38983985224E-02 -0.14439527450E-01  0.24727568531E-01  0.51100000000E-03 0. -1.
</event>
<event>
 8    1  0.2183582E+004  0.1043930E+01  0.7957747E-01            NaN
         13   -1    0    0    0    0  0.00000000000E+00  0.00000000000E+00  0.74505805969E-08  0.10566000000E+00  0.10566000000E+00 0.  1.
     999900   -1    0    0    0    0 -0.00000000000E+00 -0.00000000000E+00 -0.74505805969E-08  0.93827000000E+00  0.93827000000E+00 0.  1.
     999902    2    1    2    0    0 -0.11336001539E-01 -0.48987559301E-02  0.26786841131E-02  0.10312936204E+01  0.10312162011E+01 0.  0.
     999903    2    3    3    0    0  0.19688764629E-01 -0.10105276672E+00 -0.85152637344E-01  0.14116864551E+00  0.45588438390E-01 0.  0.
         14    1    1    2    0    0  0.11336001539E-01  0.48987559301E-02 -0.26786841131E-02  0.12636379590E-01  0.00000000000E+00 0.  1.
     999901    1    3    3    0    0 -0.31024766168E-01  0.96154010791E-01  0.87831321457E-01  0.89012497490E+00  0.88000000000E+00 0. -1.
        -11    1    4    4    0    0 -0.10392159828E-01 -0.60286179236E-01 -0.54630557803E-01  0.82019384048E-01  0.51100000000E-03 0.  1.
         11    1    4    4    0    0  0.30080924457E-01 -0.40766587485E-01 -0.30522079541E-01  0.59149261465E-01  0.51100000000E-03 0. -1.
</event>
<event>
 8    1  0.2183582E+004  0.1043930E+01  0.7957747E-01            NaN
         13   -1    0    0    0    0  0.00000000000E+00  0.00000000000E+00  0.74505805969E-08  0.10566000000E+00  0.10566000000E+00 0.  1.
     999900   -1    0    0    0    0 -0.00000000000E+00 -0.00000000000E+00 -0.74505805969E-08  0.93827000000E+00  0.93827000000E+00 0. -1.
     999902    2    1    2    0    0  0.12503679004E-01  0.96163379409E-02  0.58555564536E-03  0.10281452346E+01  0.10280240584E+01 0.  0.
     999903    2    3    3    0    0  0.63746558121E-01  0.72425418805E-01  0.90671072686E-01  0.13983998655E+00  0.44999038366E-01 0.  0.
         14    1    1    2    0    0 -0.12503679004E-01 -0.96163379409E-02 -0.58555564536E-03  0.15784765423E-01  0.00000000000E+00 0. -1.
     999901    1    3    3    0    0 -0.51242879117E-01 -0.62809080864E-01 -0.90085517040E-01  0.88830524803E+00  0.88000000000E+00 0. -1.
        -11    1    4    4    0    0  0.60532231833E-02 -0.12062312538E-02  0.24467834469E-01  0.25239503746E-01  0.51100000000E-03 0.  1.
         11    1    4    4    0    0  0.57693334938E-01  0.73631650058E-01  0.66203238216E-01  0.11460048280E+00  0.51100000000E-03 0. -1.
</event>
<event>
 8    1  0.2183582E+004  0.1043930E+01  0.7957747E-01            NaN
         13   -1    0    0    0    0  0.00000000000E+00  0.00000000000E+00  0.74505805969E-08  0.10566000000E+00  0.10566000000E+00 0. -1.
     999900   -1    0    0    0    0 -0.00000000000E+00 -0.00000000000E+00 -0.74505805969E-08  0.93827000000E+00  0.93827000000E+00 0.  1.
     999902    2    1    2    0    0  0.28819469406E-02 -0.51568739085E-03  0.13638805383E-01  0.10299804995E+01  0.10298860329E+01 0.  0.
     999903    2    3    3    0    0  0.97315427390E-01  0.33455451330E-01 -0.84944583424E-01  0.13880688845E+00  0.38238859777E-01 0.  0.
         14    1    1    2    0    0 -0.28819469406E-02  0.51568739085E-03 -0.13638805383E-01  0.13949500490E-01  0.00000000000E+00 0.  1.
     999901    1    3    3    0    0 -0.94433480449E-01 -0.33971138721E-01  0.98583388807E-01  0.89117361106E+00  0.88000000000E+00 0. -1.
        -11    1    4    4    0    0  0.32861049122E-01 -0.60266085596E-02 -0.18646292792E-01  0.38263741532E-01  0.51100000000E-03 0.  1.
         11    1    4    4    0    0  0.64454378268E-01  0.39482059890E-01 -0.66298290632E-01  0.10054314692E+00  0.51100000000E-03 0. -1.
</event>
<event>
 8    1  0.2183582E+004  0.1043930E+01  0.7957747E-01            NaN
         13   -1    0    0    0    0  0.00000000000E+00  0.00000000000E+00  0.74505805969E-08  0.10566000000E+00  0.10566000000E+00 0. -1.
     999900   -1    0    0    0    0 -0.00000000000E+00 -0.00000000000E+00 -0.74505805969E-08  0.93827000000E+00  0.93827000000E+00 0. -1.
     999902    2    1    2    0    0 -0.93511935843E-02  0.75085702266E-02  0.75616155448E-02  0.10297525010E+01  0.10296548994E+01 0.  0.
     999903    2    3    3    0    0 -0.45520845597E-01  0.96800340872E-01 -0.79422006703E-01  0.14023161053E+00  0.43756097491E-01 0.  0.
         14    1    1    2    0    0  0.93511935843E-02 -0.75085702266E-02 -0.75616155448E-02  0.14177499002E-01  0.00000000000E+00 0.  1.
     999901    1    3    3    0    0  0.36169652013E-01 -0.89291770645E-01  0.86983622247E-01  0.88952089046E+00  0.88000000000E+00 0.  1.
        -11    1    4    4    0    0 -0.18537408447E-01  0.65927167610E-02 -0.23754268491E-01  0.30848433003E-01  0.51100000000E-03 0. -1.
         11    1    4    4    0    0 -0.26983437150E-01  0.90207624111E-01 -0.55667738212E-01  0.10938317753E+00  0.51100000000E-03 0.  1.
</event>
<event>
 8    1  0.2183582E+004  0.1043930E+01  0.7957747E-01            NaN
         13   -1    0    0    0    0  0.00000000000E+00  0.00000000000E+00  0.74505805969E-08  0.10566000000E+00  0.10566000000E+00 0. -1.
     999900   -1    0    0    0    0 -0.00000000000E+00 -0.00000000000E+00 -0.74505805969E-08  0.93827000000E+00  0.93827000000E+00 0.  1.
     999902    2    1    2    0    0 -0.72380786323E-02 -0.11193919624E-01 -0.18766369107E-02  0.10304683736E+01  0.10303804412E+01 0.  0.
     999903    2    3    3    0    0  0.11801933089E+00  0.56443229390E-01 -0.13643782457E-01  0.13895131361E+00  0.44798595371E-01 0.  0.
         14    1    1    2    0    0  0.72380786323E-02  0.11193919624E-01  0.18766369107E-02  0.13461626385E-01  0.00000000000E+00 0.  1.
     999901    1    3    3    0    0 -0.12525740952E+00 -0.67637149014E-01  0.11767145547E-01  0.89151706001E+00  0.88000000000E+00 0.  1.
        -11    1    4    4    0    0  0.70100669483E-01  0.27977370006E-01 -0.29440796313E-01  0.81017644393E-01  0.51100000000E-03 0. -1.
         11    1    4    4    0    0  0.47918661404E-01  0.28465859384E-01  0.15797013855E-01  0.57933669217E-01  0.51100000000E-03 0.  1.
</event>
<event>
 8    1  0.2183582E+004  0.1043930E+01  0.7957747E-01            NaN
         13   -1    0    0    0    0  0.00000000000E+00  0.00000000000E+00  0.74505805969E-08  0.10566000000E+00  0.10566000000E+00 0. -1.
     999900   -1    0    0    0    0 -0.00000000000E+00 -0.00000000000E+00 -0.74505805969E-08  0.93827000000E+00  0.93827000000E+00 0. -1.
     999902    2    1    2    0    0  0.10508398291E-01  0.72837792671E-02 -0.69965580969E-02  0.10293549631E+01  0.10292517711E+01 0.  0.
     999903    2    3    3    0    0 -0.13190244261E-01 -0.13005160264E+00 -0.97328897206E-03  0.13836735795E+00  0.45356108306E-01 0.  0.
         14    1    1    2    0    0 -0.10508398291E-01 -0.72837792671E-02  0.69965580969E-02  0.14575036887E-01  0.00000000000E+00 0. -1.
     999901    1    3    3    0    0  0.23698642551E-01  0.13733538191E+00 -0.60232691249E-02  0.89098760516E+00  0.88000000000E+00 0. -1.
        -11    1    4    4    0    0  0.86601217819E-02 -0.72709159790E-01 -0.16513244299E-01  0.75063759465E-01  0.51100000000E-03 0.  1.
         11    1    4    4    0    0 -0.21850366042E-01 -0.57342442854E-01  0.15539955327E-01  0.63303598485E-01  0.51100000000E-03 0. -1.
</event>
<event>
 8    1  0.2183582E+004  0.1043930E+01  0.7957747E-01            NaN
         13   -1    0    0    0    0  0.00000000000E+00  0.00000000000E+00  0.74505805969E-08  0.10566000000E+00  0.10566000000E+00 0.  1.
     999900   -1    0    0    0    0 -0.00000000000E+00 -0.00000000000E+00 -0.74505805969E-08  0.93827000000E+00  0.93827000000E+00 0. -1.
     999902    2    1    2    0    0 -0.82277912444E-02  0.33430000012E-02  0.12172685917E-01  0.10288619384E+01  0.10287515938E+01 0.  0.
     999903    2    3    3    0    0 -0.21728040644E-01  0.10829159779E+00 -0.70560358144E-01  0.13867026158E+00  0.45293480792E-01 0.  0.
         14    1    1    2    0    0  0.82277912444E-02 -0.33430000012E-02 -0.12172685917E-01  0.15068061594E-01  0.00000000000E+00 0. -1.
     999901    1    3    3    0    0  0.13500249399E-01 -0.10494859779E+00  0.82733044062E-01  0.89019167683E+00  0.88000000000E+00 0.  1.
        -11    1    4    4    0    0 -0.10404185431E-01  0.35443928550E-01 -0.49935184016E-01  0.62115238623E-01  0.51100000000E-03 0.  1.
         11    1    4    4    0    0 -0.11323855213E-01  0.72847669242E-01 -0.20625174129E-01  0.76555022956E-01  0.51100000000E-03 0. -1.
</event>
<event>
 8    1  0.2183582E+004  0.1043930E+01  0.7957747E-01            NaN
         13   -1    0    0    0    0  0.00000000000E+00  0.00000000000E+00  0.74505805969E-08  0.10566000000E+00  0.10566000000E+00 0.  1.
     999900   -1    0    0    0    0 -0.00000000000E+00 -0.00000000000E+00 -0.74505805969E-08  0.93827000000E+00  0.93827000000E+00 0.  1.
     999902    2    1    2    0    0 -0.98438414843E-02  0.37347835360E-02 -0.97363226909E-02  0.10295896443E+01  0.10294897716E+01 0.  0.
     999903    2    3    3    0    0  0.39936747747E-01  0.75720770590E-01  0.99257045578E-01  0.13855673593E+00  0.44915799622E-01 0.  0.
         14    1    1    2    0    0  0.98438414843E-02 -0.37347835360E-02  0.97363226909E-02  0.14340355741E-01  0.00000000000E+00 0.  1.
     999901    1    3    3    0    0 -0.49780589232E-01 -0.71985987054E-01 -0.10899336827E+00  0.89103290833E+00  0.88000000000E+00 0.  1.
        -11    1    4    4    0    0  0.21863016123E-01  0.37226923447E-01  0.17868798552E-01  0.46726763060E-01  0.51100000000E-03 0. -1.
         11    1    4    4    0    0  0.18073731624E-01  0.38493847143E-01  0.81388247026E-01  0.91829972872E-01  0.51100000000E-03 0.  1.
</event>
<event>
 8    1  0.2183582E+004  0.1043930E+01  0.7957747E-01            NaN
         13   -1    0    0    0    0  0.00000000000E+00  0.00000000000E+00  0.74505805969E-08  0.10566000000E+00  0.10566000000E+00 0.  1.
     999900   -1    0    0    0    0 -0.00000000000E+00 -0.00000000000E+00 -0.74505805969E-08  0.93827000000E+00  0.93827000000E+00 0. -1.
     999902    2    1    2    0    0  0.49548021668E-02 -0.74365554203E-02  0.12223375177E-01  0.10287885562E+01  0.10286771262E+01 0.  0.
     999903    2    3    3    0    0 -0.89714741403E-05 -0.23993376861E-01  0.13098492067E+00  0.14064269422E+00  0.45250809733E-01 0.  0.
         14    1    1    2    0    0 -0.49548021668E-02  0.74365554203E-02 -0.12223375177E-01  0.15141443846E-01  0.00000000000E+00 0. -1.
     999901    1    3    3    0    0  0.49637736409E-02  0.16556821441E-01 -0.11876154549E+00  0.88814586193E+00  0.88000000000E+00 0. -1.
        -11    1    4    4    0    0 -0.32100198067E-02  0.10825233137E-01  0.11414472142E-01  0.16063660694E-01  0.51100000000E-03 0. -1.
         11    1    4    4    0    0  0.32010483325E-02 -0.34818609998E-01  0.11957044852E+00  0.12457903353E+00  0.51100000000E-03 0.  1.
</event>
<event>
 8    1  0.2183582E+004  0.1043930E+01  0.7957747E-01            NaN
         13   -1    0    0    0    0  0.00000000000E+00  0.00000000000E+00  0.74505805969E-08  0.10566000000E+00  0.10566000000E+00 0. -1.
     999900   -1    0    0    0    0 -0.00000000000E+00 -0.00000000000E+00 -0.74505805969E-08  0.93827000000E+00  0.93827000000E+00 0. -1.
     999902    2    1    2    0    0 -0.13523873143E-01  0.43953679039E-02 -0.16372102439E-02  0.10296158510E+01  0.10295163456E+01 0.  0.
     999903    2    3    3    0    0 -0.12414326139E+00 -0.44738177644E-01  0.19778976579E-01  0.14107243203E+00  0.45794860836E-01 0.  0.
         14    1    1    2    0    0  0.13523873143E-01 -0.43953679039E-02  0.16372102439E-02  0.14314148986E-01  0.00000000000E+00 0. -1.
     999901    1    3    3    0    0  0.11061938824E+00  0.49133545548E-01 -0.21416186823E-01  0.88854341898E+00  0.88000000000E+00 0. -1.
        -11    1    4    4    0    0 -0.10212137135E+00 -0.43925584950E-01  0.32242477622E-01  0.11575003233E+00  0.51100000000E-03 0.  1.
         11    1    4    4    0    0 -0.22021890034E-01 -0.81259269403E-03 -0.12463501043E-01  0.25322399704E-01  0.51100000000E-03 0. -1.
</event>
<event>
 8    1  0.2183582E+004  0.1043930E+01  0.7957747E-01            NaN
         13   -1    0    0    0    0  0.00000000000E+00  0.00000000000E+00  0.74505805969E-08  0.10566000000E+00  0.10566000000E+00 0.  1.
     999900   -1    0    0    0    0 -0.00000000000E+00 -0.00000000000E+00 -0.74505805969E-08  0.93827000000E+00  0.93827000000E+00 0.  1.
     999902    2    1    2    0    0  0.14210651639E-01  0.94099719067E-03  0.37269382618E-02  0.10292086494E+01  0.10291033601E+01 0.  0.
     999903    2    3    3    0    0  0.12306799627E+00 -0.49988804558E-01  0.11422861867E-01  0.14100653643E+00  0.45910230390E-01 0.  0.
         14    1    1    2    0    0 -0.14210651639E-01 -0.94099719067E-03 -0.37269382618E-02  0.14721350635E-01  0.00000000000E+00 0.  1.
     999901    1    3    3    0    0 -0.10885734463E+00  0.50929801748E-01 -0.76959236053E-02  0.88820211294E+00  0.88000000000E+00 0.  1.
        -11    1    4    4    0    0  0.35487762560E-01  0.51353462732E-02 -0.50613806873E-02  0.36216457147E-01  0.51100000000E-03 0. -1.
         11    1    4    4    0    0  0.87580233712E-01 -0.55124150831E-01  0.16484242554E-01  0.10479007928E+00  0.51100000000E-03 0.  1.
</event>
<event>
 7    1  0.2183582E+004  0.1043930E+01  0.7957747E-01            NaN
         13   -1    0    0    0    0  0.00000000000E+00  0.00000000000E+00  0.74505805969E-08  0.10566000000E+00  0.10566000000E+00 0.  1.
     999900   -1    0    0    0    0 -0.00000000000E+00 -0.00000000000E+00 -0.74505805969E-08  0.93827000000E+00  0.93827000000E+00 0. -1.
     999903    2    1    2    0    0 -0.92891348415E-01  0.41813652332E-02 -0.20766856779E-01  0.10490079587E+00  0.43893373165E-01 0.  0.
         14    1    1    2    0    0 -0.37137954770E-01 -0.31231008217E-01  0.64248425943E-02  0.48947749295E-01  0.00000000000E+00 0.  1.
     999901    1    1    2    0    0  0.13002930318E+00  0.27049642983E-01  0.14342014185E-01  0.89008145484E+00  0.88000000000E+00 0.  1.
        -11    1    3    3    0    0 -0.86140972009E-01 -0.51923131394E-02 -0.28623008925E-01  0.90921751717E-01  0.51100000000E-03 0.  1.
         11    1    3    3    0    0 -0.67503764065E-02  0.93736783726E-02  0.78561521457E-02  0.13979044152E-01  0.51100000000E-03 0. -1.
</event>
<event>
 8    1  0.2183582E+004  0.1043930E+01  0.7957747E-01            NaN
         13   -1    0    0    0    0  0.00000000000E+00  0.00000000000E+00  0.74505805969E-08  0.10566000000E+00  0.10566000000E+00 0. -1.
     999900   -1    0    0    0    0 -0.00000000000E+00 -0.00000000000E+00 -0.74505805969E-08  0.93827000000E+00  0.93827000000E+00 0.  1.
     999902    2    1    2    0    0  0.69233622168E-02  0.78436154589E-02 -0.91560538083E-02  0.10300271741E+01  0.10299333429E+01 0.  0.
     999903    2    3    3    0    0  0.94653063744E-01  0.79618333974E-01  0.50276494317E-01  0.14076886596E+00  0.44607915902E-01 0.  0.
         14    1    1    2    0    0 -0.69233622168E-02 -0.78436154589E-02  0.91560538083E-02  0.13902825943E-01  0.00000000000E+00 0. -1.
     999901    1    3    3    0    0 -0.87729701528E-01 -0.71774718515E-01 -0.59432548125E-01  0.88925830810E+00  0.88000000000E+00 0.  1.
        -11    1    4    4    0    0  0.19328649103E-01  0.28289373894E-01  0.33816685331E-01  0.48142649275E-01  0.51100000000E-03 0. -1.
         11    1    4    4    0    0  0.75324414642E-01  0.51328960080E-01  0.16459808986E-01  0.92626216682E-01  0.51100000000E-03 0.  1.
</event>
<event>
 8    1  0.2183582E+004  0.1043930E+01  0.7957747E-01            NaN
         13   -1    0    0    0    0  0.00000000000E+00  0.00000000000E+00  0.74505805969E-08  0.10566000000E+00  0.10566000000E+00 0.  1.
     999900   -1    0    0    0    0 -0.00000000000E+00 -0.00000000000E+00 -0.74505805969E-08  0.93827000000E+00  0.93827000000E+00 0.  1.
     999902    2    1    2    0    0  0.42884378617E-02 -0.46757208682E-02  0.13817955276E-01  0.10287251010E+01  0.10286127282E+01 0.  0.
     999903    2    3    3    0    0 -0.32524105325E-01 -0.87517637595E-01 -0.91026649220E-01  0.13787700084E+00  0.44800247494E-01 0.  0.
         14    1    1    2    0    0 -0.42884378617E-02  0.46757208682E-02 -0.13817955276E-01  0.15204898978E-01  0.00000000000E+00 0. -1.
     999901    1    3    3    0    0  0.36812543186E-01  0.82841916727E-01  0.10484460450E+00  0.89084810018E+00  0.88000000000E+00 0. -1.
        -11    1    4    4    0    0  0.87663307472E-02 -0.20992361793E-01 -0.34408242730E-01  0.41251861742E-01  0.51100000000E-03 0.  1.
         11    1    4    4    0    0 -0.41290436072E-01 -0.66525275802E-01 -0.56618406489E-01  0.96625139099E-01  0.51100000000E-03 0. -1.
</event>
<event>
 8    1  0.2183582E+004  0.1043930E+01  0.7957747E-01            NaN
         13   -1    0    0    0    0  0.00000000000E+00  0.00000000000E+00  0.74505805969E-08  0.10566000000E+00  0.10566000000E+00 0. -1.
     999900   -1    0    0    0    0 -0.00000000000E+00 -0.00000000000E+00 -0.74505805969E-08  0.93827000000E+00  0.93827000000E+00 0. -1.
     999902    2    1    2    0    0  0.54694629279E-02  0.66232873337E-02 -0.11048416050E-01  0.10299353418E+01  0.10298402584E+01 0.  0.
     999903    2    3    3    0    0 -0.10749161238E+00  0.51160745070E-01 -0.59610076442E-01  0.14027134654E+00  0.44168097954E-01 0.  0.
         14    1    1    2    0    0 -0.54694629279E-02 -0.66232873337E-02  0.11048416050E-01  0.13994658161E-01  0.00000000000E+00 0. -1.
     999901    1    3    3    0    0  0.11296107531E+00 -0.44537457737E-01  0.48561660393E-01  0.88966399530E+00  0.88000000000E+00 0.  1.
        -11    1    4    4    0    0 -0.79491388333E-01  0.57370755091E-01 -0.42317033767E-01  0.10677676164E+00  0.51100000000E-03 0. -1.
         11    1    4    4    0    0 -0.28000224051E-01 -0.62100100208E-02 -0.17293042676E-01  0.33494584896E-01  0.51100000000E-03 0.  1.
</event>
<event>
 8    1  0.2183582E+004  0.1043930E+01  0.7957747E-01            NaN
         13   -1    0    0    0    0  0.00000000000E+00  0.00000000000E+00  0.74505805969E-08  0.10566000000E+00  0.10566000000E+00 0. -1.
     999900   -1    0    0    0    0 -0.00000000000E+00 -0.00000000000E+00 -0.74505805969E-08  0.93827000000E+00  0.93827000000E+00 0. -1.
     999902    2    1    2    0    0 -0.88887369008E-02 -0.85206069473E-02  0.66193062000E-02  0.10299505293E+01  0.10298556536E+01 0.  0.
     999903    2    3    3    0    0 -0.44955538073E-01 -0.21345226869E-01  0.12413075004E+00  0.14131436953E+00  0.45658392613E-01 0.  0.
         14    1    1    2    0    0  0.88887369008E-02  0.85206069473E-02 -0.66193062000E-02  0.13979470699E-01  0.00000000000E+00 0. -1.
     999901    1    3    3    0    0  0.36066801172E-01  0.12824619922E-01 -0.11751144384E+00  0.88863615977E+00  0.88000000000E+00 0. -1.
        -11    1    4    4    0    0 -0.25038263440E-01 -0.20361111684E-01  0.11487571349E+00  0.11932384579E+00  0.51100000000E-03 0. -1.
         11    1    4    4    0    0 -0.19917274632E-01 -0.98411518492E-03  0.92550365543E-02  0.21990523734E-01  0.51100000000E-03 0.  1.
</event>
<event>
 8    1  0.2183582E+004  0.1043930E+01  0.7957747E-01            NaN
         13   -1    0    0    0    0  0.00000000000E+00  0.00000000000E+00  0.74505805969E-08  0.10566000000E+00  0.10566000000E+00 0. -1.
     999900   -1    0    0    0    0 -0.00000000000E+00 -0.00000000000E+00 -0.74505805969E-08  0.93827000000E+00  0.93827000000E+00 0. -1.
     999902    2    1    2    0    0  0.77561044232E-02 -0.11735184740E-01  0.41036203949E-03  0.10298573274E+01  0.10297611736E+01 0.  0.
     999903    2    3    3    0    0 -0.79150686315E-01 -0.44811571403E-01  0.96034835632E-01  0.13980627406E+00  0.45279096009E-01 0.  0.
         14    1    1    2    0    0 -0.77561044232E-02  0.11735184740E-01 -0.41036203949E-03  0.14072672586E-01  0.00000000000E+00 0. -1.
     999901    1    3    3    0    0  0.86906790738E-01  0.33076386663E-01 -0.95624473592E-01  0.89005105336E+00  0.88000000000E+00 0. -1.
        -11    1    4    4    0    0 -0.61251730934E-01 -0.12939967336E-01  0.74750025221E-01  0.97504075241E-01  0.51100000000E-03 0.  1.
         11    1    4    4    0    0 -0.17898955381E-01 -0.31871604067E-01  0.21284810411E-01  0.42302198817E-01  0.51100000000E-03 0. -1.
</event>
<event>
 7    1  0.2183582E+004  0.1043930E+01  0.7957747E-01            NaN
         13   -1    0    0    0    0  0.00000000000E+00  0.00000000000E+00  0.74505805969E-08  0.10566000000E+00  0.10566000000E+00 0. -1.
     999900   -1    0    0    0    0 -0.00000000000E+00 -0.00000000000E+00 -0.74505805969E-08  0.93827000000E+00  0.93827000000E+00 0. -1.
     999903    2    1    2    0    0  0.80483375361E-02 -0.98385498847E-01 -0.59394316935E-01  0.12350837918E+00  0.44521373787E-01 0.  0.
         14    1    1    2    0    0 -0.34785452299E-02 -0.27452670101E-01 -0.82841749776E-02  0.28885583388E-01  0.00000000000E+00 0.  1.
     999901    1    1    2    0    0 -0.45697923063E-02  0.12583816895E+00  0.67678491913E-01  0.89153603743E+00  0.88000000000E+00 0.  1.
        -11    1    3    3    0    0  0.15906807140E-01 -0.64693410316E-01 -0.58867887620E-01  0.88904179685E-01  0.51100000000E-03 0. -1.
         11    1    3    3    0    0 -0.78584696041E-02 -0.33692088531E-01 -0.52642931535E-03  0.34604199498E-01  0.51100000000E-03 0.  1.
</event>
<event>
 8    1  0.2183582E+004  0.1043930E+01  0.7957747E-01            NaN
         13   -1    0    0    0    0  0.00000000000E+00  0.00000000000E+00  0.74505805969E-08  0.10566000000E+00  0.10566000000E+00 0. -1.
     999900   -1    0    0    0    0 -0.00000000000E+00 -0.00000000000E+00 -0.74505805969E-08  0.93827000000E+00  0.93827000000E+00 0. -1.
     999902    2    1    2    0    0 -0.46567461043E-02 -0.12865794516E-01 -0.36679240642E-02  0.10297642801E+01  0.10296668417E+01 0.  0.
     999903    2    3    3    0    0  0.57794111202E-01  0.10620631243E-01  0.11739544906E+00  0.13897358524E+00  0.45596149349E-01 0.  0.
         14    1    1    2    0    0  0.46567461043E-02  0.12865794516E-01  0.36679240642E-02  0.14165719881E-01  0.00000000000E+00 0. -1.
     999901    1    3    3    0    0 -0.62450857306E-01 -0.23486425759E-01 -0.12106337313E+00  0.89079069488E+00  0.88000000000E+00 0. -1.
        -11    1    4    4    0    0  0.49563059572E-01 -0.56238333092E-02  0.10685706626E+00  0.11792717289E+00  0.51100000000E-03 0.  1.
         11    1    4    4    0    0  0.82310516296E-02  0.16244464552E-01  0.10538382799E-01  0.21046412343E-01  0.51100000000E-03 0. -1.
</event>
<event>
 8    1  0.2183582E+004  0.1043930E+01  0.7957747E-01            NaN
         13   -1    0    0    0    0  0.00000000000E+00  0.00000000000E+00  0.74505805969E-08  0.10566000000E+00  0.10566000000E+00 0. -1.
     999900   -1    0    0    0    0 -0.00000000000E+00 -0.00000000000E+00 -0.74505805969E-08  0.93827000000E+00  0.93827000000E+00 0. -1.
     999902    2    1    2    0    0  0.64005026439E-02 -0.95095035640E-03  0.12981854119E-01  0.10294248534E+01  0.10293226557E+01 0.  0.
     999903    2    3    3    0    0 -0.73638235351E-01 -0.99615760865E-01  0.45816213115E-01  0.13969509696E+00  0.45494012933E-01 0.  0.
         14    1    1    2    0    0 -0.64005026439E-02  0.95095035640E-03 -0.12981854119E-01  0.14505146571E-01  0.00000000000E+00 0.  1.
     999901    1    3    3    0    0  0.80038737995E-01  0.98664810509E-01 -0.32834358996E-01  0.88972975647E+00  0.88000000000E+00 0. -1.
        -11    1    4    4    0    0 -0.24520494366E-01 -0.55032750798E-01  0.41617094936E-01  0.73226375140E-01  0.51100000000E-03 0. -1.
         11    1    4    4    0    0 -0.49117740985E-01 -0.44583010067E-01  0.41991181791E-02  0.66468721822E-01  0.51100000000E-03 0.  1.
</event>
<event>
 8    1  0.2183582E+004  0.1043930E+01  0.7957747E-01            NaN
         13   -1    0    0    0    0  0.00000000000E+00  0.00000000000E+00  0.74505805969E-08  0.10566000000E+00  0.10566000000E+00 0.  1.
     999900   -1    0    0    0    0 -0.00000000000E+00 -0.00000000000E+00 -0.74505805969E-08  0.93827000000E+00  0.93827000000E+00 0. -1.
     999902    2    1    2    0    0 -0.95618784738E-03  0.12727778124E-01 -0.55199394896E-02  0.10300238732E+01  0.10299299971E+01 0.  0.
     999903    2    3    3    0    0  0.10462517803E+00  0.79257070770E-01 -0.21152534915E-01  0.14108183365E+00  0.47207445465E-01 0.  0.
         14    1    1    2    0    0  0.95618784738E-03 -0.12727778124E-01  0.55199394896E-02  0.13906126820E-01  0.00000000000E+00 0.  1.
     999901    1    3    3    0    0 -0.10558136588E+00 -0.66529292646E-01  0.15632595425E-01  0.88894203953E+00  0.88000000000E+00 0.  1.
        -11    1    4    4    0    0  0.68365324863E-01  0.29209308299E-01 -0.26779509025E-01  0.79021544907E-01  0.51100000000E-03 0. -1.
         11    1    4    4    0    0  0.36259853172E-01  0.50047762471E-01  0.56269741095E-02  0.62060288744E-01  0.51100000000E-03 0.  1.
</event>
<event>
 8    1  0.2183582E+004  0.1043930E+01  0.7957747E-01            NaN
         13   -1    0    0    0    0  0.00000000000E+00  0.00000000000E+00  0.74505805969E-08  0.10566000000E+00  0.10566000000E+00 0. -1.
     999900   -1    0    0    0    0 -0.00000000000E+00 -0.00000000000E+00 -0.74505805969E-08  0.93827000000E+00  0.93827000000E+00 0.  1.
     999902    2    1    2    0    0 -0.21967250371E-02 -0.60162118459E-02  0.12235397161E-01  0.10301196651E+01  0.10300270866E+01 0.  0.
     999903    2    3    3    0    0  0.83298046611E-01  0.73425459448E-01  0.72639864509E-01  0.14036181334E+00  0.45771454698E-01 0.  0.
         14    1    1    2    0    0  0.21967250371E-02  0.60162118459E-02 -0.12235397161E-01  0.13810334882E-01  0.00000000000E+00 0.  1.
     999901    1    3    3    0    0 -0.85494771648E-01 -0.79441671294E-01 -0.60404467348E-01  0.88975785177E+00  0.88000000000E+00 0.  1.
        -11    1    4    4    0    0  0.27254997221E-01  0.33294147683E-01  0.53819754344E-01  0.68906909828E-01  0.51100000000E-03 0. -1.
         11    1    4    4    0    0  0.56043049390E-01  0.40131311765E-01  0.18820110166E-01  0.71454903516E-01  0.51100000000E-03 0.  1.
</event>
<event>
 8    1  0.2183582E+004  0.1043930E+01  0.7957747E-01            NaN
         13   -1    0    0    0    0  0.00000000000E+00  0.00000000000E+00  0.74505805969E-08  0.10566000000E+00  0.10566000000E+00 0. -1.
     999900   -1    0    0    0    0 -0.00000000000E+00 -0.00000000000E+00 -0.74505805969E-08  0.93827000000E+00  0.93827000000E+00 0.  1.
     999902    2    1    2    0    0 -0.94891698802E-02 -0.83779297347E-02  0.42638530038E-02  0.10305728111E+01  0.10304862467E+01 0.  0.
     999903    2    3    3    0    0 -0.89657662343E-02 -0.11632693110E+00  0.67018398416E-01  0.14175821078E+00  0.44627174833E-01 0.  0.
         14    1    1    2    0    0  0.94891698802E-02  0.83779297347E-02 -0.42638530038E-02  0.13357188854E-01  0.00000000000E+00 0.  1.
     999901    1    3    3    0    0 -0.52340364592E-03  0.10794900137E+00 -0.62754545412E-01  0.88881460036E+00  0.88000000000E+00 0.  1.
        -11    1    4    4    0    0  0.13010646947E-01 -0.88496666537E-01  0.47675541206E-01  0.10136150784E+00  0.51100000000E-03 0. -1.
         11    1    4    4    0    0 -0.21976413182E-01 -0.27830264568E-01  0.19342857210E-01  0.40396702938E-01  0.51100000000E-03 0.  1.
</event>
<event>
 8    1  0.2183582E+004  0.1043930E+01  0.7957747E-01            NaN
         13   -1    0    0    0    0  0.00000000000E+00  0.00000000000E+00  0.74505805969E-08  0.10566000000E+00  0.10566000000E+00 0. -1.
     999900   -1    0    0    0    0 -0.00000000000E+00 -0.00000000000E+00 -0.74505805969E-08  0.93827000000E+00  0.93827000000E+00 0.  1.
     999902    2    1    2    0    0 -0.60716362845E-03  0.18293852644E-04 -0.11944330695E-01  0.10319702334E+01  0.10319009286E+01 0.  0.
     999903    2    3    3    0    0  0.11130876638E+00 -0.75292704703E-01 -0.18640941985E-02  0.14163404233E+00  0.44700047490E-01 0.  0.
         14    1    1    2    0    0  0.60716362845E-03 -0.18293852644E-04  0.11944330695E-01  0.11959766640E-01  0.00000000000E+00 0. -1.
     999901    1    3    3    0    0 -0.11191593000E+00  0.75310998555E-01 -0.10080236496E-01  0.89033619103E+00  0.88000000000E+00 0. -1.
        -11    1    4    4    0    0  0.46726461629E-01 -0.20490142741E-01  0.18920156621E-01  0.54419129113E-01  0.51100000000E-03 0. -1.
         11    1    4    4    0    0  0.64582304748E-01 -0.54802561962E-01 -0.20784250820E-01  0.87214913215E-01  0.51100000000E-03 0.  1.
</event>
<event>
 8    1  0.2183582E+004  0.1043930E+01  0.7957747E-01            NaN
         13   -1    0    0    0    0  0.00000000000E+00  0.00000000000E+00  0.74505805969E-08  0.10566000000E+00  0.10566000000E+00 0. -1.
     999900   -1    0    0    0    0 -0.00000000000E+00 -0.00000000000E+00 -0.74505805969E-08  0.93827000000E+00  0.93827000000E+00 0.  1.
     999902    2    1    2    0    0 -0.13937909790E-02 -0.11413308153E-01 -0.10054604301E-01  0.10286557955E+01  0.10285423882E+01 0.  0.
     999903    2    3    3    0    0  0.13618280951E-01  0.12879175603E+00 -0.81420010648E-02  0.13742828222E+00  0.45248940063E-01 0.  0.
         14    1    1    2    0    0  0.13937909790E-02  0.11413308153E-01  0.10054604301E-01  0.15274204527E-01  0.00000000000E+00 0. -1.
     999901    1    3    3    0    0 -0.15012071929E-01 -0.14020506418E+00 -0.19126032365E-02  0.89122751325E+00  0.88000000000E+00 0. -1.
        -11    1    4    4    0    0  0.16196760188E-01  0.97029791066E-01  0.12932487250E-01  0.99220087393E-01  0.51100000000E-03 0. -1.
         11    1    4    4    0    0 -0.25784792378E-02  0.31761964960E-01 -0.21074488315E-01  0.38208194828E-01  0.51100000000E-03 0.  1.
</event>
<event>
 8    1  0.2183582E+004  0.1043930E+01  0.7957747E-01            NaN
         13   -1    0    0    0    0  0.00000000000E+00  0.00000000000E+00  0.74505805969E-08  0.10566000000E+00  0.10566000000E+00 0.  1.
     999900   -1    0    0    0    0 -0.00000000000E+00 -0.00000000000E+00 -0.74505805969E-08  0.93827000000E+00  0.93827000000E+00 0.  1.
     999902    2    1    2    0    0 -0.38268253350E-02  0.12689021818E-01  0.25434256688E-02  0.10304346348E+01  0.10303462582E+01 0.  0.
     999903    2    3    3    0    0  0.13042124773E+00 -0.20923882891E-01  0.82546149702E-02  0.13960076134E+00  0.44415348287E-01 0.  0.
         14    1    1    2    0    0  0.38268253350E-02 -0.12689021818E-01 -0.25434256688E-02  0.13495365167E-01  0.00000000000E+00 0. -1.
     999901    1    3    3    0    0 -0.13424807306E+00  0.33612904709E-01 -0.57111893014E-02  0.89083387350E+00  0.88000000000E+00 0. -1.
        -11    1    4    4    0    0  0.36929651642E-01 -0.25516919860E-01 -0.45609956620E-02  0.45121792650E-01  0.51100000000E-03 0.  1.
         11    1    4    4    0    0  0.93491596086E-01  0.45930369686E-02  0.12815610632E-01  0.94478968687E-01  0.51100000000E-03 0. -1.
</event>
<event>
 8    1  0.2183582E+004  0.1043930E+01  0.7957747E-01            NaN
         13   -1    0    0    0    0  0.00000000000E+00  0.00000000000E+00  0.74505805969E-08  0.10566000000E+00  0.10566000000E+00 0.  1.
     999900   -1    0    0    0    0 -0.00000000000E+00 -0.00000000000E+00 -0.74505805969E-08  0.93827000000E+00  0.93827000000E+00 0. -1.
     999902    2    1    2    0    0  0.28639464564E-02 -0.38372358581E-02 -0.10889967956E-01  0.10320338674E+01  0.10319653025E+01 0.  0.
     999903    2    3    3    0    0 -0.11961569505E+00  0.31572886437E-01 -0.53160036500E-01  0.14184181059E+00  0.44590896945E-01 0.  0.
         14    1    1    2    0    0 -0.28639464564E-02  0.38372358581E-02  0.10889967956E-01  0.11896132583E-01  0.00000000000E+00 0.  1.
     999901    1    3    3    0    0  0.12247964151E+00 -0.35410122295E-01  0.42270068544E-01  0.89019205683E+00  0.88000000000E+00 0.  1.
        -11    1    4    4    0    0 -0.10154786139E+00  0.41537722846E-01 -0.51304103073E-01  0.12111863063E+00  0.51100000000E-03 0.  1.
         11    1    4    4    0    0 -0.18067833660E-01 -0.99648364089E-02 -0.18559334273E-02  0.20723179962E-01  0.51100000000E-03 0. -1.
</event>
<event>
 8    1  0.2183582E+004  0.1043930E+01  0.7957747E-01            NaN
         13   -1    0    0    0    0  0.00000000000E+00  0.00000000000E+00  0.74505805969E-08  0.10566000000E+00  0.10566000000E+00 0.  1.
     999900   -1    0    0    0    0 -0.00000000000E+00 -0.00000000000E+00 -0.74505805969E-08  0.93827000000E+00  0.93827000000E+00 0.  1.
     999902    2    1    2    0    0  0.90572789118E-02 -0.10041720025E-01  0.70049341026E-03  0.10303889094E+01  0.10302999289E+01 0.  0.
     999903    2    3    3    0    0  0.92051526621E-01 -0.51813717311E-01 -0.82901087924E-01  0.14155699659E+00  0.44806785758E-01 0.  0.
         14    1    1    2    0    0 -0.90572789118E-02  0.10041720025E-01 -0.70049341026E-03  0.13541090553E-01  0.00000000000E+00 0.  1.
     999901    1    3    3    0    0 -0.82994247710E-01  0.41771997286E-01  0.83601581334E-01  0.88883191286E+00  0.88000000000E+00 0. -1.
        -11    1    4    4    0    0  0.59595508004E-01 -0.90237043090E-02 -0.51908355025E-01  0.79547408859E-01  0.51100000000E-03 0.  1.
         11    1    4    4    0    0  0.32456018617E-01 -0.42790013002E-01 -0.30992732899E-01  0.62009587732E-01  0.51100000000E-03 0. -1.
</event>
<event>
 8    1  0.2183582E+004  0.1043930E+01  0.7957747E-01            NaN
         13   -1    0    0    0    0  0.00000000000E+00  0.00000000000E+00  0.74505805969E-08  0.10566000000E+00  0.10566000000E+00 0.  1.
     999900   -1    0    0    0    0 -0.00000000000E+00 -0.00000000000E+00 -0.74505805969E-08  0.93827000000E+00  0.93827000000E+00 0. -1.
     999902    2    1    2    0    0 -0.11237179932E-01  0.42047671117E-02 -0.51138107199E-02  0.10308875562E+01  0.10308050486E+01 0.  0.
     999903    2    3    3    0    0  0.72182396594E-02  0.11913520196E+00 -0.61258201047E-01  0.14144851958E+00  0.44830984424E-01 0.  0.
         14    1    1    2    0    0  0.11237179932E-01 -0.42047671117E-02  0.51138107199E-02  0.13042443765E-01  0.00000000000E+00 0. -1.
     999901    1    3    3    0    0 -0.18455419591E-01 -0.11493043485E+00  0.56144390327E-01  0.88943903666E+00  0.88000000000E+00 0.  1.
        -11    1    4    4    0    0  0.25408722132E-01  0.55056559320E-01 -0.33565727392E-01  0.69309069110E-01  0.51100000000E-03 0.  1.
         11    1    4    4    0    0 -0.18190482472E-01  0.64078642642E-01 -0.27692473655E-01  0.72139450466E-01  0.51100000000E-03 0. -1.
</event>
<event>
 8    1  0.2183582E+004  0.1043930E+01  0.7957747E-01            NaN
         13   -1    0    0    0    0  0.00000000000E+00  0.00000000000E+00  0.74505805969E-08  0.10566000000E+00  0.10566000000E+00 0. -1.
     999900   -1    0    0    0    0 -0.00000000000E+00 -0.00000000000E+00 -0.74505805969E-08  0.93827000000E+00  0.93827000000E+00 0.  1.
     999902    2    1    2    0    0  0.81815627048E-02  0.13760203390E-01 -0.13025287102E-02  0.10278683143E+01  0.10277428150E+01 0.  0.
     999903    2    3    3    0    0 -0.11467410925E-01 -0.12179756336E+00  0.40435260668E-01  0.13629440637E+00  0.44441050250E-01 0.  0.
         14    1    1    2    0    0 -0.81815627048E-02 -0.13760203390E-01  0.13025287102E-02  0.16061685674E-01  0.00000000000E+00 0. -1.
     999901    1    3    3    0    0  0.19648973630E-01  0.13555776675E+00 -0.41737789378E-01  0.89157390796E+00  0.88000000000E+00 0. -1.
        -11    1    4    4    0    0 -0.98113829721E-02 -0.91817014613E-01  0.89339082979E-02  0.92772319399E-01  0.51100000000E-03 0.  1.
         11    1    4    4    0    0 -0.16560279531E-02 -0.29980548750E-01  0.31501352370E-01  0.43522086968E-01  0.51100000000E-03 0. -1.
</event>
<event>
 8    1  0.2183582E+004  0.1043930E+01  0.7957747E-01            NaN
         13   -1    0    0    0    0  0.00000000000E+00  0.00000000000E+00  0.74505805969E-08  0.10566000000E+00  0.10566000000E+00 0. -1.
     999900   -1    0    0    0    0 -0.00000000000E+00 -0.00000000000E+00 -0.74505805969E-08  0.93827000000E+00  0.93827000000E+00 0. -1.
     999902    2    1    2    0    0  0.16959269212E-02  0.84006397067E-02 -0.56067892057E-02  0.10336887598E+01  0.10336380262E+01 0.  0.
     999903    2    3    3    0    0  0.22661957417E-01 -0.17599941257E-01  0.13178716154E+00  0.14240165547E+00  0.45684278328E-01 0.  0.
         14    1    1    2    0    0 -0.16959269212E-02 -0.84006397067E-02  0.56067892057E-02  0.10241240198E-01  0.00000000000E+00 0.  1.
     999901    1    3    3    0    0 -0.20966030496E-01  0.26000580964E-01 -0.13739395075E+00  0.89128710433E+00  0.88000000000E+00 0. -1.
        -11    1    4    4    0    0  0.15890594839E-01  0.94542939978E-03  0.95316164205E-02  0.18561187292E-01  0.51100000000E-03 0.  1.
         11    1    4    4    0    0  0.67713625782E-02 -0.18545370657E-01  0.12225554512E+00  0.12384046818E+00  0.51100000000E-03 0. -1.
</event>
<event>
 8    1  0.2183582E+004  0.1043930E+01  0.7957747E-01            NaN
         13   -1    0    0    0    0  0.00000000000E+00  0.00000000000E+00  0.74505805969E-08  0.10566000000E+00  0.10566000000E+00 0. -1.
     999900   -1    0    0    0    0 -0.00000000000E+00 -0.00000000000E+00 -0.74505805969E-08  0.93827000000E+00  0.93827000000E+00 0.  1.
     999902    2    1    2    0    0 -0.10020652545E-02 -0.14464459675E-01  0.49520689956E-02  0.10286085211E+01  0.10284944054E+01 0.  0.
     999903    2    3    3    0    0 -0.10359721650E-01  0.27500391433E-01  0.12831061400E+00  0.13896480303E+00  0.44542198589E-01 0.  0.
         14    1    1    2    0    0  0.10020652545E-02  0.14464459675E-01 -0.49520689956E-02  0.15321478903E-01  0.00000000000E+00 0. -1.
     999901    1    3    3    0    0  0.93576563956E-02 -0.41964851108E-01 -0.12335854501E+00  0.88964371806E+00  0.88000000000E+00 0.  1.
        -11    1    4    4    0    0  0.10383829247E-01 -0.65011703863E-02  0.44688554113E-01  0.46340232152E-01  0.51100000000E-03 0. -1.
         11    1    4    4    0    0 -0.20743550897E-01  0.34001561820E-01  0.83622059889E-01  0.92624570882E-01  0.51100000000E-03 0.  1.
</event>
<event>
 8    1  0.2183582E+004  0.1043930E+01  0.7957747E-01            NaN
         13   -1    0    0    0    0  0.00000000000E+00  0.00000000000E+00  0.74505805969E-08  0.10566000000E+00  0.10566000000E+00 0. -1.
     999900   -1    0    0    0    0 -0.00000000000E+00 -0.00000000000E+00 -0.74505805969E-08  0.93827000000E+00  0.93827000000E+00 0. -1.
     999902    2    1    2    0    0  0.11065455430E-01 -0.38628297519E-02  0.77395220626E-02  0.10298848599E+01  0.10297890846E+01 0.  0.
     999903    2    3    3    0    0  0.46382188645E-01 -0.12223157278E+00 -0.26405354410E-01  0.14060183212E+00  0.44494579964E-01 0.  0.
         14    1    1    2    0    0 -0.11065455430E-01  0.38628297519E-02 -0.77395220626E-02  0.14045140061E-01  0.00000000000E+00 0.  1.
     999901    1    3    3    0    0 -0.35316733215E-01  0.11836874303E+00  0.34144876472E-01  0.88928302782E+00  0.88000000000E+00 0. -1.
        -11    1    4    4    0    0  0.61951942418E-02 -0.77183127892E-01 -0.19398283198E-01  0.79825874094E-01  0.51100000000E-03 0.  1.
         11    1    4    4    0    0  0.40186994404E-01 -0.45048444892E-01 -0.70070712117E-02  0.60775958029E-01  0.51100000000E-03 0. -1.
</event>
<event>
 8    1  0.2183582E+004  0.1043930E+01  0.7957747E-01            NaN
         13   -1    0    0    0    0  0.00000000000E+00  0.00000000000E+00  0.74505805969E-08  0.10566000000E+00  0.10566000000E+00 0.  1.
     999900   -1    0    0    0    0 -0.00000000000E+00 -0.00000000000E+00 -0.74505805969E-08  0.93827000000E+00  0.93827000000E+00 0.  1.
     999902    2    1    2    0    0  0.14854994857E-01  0.54189378205E-03  0.84392604658E-02  0.10268365615E+01  0.10266942770E+01 0.  0.
     999903    2    3    3    0    0 -0.30107240757E-01  0.59911112850E-01 -0.10938400284E+00  0.13586595138E+00  0.44709163236E-01 0.  0.
         14    1    1    2    0    0 -0.14854994857E-01 -0.54189378205E-03 -0.84392604658E-02  0.17093438457E-01  0.00000000000E+00 0.  1.
     999901    1    3    3    0    0  0.44962235614E-01 -0.59369219068E-01  0.11782326331E+00  0.89097061017E+00  0.88000000000E+00 0. -1.
        -11    1    4    4    0    0  0.73194206441E-02  0.26810452348E-01 -0.57319860574E-01  0.63704017227E-01  0.51100000000E-03 0. -1.
         11    1    4    4    0    0 -0.37426661401E-01  0.33100660503E-01 -0.52064142266E-01  0.72161934149E-01  0.51100000000E-03 0.  1.
</event>
<event>
 8    1  0.2183582E+004  0.1043930E+01  0.7957747E-01            NaN
         13   -1    0    0    0    0  0.00000000000E+00  0.00000000000E+00  0.74505805969E-08  0.10566000000E+00  0.10566000000E+00 0.  1.
     999900   -1    0    0    0    0 -0.00000000000E+00 -0.00000000000E+00 -0.74505805969E-08  0.93827000000E+00  0.93827000000E+00 0.  1.
     999902    2    1    2    0    0 -0.59317507567E-02 -0.99146460121E-02  0.77243271824E-02  0.10300321188E+01  0.10299383547E+01 0.  0.
     999903    2    3    3    0    0 -0.58755978518E-01 -0.77134542151E-01  0.93853495833E-01  0.14170383081E+00  0.43237650050E-01 0.  0.
         14    1    1    2    0    0  0.59317507567E-02  0.99146460121E-02 -0.77243271824E-02  0.13897881242E-01  0.00000000000E+00 0. -1.
     999901    1    3    3    0    0  0.52824227761E-01  0.67219896139E-01 -0.86129168651E-01  0.88832828795E+00  0.88000000000E+00 0.  1.
        -11    1    4    4    0    0 -0.36412183586E-01 -0.27626923508E-01  0.67007494526E-01  0.81113250827E-01  0.51100000000E-03 0. -1.
         11    1    4    4    0    0 -0.22343794932E-01 -0.49507618642E-01  0.26846001307E-01  0.60590579984E-01  0.51100000000E-03 0.  1.
</event>
<event>
 8    1  0.2183582E+004  0.1043930E+01  0.7957747E-01            NaN
         13   -1    0    0    0    0  0.00000000000E+00  0.00000000000E+00  0.74505805969E-08  0.10566000000E+00  0.10566000000E+00 0.  1.
     999900   -1    0    0    0    0 -0.00000000000E+00 -0.00000000000E+00 -0.74505805969E-08  0.93827000000E+00  0.93827000000E+00 0. -1.
     999902    2    1    2    0    0 -0.16251085177E-02  0.14334603499E-01 -0.29663086318E-02  0.10292017679E+01  0.10290963794E+01 0.  0.
     999903    2    3    3    0    0  0.10483104444E+00 -0.64615538794E-01 -0.44198620361E-01  0.13832234784E+00  0.44886948442E-01 0.  0.
         14    1    1    2    0    0  0.16251085177E-02 -0.14334603499E-01  0.29663086318E-02  0.14728232143E-01  0.00000000000E+00 0.  1.
     999901    1    3    3    0    0 -0.10645615295E+00  0.78950142294E-01  0.41232311729E-01  0.89087942001E+00  0.88000000000E+00 0.  1.
        -11    1    4    4    0    0  0.54108101564E-02 -0.71518313617E-02 -0.18621730159E-01  0.20674997304E-01  0.51100000000E-03 0.  1.
         11    1    4    4    0    0  0.99420234279E-01 -0.57463707433E-01 -0.25576890201E-01  0.11764735054E+00  0.51100000000E-03 0. -1.
</event>
<event>
 8    1  0.2183582E+004  0.1043930E+01  0.7957747E-01            NaN
         13   -1    0    0    0    0  0.00000000000E+00  0.00000000000E+00  0.74505805969E-08  0.10566000000E+00  0.10566000000E+00 0. -1.
     999900   -1    0    0    0    0 -0.00000000000E+00 -0.00000000000E+00 -0.74505805969E-08  0.93827000000E+00  0.93827000000E+00 0.  1.
     999902    2    1    2    0    0 -0.11018777430E-01  0.69808252000E-02  0.33404214535E-02  0.10304650903E+01  0.10303771148E+01 0.  0.
     999903    2    3    3    0    0  0.72423045006E-01 -0.30939220483E-01  0.10612632767E+00  0.13975446948E+00  0.45455269273E-01 0.  0.
         14    1    1    2    0    0  0.11018777430E-01 -0.69808252000E-02 -0.33404214535E-02  0.13464909655E-01  0.00000000000E+00 0.  1.
     999901    1    3    3    0    0 -0.83441822436E-01  0.37920045683E-01 -0.10278590621E+00  0.89071062086E+00  0.88000000000E+00 0.  1.
        -11    1    4    4    0    0  0.78462962154E-01 -0.25529910525E-01  0.99560317099E-01  0.12930866415E+00  0.51100000000E-03 0. -1.
         11    1    4    4    0    0 -0.60399171483E-02 -0.54093099578E-02  0.65660105693E-02  0.10445805339E-01  0.51100000000E-03 0.  1.
</event>
<event>
 8    1  0.2183582E+004  0.1043930E+01  0.7957747E-01            NaN
         13   -1    0    0    0    0  0.00000000000E+00  0.00000000000E+00  0.74505805969E-08  0.10566000000E+00  0.10566000000E+00 0. -1.
     999900   -1    0    0    0    0 -0.00000000000E+00 -0.00000000000E+00 -0.74505805969E-08  0.93827000000E+00  0.93827000000E+00 0.  1.
     999902    2    1    2    0    0  0.54672901831E-02  0.14091568168E-01  0.23607513145E-02  0.10286317419E+01  0.10285179744E+01 0.  0.
     999903    2    3    3    0    0 -0.68255790338E-01 -0.37904392267E-01  0.10453439913E+00  0.13813854884E+00  0.45378653643E-01 0.  0.
         14    1    1    2    0    0 -0.54672901831E-02 -0.14091568168E-01 -0.23607513145E-02  0.15298258141E-01  0.00000000000E+00 0. -1.
     999901    1    3    3    0    0  0.73723080521E-01  0.51995960435E-01 -0.10217364782E+00  0.89049319302E+00  0.88000000000E+00 0.  1.
        -11    1    4    4    0    0 -0.64532944347E-01 -0.16312927067E-01  0.89590779822E-01  0.11161264017E+00  0.51100000000E-03 0.  1.
         11    1    4    4    0    0 -0.37228459904E-02 -0.21591465200E-01  0.14943619309E-01  0.26525908671E-01  0.51100000000E-03 0. -1.
</event>
<event>
 8    1  0.2183582E+004  0.1043930E+01  0.7957747E-01            NaN
         13   -1    0    0    0    0  0.00000000000E+00  0.00000000000E+00  0.74505805969E-08  0.10566000000E+00  0.10566000000E+00 0. -1.
     999900   -1    0    0    0    0 -0.00000000000E+00 -0.00000000000E+00 -0.74505805969E-08  0.93827000000E+00  0.93827000000E+00 0. -1.
     999902    2    1    2    0    0  0.13247560662E-01 -0.15178220862E-01 -0.10561164816E-02  0.10237559663E+01  0.10235571733E+01 0.  0.
     999903    2    3    3    0    0 -0.55137326982E-01  0.52644830938E-01 -0.98901897777E-01  0.13310998946E+00  0.46098599324E-01 0.  0.
         14    1    1    2    0    0 -0.13247560662E-01  0.15178220862E-01  0.10561164816E-02  0.20174033658E-01  0.00000000000E+00 0.  1.
     999901    1    3    3    0    0  0.68384887644E-01 -0.67823051800E-01  0.97845781296E-01  0.89064597688E+00  0.88000000000E+00 0.  1.
        -11    1    4    4    0    0 -0.67830397105E-02  0.19879611473E-01 -0.58306376407E-01  0.61976634555E-01  0.51100000000E-03 0. -1.
         11    1    4    4    0    0 -0.48354287272E-01  0.32765219464E-01 -0.40595521370E-01  0.71133354908E-01  0.51100000000E-03 0.  1.
</event>
<event>
 8    1  0.2183582E+004  0.1043930E+01  0.7957747E-01            NaN
         13   -1    0    0    0    0  0.00000000000E+00  0.00000000000E+00  0.74505805969E-08  0.10566000000E+00  0.10566000000E+00 0.  1.
     999900   -1    0    0    0    0 -0.00000000000E+00 -0.00000000000E+00 -0.74505805969E-08  0.93827000000E+00  0.93827000000E+00 0. -1.
     999902    2    1    2    0    0  0.57644615499E-02 -0.12248590212E-01  0.26480672059E-02  0.10301361884E+01  0.10300438327E+01 0.  0.
     999903    2    3    3    0    0 -0.69059748106E-01  0.61628311613E-01  0.95491764756E-01  0.13902653679E+00  0.40526573944E-01 0.  0.
         14    1    1    2    0    0 -0.57644615499E-02  0.12248590212E-01 -0.26480672059E-02  0.13793811622E-01  0.00000000000E+00 0.  1.
     999901    1    3    3    0    0  0.74824209656E-01 -0.73876901825E-01 -0.92843697550E-01  0.89110965159E+00  0.88000000000E+00 0. -1.
        -11    1    4    4    0    0 -0.69878729850E-01  0.54192844012E-01  0.70982694167E-01  0.11339623106E+00  0.51100000000E-03 0.  1.
         11    1    4    4    0    0  0.81898174431E-03  0.74354676009E-02  0.24509070589E-01  0.25630305727E-01  0.51100000000E-03 0. -1.
</event>
<event>
 8    1  0.2183582E+004  0.1043930E+01  0.7957747E-01            NaN
         13   -1    0    0    0    0  0.00000000000E+00  0.00000000000E+00  0.74505805969E-08  0.10566000000E+00  0.10566000000E+00 0.  1.
     999900   -1    0    0    0    0 -0.00000000000E+00 -0.00000000000E+00 -0.74505805969E-08  0.93827000000E+00  0.93827000000E+00 0. -1.
     999902    2    1    2    0    0  0.39740091536E-02  0.11171801539E-01 -0.79307697583E-02  0.10296646922E+01  0.10295658693E+01 0.  0.
     999903    2    3    3    0    0 -0.95547404992E-01 -0.87778335550E-01  0.13628177788E-01  0.13828350002E+00  0.45850369205E-01 0.  0.
         14    1    1    2    0    0 -0.39740091536E-02 -0.11171801539E-01  0.79307697583E-02  0.14265307825E-01  0.00000000000E+00 0. -1.
     999901    1    3    3    0    0  0.99521414145E-01  0.98950137089E-01 -0.21558947546E-01  0.89138119215E+00  0.88000000000E+00 0.  1.
        -11    1    4    4    0    0 -0.53703735289E-01 -0.36444848366E-01 -0.14209944131E-01  0.66441717239E-01  0.51100000000E-03 0. -1.
         11    1    4    4    0    0 -0.41843669703E-01 -0.51333487184E-01  0.27838121919E-01  0.71841782785E-01  0.51100000000E-03 0.  1.
</event>
<event>
 8    1  0.2183582E+004  0.1043930E+01  0.7957747E-01            NaN
         13   -1    0    0    0    0  0.00000000000E+00  0.00000000000E+00  0.74505805969E-08  0.10566000000E+00  0.10566000000E+00 0. -1.
     999900   -1    0    0    0    0 -0.00000000000E+00 -0.00000000000E+00 -0.74505805969E-08  0.93827000000E+00  0.93827000000E+00 0. -1.
     999902    2    1    2    0    0 -0.89464194439E-02  0.41609667609E-02 -0.10652785847E-01  0.10294098791E+01  0.10293074688E+01 0.  0.
     999903    2    3    3    0    0  0.43656275532E-02 -0.11741382879E+00  0.57661616223E-01  0.13832935576E+00  0.44778150760E-01 0.  0.
         14    1    1    2    0    0  0.89464194439E-02 -0.41609667609E-02  0.10652785847E-01  0.14520120920E-01  0.00000000000E+00 0. -1.
     999901    1    3    3    0    0 -0.13312046997E-01  0.12157479555E+00 -0.68314402070E-01  0.89108052332E+00  0.88000000000E+00 0. -1.
        -11    1    4    4    0    0  0.96007707924E-02 -0.52543607472E-01  0.32796724036E-02  0.53516566202E-01  0.51100000000E-03 0. -1.
         11    1    4    4    0    0 -0.52351432392E-02 -0.64870221315E-01  0.54381943819E-01  0.84812789559E-01  0.51100000000E-03 0.  1.
</event>
<event>
 8    1  0.2183582E+004  0.1043930E+01  0.7957747E-01            NaN
         13   -1    0    0    0    0  0.00000000000E+00  0.00000000000E+00  0.74505805969E-08  0.10566000000E+00  0.10566000000E+00 0.  1.
     999900   -1    0    0    0    0 -0.00000000000E+00 -0.00000000000E+00 -0.74505805969E-08  0.93827000000E+00  0.93827000000E+00 0. -1.
     999902    2    1    2    0    0 -0.13246200828E-01  0.23578722845E-02 -0.55871495594E-03  0.10304639850E+01  0.10303759949E+01 0.  0.
     999903    2    3    3    0    0 -0.74856196604E-02  0.10213973934E+00  0.86315715470E-01  0.14055569086E+00  0.42625563242E-01 0.  0.
         14    1    1    2    0    0  0.13246200828E-01 -0.23578722845E-02  0.55871495594E-03  0.13466015019E-01  0.00000000000E+00 0. -1.
     999901    1    3    3    0    0 -0.57605811673E-02 -0.99781867054E-01 -0.86874430426E-01  0.88990829412E+00  0.88000000000E+00 0. -1.
        -11    1    4    4    0    0  0.89581513655E-02  0.27710244985E-01  0.58331330474E-02  0.29705095778E-01  0.51100000000E-03 0.  1.
         11    1    4    4    0    0 -0.16443771026E-01  0.74429494354E-01  0.80482582422E-01  0.11085059508E+00  0.51100000000E-03 0. -1.
</event>
<event>
 8    1  0.2183582E+004  0.1043930E+01  0.7957747E-01            NaN
         13   -1    0    0    0    0  0.00000000000E+00  0.00000000000E+00  0.74505805969E-08  0.10566000000E+00  0.10566000000E+00 0.  1.
     999900   -1    0    0    0    0 -0.00000000000E+00 -0.00000000000E+00 -0.74505805969E-08  0.93827000000E+00  0.93827000000E+00 0. -1.
     999902    2    1    2    0    0  0.44752556527E-02  0.13488107790E-01  0.28831404957E-02  0.10294293288E+01  0.10293271946E+01 0.  0.
     999903    2    3    3    0    0  0.10588823015E+00 -0.68089957830E-01 -0.37916546290E-01  0.13892150371E+00  0.44866023537E-01 0.  0.
         14    1    1    2    0    0 -0.44752556527E-02 -0.13488107790E-01 -0.28831404957E-02  0.14500671158E-01  0.00000000000E+00 0. -1.
     999901    1    3    3    0    0 -0.10141297450E+00  0.81578065620E-01  0.40799686786E-01  0.89050782514E+00  0.88000000000E+00 0.  1.
        -11    1    4    4    0    0  0.27189502223E-01 -0.41688811478E-01 -0.21902780980E-01  0.54380317848E-01  0.51100000000E-03 0. -1.
         11    1    4    4    0    0  0.78698727926E-01 -0.26401146353E-01 -0.16013765310E-01  0.84541185859E-01  0.51100000000E-03 0.  1.
</event>
<event>
 8    1  0.2183582E+004  0.1043930E+01  0.7957747E-01            NaN
         13   -1    0    0    0    0  0.00000000000E+00  0.00000000000E+00  0.74505805969E-08  0.10566000000E+00  0.10566000000E+00 0.  1.
     999900   -1    0    0    0    0 -0.00000000000E+00 -0.00000000000E+00 -0.74505805969E-08  0.93827000000E+00  0.93827000000E+00 0. -1.
     999902    2    1    2    0    0  0.53710685636E-02  0.25583776919E-02  0.12747910072E-01  0.10298622040E+01  0.10297661173E+01 0.  0.
     999903    2    3    3    0    0  0.33664273865E-01 -0.12569406743E+00 -0.22440875036E-01  0.13941992861E+00  0.44744180625E-01 0.  0.
         14    1    1    2    0    0 -0.53710685636E-02 -0.25583776919E-02 -0.12747910072E-01  0.14067796029E-01  0.00000000000E+00 0.  1.
     999901    1    3    3    0    0 -0.28293205301E-01  0.12825244512E+00  0.35188785108E-01  0.89044227536E+00  0.88000000000E+00 0. -1.
        -11    1    4    4    0    0  0.17532734526E-01 -0.93721287286E-01  0.31512699637E-02  0.95400566528E-01  0.51100000000E-03 0.  1.
         11    1    4    4    0    0  0.16131539339E-01 -0.31972780146E-01 -0.25592145000E-01  0.44019362085E-01  0.51100000000E-03 0. -1.
</event>
<event>
 8    1  0.2183582E+004  0.1043930E+01  0.7957747E-01            NaN
         13   -1    0    0    0    0  0.00000000000E+00  0.00000000000E+00  0.74505805969E-08  0.10566000000E+00  0.10566000000E+00 0.  1.
     999900   -1    0    0    0    0 -0.00000000000E+00 -0.00000000000E+00 -0.74505805969E-08  0.93827000000E+00  0.93827000000E+00 0.  1.
     999902    2    1    2    0    0  0.10920830593E-02  0.11151140806E-01 -0.88854532235E-02  0.10296299348E+01  0.10295306264E+01 0.  0.
     999903    2    3    3    0    0 -0.55584736294E-01  0.83215850984E-02  0.12055052210E+00  0.13835335595E+00  0.38082949442E-01 0.  0.
         14    1    1    2    0    0 -0.10920830593E-02 -0.11151140806E-01  0.88854532235E-02  0.14300065233E-01  0.00000000000E+00 0. -1.
     999901    1    3    3    0    0  0.56676819353E-01  0.28295557080E-02 -0.12943597532E+00  0.89127657882E+00  0.88000000000E+00 0.  1.
        -11    1    4    4    0    0 -0.31496508770E-01  0.21828434725E-01  0.85741096345E-01  0.93916491366E-01  0.51100000000E-03 0.  1.
         11    1    4    4    0    0 -0.24088227524E-01 -0.13506849626E-01  0.34809425751E-01  0.44436864585E-01  0.51100000000E-03 0. -1.
</event>
<event>
 8    1  0.2183582E+004  0.1043930E+01  0.7957747E-01            NaN
         13   -1    0    0    0    0  0.00000000000E+00  0.00000000000E+00  0.74505805969E-08  0.10566000000E+00  0.10566000000E+00 0.  1.
     999900   -1    0    0    0    0 -0.00000000000E+00 -0.00000000000E+00 -0.74505805969E-08  0.93827000000E+00  0.93827000000E+00 0.  1.
     999902    2    1    2    0    0  0.90573671949E-02 -0.10456292224E-01  0.87527674107E-04  0.10300960704E+01  0.10300031731E+01 0.  0.
     999903    2    3    3    0    0 -0.60014931658E-01 -0.22430235088E-01  0.11511134409E+00  0.13984619753E+00  0.46919398507E-01 0.  0.
         14    1    1    2    0    0 -0.90573671949E-02  0.10456292224E-01 -0.87527674107E-04  0.13833929618E-01  0.00000000000E+00 0. -1.
     999901    1    3    3    0    0  0.69072298853E-01  0.11973942863E-01 -0.11502381642E+00  0.89024987286E+00  0.88000000000E+00 0.  1.
        -11    1    4    4    0    0 -0.17635424568E-01 -0.31378608829E-01  0.48816047421E-01  0.60653877853E-01  0.51100000000E-03 0.  1.
         11    1    4    4    0    0 -0.42379507090E-01  0.89483737413E-02  0.66295296670E-01  0.79192319674E-01  0.51100000000E-03 0. -1.
</event>
<event>
 8    1  0.2183582E+004  0.1043930E+01  0.7957747E-01            NaN
         13   -1    0    0    0    0  0.00000000000E+00  0.00000000000E+00  0.74505805969E-08  0.10566000000E+00  0.10566000000E+00 0. -1.
     999900   -1    0    0    0    0 -0.00000000000E+00 -0.00000000000E+00 -0.74505805969E-08  0.93827000000E+00  0.93827000000E+00 0. -1.
     999902    2    1    2    0    0  0.93669643409E-02  0.10813021560E-01  0.32957151007E-03  0.10296202106E+01  0.10295207662E+01 0.  0.
     999903    2    3    3    0    0 -0.75889176319E-01  0.29279855616E-01  0.10364613707E+00  0.13929221135E+00  0.45203112558E-01 0.  0.
         14    1    1    2    0    0 -0.93669643409E-02 -0.10813021560E-01 -0.32957151007E-03  0.14309789433E-01  0.00000000000E+00 0.  1.
     999901    1    3    3    0    0  0.85256140660E-01 -0.18466834056E-01 -0.10331656556E+00  0.89032799922E+00  0.88000000000E+00 0. -1.
        -11    1    4    4    0    0 -0.40783934117E-01 -0.89736803328E-03  0.24465694292E-01  0.47570640837E-01  0.51100000000E-03 0. -1.
         11    1    4    4    0    0 -0.35105242203E-01  0.30177223650E-01  0.79180442776E-01  0.91721570508E-01  0.51100000000E-03 0.  1.
</event>
<event>
 8    1  0.2183582E+004  0.1043930E+01  0.7957747E-01            NaN
         13   -1    0    0    0    0  0.00000000000E+00  0.00000000000E+00  0.74505805969E-08  0.10566000000E+00  0.10566000000E+00 0.  1.
     999900   -1    0    0    0    0 -0.00000000000E+00 -0.00000000000E+00 -0.74505805969E-08  0.93827000000E+00  0.93827000000E+00 0. -1.
     999902    2    1    2    0    0  0.22191996045E-02 -0.13037145665E-01 -0.78174068410E-02  0.10285675828E+01  0.10284528518E+01 0.  0.
     999903    2    3    3    0    0 -0.50233426356E-01 -0.12156082312E+00 -0.20907255257E-01  0.14025456885E+00  0.43974991963E-01 0.  0.
         14    1    1    2    0    0 -0.22191996045E-02  0.13037145665E-01  0.78174068410E-02  0.15362417248E-01  0.00000000000E+00 0.  1.
     999901    1    3    3    0    0  0.52452625961E-01  0.10852367746E+00  0.13089848416E-01  0.88831301390E+00  0.88000000000E+00 0.  1.
        -11    1    4    4    0    0 -0.50395794641E-01 -0.95909014325E-01 -0.19649394666E-02  0.10836234242E+00  0.51100000000E-03 0.  1.
         11    1    4    4    0    0  0.16236828433E-03 -0.25651808800E-01 -0.18942315790E-01  0.31892226431E-01  0.51100000000E-03 0. -1.
</event>
<event>
 8    1  0.2183582E+004  0.1043930E+01  0.7957747E-01            NaN
         13   -1    0    0    0    0  0.00000000000E+00  0.00000000000E+00  0.74505805969E-08  0.10566000000E+00  0.10566000000E+00 0. -1.
     999900   -1    0    0    0    0 -0.00000000000E+00 -0.00000000000E+00 -0.74505805969E-08  0.93827000000E+00  0.93827000000E+00 0. -1.
     999902    2    1    2    0    0  0.12300824135E-01  0.16971791274E-02 -0.73714300536E-02  0.10294894781E+01  0.10293881954E+01 0.  0.
     999903    2    3    3    0    0 -0.40394939320E-01  0.78845396781E-01  0.96283930447E-01  0.13849389746E+00  0.45405028972E-01 0.  0.
         14    1    1    2    0    0 -0.12300824135E-01 -0.16971791274E-02  0.73714300536E-02  0.14440521889E-01  0.00000000000E+00 0. -1.
     999901    1    3    3    0    0  0.52695763455E-01 -0.77148217654E-01 -0.10365536050E+00  0.89099558065E+00  0.88000000000E+00 0. -1.
        -11    1    4    4    0    0 -0.34778903721E-01  0.61915428321E-01  0.44706356637E-01  0.83916695912E-01  0.51100000000E-03 0. -1.
         11    1    4    4    0    0 -0.56160355988E-02  0.16929968461E-01  0.51577573810E-01  0.54577201551E-01  0.51100000000E-03 0.  1.
</event>
<event>
 8    1  0.2183582E+004  0.1043930E+01  0.7957747E-01            NaN
         13   -1    0    0    0    0  0.00000000000E+00  0.00000000000E+00  0.74505805969E-08  0.10566000000E+00  0.10566000000E+00 0. -1.
     999900   -1    0    0    0    0 -0.00000000000E+00 -0.00000000000E+00 -0.74505805969E-08  0.93827000000E+00  0.93827000000E+00 0.  1.
     999902    2    1    2    0    0  0.13402061965E-01  0.10394763815E-02  0.49689815111E-02  0.10295986863E+01  0.10294989404E+01 0.  0.
     999903    2    3    3    0    0  0.77053244487E-01 -0.51270338075E-01  0.96846059482E-01  0.14098786753E+00  0.43960999764E-01 0.  0.
         14    1    1    2    0    0 -0.13402061965E-01 -0.10394763815E-02 -0.49689815111E-02  0.14331313734E-01  0.00000000000E+00 0.  1.
     999901    1    3    3    0    0 -0.63651182522E-01  0.52309814457E-01 -0.91877077971E-01  0.88861081874E+00  0.88000000000E+00 0.  1.
        -11    1    4    4    0    0  0.40932733625E-01 -0.98772413603E-02  0.65109402830E-01  0.77540596056E-01  0.51100000000E-03 0.  1.
         11    1    4    4    0    0  0.36120510862E-01 -0.41393096715E-01  0.31736656652E-01  0.63447271471E-01  0.51100000000E-03 0. -1.
</event>
<event>
 8    1  0.2183582E+004  0.1043930E+01  0.7957747E-01            NaN
         13   -1    0    0    0    0  0.00000000000E+00  0.00000000000E+00  0.74505805969E-08  0.10566000000E+00  0.10566000000E+00 0. -1.
     999900   -1    0    0    0    0 -0.00000000000E+00 -0.00000000000E+00 -0.74505805969E-08  0.93827000000E+00  0.93827000000E+00 0. -1.
     999902    2    1    2    0    0  0.47238436933E-02  0.79897420156E-03  0.85680448752E-02  0.10341134603E+01  0.10340668664E+01 0.  0.
     999903    2    3    3    0    0  0.74986326615E-01  0.93363840278E-01  0.67493012485E-01  0.14451960759E+00  0.44618991402E-01 0.  0.
         14    1    1    2    0    0 -0.47238436933E-02 -0.79897420156E-03 -0.85680448752E-02  0.98165397161E-02  0.00000000000E+00 0.  1.
     999901    1    3    3    0    0 -0.70262482921E-01 -0.92564866077E-01 -0.58924967610E-01  0.88959385269E+00  0.88000000000E+00 0. -1.
        -11    1    4    4    0    0  0.31023608204E-01  0.61252441937E-01  0.18098368727E-01  0.71008013497E-01  0.51100000000E-03 0.  1.
         11    1    4    4    0    0  0.43962718411E-01  0.32111398342E-01  0.49394643758E-01  0.73511594096E-01  0.51100000000E-03 0. -1.
</event>
<event>
 8    1  0.2183582E+004  0.1043930E+01  0.7957747E-01            NaN
         13   -1    0    0    0    0  0.00000000000E+00  0.00000000000E+00  0.74505805969E-08  0.10566000000E+00  0.10566000000E+00 0.  1.
     999900   -1    0    0    0    0 -0.00000000000E+00 -0.00000000000E+00 -0.74505805969E-08  0.93827000000E+00  0.93827000000E+00 0. -1.
     999902    2    1    2    0    0 -0.11387136618E-01 -0.83663537183E-02 -0.17005418190E-01  0.10218201153E+01  0.10215808832E+01 0.  0.
     999903    2    3    3    0    0 -0.94298868702E-01 -0.58678853164E-01  0.57830489752E-01  0.13333482218E+00  0.45807475528E-01 0.  0.
         14    1    1    2    0    0  0.11387136618E-01  0.83663537183E-02  0.17005418190E-01  0.22109884729E-01  0.00000000000E+00 0.  1.
     999901    1    3    3    0    0  0.82911732084E-01  0.50312499446E-01 -0.74835907942E-01  0.88848529309E+00  0.88000000000E+00 0. -1.
        -11    1    4    4    0    0 -0.37168284653E-01 -0.17466924247E-01 -0.16971395169E-02  0.41106158057E-01  0.51100000000E-03 0. -1.
         11    1    4    4    0    0 -0.57130584049E-01 -0.41211928918E-01  0.59527629269E-01  0.92228664125E-01  0.51100000000E-03 0.  1.
</event>
<event>
 8    1  0.2183582E+004  0.1043930E+01  0.7957747E-01            NaN
         13   -1    0    0    0    0  0.00000000000E+00  0.00000000000E+00  0.74505805969E-08  0.10566000000E+00  0.10566000000E+00 0.  1.
     999900   -1    0    0    0    0 -0.00000000000E+00 -0.00000000000E+00 -0.74505805969E-08  0.93827000000E+00  0.93827000000E+00 0.  1.
     999902    2    1    2    0    0 -0.64872144153E-02 -0.10013722634E-01 -0.24045893388E-02  0.10317586960E+01  0.10316869031E+01 0.  0.
     999903    2    3    3    0    0  0.42729733091E-01 -0.12306523091E+00  0.34703855235E-01  0.14238813872E+00  0.45816408987E-01 0.  0.
         14    1    1    2    0    0  0.64872144153E-02  0.10013722634E-01  0.24045893388E-02  0.12171304028E-01  0.00000000000E+00 0.  1.
     999901    1    3    3    0    0 -0.49216947506E-01  0.11305150827E+00 -0.37108444574E-01  0.88937055725E+00  0.88000000000E+00 0.  1.
        -11    1    4    4    0    0  0.36830436506E-01 -0.74902573014E-01  0.13045371583E-02  0.83479574960E-01  0.51100000000E-03 0.  1.
         11    1    4    4    0    0  0.58992965852E-02 -0.48162657892E-01  0.33399318077E-01  0.58908563761E-01  0.51100000000E-03 0. -1.
</event>
<event>
 8    1  0.2183582E+004  0.1043930E+01  0.7957747E-01            NaN
         13   -1    0    0    0    0  0.00000000000E+00  0.00000000000E+00  0.74505805969E-08  0.10566000000E+00  0.10566000000E+00 0.  1.
     999900   -1    0    0    0    0 -0.00000000000E+00 -0.00000000000E+00 -0.74505805969E-08  0.93827000000E+00  0.93827000000E+00 0.  1.
     999902    2    1    2    0    0 -0.36250020066E-02 -0.11910665609E-03  0.13789968319E-01  0.10296710361E+01  0.10295723017E+01 0.  0.
     999903    2    3    3    0    0 -0.31923201318E-01 -0.20095231121E-01  0.12895589129E+00  0.14149142392E+00  0.44354166071E-01 0.  0.
         14    1    1    2    0    0  0.36250020066E-02  0.11910665609E-03 -0.13789968319E-01  0.14258963924E-01  0.00000000000E+00 0. -1.
     999901    1    3    3    0    0  0.28298199311E-01  0.19976124465E-01 -0.11516592297E+00  0.88817961215E+00  0.88000000000E+00 0.  1.
        -11    1    4    4    0    0  0.71250248551E-02 -0.10076031241E-01  0.62923112396E-01  0.64123876827E-01  0.51100000000E-03 0. -1.
         11    1    4    4    0    0 -0.39048226173E-01 -0.10019199880E-01  0.66032778898E-01  0.77367547095E-01  0.51100000000E-03 0.  1.
</event>
<event>
 8    1  0.2183582E+004  0.1043930E+01  0.7957747E-01            NaN
         13   -1    0    0    0    0  0.00000000000E+00  0.00000000000E+00  0.74505805969E-08  0.10566000000E+00  0.10566000000E+00 0.  1.
     999900   -1    0    0    0    0 -0.00000000000E+00 -0.00000000000E+00 -0.74505805969E-08  0.93827000000E+00  0.93827000000E+00 0.  1.
     999902    2    1    2    0    0  0.96693603668E-02 -0.96786052705E-02 -0.16680643642E-01  0.10223565023E+01  0.10221288578E+01 0.  0.
     999903    2    3    3    0    0 -0.12470412071E+00 -0.14763003852E-01  0.23065142960E-01  0.13125504284E+00  0.30443742341E-01 0.  0.
         14    1    1    2    0    0 -0.96693603668E-02  0.96786052705E-02  0.16680643642E-01  0.21573497681E-01  0.00000000000E+00 0.  1.
     999901    1    3    3    0    0  0.13437348108E+00  0.50843985819E-02 -0.39745786602E-01  0.89110145947E+00  0.88000000000E+00 0. -1.
        -11    1    4    4    0    0 -0.83650027055E-01 -0.21510581881E-01  0.70104241246E-02  0.86657021219E-01  0.51100000000E-03 0.  1.
         11    1    4    4    0    0 -0.41054093654E-01  0.67475780283E-02  0.16054718836E-01  0.44598021625E-01  0.51100000000E-03 0. -1.
</event>
<event>
 8    1  0.2183582E+004  0.1043930E+01  0.7957747E-01            NaN
         13   -1    0    0    0    0  0.00000000000E+00  0.00000000000E+00  0.74505805969E-08  0.10566000000E+00  0.10566000000E+00 0. -1.
     999900   -1    0    0    0    0 -0.00000000000E+00 -0.00000000000E+00 -0.74505805969E-08  0.93827000000E+00  0.93827000000E+00 0.  1.
     999902    2    1    2    0    0 -0.73986605656E-02  0.11265855160E-01 -0.11885138455E-02  0.10303995811E+01  0.10303107417E+01 0.  0.
     999903    2    3    3    0    0 -0.59375983783E-01 -0.11527169741E+00  0.24938514629E-01  0.13944727263E+00  0.44839052830E-01 0.  0.
         14    1    1    2    0    0  0.73986605656E-02 -0.11265855160E-01  0.11885138455E-02  0.13530418907E-01  0.00000000000E+00 0.  1.
     999901    1    3    3    0    0  0.51977323217E-01  0.12653755257E+00 -0.26127028474E-01  0.89095230846E+00  0.88000000000E+00 0. -1.
        -11    1    4    4    0    0 -0.51067995064E-01 -0.65479446413E-01  0.30921178867E-01  0.88610825783E-01  0.51100000000E-03 0.  1.
         11    1    4    4    0    0 -0.83079887192E-02 -0.49792250994E-01 -0.59826642388E-02  0.50836446847E-01  0.51100000000E-03 0. -1.
</event>
<event>
 8    1  0.2183582E+004  0.1043930E+01  0.7957747E-01            NaN
         13   -1    0    0    0    0  0.00000000000E+00  0.00000000000E+00  0.74505805969E-08  0.10566000000E+00  0.10566000000E+00 0.  1.
     999900   -1    0    0    0    0 -0.00000000000E+00 -0.00000000000E+00 -0.74505805969E-08  0.93827000000E+00  0.93827000000E+00 0. -1.
     999902    2    1    2    0    0  0.93299164802E-02 -0.47119556720E-03 -0.99833066530E-02  0.10302575540E+01  0.10301668272E+01 0.  0.
     999903    2    3    3    0    0  0.11617446527E+00  0.55763855026E-01 -0.37340727175E-01  0.14159194371E+00  0.45253007740E-01 0.  0.
         14    1    1    2    0    0 -0.93299164802E-02  0.47119556720E-03  0.99833066530E-02  0.13672445960E-01  0.00000000000E+00 0.  1.
     999901    1    3    3    0    0 -0.10684454879E+00 -0.56235050593E-01  0.27357420522E-01  0.88866561033E+00  0.88000000000E+00 0.  1.
        -11    1    4    4    0    0  0.40511882098E-01  0.41935371725E-01 -0.25995690676E-01  0.63842188618E-01  0.51100000000E-03 0. -1.
         11    1    4    4    0    0  0.75662583175E-01  0.13828483301E-01 -0.11345036499E-01  0.77749755095E-01  0.51100000000E-03 0.  1.
</event>
<event>
 8    1  0.2183582E+004  0.1043930E+01  0.7957747E-01            NaN
         13   -1    0    0    0    0  0.00000000000E+00  0.00000000000E+00  0.74505805969E-08  0.10566000000E+00  0.10566000000E+00 0.  1.
     999900   -1    0    0    0    0 -0.00000000000E+00 -0.00000000000E+00 -0.74505805969E-08  0.93827000000E+00  0.93827000000E+00 0. -1.
     999902    2    1    2    0    0 -0.48847903210E-02 -0.71383850494E-02  0.10508437563E-01  0.10303195269E+01  0.10302296261E+01 0.  0.
     999903    2    3    3    0    0 -0.34779328008E-01 -0.39786490949E-02  0.12923188294E+00  0.14183828131E+00  0.46816526672E-01 0.  0.
         14    1    1    2    0    0  0.48847903210E-02  0.71383850494E-02 -0.10508437563E-01  0.13610473085E-01  0.00000000000E+00 0. -1.
     999901    1    3    3    0    0  0.29894537687E-01 -0.31597359545E-02 -0.11872344538E+00  0.88848124561E+00  0.88000000000E+00 0. -1.
        -11    1    4    4    0    0 -0.30484158539E-01  0.18415868141E-01  0.80981323642E-01  0.88468435167E-01  0.51100000000E-03 0.  1.
         11    1    4    4    0    0 -0.42951694687E-02 -0.22394517236E-01  0.48250559301E-01  0.53369846139E-01  0.51100000000E-03 0. -1.
</event>
<event>
 7    1  0.2183582E+004  0.1043930E+01  0.7957747E-01            NaN
         13   -1    0    0    0    0  0.00000000000E+00  0.00000000000E+00  0.74505805969E-08  0.10566000000E+00  0.10566000000E+00 0. -1.
     999900   -1    0    0    0    0 -0.00000000000E+00 -0.00000000000E+00 -0.74505805969E-08  0.93827000000E+00  0.93827000000E+00 0. -1.
     999902    2    1    2    0    0  0.21417392083E-02  0.12880200218E-01  0.81183739404E-02  0.10285548707E+01  0.10284399484E+01 0.  0.
         14    1    1    2    0    0 -0.21417392083E-02 -0.12880200218E-01 -0.81183739404E-02  0.15375129266E-01  0.00000000000E+00 0.  1.
     999901    1    3    3    0    0  0.81131630924E-01 -0.97058799020E-01  0.22711499867E-01  0.88933602436E+00  0.88000000000E+00 0. -1.
        -11    1    3    3    0    0 -0.35511773193E-01  0.26538696204E-01 -0.27348506427E-02  0.44419916259E-01  0.51100000000E-03 0. -1.
         11    1    3    3    0    0 -0.43478118523E-01  0.83400303035E-01 -0.11858275284E-01  0.94798930112E-01  0.51100000000E-03 0.  1.
</event>
<event>
 8    1  0.2183582E+004  0.1043930E+01  0.7957747E-01            NaN
         13   -1    0    0    0    0  0.00000000000E+00  0.00000000000E+00  0.74505805969E-08  0.10566000000E+00  0.10566000000E+00 0.  1.
     999900   -1    0    0    0    0 -0.00000000000E+00 -0.00000000000E+00 -0.74505805969E-08  0.93827000000E+00  0.93827000000E+00 0.  1.
     999902    2    1    2    0    0 -0.98270472992E-02 -0.11411014726E-01 -0.30654620402E-02  0.10285618780E+01  0.10284470612E+01 0.  0.
     999903    2    3    3    0    0 -0.99370279752E-01 -0.61180800092E-01  0.63291878937E-01  0.14013725054E+00  0.44889244269E-01 0.  0.
         14    1    1    2    0    0  0.98270472992E-02  0.11411014726E-01  0.30654620402E-02  0.15368121981E-01  0.00000000000E+00 0.  1.
     999901    1    3    3    0    0  0.89543232453E-01  0.49769785366E-01 -0.66357340977E-01  0.88842462748E+00  0.88000000000E+00 0.  1.
        -11    1    4    4    0    0 -0.39943342581E-01 -0.99000616911E-03  0.26158115403E-01  0.47759384954E-01  0.51100000000E-03 0. -1.
         11    1    4    4    0    0 -0.59426937171E-01 -0.60190793923E-01  0.37133763534E-01  0.92377865584E-01  0.51100000000E-03 0.  1.
</event>
<event>
 8    1  0.2183582E+004  0.1043930E+01  0.7957747E-01            NaN
         13   -1    0    0    0    0  0.00000000000E+00  0.00000000000E+00  0.74505805969E-08  0.10566000000E+00  0.10566000000E+00 0.  1.
     999900   -1    0    0    0    0 -0.00000000000E+00 -0.00000000000E+00 -0.74505805969E-08  0.93827000000E+00  0.93827000000E+00 0. -1.
     999902    2    1    2    0    0  0.25753577972E-02 -0.11761924306E-01 -0.79649674776E-02  0.10294933786E+01  0.10293921510E+01 0.  0.
     999903    2    3    3    0    0 -0.12119798687E+00  0.34399624635E-01 -0.38590450847E-01  0.13910658079E+00  0.44599683002E-01 0.  0.
         14    1    1    2    0    0 -0.25753577972E-02  0.11761924306E-01  0.79649674776E-02  0.14436621422E-01  0.00000000000E+00 0.  1.
     999901    1    3    3    0    0  0.12377334467E+00 -0.46161548941E-01  0.30625483369E-01  0.89038679779E+00  0.88000000000E+00 0. -1.
        -11    1    4    4    0    0 -0.61364557250E-01  0.19704425685E-02 -0.35621500253E-01  0.70983406031E-01  0.51100000000E-03 0. -1.
         11    1    4    4    0    0 -0.59833429624E-01  0.32429182067E-01 -0.29689505940E-02  0.68123174755E-01  0.51100000000E-03 0.  1.
</event>
<event>
 8    1  0.2183582E+004  0.1043930E+01  0.7957747E-01            NaN
         13   -1    0    0    0    0  0.00000000000E+00  0.00000000000E+00  0.74505805969E-08  0.10566000000E+00  0.10566000000E+00 0. -1.
     999900   -1    0    0    0    0 -0.00000000000E+00 -0.00000000000E+00 -0.74505805969E-08  0.93827000000E+00  0.93827000000E+00 0.  1.
     999902    2    1    2    0    0 -0.33887777834E-02 -0.13381093487E-01  0.32876350657E-03  0.10301225541E+01  0.10300300145E+01 0.  0.
     999903    2    3    3    0    0  0.10989462212E+00  0.17796685583E-01 -0.72087918532E-01  0.13936481010E+00  0.42805750867E-01 0.  0.
         14    1    1    2    0    0  0.33887777834E-02  0.13381093487E-01 -0.32876350657E-03  0.13807445934E-01  0.00000000000E+00 0.  1.
     999901    1    3    3    0    0 -0.11328339990E+00 -0.31177779069E-01  0.72416682039E-01  0.89075774397E+00  0.88000000000E+00 0. -1.
        -11    1    4    4    0    0  0.15516415929E-01 -0.98185710462E-02 -0.23065229879E-01  0.29486089111E-01  0.51100000000E-03 0.  1.
         11    1    4    4    0    0  0.94378206189E-01  0.27615256629E-01 -0.49022688653E-01  0.10987872099E+00  0.51100000000E-03 0. -1.
</event>
<event>
 8    1  0.2183582E+004  0.1043930E+01  0.7957747E-01            NaN
         13   -1    0    0    0    0  0.00000000000E+00  0.00000000000E+00  0.74505805969E-08  0.10566000000E+00  0.10566000000E+00 0.  1.
     999900   -1    0    0    0    0 -0.00000000000E+00 -0.00000000000E+00 -0.74505805969E-08  0.93827000000E+00  0.93827000000E+00 0.  1.
     999902    2    1    2    0    0 -0.19301705258E-02 -0.13523135736E-01  0.73497094925E-03  0.10302500533E+01  0.10301592263E+01 0.  0.
     999903    2    3    3    0    0 -0.75959360626E-01 -0.29468861390E-01  0.10540097789E+00  0.14081789732E+00  0.45629768875E-01 0.  0.
         14    1    1    2    0    0  0.19301705258E-02  0.13523135736E-01 -0.73497094925E-03  0.13679946662E-01  0.00000000000E+00 0. -1.
     999901    1    3    3    0    0  0.74029190100E-01  0.15945725654E-01 -0.10466600694E+00  0.88943215602E+00  0.88000000000E+00 0.  1.
        -11    1    4    4    0    0 -0.62118417004E-01 -0.25022403265E-01  0.10695121856E+00  0.12618891658E+00  0.51100000000E-03 0. -1.
         11    1    4    4    0    0 -0.13840943622E-01 -0.44464581250E-02 -0.15502406732E-02  0.14628980735E-01  0.51100000000E-03 0.  1.
</event>
<event>
 8    1  0.2183582E+004  0.1043930E+01  0.7957747E-01            NaN
         13   -1    0    0    0    0  0.00000000000E+00  0.00000000000E+00  0.74505805969E-08  0.10566000000E+00  0.10566000000E+00 0.  1.
     999900   -1    0    0    0    0 -0.00000000000E+00 -0.00000000000E+00 -0.74505805969E-08  0.93827000000E+00  0.93827000000E+00 0. -1.
     999902    2    1    2    0    0 -0.93823381213E-02  0.80498319931E-02  0.62627558993E-02  0.10300717831E+01  0.10299785572E+01 0.  0.
     999903    2    3    3    0    0 -0.19823181320E-01  0.11698330992E+00 -0.60932234661E-01  0.14075143556E+00  0.44946368851E-01 0.  0.
         14    1    1    2    0    0  0.93823381213E-02 -0.80498319931E-02 -0.62627558993E-02  0.13858216884E-01  0.00000000000E+00 0.  1.
     999901    1    3    3    0    0  0.10440843199E-01 -0.10893347793E+00  0.67194990560E-01  0.88932034756E+00  0.88000000000E+00 0. -1.
        -11    1    4    4    0    0 -0.36502989112E-02  0.54674866585E-01 -0.52387816287E-01  0.75811675450E-01  0.51100000000E-03 0. -1.
         11    1    4    4    0    0 -0.16172882409E-01  0.62308443339E-01 -0.85444183739E-02  0.64939760110E-01  0.51100000000E-03 0.  1.
</event>
<event>
 8    1  0.2183582E+004  0.1043930E+01  0.7957747E-01            NaN
         13   -1    0    0    0    0  0.00000000000E+00  0.00000000000E+00  0.74505805969E-08  0.10566000000E+00  0.10566000000E+00 0. -1.
     999900   -1    0    0    0    0 -0.00000000000E+00 -0.00000000000E+00 -0.74505805969E-08  0.93827000000E+00  0.93827000000E+00 0. -1.
     999902    2    1    2    0    0  0.12361937996E-01 -0.20526111397E-02 -0.56810498546E-02  0.10301711828E+01  0.10300792983E+01 0.  0.
     999903    2    3    3    0    0 -0.30701180306E-01  0.11285688704E+00 -0.61551085263E-01  0.13990151253E+00  0.45876548326E-01 0.  0.
         14    1    1    2    0    0 -0.12361937996E-01  0.20526111397E-02  0.56810498546E-02  0.13758817208E-01  0.00000000000E+00 0.  1.
     999901    1    3    3    0    0  0.43063118302E-01 -0.11490949818E+00  0.55870035408E-01  0.89026967026E+00  0.88000000000E+00 0. -1.
        -11    1    4    4    0    0 -0.12214296713E-01  0.89259175034E-01 -0.62920086143E-01  0.10988897913E+00  0.51100000000E-03 0. -1.
         11    1    4    4    0    0 -0.18486883593E-01  0.23597712009E-01  0.13690008805E-02  0.30012533406E-01  0.51100000000E-03 0.  1.
</event>
<event>
 8    1  0.2183582E+004  0.1043930E+01  0.7957747E-01            NaN
         13   -1    0    0    0    0  0.00000000000E+00  0.00000000000E+00  0.74505805969E-08  0.10566000000E+00  0.10566000000E+00 0.  1.
     999900   -1    0    0    0    0 -0.00000000000E+00 -0.00000000000E+00 -0.74505805969E-08  0.93827000000E+00  0.93827000000E+00 0. -1.
     999902    2    1    2    0    0  0.77776524173E-02  0.10232591551E-01 -0.65363515750E-02  0.10295105098E+01  0.10294095240E+01 0.  0.
     999903    2    3    3    0    0 -0.81166563091E-01 -0.86874426681E-01 -0.54999033287E-01  0.13839352643E+00  0.44639640667E-01 0.  0.
         14    1    1    2    0    0 -0.77776524173E-02 -0.10232591551E-01  0.65363515750E-02  0.14419490243E-01  0.00000000000E+00 0.  1.
     999901    1    3    3    0    0  0.88944215508E-01  0.97107018231E-01  0.48462681712E-01  0.89111698333E+00  0.88000000000E+00 0. -1.
        -11    1    4    4    0    0 -0.72170551783E-01 -0.47113058497E-01 -0.38898480524E-01  0.94559937255E-01  0.51100000000E-03 0.  1.
         11    1    4    4    0    0 -0.89960113079E-02 -0.39761368184E-01 -0.16100552764E-01  0.43833589171E-01  0.51100000000E-03 0. -1.
</event>
<event>
 8    1  0.2183582E+004  0.1043930E+01  0.7957747E-01            NaN
         13   -1    0    0    0    0  0.00000000000E+00  0.00000000000E+00  0.74505805969E-08  0.10566000000E+00  0.10566000000E+00 0.  1.
     999900   -1    0    0    0    0 -0.00000000000E+00 -0.00000000000E+00 -0.74505805969E-08  0.93827000000E+00  0.93827000000E+00 0. -1.
     999902    2    1    2    0    0  0.14863018291E-02 -0.22637127512E-02 -0.13051143250E-01  0.10306008654E+01  0.10305146665E+01 0.  0.
     999903    2    3    3    0    0  0.66526928572E-01  0.57712747019E-01  0.97991003658E-01  0.13922113868E+00  0.44985500591E-01 0.  0.
         14    1    1    2    0    0 -0.14863018291E-02  0.22637127512E-02  0.13051143250E-01  0.13329134581E-01  0.00000000000E+00 0.  1.
     999901    1    3    3    0    0 -0.65040626743E-01 -0.59976459770E-01 -0.11104214691E+00  0.89137972674E+00  0.88000000000E+00 0. -1.
        -11    1    4    4    0    0  0.91715370837E-02  0.22885112116E-01  0.52928197370E-01  0.58390929491E-01  0.51100000000E-03 0.  1.
         11    1    4    4    0    0  0.57355391489E-01  0.34827634903E-01  0.45062806288E-01  0.80830209188E-01  0.51100000000E-03 0. -1.
</event>
<event>
 8    1  0.2183582E+004  0.1043930E+01  0.7957747E-01            NaN
         13   -1    0    0    0    0  0.00000000000E+00  0.00000000000E+00  0.74505805969E-08  0.10566000000E+00  0.10566000000E+00 0. -1.
     999900   -1    0    0    0    0 -0.00000000000E+00 -0.00000000000E+00 -0.74505805969E-08  0.93827000000E+00  0.93827000000E+00 0. -1.
     999902    2    1    2    0    0  0.99880761486E-02  0.60621638290E-02  0.66303603773E-02  0.10304959695E+01  0.10304083997E+01 0.  0.
     999903    2    3    3    0    0  0.42864888488E-01  0.18496302986E-01 -0.12439471183E+00  0.14010107842E+00  0.44438226261E-01 0.  0.
         14    1    1    2    0    0 -0.99880761486E-02 -0.60621638290E-02 -0.66303603773E-02  0.13434030452E-01  0.00000000000E+00 0.  1.
     999901    1    3    3    0    0 -0.32876812340E-01 -0.12434139157E-01  0.13102507221E+00  0.89039489113E+00  0.88000000000E+00 0.  1.
        -11    1    4    4    0    0 -0.57169181701E-02  0.13423423155E-01 -0.40105856076E-01  0.42680349755E-01  0.51100000000E-03 0. -1.
         11    1    4    4    0    0  0.48581806658E-01  0.50728798313E-02 -0.84288855753E-01  0.97420728663E-01  0.51100000000E-03 0.  1.
</event>
<event>
 8    1  0.2183582E+004  0.1043930E+01  0.7957747E-01            NaN
         13   -1    0    0    0    0  0.00000000000E+00  0.00000000000E+00  0.74505805969E-08  0.10566000000E+00  0.10566000000E+00 0. -1.
     999900   -1    0    0    0    0 -0.00000000000E+00 -0.00000000000E+00 -0.74505805969E-08  0.93827000000E+00  0.93827000000E+00 0. -1.
     999902    2    1    2    0    0  0.13508872288E-01  0.89057204719E-04 -0.24074230091E-02  0.10302080013E+01  0.10301166113E+01 0.  0.
     999903    2    3    3    0    0  0.34399923671E-02 -0.13299752387E+00 -0.20524643514E-02  0.14014421351E+00  0.44000148518E-01 0.  0.
         14    1    1    2    0    0 -0.13508872288E-01 -0.89057204719E-04  0.24074230091E-02  0.13721998659E-01  0.00000000000E+00 0.  1.
     999901    1    3    3    0    0  0.10068879920E-01  0.13308658107E+00 -0.35495865769E-03  0.89006378783E+00  0.88000000000E+00 0.  1.
        -11    1    4    4    0    0  0.41074483906E-02 -0.15344513751E-01  0.14272601621E-01  0.21361027891E-01  0.51100000000E-03 0. -1.
         11    1    4    4    0    0 -0.66745602341E-03 -0.11765301012E+00 -0.16325065973E-01  0.11878318562E+00  0.51100000000E-03 0.  1.
</event>
<event>
 8    1  0.2183582E+004  0.1043930E+01  0.7957747E-01            NaN
         13   -1    0    0    0    0  0.00000000000E+00  0.00000000000E+00  0.74505805969E-08  0.10566000000E+00  0.10566000000E+00 0. -1.
     999900   -1    0    0    0    0 -0.00000000000E+00 -0.00000000000E+00 -0.74505805969E-08  0.93827000000E+00  0.93827000000E+00 0. -1.
     999902    2    1    2    0    0 -0.66677474626E-02 -0.11148356004E-01  0.16760616682E-02  0.10308321421E+01  0.10307489274E+01 0.  0.
     999903    2    3    3    0    0  0.10099572580E+00 -0.84709553788E-01  0.74357838673E-02  0.14120533966E+00  0.50078058412E-01 0.  0.
         14    1    1    2    0    0  0.66677474626E-02  0.11148356004E-01 -0.16760616682E-02  0.13097857860E-01  0.00000000000E+00 0.  1.
     999901    1    3    3    0    0 -0.10766347326E+00  0.73561197784E-01 -0.57597221991E-02  0.88962680248E+00  0.88000000000E+00 0. -1.
        -11    1    4    4    0    0  0.89452837978E-01 -0.76449450559E-01 -0.10714581077E-01  0.11815833480E+00  0.51100000000E-03 0. -1.
         11    1    4    4    0    0  0.11542887819E-01 -0.82601032284E-02  0.18150364944E-01  0.23047004863E-01  0.51100000000E-03 0.  1.
</event>
<event>
 8    1  0.2183582E+004  0.1043930E+01  0.7957747E-01            NaN
         13   -1    0    0    0    0  0.00000000000E+00  0.00000000000E+00  0.74505805969E-08  0.10566000000E+00  0.10566000000E+00 0. -1.
     999900   -1    0    0    0    0 -0.00000000000E+00 -0.00000000000E+00 -0.74505805969E-08  0.93827000000E+00  0.93827000000E+00 0.  1.
     999902    2    1    2    0    0  0.31963425162E-02 -0.14504763589E-01  0.17826714422E-02  0.10289706320E+01  0.10288618852E+01 0.  0.
     999903    2    3    3    0    0  0.87548588420E-01  0.29501813762E-01 -0.93162668262E-01  0.13876475823E+00  0.45180338854E-01 0.  0.
         14    1    1    2    0    0 -0.31963425162E-02  0.14504763589E-01 -0.17826714422E-02  0.14959367959E-01  0.00000000000E+00 0.  1.
     999901    1    3    3    0    0 -0.84352245903E-01 -0.44006577351E-01  0.94945339704E-01  0.89020587381E+00  0.88000000000E+00 0. -1.
        -11    1    4    4    0    0  0.36388479944E-01 -0.32069335419E-02 -0.58137195374E-01  0.68662948541E-01  0.51100000000E-03 0.  1.
         11    1    4    4    0    0  0.51160108475E-01  0.32708747304E-01 -0.35025472888E-01  0.70101809687E-01  0.51100000000E-03 0. -1.
</event>
<event>
 8    1  0.2183582E+004  0.1043930E+01  0.7957747E-01            NaN
         13   -1    0    0    0    0  0.00000000000E+00  0.00000000000E+00  0.74505805969E-08  0.10566000000E+00  0.10566000000E+00 0. -1.
     999900   -1    0    0    0    0 -0.00000000000E+00 -0.00000000000E+00 -0.74505805969E-08  0.93827000000E+00  0.93827000000E+00 0.  1.
     999902    2    1    2    0    0  0.39597867905E-03  0.30954800827E-02  0.12432828376E-01  0.10311114971E+01  0.10310318159E+01 0.  0.
     999903    2    3    3    0    0 -0.84860539211E-01 -0.13030367420E-01 -0.10041455997E+00  0.13967263216E+00  0.45323931116E-01 0.  0.
         14    1    1    2    0    0 -0.39597867905E-03 -0.30954800827E-02 -0.12432828376E-01  0.12818502935E-01  0.00000000000E+00 0.  1.
     999901    1    3    3    0    0  0.85256517890E-01  0.16125847503E-01  0.11284738834E+00  0.89143886490E+00  0.88000000000E+00 0. -1.
        -11    1    4    4    0    0 -0.36707692986E-01  0.91914192535E-02 -0.18590669875E-01  0.42164096571E-01  0.51100000000E-03 0.  1.
         11    1    4    4    0    0 -0.48152846224E-01 -0.22221786674E-01 -0.81823890093E-01  0.97508535593E-01  0.51100000000E-03 0. -1.
</event>
<event>
 8    1  0.2183582E+004  0.1043930E+01  0.7957747E-01            NaN
         13   -1    0    0    0    0  0.00000000000E+00  0.00000000000E+00  0.74505805969E-08  0.10566000000E+00  0.10566000000E+00 0. -1.
     999900   -1    0    0    0    0 -0.00000000000E+00 -0.00000000000E+00 -0.74505805969E-08  0.93827000000E+00  0.93827000000E+00 0. -1.
     999902    2    1    2    0    0 -0.11603659118E-01 -0.64588350935E-02 -0.30203111699E-02  0.10303107586E+01  0.10302207412E+01 0.  0.
     999903    2    3    3    0    0 -0.25589785701E-01  0.64068354345E-01  0.11302472648E+00  0.13978498869E+00  0.44784630221E-01 0.  0.
         14    1    1    2    0    0  0.11603659118E-01  0.64588350935E-02  0.30203111699E-02  0.13619241361E-01  0.00000000000E+00 0. -1.
     999901    1    3    3    0    0  0.13986126582E-01 -0.70527189438E-01 -0.11604503765E+00  0.89052576995E+00  0.88000000000E+00 0. -1.
        -11    1    4    4    0    0  0.10856837951E-01  0.29242926334E-01  0.51881812774E-01  0.60539270632E-01  0.51100000000E-03 0.  1.
         11    1    4    4    0    0 -0.36446623652E-01  0.34825428011E-01  0.61142913710E-01  0.79245718053E-01  0.51100000000E-03 0. -1.
</event>
<event>
 8    1  0.2183582E+004  0.1043930E+01  0.7957747E-01            NaN
         13   -1    0    0    0    0  0.00000000000E+00  0.00000000000E+00  0.74505805969E-08  0.10566000000E+00  0.10566000000E+00 0.  1.
     999900   -1    0    0    0    0 -0.00000000000E+00 -0.00000000000E+00 -0.74505805969E-08  0.93827000000E+00  0.93827000000E+00 0. -1.
     999902    2    1    2    0    0 -0.16121144347E-01 -0.10953924713E-01 -0.15768297701E-01  0.10188597193E+01  0.10185512303E+01 0.  0.
     999903    2    3    3    0    0  0.31188219810E-01 -0.11912221881E+00 -0.24342753717E-02  0.13087528705E+00  0.44267448451E-01 0.  0.
         14    1    1    2    0    0  0.16121144347E-01  0.10953924713E-01  0.15768297701E-01  0.25070280694E-01  0.00000000000E+00 0. -1.
     999901    1    3    3    0    0 -0.47309364157E-01  0.10816829410E+00 -0.13334022329E-01  0.88798443226E+00  0.88000000000E+00 0. -1.
        -11    1    4    4    0    0  0.10210811322E-01 -0.66949104101E-01  0.19558656378E-01  0.70492874591E-01  0.51100000000E-03 0.  1.
         11    1    4    4    0    0  0.20977408488E-01 -0.52173114713E-01 -0.21992931750E-01  0.60382412454E-01  0.51100000000E-03 0. -1.
</event>
<event>
 8    1  0.2183582E+004  0.1043930E+01  0.7957747E-01            NaN
         13   -1    0    0    0    0  0.00000000000E+00  0.00000000000E+00  0.74505805969E-08  0.10566000000E+00  0.10566000000E+00 0. -1.
     999900   -1    0    0    0    0 -0.00000000000E+00 -0.00000000000E+00 -0.74505805969E-08  0.93827000000E+00  0.93827000000E+00 0. -1.
     999902    2    1    2    0    0  0.51212894392E-03  0.14483655370E-01 -0.18770625469E-02  0.10293162423E+01  0.10292124974E+01 0.  0.
     999903    2    3    3    0    0  0.71164027977E-01  0.22605962483E-01  0.10908743123E+00  0.13950121573E+00  0.44555281615E-01 0.  0.
         14    1    1    2    0    0 -0.51212894392E-03 -0.14483655370E-01  0.18770625469E-02  0.14613757653E-01  0.00000000000E+00 0. -1.
     999901    1    3    3    0    0 -0.70651899033E-01 -0.81223071131E-02 -0.11096449378E+00  0.88981502661E+00  0.88000000000E+00 0. -1.
        -11    1    4    4    0    0  0.58631242900E-01 -0.19240203999E-02  0.65443585930E-01  0.87888842061E-01  0.51100000000E-03 0.  1.
         11    1    4    4    0    0  0.12532785077E-01  0.24529982883E-01  0.43643845304E-01  0.51612373671E-01  0.51100000000E-03 0. -1.
</event>
<event>
 8    1  0.2183582E+004  0.1043930E+01  0.7957747E-01            NaN
         13   -1    0    0    0    0  0.00000000000E+00  0.00000000000E+00  0.74505805969E-08  0.10566000000E+00  0.10566000000E+00 0. -1.
     999900   -1    0    0    0    0 -0.00000000000E+00 -0.00000000000E+00 -0.74505805969E-08  0.93827000000E+00  0.93827000000E+00 0.  1.
     999902    2    1    2    0    0  0.87260032830E-02 -0.91565507418E-02  0.61983997914E-02  0.10298443437E+01  0.10297480111E+01 0.  0.
     999903    2    3    3    0    0  0.61022591886E-01 -0.33471524701E-03 -0.11731250666E+00  0.13963779348E+00  0.44862237944E-01 0.  0.
         14    1    1    2    0    0 -0.87260032830E-02  0.91565507418E-02 -0.61983997914E-02  0.14085656348E-01  0.00000000000E+00 0. -1.
     999901    1    3    3    0    0 -0.52296588603E-01 -0.88218354948E-02  0.12351090645E+00  0.89020655017E+00  0.88000000000E+00 0. -1.
        -11    1    4    4    0    0  0.26581836720E-01 -0.15812297129E-01 -0.83143012977E-01  0.88711016857E-01  0.51100000000E-03 0.  1.
         11    1    4    4    0    0  0.34440755166E-01  0.15477581882E-01 -0.34169493684E-01  0.50926776620E-01  0.51100000000E-03 0. -1.
</event>
<event>
 8    1  0.2183582E+004  0.1043930E+01  0.7957747E-01            NaN
         13   -1    0    0    0    0  0.00000000000E+00  0.00000000000E+00  0.74505805969E-08  0.10566000000E+00  0.10566000000E+00 0.  1.
     999900   -1    0    0    0    0 -0.00000000000E+00 -0.00000000000E+00 -0.74505805969E-08  0.93827000000E+00  0.93827000000E+00 0. -1.
     999902    2    1    2    0    0  0.27467955515E-02  0.79194254916E-02  0.10132519393E-01  0.10307797097E+01  0.10306958231E+01 0.  0.
     999903    2    3    3    0    0  0.27266233128E-01 -0.30908241881E-01 -0.12495702080E+00  0.13928771621E+00  0.45695119587E-01 0.  0.
         14    1    1    2    0    0 -0.27467955515E-02 -0.79194254916E-02 -0.10132519393E-01  0.13150290307E-01  0.00000000000E+00 0. -1.
     999901    1    3    3    0    0 -0.24519437576E-01  0.38827667373E-01  0.13508954020E+00  0.89149199348E+00  0.88000000000E+00 0.  1.
        -11    1    4    4    0    0  0.95810931551E-02 -0.39706524400E-01 -0.94889505055E-01  0.10330868655E+00  0.51100000000E-03 0. -1.
         11    1    4    4    0    0  0.17685139973E-01  0.87982825185E-02 -0.30067515748E-01  0.35979029661E-01  0.51100000000E-03 0.  1.
</event>
<event>
 8    1  0.2183582E+004  0.1043930E+01  0.7957747E-01            NaN
         13   -1    0    0    0    0  0.00000000000E+00  0.00000000000E+00  0.74505805969E-08  0.10566000000E+00  0.10566000000E+00 0.  1.
     999900   -1    0    0    0    0 -0.00000000000E+00 -0.00000000000E+00 -0.74505805969E-08  0.93827000000E+00  0.93827000000E+00 0.  1.
     999902    2    1    2    0    0 -0.13844879960E-01 -0.26248820290E-02  0.23260950030E-02  0.10296477934E+01  0.10295487347E+01 0.  0.
     999903    2    3    3    0    0  0.45846666549E-01  0.40204446879E-01 -0.11637180750E+00  0.13864463731E+00  0.44290218911E-01 0.  0.
         14    1    1    2    0    0  0.13844879960E-01  0.26248820290E-02 -0.23260950030E-02  0.14282206578E-01  0.00000000000E+00 0.  1.
     999901    1    3    3    0    0 -0.59691546508E-01 -0.42829328908E-01  0.11869790251E+00  0.89100315611E+00  0.88000000000E+00 0. -1.
        -11    1    4    4    0    0  0.31032752601E-01  0.80587933100E-02 -0.86751557121E-01  0.92488213668E-01  0.51100000000E-03 0. -1.
         11    1    4    4    0    0  0.14813913948E-01  0.32145653569E-01 -0.29620250382E-01  0.46156423643E-01  0.51100000000E-03 0.  1.
</event>
<event>
 8    1  0.2183582E+004  0.1043930E+01  0.7957747E-01            NaN
         13   -1    0    0    0    0  0.00000000000E+00  0.00000000000E+00  0.74505805969E-08  0.10566000000E+00  0.10566000000E+00 0.  1.
     999900   -1    0    0    0    0 -0.00000000000E+00 -0.00000000000E+00 -0.74505805969E-08  0.93827000000E+00  0.93827000000E+00 0. -1.
     999902    2    1    2    0    0  0.86380762432E-02  0.90904602407E-02  0.59803385930E-02  0.10300369342E+01  0.10299432356E+01 0.  0.
     999903    2    3    3    0    0  0.42752465684E-01 -0.55018327944E-01 -0.11164524479E+00  0.13924542873E+00  0.45495483359E-01 0.  0.
         14    1    1    2    0    0 -0.86380762432E-02 -0.90904602407E-02 -0.59803385930E-02  0.13893065834E-01  0.00000000000E+00 0. -1.
     999901    1    3    3    0    0 -0.34114389441E-01  0.64108788184E-01  0.11762558338E+00  0.89079150544E+00  0.88000000000E+00 0.  1.
        -11    1    4    4    0    0 -0.96842030119E-04 -0.61465786169E-02 -0.47590965031E-01  0.47989070430E-01  0.51100000000E-03 0.  1.
         11    1    4    4    0    0  0.42849307714E-01 -0.48871749327E-01 -0.64054279760E-01  0.91256358301E-01  0.51100000000E-03 0. -1.
</event>
<event>
 8    1  0.2183582E+004  0.1043930E+01  0.7957747E-01            NaN
         13   -1    0    0    0    0  0.00000000000E+00  0.00000000000E+00  0.74505805969E-08  0.10566000000E+00  0.10566000000E+00 0.  1.
     999900   -1    0    0    0    0 -0.00000000000E+00 -0.00000000000E+00 -0.74505805969E-08  0.93827000000E+00  0.93827000000E+00 0.  1.
     999902    2    1    2    0    0  0.35299856763E-02 -0.79077424025E-02  0.93583076904E-02  0.10311796623E+01  0.10311008315E+01 0.  0.
     999903    2    3    3    0    0 -0.20631595917E-01  0.93139167915E-01 -0.91412824898E-01  0.13935620371E+00  0.44308911158E-01 0.  0.
         14    1    1    2    0    0 -0.35299856763E-02  0.79077424025E-02 -0.93583076904E-02  0.12750337706E-01  0.00000000000E+00 0. -1.
     999901    1    3    3    0    0  0.24161581593E-01 -0.10104691032E+00  0.10077113259E+00  0.89182345858E+00  0.88000000000E+00 0. -1.
        -11    1    4    4    0    0 -0.11811831647E-02  0.69997592226E-01 -0.42640260321E-01  0.81972623676E-01  0.51100000000E-03 0.  1.
         11    1    4    4    0    0 -0.19450412752E-01  0.23141575688E-01 -0.48772564577E-01  0.57383580038E-01  0.51100000000E-03 0. -1.
</event>
<event>
 8    1  0.2183582E+004  0.1043930E+01  0.7957747E-01            NaN
         13   -1    0    0    0    0  0.00000000000E+00  0.00000000000E+00  0.74505805969E-08  0.10566000000E+00  0.10566000000E+00 0. -1.
     999900   -1    0    0    0    0 -0.00000000000E+00 -0.00000000000E+00 -0.74505805969E-08  0.93827000000E+00  0.93827000000E+00 0.  1.
     999902    2    1    2    0    0 -0.10640544981E-01 -0.92583621583E-02  0.68704205394E-04  0.10298252778E+01  0.10297286825E+01 0.  0.
     999903    2    3    3    0    0 -0.10788192309E+00  0.71467901802E-01  0.23641627456E-01  0.14048378097E+00  0.49301073521E-01 0.  0.
         14    1    1    2    0    0  0.10640544981E-01  0.92583621583E-02 -0.68704205394E-04  0.14104722175E-01  0.00000000000E+00 0.  1.
     999901    1    3    3    0    0  0.97241378110E-01 -0.80726263961E-01 -0.23572923251E-01  0.88934149685E+00  0.88000000000E+00 0.  1.
        -11    1    4    4    0    0 -0.99277207005E-01  0.42591820402E-01  0.14534250901E-01  0.10900244294E+00  0.51100000000E-03 0. -1.
         11    1    4    4    0    0 -0.86047160857E-02  0.28876081400E-01  0.91073765555E-02  0.31481338038E-01  0.51100000000E-03 0.  1.
</event>
<event>
 8    1  0.2242196E+004  0.1043930E+01  0.7957747E-01            NaN
         13   -1    0    0    0    0  0.00000000000E+00  0.00000000000E+00  0.74505805969E-08  0.10566000000E+00  0.10566000000E+00 0.  1.
     999900   -1    0    0    0    0 -0.00000000000E+00 -0.00000000000E+00 -0.74505805969E-08  0.93827000000E+00  0.93827000000E+00 0.  1.
     999902    2    1    2    0    0 -0.50945724749E-02 -0.11118701732E-01  0.62626419452E-02  0.10301895167E+01  0.10300978786E+01 0.  0.
     999903    2    3    3    0    0 -0.10430810258E+00 -0.78018593323E-01 -0.28804806420E-01  0.14139896434E+00  0.46870769939E-01 0.  0.
         14    1    1    2    0    0  0.50945724749E-02  0.11118701732E-01 -0.62626419452E-02  0.13740483290E-01  0.00000000000E+00 0. -1.
     999901    1    3    3    0    0  0.99213530107E-01  0.66899891591E-01  0.35067448366E-01  0.88879055237E+00  0.88000000000E+00 0. -1.
        -11    1    4    4    0    0 -0.53726258075E-01 -0.16556367231E-01  0.14535533641E-02  0.56240537347E-01  0.51100000000E-03 0. -1.
         11    1    4    4    0    0 -0.50581844507E-01 -0.61462226091E-01 -0.30258359785E-01  0.85158426991E-01  0.51100000000E-03 0.  1.
</event>
<event>
 8    1  0.2183582E+004  0.1043930E+01  0.7957747E-01            NaN
         13   -1    0    0    0    0  0.00000000000E+00  0.00000000000E+00  0.74505805969E-08  0.10566000000E+00  0.10566000000E+00 0.  1.
     999900   -1    0    0    0    0 -0.00000000000E+00 -0.00000000000E+00 -0.74505805969E-08  0.93827000000E+00  0.93827000000E+00 0.  1.
     999902    2    1    2    0    0  0.69631316104E-02 -0.84446944646E-02 -0.95627039288E-02  0.10293957861E+01  0.10292931755E+01 0.  0.
     999903    2    3    3    0    0  0.22547502473E-01 -0.40753303486E-01  0.12325909413E+00  0.13870596982E+00  0.43328052874E-01 0.  0.
         14    1    1    2    0    0 -0.69631316104E-02  0.84446944646E-02  0.95627039288E-02  0.14534213871E-01  0.00000000000E+00 0.  1.
     999901    1    3    3    0    0 -0.15584370862E-01  0.32308609021E-01 -0.13282179806E+00  0.89068981631E+00  0.88000000000E+00 0.  1.
        -11    1    4    4    0    0  0.37468139593E-02 -0.28164876751E-01  0.10733556461E+00  0.11103370411E+00  0.51100000000E-03 0.  1.
         11    1    4    4    0    0  0.18800688513E-01 -0.12588426734E-01  0.15923529518E-01  0.27672265710E-01  0.51100000000E-03 0. -1.
</event>
<event>
 8    1  0.2183582E+004  0.1043930E+01  0.7957747E-01            NaN
         13   -1    0    0    0    0  0.00000000000E+00  0.00000000000E+00  0.74505805969E-08  0.10566000000E+00  0.10566000000E+00 0. -1.
     999900   -1    0    0    0    0 -0.00000000000E+00 -0.00000000000E+00 -0.74505805969E-08  0.93827000000E+00  0.93827000000E+00 0.  1.
     999902    2    1    2    0    0 -0.10777110203E-01 -0.85662202461E-02  0.13237441037E-02  0.10300996518E+01  0.10300068029E+01 0.  0.
     999903    2    3    3    0    0 -0.32203827096E-02  0.10169529103E+00  0.84021085264E-01  0.13933955206E+00  0.44762315812E-01 0.  0.
         14    1    1    2    0    0  0.10777110203E-01  0.85662202461E-02 -0.13237441037E-02  0.13830348227E-01  0.00000000000E+00 0.  1.
     999901    1    3    3    0    0 -0.75567274933E-02 -0.11026151128E+00 -0.82697341161E-01  0.89076009971E+00  0.88000000000E+00 0.  1.
        -11    1    4    4    0    0 -0.13281354798E-01  0.97198902149E-01  0.82542613708E-01  0.12820906818E+00  0.51100000000E-03 0.  1.
         11    1    4    4    0    0  0.10060972089E-01  0.44963888851E-02  0.14784715560E-02  0.11130483885E-01  0.51100000000E-03 0. -1.
</event>
<event>
 8    1  0.2183582E+004  0.1043930E+01  0.7957747E-01            NaN
         13   -1    0    0    0    0  0.00000000000E+00  0.00000000000E+00  0.74505805969E-08  0.10566000000E+00  0.10566000000E+00 0.  1.
     999900   -1    0    0    0    0 -0.00000000000E+00 -0.00000000000E+00 -0.74505805969E-08  0.93827000000E+00  0.93827000000E+00 0. -1.
     999902    2    1    2    0    0  0.87849166187E-02  0.64452022315E-02 -0.70522942116E-02  0.10309511616E+01  0.10308694619E+01 0.  0.
     999903    2    3    3    0    0  0.92779600074E-01  0.49574079836E-01  0.82696381585E-01  0.14136135068E+00  0.45592722645E-01 0.  0.
         14    1    1    2    0    0 -0.87849166187E-02 -0.64452022315E-02  0.70522942116E-02  0.12978838371E-01  0.00000000000E+00 0. -1.
     999901    1    3    3    0    0 -0.83994683455E-01 -0.43128877604E-01 -0.89748675797E-01  0.88958981095E+00  0.88000000000E+00 0. -1.
        -11    1    4    4    0    0  0.41960359943E-01  0.30544958539E-01  0.67227647013E-01  0.84932231471E-01  0.51100000000E-03 0. -1.
         11    1    4    4    0    0  0.50819240131E-01  0.19029121297E-01  0.15468734572E-01  0.56429119212E-01  0.51100000000E-03 0.  1.
</event>
<event>
 8    1  0.2183582E+004  0.1043930E+01  0.7957747E-01            NaN
         13   -1    0    0    0    0  0.00000000000E+00  0.00000000000E+00  0.74505805969E-08  0.10566000000E+00  0.10566000000E+00 0.  1.
     999900   -1    0    0    0    0 -0.00000000000E+00 -0.00000000000E+00 -0.74505805969E-08  0.93827000000E+00  0.93827000000E+00 0.  1.
     999902    2    1    2    0    0 -0.55574663317E-03 -0.13691091140E-01 -0.44348478136E-02  0.10295278229E+01  0.10294270811E+01 0.  0.
     999903    2    3    3    0    0  0.40035558759E-02  0.82554199214E-01  0.10088830557E+00  0.13802520942E+00  0.45180570683E-01 0.  0.
         14    1    1    2    0    0  0.55574663317E-03  0.13691091140E-01  0.44348478136E-02  0.14402177129E-01  0.00000000000E+00 0.  1.
     999901    1    3    3    0    0 -0.45593025090E-02 -0.96245290354E-01 -0.10532315338E+00  0.89150261345E+00  0.88000000000E+00 0. -1.
        -11    1    4    4    0    0  0.12813918584E-01  0.26971628941E-02  0.20791969076E-01  0.24577190567E-01  0.51100000000E-03 0. -1.
         11    1    4    4    0    0 -0.88103627077E-02  0.79857036319E-01  0.80096336492E-01  0.11344801885E+00  0.51100000000E-03 0.  1.
</event>
<event>
 8    1  0.2183582E+004  0.1043930E+01  0.7957747E-01            NaN
         13   -1    0    0    0    0  0.00000000000E+00  0.00000000000E+00  0.74505805969E-08  0.10566000000E+00  0.10566000000E+00 0. -1.
     999900   -1    0    0    0    0 -0.00000000000E+00 -0.00000000000E+00 -0.74505805969E-08  0.93827000000E+00  0.93827000000E+00 0. -1.
     999902    2    1    2    0    0 -0.67205051977E-02 -0.11580032191E-01  0.66409773063E-02  0.10289846022E+01  0.10288760599E+01 0.  0.
     999903    2    3    3    0    0 -0.47498989869E-01 -0.11317430877E+00 -0.51064932560E-01  0.14032591976E+00  0.44935044407E-01 0.  0.
         14    1    1    2    0    0  0.67205051977E-02  0.11580032191E-01 -0.66409773063E-02  0.14945397794E-01  0.00000000000E+00 0. -1.
     999901    1    3    3    0    0  0.40778484672E-01  0.10159427658E+00  0.57705909867E-01  0.88865868244E+00  0.88000000000E+00 0.  1.
        -11    1    4    4    0    0 -0.27332638882E-01 -0.47860978970E-01 -0.19711823782E-03  0.55118476329E-01  0.51100000000E-03 0. -1.
         11    1    4    4    0    0 -0.20166350988E-01 -0.65313329800E-01 -0.50867814322E-01  0.85207443435E-01  0.51100000000E-03 0.  1.
</event>
<event>
 8    1  0.2183582E+004  0.1043930E+01  0.7957747E-01            NaN
         13   -1    0    0    0    0  0.00000000000E+00  0.00000000000E+00  0.74505805969E-08  0.10566000000E+00  0.10566000000E+00 0. -1.
     999900   -1    0    0    0    0 -0.00000000000E+00 -0.00000000000E+00 -0.74505805969E-08  0.93827000000E+00  0.93827000000E+00 0.  1.
     999902    2    1    2    0    0 -0.12793580638E-01 -0.49206962005E-02 -0.17845152547E-02  0.10301070679E+01  0.10300143193E+01 0.  0.
     999903    2    3    3    0    0 -0.58203265270E-01  0.36492229753E-01 -0.11404744156E+00  0.14084893075E+00  0.45959759007E-01 0.  0.
         14    1    1    2    0    0  0.12793580638E-01  0.49206962005E-02  0.17845152547E-02  0.13822932082E-01  0.00000000000E+00 0. -1.
     999901    1    3    3    0    0  0.45409684631E-01 -0.41412925953E-01  0.11226292630E+00  0.88925813717E+00  0.88000000000E+00 0. -1.
        -11    1    4    4    0    0 -0.42553176874E-01  0.30603690561E-01 -0.11242133936E+00  0.12404103112E+00  0.51100000000E-03 0.  1.
         11    1    4    4    0    0 -0.15650088396E-01  0.58885391917E-02 -0.16261021996E-02  0.16807899630E-01  0.51100000000E-03 0. -1.
</event>
<event>
 8    1  0.2183582E+004  0.1043930E+01  0.7957747E-01            NaN
         13   -1    0    0    0    0  0.00000000000E+00  0.00000000000E+00  0.74505805969E-08  0.10566000000E+00  0.10566000000E+00 0. -1.
     999900   -1    0    0    0    0 -0.00000000000E+00 -0.00000000000E+00 -0.74505805969E-08  0.93827000000E+00  0.93827000000E+00 0.  1.
     999902    2    1    2    0    0 -0.13203893002E-01 -0.18329703065E-01  0.13353150271E-01  0.10176882884E+01  0.10173499029E+01 0.  0.
     999903    2    3    3    0    0 -0.51960104490E-01  0.10249133192E+00  0.34910045377E-01  0.12832645758E+00  0.45217727364E-01 0.  0.
         14    1    1    2    0    0  0.13203893002E-01  0.18329703065E-01 -0.13353150271E-01  0.26241711587E-01  0.00000000000E+00 0.  1.
     999901    1    3    3    0    0  0.38756211488E-01 -0.12082103499E+00 -0.21556895107E-01  0.88936183084E+00  0.88000000000E+00 0.  1.
        -11    1    4    4    0    0 -0.23005230015E-01  0.74284809494E-01  0.47920644489E-02  0.77914687526E-01  0.51100000000E-03 0. -1.
         11    1    4    4    0    0 -0.28954874475E-01  0.28206522428E-01  0.30117980929E-01  0.50411770050E-01  0.51100000000E-03 0.  1.
</event>
<event>
 8    1  0.2183582E+004  0.1043930E+01  0.7957747E-01            NaN
         13   -1    0    0    0    0  0.00000000000E+00  0.00000000000E+00  0.74505805969E-08  0.10566000000E+00  0.10566000000E+00 0.  1.
     999900   -1    0    0    0    0 -0.00000000000E+00 -0.00000000000E+00 -0.74505805969E-08  0.93827000000E+00  0.93827000000E+00 0. -1.
     999902    2    1    2    0    0 -0.42620131165E-02  0.12777149724E-01  0.32668920878E-02  0.10300702419E+01  0.10299769951E+01 0.  0.
     999903    2    3    3    0    0  0.11586684553E+00  0.56530965582E-01  0.38473511472E-01  0.14013493799E+00  0.39200941300E-01 0.  0.
         14    1    1    2    0    0  0.42620131165E-02 -0.12777149724E-01 -0.32668920878E-02  0.13859758107E-01  0.00000000000E+00 0.  1.
     999901    1    3    3    0    0 -0.12012885864E+00 -0.43753815859E-01 -0.35206619384E-01  0.88993530390E+00  0.88000000000E+00 0. -1.
        -11    1    4    4    0    0  0.63040337354E-01  0.90566586898E-02  0.19769264584E-01  0.66687271226E-01  0.51100000000E-03 0. -1.
         11    1    4    4    0    0  0.52826508173E-01  0.47474306893E-01  0.18704246887E-01  0.73447666766E-01  0.51100000000E-03 0.  1.
</event>
<event>
 8    1  0.2183582E+004  0.1043930E+01  0.7957747E-01            NaN
         13   -1    0    0    0    0  0.00000000000E+00  0.00000000000E+00  0.74505805969E-08  0.10566000000E+00  0.10566000000E+00 0. -1.
     999900   -1    0    0    0    0 -0.00000000000E+00 -0.00000000000E+00 -0.74505805969E-08  0.93827000000E+00  0.93827000000E+00 0. -1.
     999902    2    1    2    0    0 -0.16178685120E-02 -0.16181895155E-01 -0.53189802740E-02  0.10268196879E+01  0.10266771200E+01 0.  0.
     999903    2    3    3    0    0  0.47649670767E-01  0.11682854245E+00  0.18534728323E-01  0.13514257909E+00  0.44727855693E-01 0.  0.
         14    1    1    2    0    0  0.16178685120E-02  0.16181895155E-01  0.53189802740E-02  0.17110312110E-01  0.00000000000E+00 0. -1.
     999901    1    3    3    0    0 -0.49267539279E-01 -0.13301043760E+00 -0.23853708597E-01  0.89167710880E+00  0.88000000000E+00 0. -1.
        -11    1    4    4    0    0  0.69331355211E-02  0.44718409177E-01 -0.12099686834E-01  0.46845149482E-01  0.51100000000E-03 0. -1.
         11    1    4    4    0    0  0.40716535246E-01  0.72110133273E-01  0.30634415157E-01  0.88297429612E-01  0.51100000000E-03 0.  1.
</event>
<event>
 8    1  0.2183582E+004  0.1043930E+01  0.7957747E-01            NaN
         13   -1    0    0    0    0  0.00000000000E+00  0.00000000000E+00  0.74505805969E-08  0.10566000000E+00  0.10566000000E+00 0. -1.
     999900   -1    0    0    0    0 -0.00000000000E+00 -0.00000000000E+00 -0.74505805969E-08  0.93827000000E+00  0.93827000000E+00 0.  1.
     999902    2    1    2    0    0 -0.10540356224E-01  0.62170526514E-02  0.66697050330E-02  0.10299931489E+01  0.10298988547E+01 0.  0.
     999903    2    3    3    0    0 -0.62057453997E-02  0.11621038323E+00 -0.64409314680E-01  0.14029120519E+00  0.44606030859E-01 0.  0.
         14    1    1    2    0    0  0.10540356224E-01 -0.62170526514E-02 -0.66697050330E-02  0.13936851087E-01  0.00000000000E+00 0.  1.
     999901    1    3    3    0    0 -0.43346108242E-02 -0.10999333058E+00  0.71079019713E-01  0.88970194372E+00  0.88000000000E+00 0.  1.
        -11    1    4    4    0    0  0.61012742576E-02  0.71821674767E-01 -0.16739712308E-01  0.74000389209E-01  0.51100000000E-03 0.  1.
         11    1    4    4    0    0 -0.12307019657E-01  0.44388708464E-01 -0.47669602371E-01  0.66290815979E-01  0.51100000000E-03 0. -1.
</event>
<event>
 8    1  0.2183582E+004  0.1043930E+01  0.7957747E-01            NaN
         13   -1    0    0    0    0  0.00000000000E+00  0.00000000000E+00  0.74505805969E-08  0.10566000000E+00  0.10566000000E+00 0. -1.
     999900   -1    0    0    0    0 -0.00000000000E+00 -0.00000000000E+00 -0.74505805969E-08  0.93827000000E+00  0.93827000000E+00 0.  1.
     999902    2    1    2    0    0  0.78574012435E-03  0.23342694073E-03  0.17596389744E-01  0.10263145293E+01  0.10261633438E+01 0.  0.
     999903    2    3    3    0    0  0.46316352404E-01  0.14751847051E-02  0.12283534288E+00  0.13887449422E+00  0.45279388413E-01 0.  0.
         14    1    1    2    0    0 -0.78574012435E-03 -0.23342694073E-03 -0.17596389744E-01  0.17615470693E-01  0.00000000000E+00 0.  1.
     999901    1    3    3    0    0 -0.45530612279E-01 -0.12417577644E-02 -0.10523895313E+00  0.88744003509E+00  0.88000000000E+00 0.  1.
        -11    1    4    4    0    0  0.31151299775E-01  0.21951618216E-01  0.60168504612E-01  0.71223500955E-01  0.51100000000E-03 0.  1.
         11    1    4    4    0    0  0.15165052629E-01 -0.20476433511E-01  0.62666838267E-01  0.67650993266E-01  0.51100000000E-03 0. -1.
</event>
<event>
 8    1  0.2183582E+004  0.1043930E+01  0.7957747E-01            NaN
         13   -1    0    0    0    0  0.00000000000E+00  0.00000000000E+00  0.74505805969E-08  0.10566000000E+00  0.10566000000E+00 0.  1.
     999900   -1    0    0    0    0 -0.00000000000E+00 -0.00000000000E+00 -0.74505805969E-08  0.93827000000E+00  0.93827000000E+00 0. -1.
     999902    2    1    2    0    0  0.15937523692E-02  0.32843721665E-02  0.13545204166E-01  0.10299014683E+01  0.10298059208E+01 0.  0.
     999903    2    3    3    0    0  0.50245977568E-02 -0.40832999723E-01  0.12828745268E+00  0.14134989586E+00  0.42773146914E-01 0.  0.
         14    1    1    2    0    0 -0.15937523692E-02 -0.32843721665E-02 -0.13545204166E-01  0.14028531750E-01  0.00000000000E+00 0. -1.
     999901    1    3    3    0    0 -0.34308453876E-02  0.44117371890E-01 -0.11474224851E+00  0.88855157239E+00  0.88000000000E+00 0. -1.
        -11    1    4    4    0    0  0.15947775680E-01 -0.24270234929E-01  0.32757382319E-01  0.43779939128E-01  0.51100000000E-03 0. -1.
         11    1    4    4    0    0 -0.10923177923E-01 -0.16562764794E-01  0.95530070357E-01  0.97569956733E-01  0.51100000000E-03 0.  1.
</event>
<event>
 8    1  0.2183582E+004  0.1043930E+01  0.7957747E-01            NaN
         13   -1    0    0    0    0  0.00000000000E+00  0.00000000000E+00  0.74505805969E-08  0.10566000000E+00  0.10566000000E+00 0.  1.
     999900   -1    0    0    0    0 -0.00000000000E+00 -0.00000000000E+00 -0.74505805969E-08  0.93827000000E+00  0.93827000000E+00 0.  1.
     999902    2    1    2    0    0  0.63761312903E-02  0.82466532784E-02 -0.84589739021E-02  0.10305055231E+01  0.10304180785E+01 0.  0.
     999903    2    3    3    0    0  0.51231545329E-01  0.12428639711E+00 -0.76149086572E-03  0.14172181400E+00  0.44863269512E-01 0.  0.
         14    1    1    2    0    0 -0.63761312903E-02 -0.82466532784E-02  0.84589739021E-02  0.13424476899E-01  0.00000000000E+00 0.  1.
     999901    1    3    3    0    0 -0.44855414039E-01 -0.11603974383E+00 -0.76974830363E-02  0.88878370910E+00  0.88000000000E+00 0.  1.
        -11    1    4    4    0    0  0.46389922328E-01  0.12213743889E+00 -0.10028031015E-01  0.13103587829E+00  0.51100000000E-03 0. -1.
         11    1    4    4    0    0  0.48416230018E-02  0.21489582259E-02  0.92665401491E-02  0.10685935714E-01  0.51100000000E-03 0.  1.
</event>
<event>
 8    1  0.2183582E+004  0.1043930E+01  0.7957747E-01            NaN
         13   -1    0    0    0    0  0.00000000000E+00  0.00000000000E+00  0.74505805969E-08  0.10566000000E+00  0.10566000000E+00 0.  1.
     999900   -1    0    0    0    0 -0.00000000000E+00 -0.00000000000E+00 -0.74505805969E-08  0.93827000000E+00  0.93827000000E+00 0. -1.
     999902    2    1    2    0    0 -0.57038380789E-02  0.60467060484E-02 -0.11789255137E-01  0.10295049191E+01  0.10294038544E+01 0.  0.
     999903    2    3    3    0    0  0.12244227339E+00 -0.49054451755E-01 -0.68935921321E-02  0.13850462110E+00  0.41684036566E-01 0.  0.
         14    1    1    2    0    0  0.57038380789E-02 -0.60467060484E-02  0.11789255137E-01  0.14425080920E-01  0.00000000000E+00 0.  1.
     999901    1    3    3    0    0 -0.12814611147E+00  0.55101157803E-01 -0.48956630053E-02  0.89100029798E+00  0.88000000000E+00 0.  1.
        -11    1    4    4    0    0  0.10606456423E-01 -0.65953143955E-02 -0.13875023946E-01  0.18675451810E-01  0.51100000000E-03 0. -1.
         11    1    4    4    0    0  0.11183581697E+00 -0.42459137359E-01  0.69814318141E-02  0.11982916929E+00  0.51100000000E-03 0.  1.
</event>
<event>
 8    1  0.2183582E+004  0.1043930E+01  0.7957747E-01            NaN
         13   -1    0    0    0    0  0.00000000000E+00  0.00000000000E+00  0.74505805969E-08  0.10566000000E+00  0.10566000000E+00 0. -1.
     999900   -1    0    0    0    0 -0.00000000000E+00 -0.00000000000E+00 -0.74505805969E-08  0.93827000000E+00  0.93827000000E+00 0.  1.
     999902    2    1    2    0    0  0.70469620093E-02  0.17804866886E-01 -0.13377179710E-02  0.10247346243E+01  0.10245548242E+01 0.  0.
     999903    2    3    3    0    0 -0.88345798000E-01 -0.17628522727E-01  0.88546500948E-01  0.13432209263E+00  0.45674904502E-01 0.  0.
         14    1    1    2    0    0 -0.70469620093E-02 -0.17804866886E-01  0.13377179710E-02  0.19195375687E-01  0.00000000000E+00 0. -1.
     999901    1    3    3    0    0  0.95392760010E-01  0.35433389613E-01 -0.89884218919E-01  0.89041253168E+00  0.88000000000E+00 0.  1.
        -11    1    4    4    0    0 -0.12509100227E-01 -0.12274205694E-01  0.41154160916E-01  0.44733206856E-01  0.51100000000E-03 0.  1.
         11    1    4    4    0    0 -0.75836697774E-01 -0.53543170331E-02  0.47392340032E-01  0.89588885778E-01  0.51100000000E-03 0. -1.
</event>
<event>
 8    1  0.2183582E+004  0.1043930E+01  0.7957747E-01            NaN
         13   -1    0    0    0    0  0.00000000000E+00  0.00000000000E+00  0.74505805969E-08  0.10566000000E+00  0.10566000000E+00 0. -1.
     999900   -1    0    0    0    0 -0.00000000000E+00 -0.00000000000E+00 -0.74505805969E-08  0.93827000000E+00  0.93827000000E+00 0. -1.
     999902    2    1    2    0    0  0.15409181299E-02 -0.88640656052E-02  0.97713221641E-02  0.10306474993E+01  0.10305619064E+01 0.  0.
     999903    2    3    3    0    0  0.83763259432E-01 -0.80356052112E-01  0.74863220703E-01  0.14154200906E+00  0.30923450197E-01 0.  0.
         14    1    1    2    0    0 -0.15409181299E-02  0.88640656052E-02 -0.97713221641E-02  0.13282500690E-01  0.00000000000E+00 0.  1.
     999901    1    3    3    0    0 -0.82222341302E-01  0.71491986507E-01 -0.65091898539E-01  0.88910549025E+00  0.88000000000E+00 0.  1.
        -11    1    4    4    0    0  0.17414535202E-01 -0.36809852047E-01  0.27002296584E-01  0.48863241663E-01  0.51100000000E-03 0. -1.
         11    1    4    4    0    0  0.66348724230E-01 -0.43546200065E-01  0.47860924119E-01  0.92678767393E-01  0.51100000000E-03 0.  1.
</event>
<event>
 8    1  0.2183582E+004  0.1043930E+01  0.7957747E-01            NaN
         13   -1    0    0    0    0  0.00000000000E+00  0.00000000000E+00  0.74505805969E-08  0.10566000000E+00  0.10566000000E+00 0. -1.
     999900   -1    0    0    0    0 -0.00000000000E+00 -0.00000000000E+00 -0.74505805969E-08  0.93827000000E+00  0.93827000000E+00 0. -1.
     999902    2    1    2    0    0  0.12202081030E-01  0.33229634435E-02  0.36173033991E-02  0.10307763788E+01  0.10306924494E+01 0.  0.
     999903    2    3    3    0    0  0.16183308030E-01 -0.10915313576E+00 -0.74078118103E-01  0.14021290457E+00  0.44674204219E-01 0.  0.
         14    1    1    2    0    0 -0.12202081030E-01 -0.33229634435E-02 -0.36173033991E-02  0.13153621227E-01  0.00000000000E+00 0.  1.
     999901    1    3    3    0    0 -0.39812270002E-02  0.11247609920E+00  0.77695421502E-01  0.89056347420E+00  0.88000000000E+00 0.  1.
        -11    1    4    4    0    0  0.16308439741E-01 -0.94855254716E-02 -0.16741671007E-01  0.25228655718E-01  0.51100000000E-03 0.  1.
         11    1    4    4    0    0 -0.12513171094E-03 -0.99667610284E-01 -0.57336447096E-01  0.11498424885E+00  0.51100000000E-03 0. -1.
</event>
<event>
 8    1  0.2183582E+004  0.1043930E+01  0.7957747E-01            NaN
         13   -1    0    0    0    0  0.00000000000E+00  0.00000000000E+00  0.74505805969E-08  0.10566000000E+00  0.10566000000E+00 0. -1.
     999900   -1    0    0    0    0 -0.00000000000E+00 -0.00000000000E+00 -0.74505805969E-08  0.93827000000E+00  0.93827000000E+00 0.  1.
     999902    2    1    2    0    0  0.60210752549E-02  0.11647267840E-01  0.64327624831E-02  0.10293254586E+01  0.10292218455E+01 0.  0.
     999903    2    3    3    0    0 -0.31946279491E-01 -0.30631830750E-02  0.12856003299E+00  0.13995883705E+00  0.45064910086E-01 0.  0.
         14    1    1    2    0    0 -0.60210752549E-02 -0.11647267840E-01 -0.64327624831E-02  0.14604541366E-01  0.00000000000E+00 0.  1.
     999901    1    3    3    0    0  0.37967354746E-01  0.14710450915E-01 -0.12212727051E+00  0.88936662159E+00  0.88000000000E+00 0.  1.
        -11    1    4    4    0    0 -0.28355179627E-01 -0.93756177181E-02  0.34567209697E-01  0.45684477960E-01  0.51100000000E-03 0. -1.
         11    1    4    4    0    0 -0.35910998636E-02  0.63124346431E-02  0.93992823294E-01  0.94274359086E-01  0.51100000000E-03 0.  1.
</event>
<event>
 8    1  0.2183582E+004  0.1043930E+01  0.7957747E-01            NaN
         13   -1    0    0    0    0  0.00000000000E+00  0.00000000000E+00  0.74505805969E-08  0.10566000000E+00  0.10566000000E+00 0. -1.
     999900   -1    0    0    0    0 -0.00000000000E+00 -0.00000000000E+00 -0.74505805969E-08  0.93827000000E+00  0.93827000000E+00 0.  1.
     999902    2    1    2    0    0  0.67873913503E-02  0.88149527389E-02 -0.13757929311E-01  0.10262367049E+01  0.10260841689E+01 0.  0.
     999903    2    3    3    0    0 -0.27297071220E-01 -0.66396522081E-01  0.10428520915E+00  0.13452335460E+00  0.45469768461E-01 0.  0.
         14    1    1    2    0    0 -0.67873913503E-02 -0.88149527389E-02  0.13757929311E-01  0.17693295116E-01  0.00000000000E+00 0. -1.
     999901    1    3    3    0    0  0.34084462571E-01  0.75211474820E-01 -0.11804313846E+00  0.89171335028E+00  0.88000000000E+00 0.  1.
        -11    1    4    4    0    0 -0.25025282594E-01 -0.16118838507E-01  0.18465166510E-01  0.35032916222E-01  0.51100000000E-03 0.  1.
         11    1    4    4    0    0 -0.22717886260E-02 -0.50277683574E-01  0.85820042642E-01  0.99490438380E-01  0.51100000000E-03 0. -1.
</event>
<event>
 8    1  0.2183582E+004  0.1043930E+01  0.7957747E-01            NaN
         13   -1    0    0    0    0  0.00000000000E+00  0.00000000000E+00  0.74505805969E-08  0.10566000000E+00  0.10566000000E+00 0. -1.
     999900   -1    0    0    0    0 -0.00000000000E+00 -0.00000000000E+00 -0.74505805969E-08  0.93827000000E+00  0.93827000000E+00 0. -1.
     999902    2    1    2    0    0 -0.29817267338E-02 -0.12825276414E-01  0.54482457994E-02  0.10296800249E+01  0.10295814158E+01 0.  0.
     999903    2    3    3    0    0  0.82587031416E-01 -0.10295761941E+00  0.22983243965E-01  0.14077433369E+00  0.43223770869E-01 0.  0.
         14    1    1    2    0    0  0.29817267338E-02  0.12825276414E-01 -0.54482457994E-02  0.14249975147E-01  0.00000000000E+00 0.  1.
     999901    1    3    3    0    0 -0.85568758150E-01  0.90132343001E-01 -0.17534998166E-01  0.88890569117E+00  0.88000000000E+00 0. -1.
        -11    1    4    4    0    0  0.70950667883E-01 -0.10368194245E+00  0.26865363579E-01  0.12847548928E+00  0.51100000000E-03 0. -1.
         11    1    4    4    0    0  0.11636363533E-01  0.72432303657E-03 -0.38821196139E-02  0.12298844411E-01  0.51100000000E-03 0.  1.
</event>
<event>
 8    1  0.2183582E+004  0.1043930E+01  0.7957747E-01            NaN
         13   -1    0    0    0    0  0.00000000000E+00  0.00000000000E+00  0.74505805969E-08  0.10566000000E+00  0.10566000000E+00 0.  1.
     999900   -1    0    0    0    0 -0.00000000000E+00 -0.00000000000E+00 -0.74505805969E-08  0.93827000000E+00  0.93827000000E+00 0.  1.
     999902    2    1    2    0    0 -0.10543695794E-02  0.51172332658E-03 -0.14397418175E-01  0.10294849591E+01  0.10293836126E+01 0.  0.
     999903    2    3    3    0    0 -0.94939939473E-02 -0.70921789991E-01  0.10904588506E+00  0.13796254033E+00  0.44973561884E-01 0.  0.
         14    1    1    2    0    0  0.10543695794E-02 -0.51172332658E-03  0.14397418175E-01  0.14445040882E-01  0.00000000000E+00 0.  1.
     999901    1    3    3    0    0  0.84396243679E-02  0.71433513317E-01 -0.12344330324E+00  0.89152241879E+00  0.88000000000E+00 0.  1.
        -11    1    4    4    0    0 -0.24164006153E-01 -0.62094217746E-01  0.93622298862E-01  0.11491295417E+00  0.51100000000E-03 0. -1.
         11    1    4    4    0    0  0.14670012206E-01 -0.88275722444E-02  0.15423586203E-01  0.23049586161E-01  0.51100000000E-03 0.  1.
</event>
<event>
 8    1  0.2183582E+004  0.1043930E+01  0.7957747E-01            NaN
         13   -1    0    0    0    0  0.00000000000E+00  0.00000000000E+00  0.74505805969E-08  0.10566000000E+00  0.10566000000E+00 0. -1.
     999900   -1    0    0    0    0 -0.00000000000E+00 -0.00000000000E+00 -0.74505805969E-08  0.93827000000E+00  0.93827000000E+00 0.  1.
     999902    2    1    2    0    0 -0.94612763472E-02  0.86518258351E-02 -0.35622505946E-03  0.10311043719E+01  0.10310246015E+01 0.  0.
     999903    2    3    3    0    0 -0.41172751417E-01 -0.11722816410E+00 -0.47112016669E-01  0.14035328792E+00  0.45187004761E-01 0.  0.
         14    1    1    2    0    0  0.94612763472E-02 -0.86518258351E-02  0.35622505946E-03  0.12825628121E-01  0.00000000000E+00 0. -1.
     999901    1    3    3    0    0  0.31711475070E-01  0.12587998993E+00  0.46755791610E-01  0.89075108395E+00  0.88000000000E+00 0. -1.
        -11    1    4    4    0    0 -0.42093546858E-01 -0.55102754813E-01 -0.17465709547E-01  0.71508687626E-01  0.51100000000E-03 0.  1.
         11    1    4    4    0    0  0.92079544092E-03 -0.62125409286E-01 -0.29646307123E-01  0.68844600299E-01  0.51100000000E-03 0. -1.
</event>
<event>
 8    1  0.2183582E+004  0.1043930E+01  0.7957747E-01            NaN
         13   -1    0    0    0    0  0.00000000000E+00  0.00000000000E+00  0.74505805969E-08  0.10566000000E+00  0.10566000000E+00 0. -1.
     999900   -1    0    0    0    0 -0.00000000000E+00 -0.00000000000E+00 -0.74505805969E-08  0.93827000000E+00  0.93827000000E+00 0.  1.
     999902    2    1    2    0    0 -0.39966053781E-02  0.11406884428E-01 -0.51130734708E-02  0.10308062282E+01  0.10307226817E+01 0.  0.
     999903    2    3    3    0    0  0.22979759100E-01  0.39415573640E-01 -0.12633469529E+00  0.14164544827E+00  0.44959103727E-01 0.  0.
         14    1    1    2    0    0  0.39966053781E-02 -0.11406884428E-01  0.51130734708E-02  0.13123771836E-01  0.00000000000E+00 0. -1.
     999901    1    3    3    0    0 -0.26976364478E-01 -0.28008689212E-01  0.12122162182E+00  0.88916077990E+00  0.88000000000E+00 0. -1.
        -11    1    4    4    0    0  0.29387202173E-01  0.13155634995E-01 -0.41019654727E-01  0.52149320021E-01  0.51100000000E-03 0.  1.
         11    1    4    4    0    0 -0.64074430734E-02  0.26259938645E-01 -0.85315040559E-01  0.89496128246E-01  0.51100000000E-03 0. -1.
</event>
<event>
 8    1  0.2183582E+004  0.1043930E+01  0.7957747E-01            NaN
         13   -1    0    0    0    0  0.00000000000E+00  0.00000000000E+00  0.74505805969E-08  0.10566000000E+00  0.10566000000E+00 0.  1.
     999900   -1    0    0    0    0 -0.00000000000E+00 -0.00000000000E+00 -0.74505805969E-08  0.93827000000E+00  0.93827000000E+00 0.  1.
     999902    2    1    2    0    0 -0.15262896453E-01  0.74060373448E-03  0.12953529168E-01  0.10238975658E+01  0.10237015809E+01 0.  0.
     999903    2    3    3    0    0  0.41546822883E-01  0.10231704554E+00 -0.60312639517E-01  0.13321633819E+00  0.43749994002E-01 0.  0.
         14    1    1    2    0    0  0.15262896453E-01 -0.74060373448E-03 -0.12953529168E-01  0.20032434199E-01  0.00000000000E+00 0. -1.
     999901    1    3    3    0    0 -0.56809719336E-01 -0.10157644181E+00  0.73266168685E-01  0.89068122761E+00  0.88000000000E+00 0. -1.
        -11    1    4    4    0    0  0.61250743123E-02  0.71249023293E-01 -0.39603410934E-01  0.81747361634E-01  0.51100000000E-03 0.  1.
         11    1    4    4    0    0  0.35421748571E-01  0.31068022251E-01 -0.20709228583E-01  0.51468976558E-01  0.51100000000E-03 0. -1.
</event>
<event>
 8    1  0.2183582E+004  0.1043930E+01  0.7957747E-01            NaN
         13   -1    0    0    0    0  0.00000000000E+00  0.00000000000E+00  0.74505805969E-08  0.10566000000E+00  0.10566000000E+00 0. -1.
     999900   -1    0    0    0    0 -0.00000000000E+00 -0.00000000000E+00 -0.74505805969E-08  0.93827000000E+00  0.93827000000E+00 0.  1.
     999902    2    1    2    0    0  0.88916208734E-02  0.75230225272E-02  0.72216472720E-02  0.10302256584E+01  0.10301345049E+01 0.  0.
     999903    2    3    3    0    0  0.18612495061E-01 -0.10991429441E+00  0.71461912229E-01  0.14004992829E+00  0.45602636190E-01 0.  0.
         14    1    1    2    0    0 -0.88916208734E-02 -0.75230225272E-02 -0.72216472720E-02  0.13704341612E-01  0.00000000000E+00 0.  1.
     999901    1    3    3    0    0 -0.97208741878E-02  0.11743731694E+00 -0.64240264957E-01  0.89017573009E+00  0.88000000000E+00 0.  1.
        -11    1    4    4    0    0 -0.10953527356E-01 -0.65235545025E-01  0.31850723924E-01  0.73419247011E-01  0.51100000000E-03 0. -1.
         11    1    4    4    0    0  0.29566022417E-01 -0.44678749387E-01  0.39611188305E-01  0.66630681283E-01  0.51100000000E-03 0.  1.
</event>
<event>
 8    1  0.2183582E+004  0.1043930E+01  0.7957747E-01            NaN
         13   -1    0    0    0    0  0.00000000000E+00  0.00000000000E+00  0.74505805969E-08  0.10566000000E+00  0.10566000000E+00 0.  1.
     999900   -1    0    0    0    0 -0.00000000000E+00 -0.00000000000E+00 -0.74505805969E-08  0.93827000000E+00  0.93827000000E+00 0.  1.
     999902    2    1    2    0    0 -0.69155522457E-02 -0.10784919218E-01  0.80542079091E-02  0.10287969365E+01  0.10286856308E+01 0.  0.
     999903    2    3    3    0    0 -0.50721377043E-01 -0.11543043700E+00  0.43507484529E-01  0.14080675104E+00  0.45130876926E-01 0.  0.
         14    1    1    2    0    0  0.69155522457E-02  0.10784919218E-01 -0.80542079091E-02  0.15133063485E-01  0.00000000000E+00 0. -1.
     999901    1    3    3    0    0  0.43805824798E-01  0.10464551779E+00 -0.35453276620E-01  0.88799018548E+00  0.88000000000E+00 0.  1.
        -11    1    4    4    0    0  0.53877200481E-02 -0.37364742886E-01  0.11104396499E-01  0.39353783565E-01  0.51100000000E-03 0.  1.
         11    1    4    4    0    0 -0.56109097091E-01 -0.78065694117E-01  0.32403088030E-01  0.10145296747E+00  0.51100000000E-03 0. -1.
</event>
<event>
 8    1  0.2183582E+004  0.1043930E+01  0.7957747E-01            NaN
         13   -1    0    0    0    0  0.00000000000E+00  0.00000000000E+00  0.74505805969E-08  0.10566000000E+00  0.10566000000E+00 0. -1.
     999900   -1    0    0    0    0 -0.00000000000E+00 -0.00000000000E+00 -0.74505805969E-08  0.93827000000E+00  0.93827000000E+00 0.  1.
     999902    2    1    2    0    0  0.11679922489E-01  0.73753750682E-02 -0.22209675901E-01  0.10177749536E+01  0.10174388285E+01 0.  0.
     999903    2    3    3    0    0  0.98321919001E-01  0.39543993974E-01  0.58888461625E-01  0.12922638236E+00  0.44728958964E-01 0.  0.
         14    1    1    2    0    0 -0.11679922489E-01 -0.73753750682E-02  0.22209675901E-01  0.26155046366E-01  0.00000000000E+00 0. -1.
     999901    1    3    3    0    0 -0.86641996512E-01 -0.32168618905E-01 -0.81098137526E-01  0.88854857127E+00  0.88000000000E+00 0.  1.
        -11    1    4    4    0    0  0.15809447035E-01 -0.37769801594E-02  0.25473976959E-01  0.30222323169E-01  0.51100000000E-03 0. -1.
         11    1    4    4    0    0  0.82512471967E-01  0.43320974133E-01  0.33414484667E-01  0.99004059192E-01  0.51100000000E-03 0.  1.
</event>
<event>
 7    1  0.2183582E+004  0.1043930E+01  0.7957747E-01            NaN
         13   -1    0    0    0    0  0.00000000000E+00  0.00000000000E+00  0.74505805969E-08  0.10566000000E+00  0.10566000000E+00 0. -1.
     999900   -1    0    0    0    0 -0.00000000000E+00 -0.00000000000E+00 -0.74505805969E-08  0.93827000000E+00  0.93827000000E+00 0.  1.
     999902    2    1    2    0    0  0.57622613053E-02 -0.37388880907E-02  0.12622369916E-01  0.10295596429E+01  0.10294593490E+01 0.  0.
         14    1    1    2    0    0 -0.57622613053E-02  0.37388880907E-02 -0.12622369916E-01  0.14370357052E-01  0.00000000000E+00 0.  1.
     999901    1    3    3    0    0 -0.89362512454E-01  0.58215013946E-01  0.88068717926E-01  0.89080342700E+00  0.88000000000E+00 0. -1.
        -11    1    3    3    0    0  0.40961028736E-01 -0.33576033907E-01 -0.21331755956E-01  0.57100445368E-01  0.51100000000E-03 0.  1.
         11    1    3    3    0    0  0.54163745024E-01 -0.28377868129E-01 -0.54114592055E-01  0.81655770579E-01  0.51100000000E-03 0. -1.
</event>
<event>
 8    1  0.2183582E+004  0.1043930E+01  0.7957747E-01            NaN
         13   -1    0    0    0    0  0.00000000000E+00  0.00000000000E+00  0.74505805969E-08  0.10566000000E+00  0.10566000000E+00 0. -1.
     999900   -1    0    0    0    0 -0.00000000000E+00 -0.00000000000E+00 -0.74505805969E-08  0.93827000000E+00  0.93827000000E+00 0. -1.
     999902    2    1    2    0    0 -0.60411375608E-02 -0.22186529069E-02 -0.10464060390E-01  0.10316452809E+01  0.10315721358E+01 0.  0.
     999903    2    3    3    0    0 -0.57875030079E-02  0.12741751945E+00  0.39465677674E-01  0.14074765475E+00  0.44538108970E-01 0.  0.
         14    1    1    2    0    0  0.60411375608E-02  0.22186529069E-02  0.10464060390E-01  0.12284719109E-01  0.00000000000E+00 0. -1.
     999901    1    3    3    0    0 -0.25363455294E-03 -0.12963617236E+00 -0.49929738063E-01  0.89089762614E+00  0.88000000000E+00 0. -1.
        -11    1    4    4    0    0 -0.21741379040E-01  0.34547920911E-01  0.10228664210E-01  0.42084832118E-01  0.51100000000E-03 0.  1.
         11    1    4    4    0    0  0.15953876033E-01  0.92869598539E-01  0.29237013464E-01  0.98662822636E-01  0.51100000000E-03 0. -1.
</event>
<event>
 8    1  0.2183582E+004  0.1043930E+01  0.7957747E-01            NaN
         13   -1    0    0    0    0  0.00000000000E+00  0.00000000000E+00  0.74505805969E-08  0.10566000000E+00  0.10566000000E+00 0. -1.
     999900   -1    0    0    0    0 -0.00000000000E+00 -0.00000000000E+00 -0.74505805969E-08  0.93827000000E+00  0.93827000000E+00 0.  1.
     999902    2    1    2    0    0  0.13257468997E-01 -0.15395913583E-02 -0.43310224217E-02  0.10298983009E+01  0.10298027100E+01 0.  0.
     999903    2    3    3    0    0  0.75073582215E-01  0.23545087155E-01  0.10729335717E+00  0.14034196477E+00  0.44649621554E-01 0.  0.
         14    1    1    2    0    0 -0.13257468997E-01  0.15395913583E-02  0.43310224217E-02  0.14031699148E-01  0.00000000000E+00 0. -1.
     999901    1    3    3    0    0 -0.61816113218E-01 -0.25084678514E-01 -0.11162437960E+00  0.88955633609E+00  0.88000000000E+00 0.  1.
        -11    1    4    4    0    0  0.41524955442E-01  0.30404147840E-01  0.85353104698E-01  0.99670194808E-01  0.51100000000E-03 0. -1.
         11    1    4    4    0    0  0.33548626773E-01 -0.68590606848E-02  0.21940252476E-01  0.40671769959E-01  0.51100000000E-03 0.  1.
</event>
<event>
 8    1  0.2183582E+004  0.1043930E+01  0.7957747E-01            NaN
         13   -1    0    0    0    0  0.00000000000E+00  0.00000000000E+00  0.74505805969E-08  0.10566000000E+00  0.10566000000E+00 0.  1.
     999900   -1    0    0    0    0 -0.00000000000E+00 -0.00000000000E+00 -0.74505805969E-08  0.93827000000E+00  0.93827000000E+00 0.  1.
     999902    2    1    2    0    0 -0.13636874703E-01  0.48334497960E-03 -0.80784979485E-03  0.10302606695E+01  0.10301699843E+01 0.  0.
     999903    2    3    3    0    0  0.26886836743E-01  0.91409356542E-01  0.91673681639E-01  0.13983237685E+00  0.45502277476E-01 0.  0.
         14    1    1    2    0    0  0.13636874703E-01 -0.48334497960E-03  0.80784979485E-03  0.13669330464E-01  0.00000000000E+00 0.  1.
     999901    1    3    3    0    0 -0.40523711447E-01 -0.90926011562E-01 -0.92481531434E-01  0.89042829269E+00  0.88000000000E+00 0.  1.
        -11    1    4    4    0    0  0.19047910153E-01  0.56987314671E-01  0.26422426148E-01  0.65641318079E-01  0.51100000000E-03 0.  1.
         11    1    4    4    0    0  0.78389265901E-02  0.34422041870E-01  0.65251255491E-01  0.74191058766E-01  0.51100000000E-03 0. -1.
</event>
<event>
 8    1  0.2183582E+004  0.1043930E+01  0.7957747E-01            NaN
         13   -1    0    0    0    0  0.00000000000E+00  0.00000000000E+00  0.74505805969E-08  0.10566000000E+00  0.10566000000E+00 0.  1.
     999900   -1    0    0    0    0 -0.00000000000E+00 -0.00000000000E+00 -0.74505805969E-08  0.93827000000E+00  0.93827000000E+00 0.  1.
     999902    2    1    2    0    0 -0.28670870627E-02 -0.14293760690E-01 -0.18486541403E-02  0.10292347863E+01  0.10291298733E+01 0.  0.
     999903    2    3    3    0    0  0.12013362384E+00 -0.51477712014E-01  0.10122086608E-01  0.13982199141E+00  0.48638361743E-01 0.  0.
         14    1    1    2    0    0  0.28670870627E-02  0.14293760690E-01  0.18486541403E-02  0.14695213677E-01  0.00000000000E+00 0.  1.
     999901    1    3    3    0    0 -0.12300071091E+00  0.37183951324E-01 -0.11970740749E-01  0.88941279491E+00  0.88000000000E+00 0. -1.
        -11    1    4    4    0    0  0.78009287491E-01 -0.12653673983E-01  0.20393848502E-01  0.81619449753E-01  0.51100000000E-03 0.  1.
         11    1    4    4    0    0  0.42124336351E-01 -0.38824038031E-01 -0.10271761894E-01  0.58202541658E-01  0.51100000000E-03 0. -1.
</event>
<event>
 8    1  0.2183582E+004  0.1043930E+01  0.7957747E-01            NaN
         13   -1    0    0    0    0  0.00000000000E+00  0.00000000000E+00  0.74505805969E-08  0.10566000000E+00  0.10566000000E+00 0. -1.
     999900   -1    0    0    0    0 -0.00000000000E+00 -0.00000000000E+00 -0.74505805969E-08  0.93827000000E+00  0.93827000000E+00 0. -1.
     999902    2    1    2    0    0  0.46851310620E-02 -0.11838542993E-01 -0.90590290243E-02  0.10283041381E+01  0.10281854078E+01 0.  0.
     999903    2    3    3    0    0 -0.54165877299E-01  0.11616814014E+00 -0.17779641523E-01  0.13705490181E+00  0.45154749567E-01 0.  0.
         14    1    1    2    0    0 -0.46851310620E-02  0.11838542993E-01  0.90590290243E-02  0.15625861901E-01  0.00000000000E+00 0. -1.
     999901    1    3    3    0    0  0.58851008361E-01 -0.12800668314E+00  0.87206124988E-02  0.89124923629E+00  0.88000000000E+00 0.  1.
        -11    1    4    4    0    0 -0.19204815685E-01  0.86376344458E-01 -0.21202737372E-01  0.90991840406E-01  0.51100000000E-03 0.  1.
         11    1    4    4    0    0 -0.34961061614E-01  0.29791795685E-01  0.34230958494E-02  0.46063061399E-01  0.51100000000E-03 0. -1.
</event>
<event>
 8    1  0.2183582E+004  0.1043930E+01  0.7957747E-01            NaN
         13   -1    0    0    0    0  0.00000000000E+00  0.00000000000E+00  0.74505805969E-08  0.10566000000E+00  0.10566000000E+00 0.  1.
     999900   -1    0    0    0    0 -0.00000000000E+00 -0.00000000000E+00 -0.74505805969E-08  0.93827000000E+00  0.93827000000E+00 0.  1.
     999902    2    1    2    0    0  0.11525138896E-01 -0.49719338404E-03 -0.17013319163E-02  0.10322693586E+01  0.10322034965E+01 0.  0.
     999903    2    3    3    0    0  0.49172195957E-01  0.75395028174E-02 -0.12525175211E+00  0.14280514024E+00  0.47228780568E-01 0.  0.
         14    1    1    2    0    0 -0.11525138896E-01  0.49719338404E-03  0.17013319163E-02  0.11660641411E-01  0.00000000000E+00 0. -1.
     999901    1    3    3    0    0 -0.37647057061E-01 -0.80366962015E-02  0.12355042020E+00  0.88946421835E+00  0.88000000000E+00 0. -1.
        -11    1    4    4    0    0 -0.75314782582E-02 -0.12048734342E-02 -0.35256294905E-01  0.36075508814E-01  0.51100000000E-03 0.  1.
         11    1    4    4    0    0  0.56703674215E-01  0.87443762516E-02 -0.89995457208E-01  0.10672963143E+00  0.51100000000E-03 0. -1.
</event>
<event>
 8    1  0.2183582E+004  0.1043930E+01  0.7957747E-01            NaN
         13   -1    0    0    0    0  0.00000000000E+00  0.00000000000E+00  0.74505805969E-08  0.10566000000E+00  0.10566000000E+00 0.  1.
     999900   -1    0    0    0    0 -0.00000000000E+00 -0.00000000000E+00 -0.74505805969E-08  0.93827000000E+00  0.93827000000E+00 0. -1.
     999902    2    1    2    0    0 -0.54369984620E-02 -0.14378162833E-01  0.45622561491E-02  0.10278954529E+01  0.10277703807E+01 0.  0.
     999903    2    3    3    0    0  0.36752157335E-01  0.50105267158E-01 -0.11311838092E+00  0.13672388137E+00  0.45126408784E-01 0.  0.
         14    1    1    2    0    0  0.54369984620E-02  0.14378162833E-01 -0.45622561491E-02  0.16034547075E-01  0.00000000000E+00 0. -1.
     999901    1    3    3    0    0 -0.42189155797E-01 -0.64483429991E-01  0.11768063707E+00  0.89117157156E+00  0.88000000000E+00 0.  1.
        -11    1    4    4    0    0 -0.52016346445E-02  0.22947523523E-01 -0.19354335690E-01  0.30471253171E-01  0.51100000000E-03 0.  1.
         11    1    4    4    0    0  0.41953791979E-01  0.27157743635E-01 -0.93764045226E-01  0.10625262820E+00  0.51100000000E-03 0. -1.
</event>
<event>
 8    1  0.2183582E+004  0.1043930E+01  0.7957747E-01            NaN
         13   -1    0    0    0    0  0.00000000000E+00  0.00000000000E+00  0.74505805969E-08  0.10566000000E+00  0.10566000000E+00 0. -1.
     999900   -1    0    0    0    0 -0.00000000000E+00 -0.00000000000E+00 -0.74505805969E-08  0.93827000000E+00  0.93827000000E+00 0. -1.
     999902    2    1    2    0    0  0.76510780777E-02 -0.80364838869E-02 -0.78162738391E-02  0.10303572992E+01  0.10302679001E+01 0.  0.
     999903    2    3    3    0    0  0.12387601453E+00 -0.19074390656E-01 -0.48405262079E-01  0.14171927552E+00  0.45079754922E-01 0.  0.
         14    1    1    2    0    0 -0.76510780777E-02  0.80364838869E-02  0.78162738391E-02  0.13572700753E-01  0.00000000000E+00 0. -1.
     999901    1    3    3    0    0 -0.11622493645E+00  0.11037906770E-01  0.40588988240E-01  0.88863802372E+00  0.88000000000E+00 0. -1.
        -11    1    4    4    0    0  0.63527016515E-01 -0.78498944733E-02 -0.76681807330E-03  0.64016808742E-01  0.51100000000E-03 0.  1.
         11    1    4    4    0    0  0.60348998014E-01 -0.11224496183E-01 -0.47638444006E-01  0.77702466783E-01  0.51100000000E-03 0. -1.
</event>
<event>
 8    1  0.2183582E+004  0.1043930E+01  0.7957747E-01            NaN
         13   -1    0    0    0    0  0.00000000000E+00  0.00000000000E+00  0.74505805969E-08  0.10566000000E+00  0.10566000000E+00 0. -1.
     999900   -1    0    0    0    0 -0.00000000000E+00 -0.00000000000E+00 -0.74505805969E-08  0.93827000000E+00  0.93827000000E+00 0.  1.
     999902    2    1    2    0    0  0.87189801908E-02  0.12315145569E-02  0.89938257732E-02  0.10313432552E+01  0.10312664466E+01 0.  0.
     999903    2    3    3    0    0 -0.11898147026E+00 -0.10614074681E-01  0.58929072535E-01  0.14064619560E+00  0.45160468357E-01 0.  0.
         14    1    1    2    0    0 -0.87189801908E-02 -0.12315145569E-02 -0.89938257732E-02  0.12586744842E-01  0.00000000000E+00 0.  1.
     999901    1    3    3    0    0  0.12770045045E+00  0.11845589238E-01 -0.49935246762E-01  0.89069705955E+00  0.88000000000E+00 0.  1.
        -11    1    4    4    0    0 -0.75897454595E-01 -0.11196973664E-01  0.13262190138E-01  0.77858478289E-01  0.51100000000E-03 0. -1.
         11    1    4    4    0    0 -0.43084015662E-01  0.58289898301E-03  0.45666882397E-01  0.62787717315E-01  0.51100000000E-03 0.  1.
</event>
<event>
 8    1  0.2183582E+004  0.1043930E+01  0.7957747E-01            NaN
         13   -1    0    0    0    0  0.00000000000E+00  0.00000000000E+00  0.74505805969E-08  0.10566000000E+00  0.10566000000E+00 0. -1.
     999900   -1    0    0    0    0 -0.00000000000E+00 -0.00000000000E+00 -0.74505805969E-08  0.93827000000E+00  0.93827000000E+00 0.  1.
     999902    2    1    2    0    0  0.61921911245E-02  0.20167079424E-02 -0.12228558788E-01  0.10300754703E+01  0.10299822943E+01 0.  0.
     999903    2    3    3    0    0  0.39281937621E-02 -0.11701563974E+00  0.59810608349E-01  0.13914142841E+00  0.45551482742E-01 0.  0.
         14    1    1    2    0    0 -0.61921911245E-02 -0.20167079424E-02  0.12228558788E-01  0.13854529652E-01  0.00000000000E+00 0. -1.
     999901    1    3    3    0    0  0.22639973624E-02  0.11903234768E+00 -0.72039167137E-01  0.89093404194E+00  0.88000000000E+00 0.  1.
        -11    1    4    4    0    0 -0.50119116113E-02 -0.65543328162E-01  0.91556735715E-02  0.66371188057E-01  0.51100000000E-03 0. -1.
         11    1    4    4    0    0  0.89401053734E-02 -0.51472311576E-01  0.50654934777E-01  0.72770240355E-01  0.51100000000E-03 0.  1.
</event>
<event>
 8    1  0.2183582E+004  0.1043930E+01  0.7957747E-01            NaN
         13   -1    0    0    0    0  0.00000000000E+00  0.00000000000E+00  0.74505805969E-08  0.10566000000E+00  0.10566000000E+00 0. -1.
     999900   -1    0    0    0    0 -0.00000000000E+00 -0.00000000000E+00 -0.74505805969E-08  0.93827000000E+00  0.93827000000E+00 0.  1.
     999902    2    1    2    0    0  0.64404269274E-02 -0.39923721383E-02 -0.11731592353E-01  0.10299640273E+01  0.10298693360E+01 0.  0.
     999903    2    3    3    0    0  0.12376640322E+00 -0.51209590707E-02 -0.51046991372E-01  0.14130641099E+00  0.44915027225E-01 0.  0.
         14    1    1    2    0    0 -0.64404269274E-02  0.39923721383E-02  0.11731592353E-01  0.13965972699E-01  0.00000000000E+00 0. -1.
     999901    1    3    3    0    0 -0.11732597630E+00  0.11285869324E-02  0.39315399020E-01  0.88865761631E+00  0.88000000000E+00 0. -1.
        -11    1    4    4    0    0  0.58572456237E-01 -0.24821606435E-01 -0.26382575778E-01  0.68870503129E-01  0.51100000000E-03 0.  1.
         11    1    4    4    0    0  0.65193946988E-01  0.19700647364E-01 -0.24664415594E-01  0.72435907863E-01  0.51100000000E-03 0. -1.
</event>
<event>
 8    1  0.2183582E+004  0.1043930E+01  0.7957747E-01            NaN
         13   -1    0    0    0    0  0.00000000000E+00  0.00000000000E+00  0.74505805969E-08  0.10566000000E+00  0.10566000000E+00 0.  1.
     999900   -1    0    0    0    0 -0.00000000000E+00 -0.00000000000E+00 -0.74505805969E-08  0.93827000000E+00  0.93827000000E+00 0. -1.
     999902    2    1    2    0    0 -0.15888782071E-01  0.99479393180E-02  0.27327788553E-02  0.10249857932E+01  0.10248107109E+01 0.  0.
     999903    2    3    3    0    0 -0.10725726989E+00  0.64248066920E-01  0.36367232013E-01  0.13795254640E+00  0.45567460395E-01 0.  0.
         14    1    1    2    0    0  0.15888782071E-01 -0.99479393180E-02 -0.27327788553E-02  0.18944206836E-01  0.00000000000E+00 0.  1.
     999901    1    3    3    0    0  0.91368487819E-01 -0.54300127602E-01 -0.33634453158E-01  0.88703324676E+00  0.88000000000E+00 0.  1.
        -11    1    4    4    0    0 -0.87938928593E-01  0.41923434806E-01  0.92459444889E-02  0.97859992635E-01  0.51100000000E-03 0. -1.
         11    1    4    4    0    0 -0.19318341297E-01  0.22324632114E-01  0.27121287524E-01  0.40092553766E-01  0.51100000000E-03 0.  1.
</event>
<event>
 8    1  0.2183582E+004  0.1043930E+01  0.7957747E-01            NaN
         13   -1    0    0    0    0  0.00000000000E+00  0.00000000000E+00  0.74505805969E-08  0.10566000000E+00  0.10566000000E+00 0.  1.
     999900   -1    0    0    0    0 -0.00000000000E+00 -0.00000000000E+00 -0.74505805969E-08  0.93827000000E+00  0.93827000000E+00 0. -1.
     999902    2    1    2    0    0 -0.32960327829E-02 -0.84037542507E-02  0.49971188522E-02  0.10336121458E+01  0.10335606465E+01 0.  0.
     999903    2    3    3    0    0  0.20963054020E-01  0.80542989666E-01 -0.10589490913E+00  0.14187391720E+00  0.44585353928E-01 0.  0.
         14    1    1    2    0    0  0.32960327829E-02  0.84037542507E-02 -0.49971188522E-02  0.10317854158E-01  0.00000000000E+00 0. -1.
     999901    1    3    3    0    0 -0.24259086803E-01 -0.88946743917E-01  0.11089202798E+00  0.89173822864E+00  0.88000000000E+00 0. -1.
        -11    1    4    4    0    0  0.21235138882E-01  0.97495485717E-02 -0.21972840618E-01  0.32078835181E-01  0.51100000000E-03 0. -1.
         11    1    4    4    0    0 -0.27208486227E-03  0.70793441095E-01 -0.83922068510E-01  0.10979508202E+00  0.51100000000E-03 0.  1.
</event>
<event>
 8    1  0.2183582E+004  0.1043930E+01  0.7957747E-01            NaN
         13   -1    0    0    0    0  0.00000000000E+00  0.00000000000E+00  0.74505805969E-08  0.10566000000E+00  0.10566000000E+00 0. -1.
     999900   -1    0    0    0    0 -0.00000000000E+00 -0.00000000000E+00 -0.74505805969E-08  0.93827000000E+00  0.93827000000E+00 0.  1.
     999902    2    1    2    0    0  0.11854667295E-01 -0.68649933971E-02 -0.30757139796E-02  0.10298900111E+01  0.10297943065E+01 0.  0.
     999903    2    3    3    0    0  0.12082552257E+00  0.35544392883E-02 -0.58953505643E-01  0.14134876871E+00  0.43503076271E-01 0.  0.
         14    1    1    2    0    0 -0.11854667295E-01  0.68649933971E-02  0.30757139796E-02  0.14039988871E-01  0.00000000000E+00 0. -1.
     999901    1    3    3    0    0 -0.10897085528E+00 -0.10419432685E-01  0.55877791663E-01  0.88854124242E+00  0.88000000000E+00 0.  1.
        -11    1    4    4    0    0  0.41716699257E-01  0.16619565390E-01 -0.37076173834E-01  0.58235699857E-01  0.51100000000E-03 0.  1.
         11    1    4    4    0    0  0.79108823314E-01 -0.13065126101E-01 -0.21877331809E-01  0.83113068854E-01  0.51100000000E-03 0. -1.
</event>
<event>
 7    1  0.2183582E+004  0.1043930E+01  0.7957747E-01            NaN
         13   -1    0    0    0    0  0.00000000000E+00  0.00000000000E+00  0.74505805969E-08  0.10566000000E+00  0.10566000000E+00 0. -1.
     999900   -1    0    0    0    0 -0.00000000000E+00 -0.00000000000E+00 -0.74505805969E-08  0.93827000000E+00  0.93827000000E+00 0.  1.
     999903    2    1    2    0    0 -0.80661717870E-01  0.66776714867E-01  0.28005124953E-01  0.11731915143E+00  0.44878211769E-01 0.  0.
         14    1    1    2    0    0 -0.36497029303E-02  0.26725297975E-01 -0.26264940733E-01  0.37648492600E-01  0.00000000000E+00 0.  1.
     999901    1    1    2    0    0  0.84311420800E-01 -0.93502012842E-01 -0.17401842202E-02  0.88896235597E+00  0.88000000000E+00 0. -1.
        -11    1    3    3    0    0 -0.46464873514E-01  0.60669744165E-01  0.70447916308E-02  0.76744332285E-01  0.51100000000E-03 0.  1.
         11    1    3    3    0    0 -0.34196844355E-01  0.61069707014E-02  0.20960333322E-01  0.40574819149E-01  0.51100000000E-03 0. -1.
</event>
<event>
 8    1  0.2183582E+004  0.1043930E+01  0.7957747E-01            NaN
         13   -1    0    0    0    0  0.00000000000E+00  0.00000000000E+00  0.74505805969E-08  0.10566000000E+00  0.10566000000E+00 0. -1.
     999900   -1    0    0    0    0 -0.00000000000E+00 -0.00000000000E+00 -0.74505805969E-08  0.93827000000E+00  0.93827000000E+00 0. -1.
     999902    2    1    2    0    0 -0.14627045917E-01  0.26837875427E-02 -0.46588724164E-02  0.10283460891E+01  0.10282280003E+01 0.  0.
     999903    2    3    3    0    0 -0.66176873302E-01  0.11013610348E+00  0.30710597141E-01  0.13960856635E+00  0.45145001632E-01 0.  0.
         14    1    1    2    0    0  0.14627045917E-01 -0.26837875427E-02  0.46588724164E-02  0.15583910935E-01  0.00000000000E+00 0. -1.
     999901    1    3    3    0    0  0.51549827385E-01 -0.10745231594E+00 -0.35369469558E-01  0.88873752271E+00  0.88000000000E+00 0.  1.
        -11    1    4    4    0    0 -0.29044231986E-01  0.16580718836E-01  0.18475933823E-01  0.38211371349E-01  0.51100000000E-03 0. -1.
         11    1    4    4    0    0 -0.37132641317E-01  0.93555384643E-01  0.12234663319E-01  0.10139719500E+00  0.51100000000E-03 0.  1.
</event>
<event>
 8    1  0.2183582E+004  0.1043930E+01  0.7957747E-01            NaN
         13   -1    0    0    0    0  0.00000000000E+00  0.00000000000E+00  0.74505805969E-08  0.10566000000E+00  0.10566000000E+00 0. -1.
     999900   -1    0    0    0    0 -0.00000000000E+00 -0.00000000000E+00 -0.74505805969E-08  0.93827000000E+00  0.93827000000E+00 0. -1.
     999902    2    1    2    0    0 -0.37083624437E-03  0.13382649435E-02 -0.10515175485E-01  0.10333235214E+01  0.10332690852E+01 0.  0.
     999903    2    3    3    0    0  0.75161450643E-01  0.23403563224E-01 -0.11163943992E+00  0.14404396997E+00  0.45698252754E-01 0.  0.
         14    1    1    2    0    0  0.37083624437E-03 -0.13382649435E-02  0.10515175485E-01  0.10606478589E-01  0.00000000000E+00 0. -1.
     999901    1    3    3    0    0 -0.75532286887E-01 -0.22065298280E-01  0.10112426444E+00  0.88927955144E+00  0.88000000000E+00 0.  1.
        -11    1    4    4    0    0  0.62606569336E-01 -0.18999029922E-03 -0.90087187277E-01  0.10970679584E+00  0.51100000000E-03 0.  1.
         11    1    4    4    0    0  0.12554881307E-01  0.23593553523E-01 -0.21552252645E-01  0.34337174135E-01  0.51100000000E-03 0. -1.
</event>
<event>
 8    1  0.2183582E+004  0.1043930E+01  0.7957747E-01            NaN
         13   -1    0    0    0    0  0.00000000000E+00  0.00000000000E+00  0.74505805969E-08  0.10566000000E+00  0.10566000000E+00 0.  1.
     999900   -1    0    0    0    0 -0.00000000000E+00 -0.00000000000E+00 -0.74505805969E-08  0.93827000000E+00  0.93827000000E+00 0. -1.
     999902    2    1    2    0    0 -0.41581083798E-02 -0.13410189014E-01  0.19007400501E-02  0.10297618721E+01  0.10296644004E+01 0.  0.
     999903    2    3    3    0    0 -0.48321920429E-01 -0.90436466155E-01  0.86151324273E-01  0.14129034720E+00  0.45023872926E-01 0.  0.
         14    1    1    2    0    0  0.41581083798E-02  0.13410189014E-01 -0.19007400501E-02  0.14168127873E-01  0.00000000000E+00 0.  1.
     999901    1    3    3    0    0  0.44163812049E-01  0.77026277141E-01 -0.84250584223E-01  0.88847152493E+00  0.88000000000E+00 0. -1.
        -11    1    4    4    0    0 -0.44072994047E-01 -0.35672998544E-01  0.38154607615E-01  0.68344910803E-01  0.51100000000E-03 0. -1.
         11    1    4    4    0    0 -0.42489263817E-02 -0.54763467611E-01  0.47996716657E-01  0.72945436396E-01  0.51100000000E-03 0.  1.
</event>
<event>
 8    1  0.2183582E+004  0.1043930E+01  0.7957747E-01            NaN
         13   -1    0    0    0    0  0.00000000000E+00  0.00000000000E+00  0.74505805969E-08  0.10566000000E+00  0.10566000000E+00 0. -1.
     999900   -1    0    0    0    0 -0.00000000000E+00 -0.00000000000E+00 -0.74505805969E-08  0.93827000000E+00  0.93827000000E+00 0. -1.
     999902    2    1    2    0    0 -0.28099804508E-02 -0.45298350003E-02  0.11942334174E-01  0.10308519749E+01  0.10307690136E+01 0.  0.
     999903    2    3    3    0    0 -0.14477934886E-01  0.82016822960E-01 -0.10193793126E+00  0.13922695280E+00  0.45347907431E-01 0.  0.
         14    1    1    2    0    0  0.28099804508E-02  0.45298350003E-02 -0.11942334174E-01  0.13078025110E-01  0.00000000000E+00 0.  1.
     999901    1    3    3    0    0  0.11667954436E-01 -0.86546657960E-01  0.11388026544E+00  0.89162502209E+00  0.88000000000E+00 0.  1.
        -11    1    4    4    0    0 -0.11957021826E-01  0.20573900289E-01 -0.60656846328E-01  0.65159572371E-01  0.51100000000E-03 0.  1.
         11    1    4    4    0    0 -0.25209130600E-02  0.61442922671E-01 -0.41281084934E-01  0.74067380427E-01  0.51100000000E-03 0. -1.
</event>
<event>
 8    1  0.2183582E+004  0.1043930E+01  0.7957747E-01            NaN
         13   -1    0    0    0    0  0.00000000000E+00  0.00000000000E+00  0.74505805969E-08  0.10566000000E+00  0.10566000000E+00 0. -1.
     999900   -1    0    0    0    0 -0.00000000000E+00 -0.00000000000E+00 -0.74505805969E-08  0.93827000000E+00  0.93827000000E+00 0.  1.
     999902    2    1    2    0    0  0.84676071161E-02  0.11562178640E-01 -0.18081196775E-02  0.10294851517E+01  0.10293838079E+01 0.  0.
     999903    2    3    3    0    0  0.97952901637E-01 -0.82622650341E-01 -0.32411578592E-01  0.13942056325E+00  0.44343091247E-01 0.  0.
         14    1    1    2    0    0 -0.84676071161E-02 -0.11562178640E-01  0.18081196775E-02  0.14444848284E-01  0.00000000000E+00 0. -1.
     999901    1    3    3    0    0 -0.89485294521E-01  0.94184828981E-01  0.30603458915E-01  0.89006458847E+00  0.88000000000E+00 0. -1.
        -11    1    4    4    0    0  0.59504181976E-01 -0.73275819148E-01 -0.32547986508E-01  0.99848514717E-01  0.51100000000E-03 0. -1.
         11    1    4    4    0    0  0.38448719660E-01 -0.93468311929E-02  0.13640791598E-03  0.39572048532E-01  0.51100000000E-03 0.  1.
</event>
<event>
 8    1  0.2183582E+004  0.1043930E+01  0.7957747E-01            NaN
         13   -1    0    0    0    0  0.00000000000E+00  0.00000000000E+00  0.74505805969E-08  0.10566000000E+00  0.10566000000E+00 0.  1.
     999900   -1    0    0    0    0 -0.00000000000E+00 -0.00000000000E+00 -0.74505805969E-08  0.93827000000E+00  0.93827000000E+00 0.  1.
     999902    2    1    2    0    0 -0.84038986566E-02 -0.98091237366E-02  0.54451087160E-02  0.10299123814E+01  0.10298169837E+01 0.  0.
     999903    2    3    3    0    0  0.95934998173E-01  0.22733556832E-01  0.87593275477E-01  0.13935415608E+00  0.45018445424E-01 0.  0.
         14    1    1    2    0    0  0.84038986566E-02  0.98091237366E-02 -0.54451087160E-02  0.14017618558E-01  0.00000000000E+00 0. -1.
     999901    1    3    3    0    0 -0.10433889683E+00 -0.32542680568E-01 -0.82148166761E-01  0.89055822536E+00  0.88000000000E+00 0.  1.
        -11    1    4    4    0    0  0.83749635781E-01  0.27419282026E-02  0.59454461191E-01  0.10274538306E+00  0.51100000000E-03 0. -1.
         11    1    4    4    0    0  0.12185362392E-01  0.19991628629E-01  0.28138814286E-01  0.36608773024E-01  0.51100000000E-03 0.  1.
</event>
<event>
 8    1  0.2183582E+004  0.1043930E+01  0.7957747E-01            NaN
         13   -1    0    0    0    0  0.00000000000E+00  0.00000000000E+00  0.74505805969E-08  0.10566000000E+00  0.10566000000E+00 0. -1.
     999900   -1    0    0    0    0 -0.00000000000E+00 -0.00000000000E+00 -0.74505805969E-08  0.93827000000E+00  0.93827000000E+00 0.  1.
     999902    2    1    2    0    0  0.11236013351E-01  0.11137834919E-01 -0.53126541589E-02  0.10272409720E+01  0.10271053942E+01 0.  0.
     999903    2    3    3    0    0  0.32558528702E-01 -0.10600600190E+00 -0.66703974102E-01  0.13710265556E+00  0.45281207683E-01 0.  0.
         14    1    1    2    0    0 -0.11236013351E-01 -0.11137834919E-01  0.53126541589E-02  0.16689028040E-01  0.00000000000E+00 0. -1.
     999901    1    3    3    0    0 -0.21322515351E-01  0.11714383682E+00  0.61391319943E-01  0.89013831640E+00  0.88000000000E+00 0. -1.
        -11    1    4    4    0    0  0.10830919411E-01 -0.78844299675E-01 -0.64151823727E-01  0.10222255140E+00  0.51100000000E-03 0.  1.
         11    1    4    4    0    0  0.21727609291E-01 -0.27161702226E-01 -0.25521503750E-02  0.34880104155E-01  0.51100000000E-03 0. -1.
</event>
<event>
 8    1  0.2183582E+004  0.1043930E+01  0.7957747E-01            NaN
         13   -1    0    0    0    0  0.00000000000E+00  0.00000000000E+00  0.74505805969E-08  0.10566000000E+00  0.10566000000E+00 0.  1.
     999900   -1    0    0    0    0 -0.00000000000E+00 -0.00000000000E+00 -0.74505805969E-08  0.93827000000E+00  0.93827000000E+00 0.  1.
     999902    2    1    2    0    0 -0.14088229780E-01 -0.48009816620E-02  0.22485110004E-02  0.10288773110E+01  0.10287671932E+01 0.  0.
     999903    2    3    3    0    0 -0.34891478883E-01  0.87306450923E-01 -0.91912052413E-01  0.13883081449E+00  0.44568352030E-01 0.  0.
         14    1    1    2    0    0  0.14088229780E-01  0.48009816620E-02 -0.22485110004E-02  0.15052688962E-01  0.00000000000E+00 0. -1.
     999901    1    3    3    0    0  0.20803249103E-01 -0.92107432585E-01  0.94160563413E-01  0.89004649655E+00  0.88000000000E+00 0. -1.
        -11    1    4    4    0    0 -0.19285286116E-01  0.85238186464E-01 -0.70703705910E-01  0.11241328143E+00  0.51100000000E-03 0. -1.
         11    1    4    4    0    0 -0.15606192767E-01  0.20682644584E-02 -0.21208346502E-01  0.26417533059E-01  0.51100000000E-03 0.  1.
</event>
<event>
 8    1  0.2183582E+004  0.1043930E+01  0.7957747E-01            NaN
         13   -1    0    0    0    0  0.00000000000E+00  0.00000000000E+00  0.74505805969E-08  0.10566000000E+00  0.10566000000E+00 0.  1.
     999900   -1    0    0    0    0 -0.00000000000E+00 -0.00000000000E+00 -0.74505805969E-08  0.93827000000E+00  0.93827000000E+00 0.  1.
     999902    2    1    2    0    0  0.13085817659E-01  0.22308039608E-02 -0.40968437481E-02  0.10300375834E+01  0.10299438936E+01 0.  0.
     999903    2    3    3    0    0 -0.11707151652E+00  0.14300505630E-02 -0.59451267207E-01  0.13874319599E+00  0.44804422049E-01 0.  0.
         14    1    1    2    0    0 -0.13085817659E-01 -0.22308039608E-02  0.40968437481E-02  0.13892416594E-01  0.00000000000E+00 0. -1.
     999901    1    3    3    0    0  0.13015733418E+00  0.80075339779E-03  0.55354423459E-01  0.89129438742E+00  0.88000000000E+00 0.  1.
        -11    1    4    4    0    0 -0.49849999546E-01 -0.30519745261E-02 -0.16496004302E-02  0.49973185869E-01  0.51100000000E-03 0.  1.
         11    1    4    4    0    0 -0.67221516975E-01  0.44820250891E-02 -0.57801666777E-01  0.88770010119E-01  0.51100000000E-03 0. -1.
</event>
<event>
 8    1  0.2183582E+004  0.1043930E+01  0.7957747E-01            NaN
         13   -1    0    0    0    0  0.00000000000E+00  0.00000000000E+00  0.74505805969E-08  0.10566000000E+00  0.10566000000E+00 0.  1.
     999900   -1    0    0    0    0 -0.00000000000E+00 -0.00000000000E+00 -0.74505805969E-08  0.93827000000E+00  0.93827000000E+00 0.  1.
     999902    2    1    2    0    0 -0.40950397809E-02  0.23263130910E-02  0.13100266618E-01  0.10300088625E+01  0.10299147823E+01 0.  0.
     999903    2    3    3    0    0 -0.71798762479E-01  0.94159780766E-01 -0.58695857952E-01  0.13974381021E+00  0.45409273766E-01 0.  0.
         14    1    1    2    0    0  0.40950397809E-02 -0.23263130910E-02 -0.13100266618E-01  0.13921137484E-01  0.00000000000E+00 0. -1.
     999901    1    3    3    0    0  0.67703722699E-01 -0.91833467675E-01  0.71796124570E-01  0.89026505231E+00  0.88000000000E+00 0.  1.
        -11    1    4    4    0    0 -0.22287264617E-01  0.50712004726E-01 -0.66556309754E-02  0.55794158584E-01  0.51100000000E-03 0.  1.
         11    1    4    4    0    0 -0.49511497863E-01  0.43447776040E-01 -0.52040226977E-01  0.83949651627E-01  0.51100000000E-03 0. -1.
</event>
<event>
 8    1  0.2183582E+004  0.1043930E+01  0.7957747E-01            NaN
         13   -1    0    0    0    0  0.00000000000E+00  0.00000000000E+00  0.74505805969E-08  0.10566000000E+00  0.10566000000E+00 0. -1.
     999900   -1    0    0    0    0 -0.00000000000E+00 -0.00000000000E+00 -0.74505805969E-08  0.93827000000E+00  0.93827000000E+00 0.  1.
     999902    2    1    2    0    0 -0.11809915999E-01 -0.44474721215E-03  0.89123359260E-02  0.10291279175E+01  0.10290214618E+01 0.  0.
     999903    2    3    3    0    0  0.83546548092E-01 -0.45551849467E-03 -0.99351156169E-01  0.13738028551E+00  0.44971740234E-01 0.  0.
         14    1    1    2    0    0  0.11809915999E-01  0.44474721215E-03 -0.89123359260E-02  0.14802082544E-01  0.00000000000E+00 0.  1.
     999901    1    3    3    0    0 -0.95356464091E-01  0.10771282517E-04  0.10826349209E+00  0.89174763195E+00  0.88000000000E+00 0. -1.
        -11    1    4    4    0    0  0.46772146137E-01 -0.12088206844E-01 -0.81799803245E-01  0.95001196471E-01  0.51100000000E-03 0.  1.
         11    1    4    4    0    0  0.36774401955E-01  0.11632688349E-01 -0.17551352924E-01  0.42379089040E-01  0.51100000000E-03 0. -1.
</event>
<event>
 8    1  0.2183582E+004  0.1043930E+01  0.7957747E-01            NaN
         13   -1    0    0    0    0  0.00000000000E+00  0.00000000000E+00  0.74505805969E-08  0.10566000000E+00  0.10566000000E+00 0.  1.
     999900   -1    0    0    0    0 -0.00000000000E+00 -0.00000000000E+00 -0.74505805969E-08  0.93827000000E+00  0.93827000000E+00 0.  1.
     999902    2    1    2    0    0  0.57492452470E-02 -0.18739119500E-02  0.12126483002E-01  0.10303794665E+01  0.10302903611E+01 0.  0.
     999903    2    3    3    0    0 -0.16866549323E-01  0.50885433404E-01 -0.11869501964E+00  0.13885869380E+00  0.48160371034E-01 0.  0.
         14    1    1    2    0    0 -0.57492452470E-02  0.18739119500E-02 -0.12126483002E-01  0.13550533455E-01  0.00000000000E+00 0. -1.
     999901    1    3    3    0    0  0.22615794570E-01 -0.52759345354E-01  0.13082150264E+00  0.89152077275E+00  0.88000000000E+00 0. -1.
        -11    1    4    4    0    0  0.11415155444E-01  0.31288709359E-01 -0.34760266995E-01  0.48143809464E-01  0.51100000000E-03 0.  1.
         11    1    4    4    0    0 -0.28281704767E-01  0.19596724045E-01 -0.83934752641E-01  0.90714884334E-01  0.51100000000E-03 0. -1.
</event>
<event>
 8    1  0.2183582E+004  0.1043930E+01  0.7957747E-01            NaN
         13   -1    0    0    0    0  0.00000000000E+00  0.00000000000E+00  0.74505805969E-08  0.10566000000E+00  0.10566000000E+00 0. -1.
     999900   -1    0    0    0    0 -0.00000000000E+00 -0.00000000000E+00 -0.74505805969E-08  0.93827000000E+00  0.93827000000E+00 0. -1.
     999902    2    1    2    0    0  0.76040247835E-02 -0.67793074489E-02  0.11702126673E-01  0.10284148470E+01  0.10282978059E+01 0.  0.
     999903    2    3    3    0    0  0.98210184461E-01  0.56151201675E-01  0.68263141317E-01  0.13972543363E+00  0.45443839611E-01 0.  0.
         14    1    1    2    0    0 -0.76040247835E-02  0.67793074489E-02 -0.11702126673E-01  0.15515152950E-01  0.00000000000E+00 0.  1.
     999901    1    3    3    0    0 -0.90606159678E-01 -0.62930509124E-01 -0.56561014644E-01  0.88868941342E+00  0.88000000000E+00 0. -1.
        -11    1    4    4    0    0  0.15237918942E-01  0.31981922992E-01  0.21899941224E-01  0.41652204246E-01  0.51100000000E-03 0.  1.
         11    1    4    4    0    0  0.82972265519E-01  0.24169278683E-01  0.46363200093E-01  0.98073229382E-01  0.51100000000E-03 0. -1.
</event>
<event>
 8    1  0.2183582E+004  0.1043930E+01  0.7957747E-01            NaN
         13   -1    0    0    0    0  0.00000000000E+00  0.00000000000E+00  0.74505805969E-08  0.10566000000E+00  0.10566000000E+00 0. -1.
     999900   -1    0    0    0    0 -0.00000000000E+00 -0.00000000000E+00 -0.74505805969E-08  0.93827000000E+00  0.93827000000E+00 0. -1.
     999902    2    1    2    0    0 -0.36853056448E-02  0.12768893703E-01 -0.19424170406E-02  0.10304987265E+01  0.10304111928E+01 0.  0.
     999903    2    3    3    0    0 -0.11082266598E+00  0.30845843082E-01  0.69070457886E-01  0.14097749657E+00  0.43252711533E-01 0.  0.
         14    1    1    2    0    0  0.36853056448E-02 -0.12768893703E-01  0.19424170406E-02  0.13431273508E-01  0.00000000000E+00 0.  1.
     999901    1    3    3    0    0  0.10713736034E+00 -0.18076949380E-01 -0.71012874926E-01  0.88952122992E+00  0.88000000000E+00 0. -1.
        -11    1    4    4    0    0 -0.36141277901E-01 -0.16720505430E-02  0.33928579019E-02  0.36342266400E-01  0.51100000000E-03 0. -1.
         11    1    4    4    0    0 -0.74681388083E-01  0.32517893625E-01  0.65677599984E-01  0.10463523017E+00  0.51100000000E-03 0.  1.
</event>
<event>
 8    1  0.2183582E+004  0.1043930E+01  0.7957747E-01            NaN
         13   -1    0    0    0    0  0.00000000000E+00  0.00000000000E+00  0.74505805969E-08  0.10566000000E+00  0.10566000000E+00 0. -1.
     999900   -1    0    0    0    0 -0.00000000000E+00 -0.00000000000E+00 -0.74505805969E-08  0.93827000000E+00  0.93827000000E+00 0.  1.
     999902    2    1    2    0    0 -0.81254998868E-03 -0.24216367912E-02  0.10066776694E-01  0.10335442138E+01  0.10334920306E+01 0.  0.
     999903    2    3    3    0    0 -0.95497657424E-01 -0.96067255642E-01 -0.94625216107E-02  0.14331044393E+00  0.45821652576E-01 0.  0.
         14    1    1    2    0    0  0.81254998868E-03  0.24216367912E-02 -0.10066776694E-01  0.10385786212E-01  0.00000000000E+00 0.  1.
     999901    1    3    3    0    0  0.94685107435E-01  0.93645618851E-01  0.19529298304E-01  0.89023376986E+00  0.88000000000E+00 0. -1.
        -11    1    4    4    0    0 -0.73998611716E-01 -0.73574762641E-01  0.12677829362E-01  0.10511911678E+00  0.51100000000E-03 0.  1.
         11    1    4    4    0    0 -0.21499045708E-01 -0.22492493001E-01 -0.22140350972E-01  0.38191327156E-01  0.51100000000E-03 0. -1.
</event>
<event>
 8    1  0.2183582E+004  0.1043930E+01  0.7957747E-01            NaN
         13   -1    0    0    0    0  0.00000000000E+00  0.00000000000E+00  0.74505805969E-08  0.10566000000E+00  0.10566000000E+00 0. -1.
     999900   -1    0    0    0    0 -0.00000000000E+00 -0.00000000000E+00 -0.74505805969E-08  0.93827000000E+00  0.93827000000E+00 0.  1.
     999902    2    1    2    0    0  0.10917456908E-01  0.78590708918E-02  0.61525753621E-02  0.10291377708E+01  0.10290314579E+01 0.  0.
     999903    2    3    3    0    0  0.76048193927E-01 -0.10263506425E+00 -0.31281429036E-01  0.13905222915E+00  0.45163153283E-01 0.  0.
         14    1    1    2    0    0 -0.10917456908E-01 -0.78590708918E-02 -0.61525753621E-02  0.14792229183E-01  0.00000000000E+00 0.  1.
     999901    1    3    3    0    0 -0.65130737019E-01  0.11049413514E+00  0.37434004398E-01  0.89008554167E+00  0.88000000000E+00 0. -1.
        -11    1    4    4    0    0  0.30252001904E-01 -0.26151094000E-01  0.93678607353E-02  0.41074094906E-01  0.51100000000E-03 0. -1.
         11    1    4    4    0    0  0.45796192023E-01 -0.76483970252E-01 -0.40649289771E-01  0.97978134240E-01  0.51100000000E-03 0.  1.
</event>
<event>
 8    1  0.2183582E+004  0.1043930E+01  0.7957747E-01            NaN
         13   -1    0    0    0    0  0.00000000000E+00  0.00000000000E+00  0.74505805969E-08  0.10566000000E+00  0.10566000000E+00 0. -1.
     999900   -1    0    0    0    0 -0.00000000000E+00 -0.00000000000E+00 -0.74505805969E-08  0.93827000000E+00  0.93827000000E+00 0.  1.
     999902    2    1    2    0    0 -0.81835318549E-02 -0.11600086481E-01  0.27077118044E-02  0.10294778755E+01  0.10293764288E+01 0.  0.
     999903    2    3    3    0    0 -0.13029116128E+00  0.91532565585E-02 -0.20451303272E-01  0.14050244590E+00  0.47572183953E-01 0.  0.
         14    1    1    2    0    0  0.81835318549E-02  0.11600086481E-01 -0.27077118044E-02  0.14452124522E-01  0.00000000000E+00 0. -1.
     999901    1    3    3    0    0  0.12210762942E+00 -0.20753343039E-01  0.23159015077E-01  0.88897542958E+00  0.88000000000E+00 0. -1.
        -11    1    4    4    0    0 -0.69120352578E-01  0.16423901034E-01  0.10062867766E-01  0.71755766976E-01  0.51100000000E-03 0. -1.
         11    1    4    4    0    0 -0.61170808700E-01 -0.72706444754E-02 -0.30514171039E-01  0.68746678926E-01  0.51100000000E-03 0.  1.
</event>
<event>
 8    1  0.2183582E+004  0.1043930E+01  0.7957747E-01            NaN
         13   -1    0    0    0    0  0.00000000000E+00  0.00000000000E+00  0.74505805969E-08  0.10566000000E+00  0.10566000000E+00 0.  1.
     999900   -1    0    0    0    0 -0.00000000000E+00 -0.00000000000E+00 -0.74505805969E-08  0.93827000000E+00  0.93827000000E+00 0.  1.
     999902    2    1    2    0    0  0.49475169187E-02 -0.42598764590E-02 -0.12092790840E-01  0.10301873634E+01  0.10300956963E+01 0.  0.
     999903    2    3    3    0    0 -0.14698587437E-01 -0.72694204586E-01 -0.11350351067E+00  0.14150667788E+00  0.40504284911E-01 0.  0.
         14    1    1    2    0    0 -0.49475169187E-02  0.42598764590E-02  0.12092790840E-01  0.13742636625E-01  0.00000000000E+00 0.  1.
     999901    1    3    3    0    0  0.19646104356E-01  0.68434328127E-01  0.10141071983E+00  0.88868068550E+00  0.88000000000E+00 0. -1.
        -11    1    4    4    0    0 -0.14486445380E-01 -0.63308078883E-01 -0.64225677216E-01  0.91339852674E-01  0.51100000000E-03 0.  1.
         11    1    4    4    0    0 -0.21214205732E-03 -0.93861257027E-02 -0.49277833455E-01  0.50166825203E-01  0.51100000000E-03 0. -1.
</event>
<event>
 8    1  0.2183582E+004  0.1043930E+01  0.7957747E-01            NaN
         13   -1    0    0    0    0  0.00000000000E+00  0.00000000000E+00  0.74505805969E-08  0.10566000000E+00  0.10566000000E+00 0. -1.
     999900   -1    0    0    0    0 -0.00000000000E+00 -0.00000000000E+00 -0.74505805969E-08  0.93827000000E+00  0.93827000000E+00 0.  1.
     999902    2    1    2    0    0 -0.23782812842E-03 -0.21706147349E-02 -0.12970912783E-01  0.10307765704E+01  0.10306926436E+01 0.  0.
     999903    2    3    3    0    0 -0.12336710040E+00  0.72413836995E-02  0.48415526685E-01  0.14003659809E+00  0.44657658712E-01 0.  0.
         14    1    1    2    0    0  0.23782812842E-03  0.21706147349E-02  0.12970912783E-01  0.13153429551E-01  0.00000000000E+00 0. -1.
     999901    1    3    3    0    0  0.12312927227E+00 -0.94119984343E-02 -0.61386439467E-01  0.89073997236E+00  0.88000000000E+00 0.  1.
        -11    1    4    4    0    0 -0.54504194923E-01  0.11180117898E-01 -0.21172862442E-03  0.55641785112E-01  0.51100000000E-03 0.  1.
         11    1    4    4    0    0 -0.68862905478E-01 -0.39387341984E-02  0.48627255309E-01  0.84394812979E-01  0.51100000000E-03 0. -1.
</event>
<event>
 8    1  0.2183582E+004  0.1043930E+01  0.7957747E-01            NaN
         13   -1    0    0    0    0  0.00000000000E+00  0.00000000000E+00  0.74505805969E-08  0.10566000000E+00  0.10566000000E+00 0.  1.
     999900   -1    0    0    0    0 -0.00000000000E+00 -0.00000000000E+00 -0.74505805969E-08  0.93827000000E+00  0.93827000000E+00 0.  1.
     999902    2    1    2    0    0  0.15038493156E-02 -0.13183933959E-01  0.25577341252E-02  0.10304163150E+01  0.10303276967E+01 0.  0.
     999903    2    3    3    0    0  0.12764078929E+00 -0.39608550901E-01  0.34465013191E-02  0.14102912269E+00  0.44903526355E-01 0.  0.
         14    1    1    2    0    0 -0.15038493156E-02  0.13183933959E-01 -0.25577341252E-02  0.13513684962E-01  0.00000000000E+00 0.  1.
     999901    1    3    3    0    0 -0.12613693998E+00  0.26424616942E-01 -0.88876719388E-03  0.88938719235E+00  0.88000000000E+00 0. -1.
        -11    1    4    4    0    0  0.82552127627E-01 -0.47448159913E-01  0.20605880490E-02  0.95240163791E-01  0.51100000000E-03 0. -1.
         11    1    4    4    0    0  0.45088661667E-01  0.78396090121E-02  0.13859132701E-02  0.45788958898E-01  0.51100000000E-03 0.  1.
</event>
<event>
 8    1  0.2183582E+004  0.1043930E+01  0.7957747E-01            NaN
         13   -1    0    0    0    0  0.00000000000E+00  0.00000000000E+00  0.74505805969E-08  0.10566000000E+00  0.10566000000E+00 0.  1.
     999900   -1    0    0    0    0 -0.00000000000E+00 -0.00000000000E+00 -0.74505805969E-08  0.93827000000E+00  0.93827000000E+00 0. -1.
     999902    2    1    2    0    0 -0.53571614333E-02  0.55404962036E-02 -0.10122234139E-01  0.10312077400E+01  0.10311292582E+01 0.  0.
     999903    2    3    3    0    0 -0.53222692797E-02 -0.80357257442E-01  0.10469542527E+00  0.13960159360E+00  0.45186917244E-01 0.  0.
         14    1    1    2    0    0  0.53571614333E-02 -0.55404962036E-02  0.10122234139E-01  0.12722260050E-01  0.00000000000E+00 0.  1.
     999901    1    3    3    0    0 -0.34892153615E-04  0.85897753646E-01 -0.11481765941E+00  0.89160614635E+00  0.88000000000E+00 0. -1.
        -11    1    4    4    0    0 -0.53824076869E-02 -0.76170798104E-01  0.66753959453E-01  0.10142639213E+00  0.51100000000E-03 0.  1.
         11    1    4    4    0    0  0.60138407262E-04 -0.41864593382E-02  0.37941465813E-01  0.38175201473E-01  0.51100000000E-03 0. -1.
</event>
<event>
 8    1  0.2183582E+004  0.1043930E+01  0.7957747E-01            NaN
         13   -1    0    0    0    0  0.00000000000E+00  0.00000000000E+00  0.74505805969E-08  0.10566000000E+00  0.10566000000E+00 0. -1.
     999900   -1    0    0    0    0 -0.00000000000E+00 -0.00000000000E+00 -0.74505805969E-08  0.93827000000E+00  0.93827000000E+00 0.  1.
     999902    2    1    2    0    0 -0.19279243190E-02  0.13656933707E-01 -0.65799275687E-03  0.10301219703E+01  0.10300294229E+01 0.  0.
     999903    2    3    3    0    0  0.93229304309E-01  0.85252956053E-01 -0.44576618605E-01  0.14101582685E+00  0.44029749015E-01 0.  0.
         14    1    1    2    0    0  0.19279243190E-02 -0.13656933707E-01  0.65799275687E-03  0.13808029727E-01  0.00000000000E+00 0.  1.
     999901    1    3    3    0    0 -0.95157228628E-01 -0.71596022346E-01  0.43918625848E-01  0.88910614342E+00  0.88000000000E+00 0. -1.
        -11    1    4    4    0    0  0.65172056716E-01  0.30428424001E-01 -0.19555511458E-01  0.74538346595E-01  0.51100000000E-03 0. -1.
         11    1    4    4    0    0  0.28057247593E-01  0.54824532053E-01 -0.25021107146E-01  0.66477480256E-01  0.51100000000E-03 0.  1.
</event>
<event>
 8    1  0.2183582E+004  0.1043930E+01  0.7957747E-01            NaN
         13   -1    0    0    0    0  0.00000000000E+00  0.00000000000E+00  0.74505805969E-08  0.10566000000E+00  0.10566000000E+00 0. -1.
     999900   -1    0    0    0    0 -0.00000000000E+00 -0.00000000000E+00 -0.74505805969E-08  0.93827000000E+00  0.93827000000E+00 0.  1.
     999902    2    1    2    0    0 -0.28875352041E-02  0.73022200693E-02  0.12350161923E-01  0.10292948786E+01  0.10291908280E+01 0.  0.
     999903    2    3    3    0    0  0.71289353865E-01  0.10891750331E+00  0.24386128285E-01  0.14026577837E+00  0.46201848728E-01 0.  0.
         14    1    1    2    0    0  0.28875352041E-02 -0.73022200693E-02 -0.12350161923E-01  0.14635121353E-01  0.00000000000E+00 0.  1.
     999901    1    3    3    0    0 -0.74176889069E-01 -0.10161528324E+00 -0.12035966362E-01  0.88902910028E+00  0.88000000000E+00 0.  1.
        -11    1    4    4    0    0  0.51184451948E-01  0.37526557557E-01  0.53631346764E-02  0.63695486322E-01  0.51100000000E-03 0. -1.
         11    1    4    4    0    0  0.20104901917E-01  0.71390945755E-01  0.19022993608E-01  0.76570292044E-01  0.51100000000E-03 0.  1.
</event>
<event>
 8    1  0.2183582E+004  0.1043930E+01  0.7957747E-01            NaN
         13   -1    0    0    0    0  0.00000000000E+00  0.00000000000E+00  0.74505805969E-08  0.10566000000E+00  0.10566000000E+00 0. -1.
     999900   -1    0    0    0    0 -0.00000000000E+00 -0.00000000000E+00 -0.74505805969E-08  0.93827000000E+00  0.93827000000E+00 0.  1.
     999902    2    1    2    0    0  0.11295958517E-01 -0.45684649317E-02  0.66298015872E-02  0.10300583087E+01  0.10299649001E+01 0.  0.
     999903    2    3    3    0    0  0.12041737760E+00  0.56334197141E-01  0.17379681748E-01  0.14116451398E+00  0.44175559704E-01 0.  0.
         14    1    1    2    0    0 -0.11295958517E-01  0.45684649317E-02 -0.66298015872E-02  0.13871691308E-01  0.00000000000E+00 0.  1.
     999901    1    3    3    0    0 -0.10912141908E+00 -0.60902662073E-01 -0.10749880161E-01  0.88889379471E+00  0.88000000000E+00 0.  1.
        -11    1    4    4    0    0  0.81998279690E-01  0.16183287105E-01  0.24355236307E-02  0.83617041027E-01  0.51100000000E-03 0. -1.
         11    1    4    4    0    0  0.38419097908E-01  0.40150910036E-01  0.14944158118E-01  0.57547472956E-01  0.51100000000E-03 0.  1.
</event>
<event>
 8    1  0.2183582E+004  0.1043930E+01  0.7957747E-01            NaN
         13   -1    0    0    0    0  0.00000000000E+00  0.00000000000E+00  0.74505805969E-08  0.10566000000E+00  0.10566000000E+00 0.  1.
     999900   -1    0    0    0    0 -0.00000000000E+00 -0.00000000000E+00 -0.74505805969E-08  0.93827000000E+00  0.93827000000E+00 0. -1.
     999902    2    1    2    0    0 -0.13854038133E-01 -0.20008685856E-03 -0.34527626660E-02  0.10296507851E+01  0.10295517682E+01 0.  0.
     999903    2    3    3    0    0 -0.56259518411E-01 -0.11467099607E+00  0.44131313821E-01  0.13995080303E+00  0.36387960329E-01 0.  0.
         14    1    1    2    0    0  0.13854038133E-01  0.20008685856E-03  0.34527626660E-02  0.14279214872E-01  0.00000000000E+00 0.  1.
     999901    1    3    3    0    0  0.42405480279E-01  0.11447090921E+00 -0.47584076487E-01  0.88969998210E+00  0.88000000000E+00 0. -1.
        -11    1    4    4    0    0 -0.38404800806E-02 -0.46137921094E-01  0.19334249625E-01  0.50175007521E-01  0.51100000000E-03 0.  1.
         11    1    4    4    0    0 -0.52419038331E-01 -0.68533074977E-01  0.24797064196E-01  0.89775795508E-01  0.51100000000E-03 0. -1.
</event>
<event>
 8    1  0.2183582E+004  0.1043930E+01  0.7957747E-01            NaN
         13   -1    0    0    0    0  0.00000000000E+00  0.00000000000E+00  0.74505805969E-08  0.10566000000E+00  0.10566000000E+00 0.  1.
     999900   -1    0    0    0    0 -0.00000000000E+00 -0.00000000000E+00 -0.74505805969E-08  0.93827000000E+00  0.93827000000E+00 0. -1.
     999902    2    1    2    0    0 -0.10477519819E-01  0.10118876037E-01 -0.78342918465E-03  0.10293428880E+01  0.10292395238E+01 0.  0.
     999903    2    3    3    0    0 -0.45137891268E-01 -0.34301192395E-01 -0.11910295394E+00  0.13963844624E+00  0.45819002640E-01 0.  0.
         14    1    1    2    0    0  0.10477519819E-01 -0.10118876037E-01  0.78342918465E-03  0.14587111952E-01  0.00000000000E+00 0. -1.
     999901    1    3    3    0    0  0.34660371448E-01  0.44420068432E-01  0.11831952476E+00  0.88970444181E+00  0.88000000000E+00 0.  1.
        -11    1    4    4    0    0 -0.17010603656E-02  0.97287220818E-02 -0.91012043878E-02  0.13440040254E-01  0.51100000000E-03 0.  1.
         11    1    4    4    0    0 -0.43436830902E-01 -0.44029914477E-01 -0.11000174956E+00  0.12619840599E+00  0.51100000000E-03 0. -1.
</event>
<event>
 8    1  0.2183582E+004  0.1043930E+01  0.7957747E-01            NaN
         13   -1    0    0    0    0  0.00000000000E+00  0.00000000000E+00  0.74505805969E-08  0.10566000000E+00  0.10566000000E+00 0.  1.
     999900   -1    0    0    0    0 -0.00000000000E+00 -0.00000000000E+00 -0.74505805969E-08  0.93827000000E+00  0.93827000000E+00 0. -1.
     999902    2    1    2    0    0  0.73842584006E-02  0.11253057342E-01  0.19248236932E-03  0.10304691077E+01  0.10303811850E+01 0.  0.
     999903    2    3    3    0    0 -0.23108799682E-01  0.11742012825E+00  0.61117183812E-01  0.14147355498E+00  0.44248767885E-01 0.  0.
         14    1    1    2    0    0 -0.73842584006E-02 -0.11253057342E-01 -0.19248236932E-03  0.13460892286E-01  0.00000000000E+00 0. -1.
     999901    1    3    3    0    0  0.30493058083E-01 -0.10616707091E+00 -0.60924701442E-01  0.88899555274E+00  0.88000000000E+00 0.  1.
        -11    1    4    4    0    0 -0.31692604423E-01  0.75921391239E-01  0.25556186065E-01  0.86150209460E-01  0.51100000000E-03 0. -1.
         11    1    4    4    0    0  0.85838047412E-02  0.41498737014E-01  0.35560997746E-01  0.55323345518E-01  0.51100000000E-03 0.  1.
</event>
<event>
 8    1  0.2183582E+004  0.1043930E+01  0.7957747E-01            NaN
         13   -1    0    0    0    0  0.00000000000E+00  0.00000000000E+00  0.74505805969E-08  0.10566000000E+00  0.10566000000E+00 0. -1.
     999900   -1    0    0    0    0 -0.00000000000E+00 -0.00000000000E+00 -0.74505805969E-08  0.93827000000E+00  0.93827000000E+00 0.  1.
     999902    2    1    2    0    0 -0.17941660065E-01  0.10404058302E-01  0.75920804107E-02  0.10218440932E+01  0.10216053854E+01 0.  0.
     999903    2    3    3    0    0 -0.71725319507E-01  0.42291792205E-01  0.97597401196E-01  0.13504622029E+00  0.42179518109E-01 0.  0.
         14    1    1    2    0    0  0.17941660065E-01 -0.10404058302E-01 -0.75920804107E-02  0.22085906819E-01  0.00000000000E+00 0.  1.
     999901    1    3    3    0    0  0.53783659442E-01 -0.31887733902E-01 -0.90005320786E-01  0.88679787289E+00  0.88000000000E+00 0.  1.
        -11    1    4    4    0    0 -0.27199596639E-01  0.26807152376E-01  0.71748311222E-01  0.81280518945E-01  0.51100000000E-03 0.  1.
         11    1    4    4    0    0 -0.44525722868E-01  0.15484639829E-01  0.25849089975E-01  0.53765701344E-01  0.51100000000E-03 0. -1.
</event>
<event>
 8    1  0.2183582E+004  0.1043930E+01  0.7957747E-01            NaN
         13   -1    0    0    0    0  0.00000000000E+00  0.00000000000E+00  0.74505805969E-08  0.10566000000E+00  0.10566000000E+00 0. -1.
     999900   -1    0    0    0    0 -0.00000000000E+00 -0.00000000000E+00 -0.74505805969E-08  0.93827000000E+00  0.93827000000E+00 0. -1.
     999902    2    1    2    0    0 -0.46121568436E-02 -0.11734869938E-01 -0.68816661335E-02  0.10295655824E+01  0.10294653719E+01 0.  0.
     999903    2    3    3    0    0  0.59909249535E-01  0.68588303797E-02  0.11737252492E+00  0.13830364475E+00  0.41417711314E-01 0.  0.
         14    1    1    2    0    0  0.46121568436E-02  0.11734869938E-01  0.68816661335E-02  0.14364417565E-01  0.00000000000E+00 0. -1.
     999901    1    3    3    0    0 -0.64521406378E-01 -0.18593700318E-01 -0.12425419105E+00  0.89126193769E+00  0.88000000000E+00 0. -1.
        -11    1    4    4    0    0  0.45222086771E-01 -0.47892112411E-02  0.46699065687E-01  0.65184641852E-01  0.51100000000E-03 0.  1.
         11    1    4    4    0    0  0.14687162763E-01  0.11648041621E-01  0.70673459234E-01  0.73119002897E-01  0.51100000000E-03 0. -1.
</event>
<event>
 8    1  0.2183582E+004  0.1043930E+01  0.7957747E-01            NaN
         13   -1    0    0    0    0  0.00000000000E+00  0.00000000000E+00  0.74505805969E-08  0.10566000000E+00  0.10566000000E+00 0.  1.
     999900   -1    0    0    0    0 -0.00000000000E+00 -0.00000000000E+00 -0.74505805969E-08  0.93827000000E+00  0.93827000000E+00 0. -1.
     999902    2    1    2    0    0  0.85870760054E-02  0.58716005383E-02 -0.79222471672E-02  0.10308542374E+01  0.10307713050E+01 0.  0.
     999903    2    3    3    0    0  0.14736902838E-02  0.93271409941E-01  0.94954225655E-01  0.14053244412E+00  0.45070336202E-01 0.  0.
         14    1    1    2    0    0 -0.85870760054E-02 -0.58716005383E-02  0.79222471672E-02  0.13075762593E-01  0.00000000000E+00 0.  1.
     999901    1    3    3    0    0  0.71133857216E-02 -0.87399809403E-01 -0.10287647282E+00  0.89032179329E+00  0.88000000000E+00 0.  1.
        -11    1    4    4    0    0 -0.69855154498E-03  0.69942843074E-01  0.93879048113E-01  0.11707273836E+00  0.51100000000E-03 0. -1.
         11    1    4    4    0    0  0.21722418287E-02  0.23328566867E-01  0.10751775421E-02  0.23459705761E-01  0.51100000000E-03 0.  1.
</event>
<event>
 8    1  0.2183582E+004  0.1043930E+01  0.7957747E-01            NaN
         13   -1    0    0    0    0  0.00000000000E+00  0.00000000000E+00  0.74505805969E-08  0.10566000000E+00  0.10566000000E+00 0. -1.
     999900   -1    0    0    0    0 -0.00000000000E+00 -0.00000000000E+00 -0.74505805969E-08  0.93827000000E+00  0.93827000000E+00 0.  1.
     999902    2    1    2    0    0 -0.77695403045E-02 -0.22024875773E-02  0.12511662899E-01  0.10290384448E+01  0.10289306888E+01 0.  0.
     999903    2    3    3    0    0 -0.91579114191E-03  0.74139463567E-01  0.11082168237E+00  0.14025279723E+00  0.43496012651E-01 0.  0.
         14    1    1    2    0    0  0.77695403045E-02  0.22024875773E-02 -0.12511662899E-01  0.14891555210E-01  0.00000000000E+00 0.  1.
     999901    1    3    3    0    0 -0.68537491626E-02 -0.76341951144E-01 -0.98310019468E-01  0.88878564756E+00  0.88000000000E+00 0. -1.
        -11    1    4    4    0    0 -0.19149969812E-01  0.51247230974E-01  0.85724829263E-01  0.10169566116E+00  0.51100000000E-03 0.  1.
         11    1    4    4    0    0  0.18234178670E-01  0.22892232593E-01  0.25096853104E-01  0.38557136066E-01  0.51100000000E-03 0. -1.
</event>
<event>
 7    1  0.2183582E+004  0.1043930E+01  0.7957747E-01            NaN
         13   -1    0    0    0    0  0.00000000000E+00  0.00000000000E+00  0.74505805969E-08  0.10566000000E+00  0.10566000000E+00 0. -1.
     999900   -1    0    0    0    0 -0.00000000000E+00 -0.00000000000E+00 -0.74505805969E-08  0.93827000000E+00  0.93827000000E+00 0.  1.
     999903    2    1    2    0    0  0.78475016728E-01 -0.23509016350E-01 -0.29306395286E-01  0.97988322539E-01  0.45075985281E-01 0.  0.
         14    1    1    2    0    0  0.19550253537E-01  0.52245367497E-01  0.22104742101E-01  0.60003420416E-01  0.00000000000E+00 0. -1.
     999901    1    1    2    0    0 -0.98025270266E-01 -0.28736351146E-01  0.72016531848E-02  0.88593825705E+00  0.88000000000E+00 0. -1.
        -11    1    3    3    0    0  0.35081075007E-01 -0.28701102317E-01 -0.29857154111E-01  0.54278410722E-01  0.51100000000E-03 0. -1.
         11    1    3    3    0    0  0.43393941721E-01  0.51920859670E-02  0.55075882508E-03  0.43709911817E-01  0.51100000000E-03 0.  1.
</event>
<event>
 8    1  0.2183582E+004  0.1043930E+01  0.7957747E-01            NaN
         13   -1    0    0    0    0  0.00000000000E+00  0.00000000000E+00  0.74505805969E-08  0.10566000000E+00  0.10566000000E+00 0. -1.
     999900   -1    0    0    0    0 -0.00000000000E+00 -0.00000000000E+00 -0.74505805969E-08  0.93827000000E+00  0.93827000000E+00 0. -1.
     999902    2    1    2    0    0 -0.63005700871E-02 -0.45244568371E-02 -0.47265403724E-02  0.10348466043E+01  0.10348067387E+01 0.  0.
     999903    2    3    3    0    0 -0.69839261040E-01 -0.51799317234E-01 -0.10687650628E+00  0.14540481691E+00  0.46468070063E-01 0.  0.
         14    1    1    2    0    0  0.63005700871E-02  0.45244568371E-02  0.47265403724E-02  0.90833956748E-02  0.00000000000E+00 0. -1.
     999901    1    3    3    0    0  0.63538690952E-01  0.47274860397E-01  0.10214996591E+00  0.88944178742E+00  0.88000000000E+00 0. -1.
        -11    1    4    4    0    0 -0.35959429022E-01 -0.23241892052E-01 -0.18710302883E-01  0.46729034194E-01  0.51100000000E-03 0.  1.
         11    1    4    4    0    0 -0.33879832018E-01 -0.28557425182E-01 -0.88166203400E-01  0.98675782711E-01  0.51100000000E-03 0. -1.
</event>
<event>
 8    1  0.2183582E+004  0.1043930E+01  0.7957747E-01            NaN
         13   -1    0    0    0    0  0.00000000000E+00  0.00000000000E+00  0.74505805969E-08  0.10566000000E+00  0.10566000000E+00 0.  1.
     999900   -1    0    0    0    0 -0.00000000000E+00 -0.00000000000E+00 -0.74505805969E-08  0.93827000000E+00  0.93827000000E+00 0. -1.
     999902    2    1    2    0    0  0.11978614483E-02  0.13719745776E-01 -0.69549494794E-03  0.10301405109E+01  0.10300482135E+01 0.  0.
     999903    2    3    3    0    0 -0.11001353652E+00 -0.20639559233E-01  0.70306910816E-01  0.13964071950E+00  0.45027760430E-01 0.  0.
         14    1    1    2    0    0 -0.11978614483E-02 -0.13719745776E-01  0.69549494794E-03  0.13789489092E-01  0.00000000000E+00 0. -1.
     999901    1    3    3    0    0  0.11121139797E+00  0.34359305008E-01 -0.71002405764E-01  0.89049979141E+00  0.88000000000E+00 0. -1.
        -11    1    4    4    0    0 -0.76417924765E-01  0.84169570409E-03  0.27718436570E-01  0.81295636562E-01  0.51100000000E-03 0. -1.
         11    1    4    4    0    0 -0.33595611758E-01 -0.21481254937E-01  0.42588474247E-01  0.58345082935E-01  0.51100000000E-03 0.  1.
</event>
<event>
 8    1  0.2183582E+004  0.1043930E+01  0.7957747E-01            NaN
         13   -1    0    0    0    0  0.00000000000E+00  0.00000000000E+00  0.74505805969E-08  0.10566000000E+00  0.10566000000E+00 0. -1.
     999900   -1    0    0    0    0 -0.00000000000E+00 -0.00000000000E+00 -0.74505805969E-08  0.93827000000E+00  0.93827000000E+00 0. -1.
     999902    2    1    2    0    0 -0.11650910054E-01 -0.59267952899E-02 -0.25843937468E-02  0.10306052224E+01  0.10305190802E+01 0.  0.
     999903    2    3    3    0    0 -0.59219672977E-01  0.76069525897E-01  0.91784215606E-01  0.14049757815E+00  0.44963149285E-01 0.  0.
         14    1    1    2    0    0  0.11650910054E-01  0.59267952899E-02  0.25843937468E-02  0.13324777616E-01  0.00000000000E+00 0. -1.
     999901    1    3    3    0    0  0.47568762923E-01 -0.81996321186E-01 -0.94368609353E-01  0.89010764423E+00  0.88000000000E+00 0. -1.
        -11    1    4    4    0    0 -0.40478854756E-01  0.60673386165E-01  0.39705353141E-01  0.83045611925E-01  0.51100000000E-03 0.  1.
         11    1    4    4    0    0 -0.18740818221E-01  0.15396139732E-01  0.52078862466E-01  0.57451966223E-01  0.51100000000E-03 0. -1.
</event>
<event>
 8    1  0.2183582E+004  0.1043930E+01  0.7957747E-01            NaN
         13   -1    0    0    0    0  0.00000000000E+00  0.00000000000E+00  0.74505805969E-08  0.10566000000E+00  0.10566000000E+00 0.  1.
     999900   -1    0    0    0    0 -0.00000000000E+00 -0.00000000000E+00 -0.74505805969E-08  0.93827000000E+00  0.93827000000E+00 0.  1.
     999902    2    1    2    0    0  0.98500663707E-02 -0.21201025272E-02 -0.10250712776E-01  0.10295565608E+01  0.10294562235E+01 0.  0.
     999903    2    3    3    0    0  0.11557802243E+00  0.57102367500E-01 -0.35831474727E-01  0.14088334918E+00  0.44105145426E-01 0.  0.
         14    1    1    2    0    0 -0.98500663707E-02  0.21201025272E-02  0.10250712776E-01  0.14373439208E-01  0.00000000000E+00 0.  1.
     999901    1    3    3    0    0 -0.10572795606E+00 -0.59222470027E-01  0.25580761951E-01  0.88867321161E+00  0.88000000000E+00 0. -1.
        -11    1    4    4    0    0  0.23128063648E-01 -0.51090674545E-02  0.43887271269E-03  0.23695223751E-01  0.51100000000E-03 0.  1.
         11    1    4    4    0    0  0.92449958783E-01  0.62211434955E-01 -0.36270347440E-01  0.11718812543E+00  0.51100000000E-03 0. -1.
</event>
<event>
 8    1  0.2183582E+004  0.1043930E+01  0.7957747E-01            NaN
         13   -1    0    0    0    0  0.00000000000E+00  0.00000000000E+00  0.74505805969E-08  0.10566000000E+00  0.10566000000E+00 0. -1.
     999900   -1    0    0    0    0 -0.00000000000E+00 -0.00000000000E+00 -0.74505805969E-08  0.93827000000E+00  0.93827000000E+00 0. -1.
     999902    2    1    2    0    0  0.74729615582E-02 -0.15387055266E-01  0.11150217498E-01  0.10235110388E+01  0.10233073403E+01 0.  0.
     999903    2    3    3    0    0 -0.65271100277E-01  0.10495504334E+00  0.12430692957E-01  0.13234575741E+00  0.45661797184E-01 0.  0.
         14    1    1    2    0    0 -0.74729615582E-02  0.15387055266E-01 -0.11150217498E-01  0.20418961150E-01  0.00000000000E+00 0.  1.
     999901    1    3    3    0    0  0.72744061835E-01 -0.12034209861E+00 -0.12804754588E-02  0.89116528144E+00  0.88000000000E+00 0.  1.
        -11    1    4    4    0    0 -0.51848538518E-01  0.54082832201E-01 -0.91429272463E-02  0.75478989958E-01  0.51100000000E-03 0. -1.
         11    1    4    4    0    0 -0.13422561759E-01  0.50872211142E-01  0.21573620203E-01  0.56866767450E-01  0.51100000000E-03 0.  1.
</event>
<event>
 8    1  0.2183582E+004  0.1043930E+01  0.7957747E-01            NaN
         13   -1    0    0    0    0  0.00000000000E+00  0.00000000000E+00  0.74505805969E-08  0.10566000000E+00  0.10566000000E+00 0.  1.
     999900   -1    0    0    0    0 -0.00000000000E+00 -0.00000000000E+00 -0.74505805969E-08  0.93827000000E+00  0.93827000000E+00 0.  1.
     999902    2    1    2    0    0 -0.16816205222E-02 -0.18763744644E-02  0.13377151260E-01  0.10303176231E+01  0.10302276970E+01 0.  0.
     999903    2    3    3    0    0  0.45306468837E-01  0.12309433379E+00  0.20421398943E-01  0.14021921288E+00  0.45160856903E-01 0.  0.
         14    1    1    2    0    0  0.16816205222E-02  0.18763744644E-02 -0.13377151260E-01  0.13612376888E-01  0.00000000000E+00 0. -1.
     999901    1    3    3    0    0 -0.46988089360E-01 -0.12497070826E+00 -0.70442476834E-02  0.89009841023E+00  0.88000000000E+00 0. -1.
        -11    1    4    4    0    0 -0.74253188494E-03  0.51095964311E-01  0.19643126761E-01  0.54749086498E-01  0.51100000000E-03 0. -1.
         11    1    4    4    0    0  0.46049000722E-01  0.71998369484E-01  0.77827218258E-03  0.85470126386E-01  0.51100000000E-03 0.  1.
</event>
<event>
 7    1  0.2228919E+004  0.1043930E+01  0.7957747E-01            NaN
         13   -1    0    0    0    0  0.00000000000E+00  0.00000000000E+00  0.74505805969E-08  0.10566000000E+00  0.10566000000E+00 0. -1.
     999900   -1    0    0    0    0 -0.00000000000E+00 -0.00000000000E+00 -0.74505805969E-08  0.93827000000E+00  0.93827000000E+00 0. -1.
     999903    2    1    2    0    0  0.47086907785E-01  0.87456898167E-01  0.44749553146E-01  0.11796600847E+00  0.45250090890E-01 0.  0.
         14    1    1    2    0    0 -0.20605579638E-01 -0.26436934834E-01  0.23319066689E-01  0.40832343881E-01  0.00000000000E+00 0. -1.
     999901    1    1    2    0    0 -0.26481328147E-01 -0.61019963333E-01 -0.68068619834E-01  0.88513164765E+00  0.88000000000E+00 0. -1.
        -11    1    3    3    0    0  0.29074512781E-01  0.83285034858E-01  0.26811454491E-01  0.92199997493E-01  0.51100000000E-03 0. -1.
         11    1    3    3    0    0  0.18012395003E-01  0.41718633085E-02  0.17938098655E-01  0.25766010975E-01  0.51100000000E-03 0.  1.
</event>
<event>
 8    1  0.2183582E+004  0.1043930E+01  0.7957747E-01            NaN
         13   -1    0    0    0    0  0.00000000000E+00  0.00000000000E+00  0.74505805969E-08  0.10566000000E+00  0.10566000000E+00 0.  1.
     999900   -1    0    0    0    0 -0.00000000000E+00 -0.00000000000E+00 -0.74505805969E-08  0.93827000000E+00  0.93827000000E+00 0. -1.
     999902    2    1    2    0    0 -0.60811973373E-02  0.95332969397E-03  0.12796321979E-01  0.10297301530E+01  0.10296322413E+01 0.  0.
     999903    2    3    3    0    0  0.16228141758E-01 -0.11524387297E+00 -0.60783962906E-01  0.13876800182E+00  0.44915090343E-01 0.  0.
         14    1    1    2    0    0  0.60811973373E-02 -0.95332969397E-03 -0.12796321979E-01  0.14199846997E-01  0.00000000000E+00 0. -1.
     999901    1    3    3    0    0 -0.22309339095E-01  0.11619720266E+00  0.73580284885E-01  0.89096215118E+00  0.88000000000E+00 0. -1.
        -11    1    4    4    0    0  0.75167655641E-02 -0.62275349374E-01 -0.75777103810E-02  0.63185470797E-01  0.51100000000E-03 0.  1.
         11    1    4    4    0    0  0.87113761936E-02 -0.52968523595E-01 -0.53206252525E-01  0.75582531023E-01  0.51100000000E-03 0. -1.
</event>
<event>
 7    1  0.2314025E+004  0.1043930E+01  0.7957747E-01            NaN
         13   -1    0    0    0    0  0.00000000000E+00  0.00000000000E+00  0.74505805969E-08  0.10566000000E+00  0.10566000000E+00 0.  1.
     999900   -1    0    0    0    0 -0.00000000000E+00 -0.00000000000E+00 -0.74505805969E-08  0.93827000000E+00  0.93827000000E+00 0.  1.
     999903    2    1    2    0    0 -0.67679136956E-01 -0.70884152339E-01  0.46674637987E-01  0.11983025597E+00  0.50751746593E-01 0.  0.
         14    1    1    2    0    0 -0.11761238147E-01  0.20162020448E-01 -0.31157064845E-01  0.38930662479E-01  0.00000000000E+00 0. -1.
     999901    1    1    2    0    0  0.79440375103E-01  0.50722131891E-01 -0.15517573142E-01  0.88516908155E+00  0.88000000000E+00 0. -1.
        -11    1    3    3    0    0 -0.45646482793E-01 -0.21845175034E-01  0.42177759210E-01  0.65878961412E-01  0.51100000000E-03 0.  1.
         11    1    3    3    0    0 -0.22032654163E-01 -0.49038977306E-01  0.44968787768E-02  0.53951294557E-01  0.51100000000E-03 0. -1.
</event>
<event>
 8    1  0.2183582E+004  0.1043930E+01  0.7957747E-01            NaN
         13   -1    0    0    0    0  0.00000000000E+00  0.00000000000E+00  0.74505805969E-08  0.10566000000E+00  0.10566000000E+00 0. -1.
     999900   -1    0    0    0    0 -0.00000000000E+00 -0.00000000000E+00 -0.74505805969E-08  0.93827000000E+00  0.93827000000E+00 0. -1.
     999902    2    1    2    0    0  0.13103160447E-01  0.53149837094E-02  0.13212409943E-02  0.10297283260E+01  0.10296303890E+01 0.  0.
     999903    2    3    3    0    0 -0.30986085222E-01 -0.10650376970E+00 -0.70049129820E-01  0.13869464260E+00  0.45012585550E-01 0.  0.
         14    1    1    2    0    0 -0.13103160447E-01 -0.53149837094E-02 -0.13212409943E-02  0.14201673961E-01  0.00000000000E+00 0. -1.
     999901    1    3    3    0    0  0.44089245669E-01  0.11181875341E+00  0.71370370814E-01  0.89103368344E+00  0.88000000000E+00 0.  1.
        -11    1    4    4    0    0 -0.15157678932E-01 -0.90050270073E-01 -0.71250716572E-01  0.11582630143E+00  0.51100000000E-03 0. -1.
         11    1    4    4    0    0 -0.15828406290E-01 -0.16453499631E-01  0.12015867525E-02  0.22868341162E-01  0.51100000000E-03 0.  1.
</event>
<event>
 8    1  0.2183582E+004  0.1043930E+01  0.7957747E-01            NaN
         13   -1    0    0    0    0  0.00000000000E+00  0.00000000000E+00  0.74505805969E-08  0.10566000000E+00  0.10566000000E+00 0. -1.
     999900   -1    0    0    0    0 -0.00000000000E+00 -0.00000000000E+00 -0.74505805969E-08  0.93827000000E+00  0.93827000000E+00 0. -1.
     999902    2    1    2    0    0  0.97053534945E-02 -0.84213046719E-02 -0.86317831991E-02  0.10284503379E+01  0.10283338356E+01 0.  0.
     999903    2    3    3    0    0  0.81091893330E-01  0.73481745748E-01  0.69554584123E-01  0.13832829242E+00  0.48181056337E-01 0.  0.
         14    1    1    2    0    0 -0.97053534945E-02  0.84213046719E-02  0.86317831991E-02  0.15479662142E-01  0.00000000000E+00 0. -1.
     999901    1    3    3    0    0 -0.71386539835E-01 -0.81903050420E-01 -0.78186367322E-01  0.89012204544E+00  0.88000000000E+00 0. -1.
        -11    1    4    4    0    0  0.24641017641E-01  0.38288029359E-01  0.52806418360E-01  0.69727554694E-01  0.51100000000E-03 0. -1.
         11    1    4    4    0    0  0.56450875689E-01  0.35193716388E-01  0.16748165762E-01  0.68600737727E-01  0.51100000000E-03 0.  1.
</event>
<event>
 8    1  0.2183582E+004  0.1043930E+01  0.7957747E-01            NaN
         13   -1    0    0    0    0  0.00000000000E+00  0.00000000000E+00  0.74505805969E-08  0.10566000000E+00  0.10566000000E+00 0. -1.
     999900   -1    0    0    0    0 -0.00000000000E+00 -0.00000000000E+00 -0.74505805969E-08  0.93827000000E+00  0.93827000000E+00 0.  1.
     999902    2    1    2    0    0  0.15279071220E-02 -0.58925799643E-02 -0.12465122184E-01  0.10300578599E+01  0.10299644453E+01 0.  0.
     999903    2    3    3    0    0 -0.36375525414E-01  0.12396018963E+00 -0.29041697997E-01  0.13956743616E+00  0.44117361111E-01 0.  0.
         14    1    1    2    0    0 -0.15279071220E-02  0.58925799643E-02  0.12465122184E-01  0.13872140061E-01  0.00000000000E+00 0. -1.
     999901    1    3    3    0    0  0.37903432536E-01 -0.12985276960E+00  0.16576575812E-01  0.89049042378E+00  0.88000000000E+00 0.  1.
        -11    1    4    4    0    0 -0.14764752276E-01  0.57838442580E-01 -0.35909359823E-01  0.69663667673E-01  0.51100000000E-03 0.  1.
         11    1    4    4    0    0 -0.21610773138E-01  0.66121747054E-01  0.68676618258E-02  0.69903768490E-01  0.51100000000E-03 0. -1.
</event>
<event>
 8    1  0.2183582E+004  0.1043930E+01  0.7957747E-01            NaN
         13   -1    0    0    0    0  0.00000000000E+00  0.00000000000E+00  0.74505805969E-08  0.10566000000E+00  0.10566000000E+00 0. -1.
     999900   -1    0    0    0    0 -0.00000000000E+00 -0.00000000000E+00 -0.74505805969E-08  0.93827000000E+00  0.93827000000E+00 0.  1.
     999902    2    1    2    0    0 -0.10770279169E-01  0.46826267919E-02 -0.83875339680E-02  0.10294982076E+01  0.10293970481E+01 0.  0.
     999903    2    3    3    0    0  0.11587485617E+00 -0.59806117273E-01 -0.10109896282E-01  0.13809439617E+00  0.44318148595E-01 0.  0.
         14    1    1    2    0    0  0.10770279169E-01 -0.46826267919E-02  0.83875339680E-02  0.14431792443E-01  0.00000000000E+00 0. -1.
     999901    1    3    3    0    0 -0.12664513534E+00  0.64488744065E-01  0.17223623145E-02  0.89140381138E+00  0.88000000000E+00 0. -1.
        -11    1    4    4    0    0  0.85175930056E-01 -0.37211890734E-01 -0.26417135216E-01  0.96632241136E-01  0.51100000000E-03 0. -1.
         11    1    4    4    0    0  0.30698926118E-01 -0.22594226539E-01  0.16307238933E-01  0.41462155038E-01  0.51100000000E-03 0.  1.
</event>
<event>
 8    1  0.2183582E+004  0.1043930E+01  0.7957747E-01            NaN
         13   -1    0    0    0    0  0.00000000000E+00  0.00000000000E+00  0.74505805969E-08  0.10566000000E+00  0.10566000000E+00 0.  1.
     999900   -1    0    0    0    0 -0.00000000000E+00 -0.00000000000E+00 -0.74505805969E-08  0.93827000000E+00  0.93827000000E+00 0. -1.
     999902    2    1    2    0    0  0.18305118074E-03  0.69473780121E-02  0.13305556907E-01  0.10289187571E+01  0.10288092492E+01 0.  0.
     999903    2    3    3    0    0 -0.28254853580E-01 -0.67088570277E-01  0.11074743540E+00  0.13999527571E+00  0.45105096835E-01 0.  0.
         14    1    1    2    0    0 -0.18305118074E-03 -0.69473780121E-02 -0.13305556907E-01  0.15011242906E-01  0.00000000000E+00 0. -1.
     999901    1    3    3    0    0  0.28437904761E-01  0.74035948290E-01 -0.97441878497E-01  0.88892348138E+00  0.88000000000E+00 0. -1.
        -11    1    4    4    0    0  0.18254216978E-02 -0.28866790263E-02  0.38905639490E-01  0.39058609619E-01  0.51100000000E-03 0. -1.
         11    1    4    4    0    0 -0.30080275278E-01 -0.64201891251E-01  0.71841795914E-01  0.10093666609E+00  0.51100000000E-03 0.  1.
</event>
<event>
 8    1  0.2183582E+004  0.1043930E+01  0.7957747E-01            NaN
         13   -1    0    0    0    0  0.00000000000E+00  0.00000000000E+00  0.74505805969E-08  0.10566000000E+00  0.10566000000E+00 0. -1.
     999900   -1    0    0    0    0 -0.00000000000E+00 -0.00000000000E+00 -0.74505805969E-08  0.93827000000E+00  0.93827000000E+00 0. -1.
     999902    2    1    2    0    0 -0.10068400285E-02 -0.73906043195E-02  0.11382544445E-01  0.10303212867E+01  0.10302314093E+01 0.  0.
     999903    2    3    3    0    0  0.30612639715E-01  0.57614246510E-01  0.11679299489E+00  0.14108746753E+00  0.44816679109E-01 0.  0.
         14    1    1    2    0    0  0.10068400285E-02  0.73906043195E-02 -0.11382544445E-01  0.13608713279E-01  0.00000000000E+00 0.  1.
     999901    1    3    3    0    0 -0.31619479744E-01 -0.65004850829E-01 -0.10541045045E+00  0.88923381919E+00  0.88000000000E+00 0. -1.
        -11    1    4    4    0    0 -0.75089297010E-02  0.32124828315E-01  0.54959428840E-01  0.64102952810E-01  0.51100000000E-03 0. -1.
         11    1    4    4    0    0  0.38121569416E-01  0.25489418195E-01  0.61833566054E-01  0.76984514719E-01  0.51100000000E-03 0.  1.
</event>
<event>
 8    1  0.2183582E+004  0.1043930E+01  0.7957747E-01            NaN
         13   -1    0    0    0    0  0.00000000000E+00  0.00000000000E+00  0.74505805969E-08  0.10566000000E+00  0.10566000000E+00 0.  1.
     999900   -1    0    0    0    0 -0.00000000000E+00 -0.00000000000E+00 -0.74505805969E-08  0.93827000000E+00  0.93827000000E+00 0.  1.
     999902    2    1    2    0    0 -0.15733360416E-01 -0.41215014859E-02  0.91513294692E-03  0.10276400377E+01  0.10275109168E+01 0.  0.
     999903    2    3    3    0    0 -0.69787520970E-01 -0.91360289792E-01 -0.64150697734E-01  0.13928986978E+00  0.45490165646E-01 0.  0.
         14    1    1    2    0    0  0.15733360416E-01  0.41215014859E-02 -0.91513294692E-03  0.16289962332E-01  0.00000000000E+00 0. -1.
     999901    1    3    3    0    0  0.54054160555E-01  0.87238788306E-01  0.65065830681E-01  0.88835016788E+00  0.88000000000E+00 0.  1.
        -11    1    4    4    0    0 -0.78928166512E-02 -0.41265320360E-01 -0.10611107389E-01  0.43335665913E-01  0.51100000000E-03 0.  1.
         11    1    4    4    0    0 -0.61894704319E-01 -0.50094969432E-01 -0.53539590345E-01  0.95954203870E-01  0.51100000000E-03 0. -1.
</event>
<event>
 8    1  0.2183582E+004  0.1043930E+01  0.7957747E-01            NaN
         13   -1    0    0    0    0  0.00000000000E+00  0.00000000000E+00  0.74505805969E-08  0.10566000000E+00  0.10566000000E+00 0.  1.
     999900   -1    0    0    0    0 -0.00000000000E+00 -0.00000000000E+00 -0.74505805969E-08  0.93827000000E+00  0.93827000000E+00 0. -1.
     999902    2    1    2    0    0  0.36821864505E-03 -0.18708839119E-03 -0.17729559583E-01  0.10261956303E+01  0.10260423791E+01 0.  0.
     999903    2    3    3    0    0  0.12050743305E+00  0.12374358269E-01  0.42299856210E-01  0.13591772335E+00  0.44823916841E-01 0.  0.
         14    1    1    2    0    0 -0.36821864505E-03  0.18708839119E-03  0.17729559583E-01  0.17734369739E-01  0.00000000000E+00 0.  1.
     999901    1    3    3    0    0 -0.12013921441E+00 -0.12561446660E-01 -0.60029415793E-01  0.89027790691E+00  0.88000000000E+00 0. -1.
        -11    1    4    4    0    0  0.12831330929E-01 -0.12281358475E-01  0.39795974859E-03  0.17773415889E-01  0.51100000000E-03 0. -1.
         11    1    4    4    0    0  0.10767610212E+00  0.24655716744E-01  0.41901896462E-01  0.11814430746E+00  0.51100000000E-03 0.  1.
</event>
<event>
 8    1  0.2183582E+004  0.1043930E+01  0.7957747E-01            NaN
         13   -1    0    0    0    0  0.00000000000E+00  0.00000000000E+00  0.74505805969E-08  0.10566000000E+00  0.10566000000E+00 0. -1.
     999900   -1    0    0    0    0 -0.00000000000E+00 -0.00000000000E+00 -0.74505805969E-08  0.93827000000E+00  0.93827000000E+00 0.  1.
     999902    2    1    2    0    0 -0.29729193224E-02 -0.13295741992E-01 -0.13267995590E-02  0.10302414865E+01  0.10301505449E+01 0.  0.
     999903    2    3    3    0    0 -0.97271158606E-01  0.16234843722E-01 -0.89112786885E-01  0.14037037619E+00  0.45138733665E-01 0.  0.
         14    1    1    2    0    0  0.29729193224E-02  0.13295741992E-01  0.13267995590E-02  0.13688513487E-01  0.00000000000E+00 0. -1.
     999901    1    3    3    0    0  0.94298239283E-01 -0.29530585714E-01  0.87785987326E-01  0.88987111033E+00  0.88000000000E+00 0. -1.
        -11    1    4    4    0    0 -0.49891835669E-01 -0.51717568821E-02 -0.67418768349E-01  0.84032694722E-01  0.51100000000E-03 0. -1.
         11    1    4    4    0    0 -0.47379322937E-01  0.21406600604E-01 -0.21694018536E-01  0.56337681463E-01  0.51100000000E-03 0.  1.
</event>
<event>
 8    1  0.2183582E+004  0.1043930E+01  0.7957747E-01            NaN
         13   -1    0    0    0    0  0.00000000000E+00  0.00000000000E+00  0.74505805969E-08  0.10566000000E+00  0.10566000000E+00 0. -1.
     999900   -1    0    0    0    0 -0.00000000000E+00 -0.00000000000E+00 -0.74505805969E-08  0.93827000000E+00  0.93827000000E+00 0. -1.
     999902    2    1    2    0    0 -0.12976475615E-01  0.32321063113E-02  0.68517750242E-02  0.10289039476E+01  0.10287942219E+01 0.  0.
     999903    2    3    3    0    0  0.63815554649E-02  0.80857332812E-01 -0.10265478292E+00  0.13851521483E+00  0.45495359795E-01 0.  0.
         14    1    1    2    0    0  0.12976475615E-01 -0.32321063113E-02 -0.68517750242E-02  0.15026052428E-01  0.00000000000E+00 0.  1.
     999901    1    3    3    0    0 -0.19358031080E-01 -0.77625226501E-01  0.10950655795E+00  0.89038873274E+00  0.88000000000E+00 0.  1.
        -11    1    4    4    0    0 -0.18184486597E-01  0.49132380289E-01 -0.65009396896E-01  0.83493407832E-01  0.51100000000E-03 0. -1.
         11    1    4    4    0    0  0.24566042062E-01  0.31724952523E-01 -0.37645386029E-01  0.55021807000E-01  0.51100000000E-03 0.  1.
</event>
<event>
 8    1  0.2183582E+004  0.1043930E+01  0.7957747E-01            NaN
         13   -1    0    0    0    0  0.00000000000E+00  0.00000000000E+00  0.74505805969E-08  0.10566000000E+00  0.10566000000E+00 0. -1.
     999900   -1    0    0    0    0 -0.00000000000E+00 -0.00000000000E+00 -0.74505805969E-08  0.93827000000E+00  0.93827000000E+00 0.  1.
     999902    2    1    2    0    0  0.32204120562E-02 -0.88728469258E-02  0.10654591545E-01  0.10296955774E+01  0.10295971850E+01 0.  0.
     999903    2    3    3    0    0 -0.39796443200E-01  0.62006101558E-02  0.12732179534E+00  0.14082612949E+00  0.44709671453E-01 0.  0.
         14    1    1    2    0    0 -0.32204120562E-02  0.88728469258E-02 -0.10654591545E-01  0.14234422622E-01  0.00000000000E+00 0.  1.
     999901    1    3    3    0    0  0.43016855256E-01 -0.15073457082E-01 -0.11666720379E+00  0.88886944789E+00  0.88000000000E+00 0.  1.
        -11    1    4    4    0    0 -0.18887915161E-01 -0.19213540747E-01  0.64540080465E-01  0.69939949918E-01  0.51100000000E-03 0. -1.
         11    1    4    4    0    0 -0.20908528039E-01  0.25414150903E-01  0.62781714875E-01  0.70886179574E-01  0.51100000000E-03 0.  1.
</event>
<event>
 8    1  0.2183582E+004  0.1043930E+01  0.7957747E-01            NaN
         13   -1    0    0    0    0  0.00000000000E+00  0.00000000000E+00  0.74505805969E-08  0.10566000000E+00  0.10566000000E+00 0.  1.
     999900   -1    0    0    0    0 -0.00000000000E+00 -0.00000000000E+00 -0.74505805969E-08  0.93827000000E+00  0.93827000000E+00 0. -1.
     999902    2    1    2    0    0  0.15045797762E-02 -0.13160734631E-01  0.65694735914E-03  0.10306672599E+01  0.10305819231E+01 0.  0.
     999903    2    3    3    0    0  0.12237162333E+00 -0.31984239601E-01 -0.42400312448E-01  0.14116341266E+00  0.46168352790E-01 0.  0.
         14    1    1    2    0    0 -0.15045797762E-02  0.13160734631E-01 -0.65694735914E-03  0.13262740145E-01  0.00000000000E+00 0.  1.
     999901    1    3    3    0    0 -0.12086704355E+00  0.18823504970E-01  0.43057259808E-01  0.88950384720E+00  0.88000000000E+00 0.  1.
        -11    1    4    4    0    0  0.48026519332E-01  0.79883246700E-02 -0.25919403255E-01  0.55158285653E-01  0.51100000000E-03 0. -1.
         11    1    4    4    0    0  0.74345103994E-01 -0.39972564271E-01 -0.16480909194E-01  0.86005127005E-01  0.51100000000E-03 0.  1.
</event>
<event>
 8    1  0.2183582E+004  0.1043930E+01  0.7957747E-01            NaN
         13   -1    0    0    0    0  0.00000000000E+00  0.00000000000E+00  0.74505805969E-08  0.10566000000E+00  0.10566000000E+00 0. -1.
     999900   -1    0    0    0    0 -0.00000000000E+00 -0.00000000000E+00 -0.74505805969E-08  0.93827000000E+00  0.93827000000E+00 0. -1.
     999902    2    1    2    0    0 -0.59967234370E-02 -0.81510492299E-02 -0.61017308428E-02  0.10321134263E+01  0.10320457806E+01 0.  0.
     999903    2    3    3    0    0 -0.86601725090E-01  0.99673050090E-01  0.22197154388E-01  0.14142603465E+00  0.45541562447E-01 0.  0.
         14    1    1    2    0    0  0.59967234370E-02  0.81510492299E-02  0.61017308428E-02  0.11816573734E-01  0.00000000000E+00 0. -1.
     999901    1    3    3    0    0  0.80605001653E-01 -0.10782409932E+00 -0.28298885231E-01  0.89068739162E+00  0.88000000000E+00 0. -1.
        -11    1    4    4    0    0 -0.25601849075E-01  0.52473402722E-01  0.26618209948E-01  0.64169329832E-01  0.51100000000E-03 0.  1.
         11    1    4    4    0    0 -0.60999876015E-01  0.47199647368E-01 -0.44210555597E-02  0.77256704814E-01  0.51100000000E-03 0. -1.
</event>
<event>
 8    1  0.2183582E+004  0.1043930E+01  0.7957747E-01            NaN
         13   -1    0    0    0    0  0.00000000000E+00  0.00000000000E+00  0.74505805969E-08  0.10566000000E+00  0.10566000000E+00 0.  1.
     999900   -1    0    0    0    0 -0.00000000000E+00 -0.00000000000E+00 -0.74505805969E-08  0.93827000000E+00  0.93827000000E+00 0.  1.
     999902    2    1    2    0    0 -0.11404871200E-01  0.29313158244E-02  0.80855635994E-02  0.10296457416E+01  0.10295466542E+01 0.  0.
     999903    2    3    3    0    0 -0.11333076400E+00  0.36495826550E-01 -0.59963764049E-01  0.14051910551E+00  0.44431504462E-01 0.  0.
         14    1    1    2    0    0  0.11404871200E-01 -0.29313158244E-02 -0.80855635994E-02  0.14284258408E-01  0.00000000000E+00 0. -1.
     999901    1    3    3    0    0  0.10192589280E+00 -0.33564510726E-01  0.68049327648E-01  0.88912663609E+00  0.88000000000E+00 0. -1.
        -11    1    4    4    0    0 -0.72516717020E-01  0.11967716713E-01 -0.14977271755E-01  0.75009867890E-01  0.51100000000E-03 0. -1.
         11    1    4    4    0    0 -0.40814046981E-01  0.24528109837E-01 -0.44986492293E-01  0.65509237616E-01  0.51100000000E-03 0.  1.
</event>
<event>
 8    1  0.2183582E+004  0.1043930E+01  0.7957747E-01            NaN
         13   -1    0    0    0    0  0.00000000000E+00  0.00000000000E+00  0.74505805969E-08  0.10566000000E+00  0.10566000000E+00 0. -1.
     999900   -1    0    0    0    0 -0.00000000000E+00 -0.00000000000E+00 -0.74505805969E-08  0.93827000000E+00  0.93827000000E+00 0.  1.
     999902    2    1    2    0    0 -0.58412072136E-02  0.11411383768E-01 -0.10517170306E-01  0.10273483761E+01  0.10272145519E+01 0.  0.
     999903    2    3    3    0    0  0.50052606990E-01  0.75905976834E-01  0.92392632533E-01  0.13725057328E+00  0.45103664296E-01 0.  0.
         14    1    1    2    0    0  0.58412072136E-02 -0.11411383768E-01  0.10517170306E-01  0.16581623939E-01  0.00000000000E+00 0.  1.
     999901    1    3    3    0    0 -0.55893814203E-01 -0.64494593066E-01 -0.10290980284E+00  0.89009780278E+00  0.88000000000E+00 0.  1.
        -11    1    4    4    0    0  0.58002774937E-02  0.46840664644E-01  0.32487233460E-01  0.57300720258E-01  0.51100000000E-03 0.  1.
         11    1    4    4    0    0  0.44252329496E-01  0.29065312190E-01  0.59905399073E-01  0.79949853018E-01  0.51100000000E-03 0. -1.
</event>
<event>
 7    1  0.2183582E+004  0.1043930E+01  0.7957747E-01            NaN
         13   -1    0    0    0    0  0.00000000000E+00  0.00000000000E+00  0.74505805969E-08  0.10566000000E+00  0.10566000000E+00 0. -1.
     999900   -1    0    0    0    0 -0.00000000000E+00 -0.00000000000E+00 -0.74505805969E-08  0.93827000000E+00  0.93827000000E+00 0. -1.
     999903    2    1    2    0    0  0.74463499592E-01  0.44538268752E-01  0.76409158588E-01  0.12426261068E+00  0.45545216445E-01 0.  0.
         14    1    1    2    0    0  0.14611382754E-01 -0.11241329856E-01 -0.27611355665E-01  0.33200104888E-01  0.00000000000E+00 0. -1.
     999901    1    1    2    0    0 -0.89074882346E-01 -0.33296938897E-01 -0.48797802922E-01  0.88646728444E+00  0.88000000000E+00 0. -1.
        -11    1    3    3    0    0  0.49819101775E-01  0.17124572903E-01  0.18937346008E-01  0.55982837492E-01  0.51100000000E-03 0.  1.
         11    1    3    3    0    0  0.24644397817E-01  0.27413695850E-01  0.57471812580E-01  0.68279773184E-01  0.51100000000E-03 0. -1.
</event>
<event>
 8    1  0.2183582E+004  0.1043930E+01  0.7957747E-01            NaN
         13   -1    0    0    0    0  0.00000000000E+00  0.00000000000E+00  0.74505805969E-08  0.10566000000E+00  0.10566000000E+00 0.  1.
     999900   -1    0    0    0    0 -0.00000000000E+00 -0.00000000000E+00 -0.74505805969E-08  0.93827000000E+00  0.93827000000E+00 0. -1.
     999902    2    1    2    0    0 -0.15680493955E-02 -0.94124872549E-02 -0.50751465750E-02  0.10331220951E+01  0.10330655607E+01 0.  0.
     999903    2    3    3    0    0 -0.11952100014E+00  0.58285140847E-02 -0.64163006300E-01  0.14315773522E+00  0.45365236988E-01 0.  0.
         14    1    1    2    0    0  0.15680493955E-02  0.94124872549E-02  0.50751465750E-02  0.10807904884E-01  0.00000000000E+00 0. -1.
     999901    1    3    3    0    0  0.11795295074E+00 -0.15241001340E-01  0.59087859725E-01  0.88996435989E+00  0.88000000000E+00 0.  1.
        -11    1    4    4    0    0 -0.23798982131E-01 -0.91140075384E-02  0.24154688246E-02  0.25603755477E-01  0.51100000000E-03 0. -1.
         11    1    4    4    0    0 -0.95722018006E-01  0.14942521623E-01 -0.66578475125E-01  0.11755397975E+00  0.51100000000E-03 0.  1.
</event>
<event>
 8    1  0.2183582E+004  0.1043930E+01  0.7957747E-01            NaN
         13   -1    0    0    0    0  0.00000000000E+00  0.00000000000E+00  0.74505805969E-08  0.10566000000E+00  0.10566000000E+00 0. -1.
     999900   -1    0    0    0    0 -0.00000000000E+00 -0.00000000000E+00 -0.74505805969E-08  0.93827000000E+00  0.93827000000E+00 0. -1.
     999902    2    1    2    0    0  0.10272754193E-01 -0.42105899216E-02  0.34033906602E-02  0.10323178678E+01  0.10322525556E+01 0.  0.
     999903    2    3    3    0    0  0.36431611913E-01 -0.75346003935E-01  0.10680070157E+00  0.14302852407E+00  0.45238105471E-01 0.  0.
         14    1    1    2    0    0 -0.10272754193E-01  0.42105899216E-02 -0.34033906602E-02  0.11612132198E-01  0.00000000000E+00 0.  1.
     999901    1    3    3    0    0 -0.26158857720E-01  0.71135414014E-01 -0.10339731091E+00  0.88928934373E+00  0.88000000000E+00 0. -1.
        -11    1    4    4    0    0  0.25784893868E-01 -0.25184166416E-01  0.73555805878E-01  0.81913495159E-01  0.51100000000E-03 0.  1.
         11    1    4    4    0    0  0.10646718045E-01 -0.50161837519E-01  0.33244895696E-01  0.61115028915E-01  0.51100000000E-03 0. -1.
</event>
<event>
 8    1  0.2183582E+004  0.1043930E+01  0.7957747E-01            NaN
         13   -1    0    0    0    0  0.00000000000E+00  0.00000000000E+00  0.74505805969E-08  0.10566000000E+00  0.10566000000E+00 0. -1.
     999900   -1    0    0    0    0 -0.00000000000E+00 -0.00000000000E+00 -0.74505805969E-08  0.93827000000E+00  0.93827000000E+00 0. -1.
     999902    2    1    2    0    0 -0.93347366429E-02  0.59439935752E-02 -0.87887522354E-02  0.10297981023E+01  0.10297011318E+01 0.  0.
     999903    2    3    3    0    0 -0.47618551523E-01  0.60761115815E-01  0.10784283509E+00  0.13958829860E+00  0.43535920585E-01 0.  0.
         14    1    1    2    0    0  0.93347366429E-02 -0.59439935752E-02  0.87887522354E-02  0.14131897738E-01  0.00000000000E+00 0. -1.
     999901    1    3    3    0    0  0.38283814880E-01 -0.54817122240E-01 -0.11663158733E+00  0.89020980366E+00  0.88000000000E+00 0. -1.
        -11    1    4    4    0    0 -0.20726685869E-01 -0.14800986359E-02  0.23606271810E-01  0.31453193619E-01  0.51100000000E-03 0. -1.
         11    1    4    4    0    0 -0.26891865654E-01  0.62241214451E-01  0.84236563282E-01  0.10813510498E+00  0.51100000000E-03 0.  1.
</event>
<event>
 8    1  0.2183582E+004  0.1043930E+01  0.7957747E-01            NaN
         13   -1    0    0    0    0  0.00000000000E+00  0.00000000000E+00  0.74505805969E-08  0.10566000000E+00  0.10566000000E+00 0.  1.
     999900   -1    0    0    0    0 -0.00000000000E+00 -0.00000000000E+00 -0.74505805969E-08  0.93827000000E+00  0.93827000000E+00 0. -1.
     999902    2    1    2    0    0 -0.10887204965E-01  0.76999463875E-02 -0.68778026603E-02  0.10289258480E+01  0.10288164444E+01 0.  0.
     999903    2    3    3    0    0 -0.11556828143E+00 -0.29617949451E-01 -0.58422952297E-01  0.14043968858E+00  0.45572076651E-01 0.  0.
         14    1    1    2    0    0  0.10887204965E-01 -0.76999463875E-02  0.68778026603E-02  0.15004151951E-01  0.00000000000E+00 0. -1.
     999901    1    3    3    0    0  0.10468107647E+00  0.37317895839E-01  0.51545149636E-01  0.88848615947E+00  0.88000000000E+00 0.  1.
        -11    1    4    4    0    0 -0.77055586026E-01 -0.30000528701E-03 -0.48433084209E-01  0.91014713690E-01  0.51100000000E-03 0.  1.
         11    1    4    4    0    0 -0.38512695405E-01 -0.29317944164E-01 -0.99898680882E-02  0.49424974889E-01  0.51100000000E-03 0. -1.
</event>
<event>
 8    1  0.2183582E+004  0.1043930E+01  0.7957747E-01            NaN
         13   -1    0    0    0    0  0.00000000000E+00  0.00000000000E+00  0.74505805969E-08  0.10566000000E+00  0.10566000000E+00 0. -1.
     999900   -1    0    0    0    0 -0.00000000000E+00 -0.00000000000E+00 -0.74505805969E-08  0.93827000000E+00  0.93827000000E+00 0. -1.
     999902    2    1    2    0    0 -0.49534190719E-02  0.75915138886E-02 -0.10813198817E-01  0.10298199783E+01  0.10297233099E+01 0.  0.
     999903    2    3    3    0    0 -0.11483602178E+00  0.31812684842E-01  0.57776603129E-01  0.14000796870E+00  0.45439372958E-01 0.  0.
         14    1    1    2    0    0  0.49534190719E-02 -0.75915138886E-02  0.10813198817E-01  0.14110021696E-01  0.00000000000E+00 0. -1.
     999901    1    3    3    0    0  0.10988260271E+00 -0.24221170954E-01 -0.68589801945E-01  0.88981200960E+00  0.88000000000E+00 0. -1.
        -11    1    4    4    0    0 -0.26891784344E-01  0.26352829254E-01  0.69696235703E-02  0.38294600776E-01  0.51100000000E-03 0. -1.
         11    1    4    4    0    0 -0.87944237440E-01  0.54598555883E-02  0.50806979558E-01  0.10171336793E+00  0.51100000000E-03 0.  1.
</event>
<event>
 8    1  0.2183582E+004  0.1043930E+01  0.7957747E-01            NaN
         13   -1    0    0    0    0  0.00000000000E+00  0.00000000000E+00  0.74505805969E-08  0.10566000000E+00  0.10566000000E+00 0. -1.
     999900   -1    0    0    0    0 -0.00000000000E+00 -0.00000000000E+00 -0.74505805969E-08  0.93827000000E+00  0.93827000000E+00 0. -1.
     999902    2    1    2    0    0  0.11918263091E-02  0.12975288750E-01  0.90079495870E-02  0.10280894910E+01  0.10279674508E+01 0.  0.
     999903    2    3    3    0    0  0.63680079037E-01  0.49413960592E-01 -0.10296700637E+00  0.13804963279E+00  0.44256126633E-01 0.  0.
         14    1    1    2    0    0 -0.11918263091E-02 -0.12975288750E-01 -0.90079495870E-02  0.15840508952E-01  0.00000000000E+00 0. -1.
     999901    1    3    3    0    0 -0.62488252728E-01 -0.36438671842E-01  0.11197495595E+00  0.89003985826E+00  0.88000000000E+00 0.  1.
        -11    1    4    4    0    0  0.54132106856E-01  0.38119865443E-01 -0.49760958656E-01  0.82824050019E-01  0.51100000000E-03 0. -1.
         11    1    4    4    0    0  0.95479721809E-02  0.11294095149E-01 -0.53206047710E-01  0.55225582767E-01  0.51100000000E-03 0.  1.
</event>
<event>
 8    1  0.2183582E+004  0.1043930E+01  0.7957747E-01            NaN
         13   -1    0    0    0    0  0.00000000000E+00  0.00000000000E+00  0.74505805969E-08  0.10566000000E+00  0.10566000000E+00 0.  1.
     999900   -1    0    0    0    0 -0.00000000000E+00 -0.00000000000E+00 -0.74505805969E-08  0.93827000000E+00  0.93827000000E+00 0. -1.
     999902    2    1    2    0    0 -0.30660763221E-02 -0.12908337479E-01  0.32067119717E-02  0.10302804944E+01  0.10301900738E+01 0.  0.
     999903    2    3    3    0    0 -0.85893964554E-01 -0.98668576307E-01 -0.29044951257E-01  0.14165489982E+00  0.45926466784E-01 0.  0.
         14    1    1    2    0    0  0.30660763221E-02  0.12908337479E-01 -0.32067119717E-02  0.13649505564E-01  0.00000000000E+00 0. -1.
     999901    1    3    3    0    0  0.82827888232E-01  0.85760238828E-01  0.32251663229E-01  0.88862559462E+00  0.88000000000E+00 0. -1.
        -11    1    4    4    0    0 -0.17461604684E-01  0.84485916575E-03 -0.22637511041E-03  0.17490963147E-01  0.51100000000E-03 0.  1.
         11    1    4    4    0    0 -0.68432359870E-01 -0.99513435472E-01 -0.28818576147E-01  0.12416393667E+00  0.51100000000E-03 0. -1.
</event>
<event>
 8    1  0.2183582E+004  0.1043930E+01  0.7957747E-01            NaN
         13   -1    0    0    0    0  0.00000000000E+00  0.00000000000E+00  0.74505805969E-08  0.10566000000E+00  0.10566000000E+00 0.  1.
     999900   -1    0    0    0    0 -0.00000000000E+00 -0.00000000000E+00 -0.74505805969E-08  0.93827000000E+00  0.93827000000E+00 0.  1.
     999902    2    1    2    0    0 -0.67378062012E-02  0.24554620137E-02 -0.12599728891E-01  0.10294323969E+01  0.10293303063E+01 0.  0.
     999903    2    3    3    0    0 -0.11436241570E+00  0.63619205630E-01  0.21936029893E-01  0.14009737642E+00  0.44943520356E-01 0.  0.
         14    1    1    2    0    0  0.67378062012E-02 -0.24554620137E-02  0.12599728891E-01  0.14497603051E-01  0.00000000000E+00 0.  1.
     999901    1    3    3    0    0  0.10762460950E+00 -0.61163743616E-01 -0.34535758784E-01  0.88933502053E+00  0.88000000000E+00 0.  1.
        -11    1    4    4    0    0 -0.89316587490E-01  0.28937441775E-01  0.48033447358E-02  0.94011497057E-01  0.51100000000E-03 0.  1.
         11    1    4    4    0    0 -0.25045828213E-01  0.34681763855E-01  0.17132685157E-01  0.46085879363E-01  0.51100000000E-03 0. -1.
</event>
<event>
 8    1  0.2183582E+004  0.1043930E+01  0.7957747E-01            NaN
         13   -1    0    0    0    0  0.00000000000E+00  0.00000000000E+00  0.74505805969E-08  0.10566000000E+00  0.10566000000E+00 0. -1.
     999900   -1    0    0    0    0 -0.00000000000E+00 -0.00000000000E+00 -0.74505805969E-08  0.93827000000E+00  0.93827000000E+00 0.  1.
     999902    2    1    2    0    0  0.82584302123E-02  0.11589893506E-01 -0.55207096805E-02  0.10286654811E+01  0.10285522187E+01 0.  0.
     999903    2    3    3    0    0 -0.74419367039E-01  0.99445585261E-01  0.43464315443E-01  0.13908480833E+00  0.45030773614E-01 0.  0.
         14    1    1    2    0    0 -0.82584302123E-02 -0.11589893506E-01  0.55207096805E-02  0.15264518873E-01  0.00000000000E+00 0. -1.
     999901    1    3    3    0    0  0.82677797251E-01 -0.87855691755E-01 -0.48985025124E-01  0.88958067280E+00  0.88000000000E+00 0.  1.
        -11    1    4    4    0    0 -0.17921815343E-01  0.57717663094E-01  0.30356822713E-01  0.67633703909E-01  0.51100000000E-03 0. -1.
         11    1    4    4    0    0 -0.56497551696E-01  0.41727922166E-01  0.13107492730E-01  0.71451104418E-01  0.51100000000E-03 0.  1.
</event>
<event>
 7    1  0.2183582E+004  0.1043930E+01  0.7957747E-01            NaN
         13   -1    0    0    0    0  0.00000000000E+00  0.00000000000E+00  0.74505805969E-08  0.10566000000E+00  0.10566000000E+00 0.  1.
     999900   -1    0    0    0    0 -0.00000000000E+00 -0.00000000000E+00 -0.74505805969E-08  0.93827000000E+00  0.93827000000E+00 0.  1.
     999903    2    1    2    0    0 -0.10112692809E+00 -0.34671159597E-01 -0.41628359508E-01  0.12327390503E+00  0.45108651632E-01 0.  0.
         14    1    1    2    0    0  0.96384626554E-02  0.24941959156E-01 -0.20481659885E-01  0.33682334844E-01  0.00000000000E+00 0. -1.
     999901    1    1    2    0    0  0.91488465437E-01  0.97292004416E-02  0.62110019393E-01  0.88697376013E+00  0.88000000000E+00 0. -1.
        -11    1    3    3    0    0 -0.43711308306E-01 -0.31582534491E-01 -0.37377459219E-01  0.65616084441E-01  0.51100000000E-03 0. -1.
         11    1    3    3    0    0 -0.57415619786E-01 -0.30886251067E-02 -0.42509002888E-02  0.57657820586E-01  0.51100000000E-03 0.  1.
</event>
<event>
 7    1  0.2183582E+004  0.1043930E+01  0.7957747E-01            NaN
         13   -1    0    0    0    0  0.00000000000E+00  0.00000000000E+00  0.74505805969E-08  0.10566000000E+00  0.10566000000E+00 0. -1.
     999900   -1    0    0    0    0 -0.00000000000E+00 -0.00000000000E+00 -0.74505805969E-08  0.93827000000E+00  0.93827000000E+00 0. -1.
     999903    2    1    2    0    0 -0.36507523526E-01 -0.37713048119E-01  0.94624574194E-01  0.11741751346E+00  0.45584966302E-01 0.  0.
         14    1    1    2    0    0  0.59161994635E-02 -0.27262097861E-01  0.22516642102E-01  0.35850000940E-01  0.00000000000E+00 0. -1.
     999901    1    1    2    0    0  0.30591324063E-01  0.64975145980E-01 -0.11714121630E+00  0.89066248560E+00  0.88000000000E+00 0. -1.
        -11    1    3    3    0    0 -0.13537841290E-01 -0.21592991680E-01  0.85563365479E-02  0.26888704926E-01  0.51100000000E-03 0. -1.
         11    1    3    3    0    0 -0.22969682236E-01 -0.16120056439E-01  0.86068237646E-01  0.90528808532E-01  0.51100000000E-03 0.  1.
</event>
<event>
 8    1  0.2183582E+004  0.1043930E+01  0.7957747E-01            NaN
         13   -1    0    0    0    0  0.00000000000E+00  0.00000000000E+00  0.74505805969E-08  0.10566000000E+00  0.10566000000E+00 0.  1.
     999900   -1    0    0    0    0 -0.00000000000E+00 -0.00000000000E+00 -0.74505805969E-08  0.93827000000E+00  0.93827000000E+00 0. -1.
     999902    2    1    2    0    0  0.50018550516E-02  0.61208002473E-03 -0.13624900313E-01  0.10294030903E+01  0.10293005835E+01 0.  0.
     999903    2    3    3    0    0  0.93510223235E-01  0.61111473263E-01  0.65931388820E-01  0.13933392956E+00  0.50874570082E-01 0.  0.
         14    1    1    2    0    0 -0.50018550516E-02 -0.61208002473E-03  0.13624900313E-01  0.14526909666E-01  0.00000000000E+00 0.  1.
     999901    1    3    3    0    0 -0.88508368184E-01 -0.60499393238E-01 -0.79556289133E-01  0.89006916077E+00  0.88000000000E+00 0. -1.
        -11    1    4    4    0    0  0.26096008065E-01  0.47162809318E-01  0.28869713134E-01  0.61147801900E-01  0.51100000000E-03 0. -1.
         11    1    4    4    0    0  0.67414215170E-01  0.13948663944E-01  0.37061675686E-01  0.78186127660E-01  0.51100000000E-03 0.  1.
</event>
<event>
 8    1  0.2183582E+004  0.1043930E+01  0.7957747E-01            NaN
         13   -1    0    0    0    0  0.00000000000E+00  0.00000000000E+00  0.74505805969E-08  0.10566000000E+00  0.10566000000E+00 0. -1.
     999900   -1    0    0    0    0 -0.00000000000E+00 -0.00000000000E+00 -0.74505805969E-08  0.93827000000E+00  0.93827000000E+00 0. -1.
     999902    2    1    2    0    0  0.81694831808E-03 -0.12997683469E-02 -0.13923345544E-01  0.10299222752E+01  0.10298270130E+01 0.  0.
     999903    2    3    3    0    0 -0.49812940992E-01 -0.35844983121E-01  0.11509702124E+00  0.13840502211E+00  0.46286433653E-01 0.  0.
         14    1    1    2    0    0 -0.81694831808E-03  0.12997683469E-02  0.13923345544E-01  0.14007724778E-01  0.00000000000E+00 0. -1.
     999901    1    3    3    0    0  0.50629889311E-01  0.34545214774E-01 -0.12902036679E+00  0.89151725311E+00  0.88000000000E+00 0. -1.
        -11    1    4    4    0    0 -0.48736665857E-01 -0.23526485640E-01  0.55435143874E-01  0.77473056108E-01  0.51100000000E-03 0.  1.
         11    1    4    4    0    0 -0.10762751359E-02 -0.12318497481E-01  0.59661877369E-01  0.60931966000E-01  0.51100000000E-03 0. -1.
</event>
<event>
 8    1  0.2183582E+004  0.1043930E+01  0.7957747E-01            NaN
         13   -1    0    0    0    0  0.00000000000E+00  0.00000000000E+00  0.74505805969E-08  0.10566000000E+00  0.10566000000E+00 0. -1.
     999900   -1    0    0    0    0 -0.00000000000E+00 -0.00000000000E+00 -0.74505805969E-08  0.93827000000E+00  0.93827000000E+00 0.  1.
     999902    2    1    2    0    0  0.74962838777E-02  0.11302969509E-01  0.31546112663E-02  0.10300050956E+01  0.10299109641E+01 0.  0.
     999903    2    3    3    0    0  0.68544656533E-01  0.53389200229E-02  0.11452043891E+00  0.14086797381E+00  0.44743503573E-01 0.  0.
         14    1    1    2    0    0 -0.74962838777E-02 -0.11302969509E-01 -0.31546112663E-02  0.13924904450E-01  0.00000000000E+00 0.  1.
     999901    1    3    3    0    0 -0.61048372656E-01  0.59640494861E-02 -0.11136582764E+00  0.88913712174E+00  0.88000000000E+00 0. -1.
        -11    1    4    4    0    0  0.16578224831E-01 -0.17104566686E-01  0.47494983684E-01  0.53136036136E-01  0.51100000000E-03 0. -1.
         11    1    4    4    0    0  0.51966431703E-01  0.22443486709E-01  0.67025455221E-01  0.87731937675E-01  0.51100000000E-03 0.  1.
</event>
<event>
 8    1  0.2183582E+004  0.1043930E+01  0.7957747E-01            NaN
         13   -1    0    0    0    0  0.00000000000E+00  0.00000000000E+00  0.74505805969E-08  0.10566000000E+00  0.10566000000E+00 0. -1.
     999900   -1    0    0    0    0 -0.00000000000E+00 -0.00000000000E+00 -0.74505805969E-08  0.93827000000E+00  0.93827000000E+00 0. -1.
     999902    2    1    2    0    0 -0.31694700471E-02  0.11138255993E-01 -0.93858677306E-02  0.10290235987E+01  0.10289156262E+01 0.  0.
     999903    2    3    3    0    0 -0.12698559988E+00 -0.34673038133E-01 -0.12235203962E-01  0.13917123600E+00  0.43489890337E-01 0.  0.
         14    1    1    2    0    0  0.31694700471E-02 -0.11138255993E-01  0.93858677306E-02  0.14906401309E-01  0.00000000000E+00 0. -1.
     999901    1    3    3    0    0  0.12381612984E+00  0.45811294126E-01  0.28493362309E-02  0.88985236270E+00  0.88000000000E+00 0. -1.
        -11    1    4    4    0    0 -0.44374724489E-01 -0.23205871978E-01  0.13536001099E-01  0.51875939649E-01  0.51100000000E-03 0. -1.
         11    1    4    4    0    0 -0.82610875394E-01 -0.11467166156E-01 -0.25771205060E-01  0.87295296347E-01  0.51100000000E-03 0.  1.
</event>
<event>
 8    1  0.2183582E+004  0.1043930E+01  0.7957747E-01            NaN
         13   -1    0    0    0    0  0.00000000000E+00  0.00000000000E+00  0.74505805969E-08  0.10566000000E+00  0.10566000000E+00 0. -1.
     999900   -1    0    0    0    0 -0.00000000000E+00 -0.00000000000E+00 -0.74505805969E-08  0.93827000000E+00  0.93827000000E+00 0.  1.
     999902    2    1    2    0    0  0.24819715416E-03  0.11011978295E-01  0.84393076282E-02  0.10300538629E+01  0.10299603940E+01 0.  0.
     999903    2    3    3    0    0  0.77037732968E-01  0.10444112800E+00 -0.28792186014E-01  0.14100278284E+00  0.47010990990E-01 0.  0.
         14    1    1    2    0    0 -0.24819715416E-03 -0.11011978295E-01 -0.84393076282E-02  0.13876137108E-01  0.00000000000E+00 0.  1.
     999901    1    3    3    0    0 -0.76789535814E-01 -0.93429149706E-01  0.37231493642E-01  0.88905108005E+00  0.88000000000E+00 0. -1.
        -11    1    4    4    0    0  0.55164297760E-01  0.38939328915E-01 -0.24420338480E-01  0.71805188783E-01  0.51100000000E-03 0. -1.
         11    1    4    4    0    0  0.21873435209E-01  0.65501799085E-01 -0.43718475339E-02  0.69197594056E-01  0.51100000000E-03 0.  1.
</event>
<event>
 8    1  0.2183582E+004  0.1043930E+01  0.7957747E-01            NaN
         13   -1    0    0    0    0  0.00000000000E+00  0.00000000000E+00  0.74505805969E-08  0.10566000000E+00  0.10566000000E+00 0.  1.
     999900   -1    0    0    0    0 -0.00000000000E+00 -0.00000000000E+00 -0.74505805969E-08  0.93827000000E+00  0.93827000000E+00 0.  1.
     999902    2    1    2    0    0  0.39921779055E-02  0.11200658892E-01  0.69850285674E-02  0.10301393195E+01  0.10300470061E+01 0.  0.
     999903    2    3    3    0    0  0.29419956661E-01  0.31547472430E-02  0.13077800452E+00  0.14107463710E+00  0.43859782103E-01 0.  0.
         14    1    1    2    0    0 -0.39921779055E-02 -0.11200658892E-01 -0.69850285674E-02  0.13790680481E-01  0.00000000000E+00 0. -1.
     999901    1    3    3    0    0 -0.25427778756E-01  0.80459116487E-02 -0.12379297596E+00  0.88906468242E+00  0.88000000000E+00 0.  1.
        -11    1    4    4    0    0  0.69509311115E-02 -0.16159511878E-01  0.83059059961E-01  0.84902967146E-01  0.51100000000E-03 0. -1.
         11    1    4    4    0    0  0.22469025550E-01  0.19314259121E-01  0.47718944562E-01  0.56171669956E-01  0.51100000000E-03 0.  1.
</event>
<event>
 8    1  0.2183582E+004  0.1043930E+01  0.7957747E-01            NaN
         13   -1    0    0    0    0  0.00000000000E+00  0.00000000000E+00  0.74505805969E-08  0.10566000000E+00  0.10566000000E+00 0.  1.
     999900   -1    0    0    0    0 -0.00000000000E+00 -0.00000000000E+00 -0.74505805969E-08  0.93827000000E+00  0.93827000000E+00 0. -1.
     999902    2    1    2    0    0 -0.21351793491E-02 -0.45758605380E-03  0.13344642351E-01  0.10304078753E+01  0.10303191456E+01 0.  0.
     999903    2    3    3    0    0  0.56338029980E-01  0.87145504038E-01 -0.80117985307E-01  0.13921278987E+00  0.46829443696E-01 0.  0.
         14    1    1    2    0    0  0.21351793491E-02  0.45758605380E-03 -0.13344642351E-01  0.13522124660E-01  0.00000000000E+00 0. -1.
     999901    1    3    3    0    0 -0.58473209329E-01 -0.87603090092E-01  0.93462627657E-01  0.89119508547E+00  0.88000000000E+00 0.  1.
        -11    1    4    4    0    0  0.16498556255E-01  0.38103531052E-02 -0.29148072748E-01  0.33713386291E-01  0.51100000000E-03 0. -1.
         11    1    4    4    0    0  0.39839473726E-01  0.83335150933E-01 -0.50969912559E-01  0.10549940358E+00  0.51100000000E-03 0.  1.
</event>
<event>
 8    1  0.2183582E+004  0.1043930E+01  0.7957747E-01            NaN
         13   -1    0    0    0    0  0.00000000000E+00  0.00000000000E+00  0.74505805969E-08  0.10566000000E+00  0.10566000000E+00 0. -1.
     999900   -1    0    0    0    0 -0.00000000000E+00 -0.00000000000E+00 -0.74505805969E-08  0.93827000000E+00  0.93827000000E+00 0.  1.
     999902    2    1    2    0    0  0.11114802827E-01  0.11757866188E-01 -0.12101453747E-01  0.10237252619E+01  0.10235258572E+01 0.  0.
     999903    2    3    3    0    0 -0.49944968491E-01 -0.95436451164E-01  0.62282393542E-01  0.13201237420E+00  0.44108438053E-01 0.  0.
         14    1    1    2    0    0 -0.11114802827E-01 -0.11757866188E-01  0.12101453747E-01  0.20204738107E-01  0.00000000000E+00 0. -1.
     999901    1    3    3    0    0  0.61059771318E-01  0.10719431735E+00 -0.74383847290E-01  0.89171288770E+00  0.88000000000E+00 0.  1.
        -11    1    4    4    0    0 -0.22147129336E-01 -0.17551689641E-01  0.34877241178E-01  0.44891427024E-01  0.51100000000E-03 0.  1.
         11    1    4    4    0    0 -0.27797839155E-01 -0.77884761523E-01  0.27405152364E-01  0.87120947173E-01  0.51100000000E-03 0. -1.
</event>
<event>
 8    1  0.2183582E+004  0.1043930E+01  0.7957747E-01            NaN
         13   -1    0    0    0    0  0.00000000000E+00  0.00000000000E+00  0.74505805969E-08  0.10566000000E+00  0.10566000000E+00 0.  1.
     999900   -1    0    0    0    0 -0.00000000000E+00 -0.00000000000E+00 -0.74505805969E-08  0.93827000000E+00  0.93827000000E+00 0. -1.
     999902    2    1    2    0    0  0.23401558566E-02 -0.53003460682E-02  0.11927888056E-01  0.10306693623E+01  0.10305840528E+01 0.  0.
     999903    2    3    3    0    0  0.10619522234E+00  0.75720718719E-01  0.27549810896E-01  0.14072872822E+00  0.45105768743E-01 0.  0.
         14    1    1    2    0    0 -0.23401558566E-02  0.53003460682E-02 -0.11927888056E-01  0.13260637668E-01  0.00000000000E+00 0. -1.
     999901    1    3    3    0    0 -0.10385506649E+00 -0.81021064787E-01 -0.15621922840E-01  0.88994063411E+00  0.88000000000E+00 0.  1.
        -11    1    4    4    0    0  0.45429046632E-01  0.78166230487E-02  0.16373995806E-01  0.48921025474E-01  0.51100000000E-03 0.  1.
         11    1    4    4    0    0  0.60766175710E-01  0.67904095670E-01  0.11175815090E-01  0.91807702744E-01  0.51100000000E-03 0. -1.
</event>
<event>
 8    1  0.2183582E+004  0.1043930E+01  0.7957747E-01            NaN
         13   -1    0    0    0    0  0.00000000000E+00  0.00000000000E+00  0.74505805969E-08  0.10566000000E+00  0.10566000000E+00 0. -1.
     999900   -1    0    0    0    0 -0.00000000000E+00 -0.00000000000E+00 -0.74505805969E-08  0.93827000000E+00  0.93827000000E+00 0.  1.
     999902    2    1    2    0    0  0.41270780059E-02  0.12876680166E-01  0.55928743629E-02  0.10292970950E+01  0.10291930761E+01 0.  0.
     999903    2    3    3    0    0  0.11882998141E+00  0.12667609442E-01 -0.56905684146E-01  0.13965510545E+00  0.44545019705E-01 0.  0.
         14    1    1    2    0    0 -0.41270780059E-02 -0.12876680166E-01 -0.55928743629E-02  0.14632904996E-01  0.00000000000E+00 0. -1.
     999901    1    3    3    0    0 -0.11470290340E+00  0.20907072384E-03  0.62498558509E-01  0.88964198955E+00  0.88000000000E+00 0. -1.
        -11    1    4    4    0    0  0.25473660244E-01  0.11046288591E-01 -0.33272681323E-01  0.43338900555E-01  0.51100000000E-03 0. -1.
         11    1    4    4    0    0  0.93356321163E-01  0.16213208517E-02 -0.23633002823E-01  0.96316204897E-01  0.51100000000E-03 0.  1.
</event>
<event>
 8    1  0.2183582E+004  0.1043930E+01  0.7957747E-01            NaN
         13   -1    0    0    0    0  0.00000000000E+00  0.00000000000E+00  0.74505805969E-08  0.10566000000E+00  0.10566000000E+00 0. -1.
     999900   -1    0    0    0    0 -0.00000000000E+00 -0.00000000000E+00 -0.74505805969E-08  0.93827000000E+00  0.93827000000E+00 0.  1.
     999902    2    1    2    0    0 -0.28168059941E-02 -0.12545534574E-01  0.47613103839E-02  0.10302188764E+01  0.10301276321E+01 0.  0.
     999903    2    3    3    0    0  0.65880550738E-01 -0.11323966801E+00  0.29723460213E-01  0.14146596121E+00  0.44335817559E-01 0.  0.
         14    1    1    2    0    0  0.28168059941E-02  0.12545534574E-01 -0.47613103839E-02  0.13711123598E-01  0.00000000000E+00 0.  1.
     999901    1    3    3    0    0 -0.68697356732E-01  0.10069413344E+00 -0.24962149829E-01  0.88875291519E+00  0.88000000000E+00 0.  1.
        -11    1    4    4    0    0  0.97151099401E-02 -0.30084319753E-01 -0.10559401773E-01  0.33334842777E-01  0.51100000000E-03 0. -1.
         11    1    4    4    0    0  0.56165440798E-01 -0.83155348258E-01  0.40282861986E-01  0.10813111844E+00  0.51100000000E-03 0.  1.
</event>
<event>
 8    1  0.2183582E+004  0.1043930E+01  0.7957747E-01            NaN
         13   -1    0    0    0    0  0.00000000000E+00  0.00000000000E+00  0.74505805969E-08  0.10566000000E+00  0.10566000000E+00 0.  1.
     999900   -1    0    0    0    0 -0.00000000000E+00 -0.00000000000E+00 -0.74505805969E-08  0.93827000000E+00  0.93827000000E+00 0.  1.
     999902    2    1    2    0    0 -0.10049515698E-01 -0.95957549148E-02 -0.28343614488E-02  0.10297488547E+01  0.10296512025E+01 0.  0.
     999903    2    3    3    0    0 -0.98373987888E-01  0.83639808867E-01  0.18561146402E-01  0.14016926267E+00  0.51282033123E-01 0.  0.
         14    1    1    2    0    0  0.10049515698E-01  0.95957549148E-02  0.28343614488E-02  0.14181145333E-01  0.00000000000E+00 0. -1.
     999901    1    3    3    0    0  0.88324472191E-01 -0.93235563782E-01 -0.21395507851E-01  0.88957959200E+00  0.88000000000E+00 0.  1.
        -11    1    4    4    0    0 -0.36510362818E-01  0.23397015202E-02  0.17267706933E-02  0.36629546194E-01  0.51100000000E-03 0.  1.
         11    1    4    4    0    0 -0.61863625070E-01  0.81300107347E-01  0.16834375709E-01  0.10353971648E+00  0.51100000000E-03 0. -1.
</event>
<event>
 8    1  0.2183582E+004  0.1043930E+01  0.7957747E-01            NaN
         13   -1    0    0    0    0  0.00000000000E+00  0.00000000000E+00  0.74505805969E-08  0.10566000000E+00  0.10566000000E+00 0. -1.
     999900   -1    0    0    0    0 -0.00000000000E+00 -0.00000000000E+00 -0.74505805969E-08  0.93827000000E+00  0.93827000000E+00 0. -1.
     999902    2    1    2    0    0 -0.59854810030E-02 -0.14082977533E-02 -0.11502119580E-01  0.10308874527E+01  0.10308049438E+01 0.  0.
     999903    2    3    3    0    0 -0.94486294612E-01  0.69826161895E-01 -0.65474702865E-01  0.14194438253E+00  0.45364283983E-01 0.  0.
         14    1    1    2    0    0  0.59854810030E-02  0.14082977533E-02  0.11502119580E-01  0.13042547306E-01  0.00000000000E+00 0. -1.
     999901    1    3    3    0    0  0.88500813609E-01 -0.71234459648E-01  0.53972583286E-01  0.88894307017E+00  0.88000000000E+00 0. -1.
        -11    1    4    4    0    0 -0.17682574933E-01  0.14424845415E-01  0.56426057150E-02  0.23512757000E-01  0.51100000000E-03 0.  1.
         11    1    4    4    0    0 -0.76803719679E-01  0.55401316480E-01 -0.71117308580E-01  0.11843162553E+00  0.51100000000E-03 0. -1.
</event>
<event>
 8    1  0.2183582E+004  0.1043930E+01  0.7957747E-01            NaN
         13   -1    0    0    0    0  0.00000000000E+00  0.00000000000E+00  0.74505805969E-08  0.10566000000E+00  0.10566000000E+00 0.  1.
     999900   -1    0    0    0    0 -0.00000000000E+00 -0.00000000000E+00 -0.74505805969E-08  0.93827000000E+00  0.93827000000E+00 0.  1.
     999902    2    1    2    0    0  0.12274719035E-01  0.35978356863E-02 -0.54934908731E-02  0.10300090952E+01  0.10299150181E+01 0.  0.
     999903    2    3    3    0    0 -0.27798871473E-01  0.46882745561E-02  0.12899299312E+00  0.13888974510E+00  0.43086098048E-01 0.  0.
         14    1    1    2    0    0 -0.12274719035E-01 -0.35978356863E-02  0.54934908731E-02  0.13920904819E-01  0.00000000000E+00 0.  1.
     999901    1    3    3    0    0  0.40073590508E-01 -0.10904388698E-02 -0.13448648400E+00  0.89111935008E+00  0.88000000000E+00 0.  1.
        -11    1    4    4    0    0  0.19836839187E-02  0.10898768990E-01  0.83033198314E-01  0.83770468010E-01  0.51100000000E-03 0. -1.
         11    1    4    4    0    0 -0.29782555392E-01 -0.62104944341E-02  0.45959794810E-01  0.55119277089E-01  0.51100000000E-03 0.  1.
</event>
<event>
 8    1  0.2183582E+004  0.1043930E+01  0.7957747E-01            NaN
         13   -1    0    0    0    0  0.00000000000E+00  0.00000000000E+00  0.74505805969E-08  0.10566000000E+00  0.10566000000E+00 0.  1.
     999900   -1    0    0    0    0 -0.00000000000E+00 -0.00000000000E+00 -0.74505805969E-08  0.93827000000E+00  0.93827000000E+00 0.  1.
     999902    2    1    2    0    0  0.14245985632E-01  0.85207307449E-03 -0.37615819175E-02  0.10291711507E+01  0.10290653204E+01 0.  0.
     999903    2    3    3    0    0 -0.39572424892E-01  0.92714990132E-01 -0.84635909092E-01  0.13907235074E+00  0.44898055908E-01 0.  0.
         14    1    1    2    0    0 -0.14245985632E-01 -0.85207307449E-03  0.37615819175E-02  0.14758849334E-01  0.00000000000E+00 0. -1.
     999901    1    3    3    0    0  0.53818410523E-01 -0.91862917058E-01  0.80874327174E-01  0.89009879993E+00  0.88000000000E+00 0.  1.
        -11    1    4    4    0    0 -0.45409318717E-01  0.71584327801E-01 -0.51037886791E-01  0.98951751991E-01  0.51100000000E-03 0.  1.
         11    1    4    4    0    0  0.58368938250E-02  0.21130662331E-01 -0.33598022301E-01  0.40120598744E-01  0.51100000000E-03 0. -1.
</event>
<event>
 8    1  0.2183582E+004  0.1043930E+01  0.7957747E-01            NaN
         13   -1    0    0    0    0  0.00000000000E+00  0.00000000000E+00  0.74505805969E-08  0.10566000000E+00  0.10566000000E+00 0. -1.
     999900   -1    0    0    0    0 -0.00000000000E+00 -0.00000000000E+00 -0.74505805969E-08  0.93827000000E+00  0.93827000000E+00 0.  1.
     999902    2    1    2    0    0 -0.64382407241E-02 -0.10633439552E-01 -0.76138937831E-02  0.10293528824E+01  0.10292496607E+01 0.  0.
     999903    2    3    3    0    0 -0.65660434705E-01 -0.85388286321E-01 -0.79307041579E-01  0.14130138451E+00  0.45541434923E-01 0.  0.
         14    1    1    2    0    0  0.64382407241E-02  0.10633439552E-01  0.76138937831E-02  0.14577117646E-01  0.00000000000E+00 0. -1.
     999901    1    3    3    0    0  0.59222193981E-01  0.74754846769E-01  0.71693147796E-01  0.88805149784E+00  0.88000000000E+00 0.  1.
        -11    1    4    4    0    0 -0.56725862205E-01 -0.79680996850E-01 -0.49424607734E-01  0.10958986118E+00  0.51100000000E-03 0. -1.
         11    1    4    4    0    0 -0.89345724998E-02 -0.57072894711E-02 -0.29882433845E-01  0.31711523337E-01  0.51100000000E-03 0.  1.
</event>
<event>
 8    1  0.2183582E+004  0.1043930E+01  0.7957747E-01            NaN
         13   -1    0    0    0    0  0.00000000000E+00  0.00000000000E+00  0.74505805969E-08  0.10566000000E+00  0.10566000000E+00 0. -1.
     999900   -1    0    0    0    0 -0.00000000000E+00 -0.00000000000E+00 -0.74505805969E-08  0.93827000000E+00  0.93827000000E+00 0.  1.
     999902    2    1    2    0    0 -0.14429068703E-02 -0.45192654154E-02  0.11371759559E-01  0.10316083664E+01  0.10315347783E+01 0.  0.
     999903    2    3    3    0    0 -0.36341868494E-01  0.74412723903E-01 -0.10336802028E+00  0.13997311945E+00  0.45271863971E-01 0.  0.
         14    1    1    2    0    0  0.14429068703E-02  0.45192654154E-02 -0.11371759559E-01  0.12321633642E-01  0.00000000000E+00 0.  1.
     999901    1    3    3    0    0  0.34898961623E-01 -0.78931989318E-01  0.11473977984E+00  0.89163524691E+00  0.88000000000E+00 0. -1.
        -11    1    4    4    0    0 -0.36416521764E-01  0.47227642910E-01 -0.93788903780E-01  0.11114509843E+00  0.51100000000E-03 0.  1.
         11    1    4    4    0    0  0.74653270933E-04  0.27185080993E-01 -0.95791164958E-02  0.28828021014E-01  0.51100000000E-03 0. -1.
</event>
<event>
 8    1  0.2242043E+004  0.1043930E+01  0.7957747E-01            NaN
         13   -1    0    0    0    0  0.00000000000E+00  0.00000000000E+00  0.74505805969E-08  0.10566000000E+00  0.10566000000E+00 0. -1.
     999900   -1    0    0    0    0 -0.00000000000E+00 -0.00000000000E+00 -0.74505805969E-08  0.93827000000E+00  0.93827000000E+00 0.  1.
     999902    2    1    2    0    0  0.49394625865E-02  0.12438870294E-01 -0.69177846525E-03  0.10305284202E+01  0.10304412756E+01 0.  0.
     999903    2    3    3    0    0 -0.98861648030E-01  0.73230172654E-01  0.50359241174E-01  0.14087879271E+00  0.46631506797E-01 0.  0.
         14    1    1    2    0    0 -0.49394625865E-02 -0.12438870294E-01  0.69177846525E-03  0.13401579843E-01  0.00000000000E+00 0.  1.
     999901    1    3    3    0    0  0.10380111062E+00 -0.60791302360E-01 -0.51051019640E-01  0.88964962745E+00  0.88000000000E+00 0.  1.
        -11    1    4    4    0    0 -0.55821314244E-01  0.12627598144E-01  0.22404509536E-01  0.61462985018E-01  0.51100000000E-03 0. -1.
         11    1    4    4    0    0 -0.43040333786E-01  0.60602574510E-01  0.27954731639E-01  0.79415807694E-01  0.51100000000E-03 0.  1.
</event>
<event>
 8    1  0.2183582E+004  0.1043930E+01  0.7957747E-01            NaN
         13   -1    0    0    0    0  0.00000000000E+00  0.00000000000E+00  0.74505805969E-08  0.10566000000E+00  0.10566000000E+00 0. -1.
     999900   -1    0    0    0    0 -0.00000000000E+00 -0.00000000000E+00 -0.74505805969E-08  0.93827000000E+00  0.93827000000E+00 0. -1.
     999902    2    1    2    0    0 -0.39648160290E-02 -0.55914935967E-02 -0.11845211247E-01  0.10302444749E+01  0.10301535733E+01 0.  0.
     999903    2    3    3    0    0  0.41340566511E-01 -0.79860801837E-01  0.96611668316E-01  0.13932842807E+00  0.44629657236E-01 0.  0.
         14    1    1    2    0    0  0.39648160290E-02  0.55914935967E-02  0.11845211247E-01  0.13685525064E-01  0.00000000000E+00 0. -1.
     999901    1    3    3    0    0 -0.45305382540E-01  0.74269308240E-01 -0.10845687956E+00  0.89091604686E+00  0.88000000000E+00 0. -1.
        -11    1    4    4    0    0  0.49339936384E-01 -0.53355662157E-01  0.71401996469E-01  0.10188111811E+00  0.51100000000E-03 0.  1.
         11    1    4    4    0    0 -0.79993698734E-02 -0.26505139680E-01  0.25209671847E-01  0.37447309963E-01  0.51100000000E-03 0. -1.
</event>
<event>
 8    1  0.2183582E+004  0.1043930E+01  0.7957747E-01            NaN
         13   -1    0    0    0    0  0.00000000000E+00  0.00000000000E+00  0.74505805969E-08  0.10566000000E+00  0.10566000000E+00 0. -1.
     999900   -1    0    0    0    0 -0.00000000000E+00 -0.00000000000E+00 -0.74505805969E-08  0.93827000000E+00  0.93827000000E+00 0. -1.
     999902    2    1    2    0    0 -0.62695652607E-02  0.10743544912E-01  0.56696139293E-02  0.10302597503E+01  0.10301690528E+01 0.  0.
     999903    2    3    3    0    0 -0.58902619638E-01 -0.10944853068E+00 -0.43076804469E-01  0.13919713363E+00  0.45516276866E-01 0.  0.
         14    1    1    2    0    0  0.62695652607E-02 -0.10743544912E-01 -0.56696139293E-02  0.13670249740E-01  0.00000000000E+00 0. -1.
     999901    1    3    3    0    0  0.52633054378E-01  0.12019207559E+00  0.48746418398E-01  0.89106261663E+00  0.88000000000E+00 0.  1.
        -11    1    4    4    0    0 -0.43030970129E-02 -0.31484218355E-02  0.76783162204E-02  0.93619904367E-02  0.51100000000E-03 0.  1.
         11    1    4    4    0    0 -0.54599522625E-01 -0.10630010884E+00 -0.50755120689E-01  0.12983514319E+00  0.51100000000E-03 0. -1.
</event>
<event>
 8    1  0.2183582E+004  0.1043930E+01  0.7957747E-01            NaN
         13   -1    0    0    0    0  0.00000000000E+00  0.00000000000E+00  0.74505805969E-08  0.10566000000E+00  0.10566000000E+00 0.  1.
     999900   -1    0    0    0    0 -0.00000000000E+00 -0.00000000000E+00 -0.74505805969E-08  0.93827000000E+00  0.93827000000E+00 0.  1.
     999902    2    1    2    0    0 -0.14489629932E-02 -0.13396581738E-01 -0.31372561212E-02  0.10300948899E+01  0.10300019766E+01 0.  0.
     999903    2    3    3    0    0  0.83539723036E-02  0.55670064892E-01 -0.11954302686E+00  0.13969239512E+00  0.45326427225E-01 0.  0.
         14    1    1    2    0    0  0.14489629932E-02  0.13396581738E-01  0.31372561212E-02  0.13835110118E-01  0.00000000000E+00 0.  1.
     999901    1    3    3    0    0 -0.98029352968E-02 -0.69066646630E-01  0.11640577074E+00  0.89040249476E+00  0.88000000000E+00 0. -1.
        -11    1    4    4    0    0  0.20094940985E-01  0.70503525447E-02 -0.25967994069E-01  0.33587378003E-01  0.51100000000E-03 0.  1.
         11    1    4    4    0    0 -0.11740968681E-01  0.48619712348E-01 -0.93575032792E-01  0.10610501712E+00  0.51100000000E-03 0. -1.
</event>
<event>
 8    1  0.2183582E+004  0.1043930E+01  0.7957747E-01            NaN
         13   -1    0    0    0    0  0.00000000000E+00  0.00000000000E+00  0.74505805969E-08  0.10566000000E+00  0.10566000000E+00 0.  1.
     999900   -1    0    0    0    0 -0.00000000000E+00 -0.00000000000E+00 -0.74505805969E-08  0.93827000000E+00  0.93827000000E+00 0.  1.
     999902    2    1    2    0    0  0.71617874821E-02  0.48712289607E-02 -0.11123916950E-01  0.10298317164E+01  0.10297352099E+01 0.  0.
     999903    2    3    3    0    0  0.12286113511E+00 -0.40475082265E-01  0.32925968658E-01  0.14000981323E+00  0.42255621914E-01 0.  0.
         14    1    1    2    0    0 -0.71617874821E-02 -0.48712289607E-02  0.11123916950E-01  0.14098283578E-01  0.00000000000E+00 0.  1.
     999901    1    3    3    0    0 -0.11569934763E+00  0.45346311226E-01 -0.44049885607E-01  0.88982190319E+00  0.88000000000E+00 0. -1.
        -11    1    4    4    0    0  0.11378682345E+00 -0.36635080872E-01  0.41901921537E-01  0.12667123782E+00  0.51100000000E-03 0. -1.
         11    1    4    4    0    0  0.90743116543E-02 -0.38400013926E-02 -0.89759528794E-02  0.13338575403E-01  0.51100000000E-03 0.  1.
</event>
<event>
 8    1  0.2183582E+004  0.1043930E+01  0.7957747E-01            NaN
         13   -1    0    0    0    0  0.00000000000E+00  0.00000000000E+00  0.74505805969E-08  0.10566000000E+00  0.10566000000E+00 0.  1.
     999900   -1    0    0    0    0 -0.00000000000E+00 -0.00000000000E+00 -0.74505805969E-08  0.93827000000E+00  0.93827000000E+00 0.  1.
     999902    2    1    2    0    0  0.80163687473E-02  0.26923781549E-02  0.11351128214E-01  0.10297751712E+01  0.10296778836E+01 0.  0.
     999903    2    3    3    0    0  0.10304449971E+00  0.94783298494E-02 -0.83403406251E-01  0.13957585829E+00  0.42629618650E-01 0.  0.
         14    1    1    2    0    0 -0.80163687473E-02 -0.26923781549E-02 -0.11351128214E-01  0.14154828849E-01  0.00000000000E+00 0. -1.
     999901    1    3    3    0    0 -0.95028130962E-01 -0.67859516945E-02  0.94754534465E-01  0.89019931286E+00  0.88000000000E+00 0.  1.
        -11    1    4    4    0    0  0.80642245801E-01 -0.66856040286E-02 -0.46023125417E-01  0.93092740336E-01  0.51100000000E-03 0. -1.
         11    1    4    4    0    0  0.22402253908E-01  0.16163933878E-01 -0.37380280834E-01  0.46483117955E-01  0.51100000000E-03 0.  1.
</event>
<event>
 8    1  0.2183582E+004  0.1043930E+01  0.7957747E-01            NaN
         13   -1    0    0    0    0  0.00000000000E+00  0.00000000000E+00  0.74505805969E-08  0.10566000000E+00  0.10566000000E+00 0.  1.
     999900   -1    0    0    0    0 -0.00000000000E+00 -0.00000000000E+00 -0.74505805969E-08  0.93827000000E+00  0.93827000000E+00 0.  1.
     999902    2    1    2    0    0 -0.11977970143E-01 -0.82707268151E-03  0.30050100878E-02  0.10315531707E+01  0.10314789179E+01 0.  0.
     999903    2    3    3    0    0  0.91468781868E-01 -0.96359558947E-01  0.58582512665E-02  0.14035407542E+00  0.44869195701E-01 0.  0.
         14    1    1    2    0    0  0.11977970143E-01  0.82707268151E-03 -0.30050100878E-02  0.12376829303E-01  0.00000000000E+00 0.  1.
     999901    1    3    3    0    0 -0.10344675201E+00  0.95532486266E-01 -0.28532411787E-02  0.89119909527E+00  0.88000000000E+00 0. -1.
        -11    1    4    4    0    0  0.27131983071E-01 -0.50545277164E-01 -0.13705135526E-01  0.58983568981E-01  0.51100000000E-03 0. -1.
         11    1    4    4    0    0  0.64336798797E-01 -0.45814281783E-01  0.19563386792E-01  0.81370506441E-01  0.51100000000E-03 0.  1.
</event>
<event>
 8    1  0.2183582E+004  0.1043930E+01  0.7957747E-01            NaN
         13   -1    0    0    0    0  0.00000000000E+00  0.00000000000E+00  0.74505805969E-08  0.10566000000E+00  0.10566000000E+00 0. -1.
     999900   -1    0    0    0    0 -0.00000000000E+00 -0.00000000000E+00 -0.74505805969E-08  0.93827000000E+00  0.93827000000E+00 0. -1.
     999902    2    1    2    0    0 -0.95340569571E-03  0.72240204514E-02 -0.97446305270E-02  0.10317622854E+01  0.10316905352E+01 0.  0.
     999903    2    3    3    0    0 -0.74351348524E-01 -0.10408327563E+00  0.35438428917E-01  0.14057314667E+00  0.46297689224E-01 0.  0.
         14    1    1    2    0    0  0.95340569571E-03 -0.72240204514E-02  0.97446305270E-02  0.12167714576E-01  0.00000000000E+00 0. -1.
     999901    1    3    3    0    0  0.73397942828E-01  0.11130729608E+00 -0.45183059444E-01  0.89118913875E+00  0.88000000000E+00 0.  1.
        -11    1    4    4    0    0 -0.27976981397E-01 -0.75635924310E-01  0.29376447075E-01  0.85829722696E-01  0.51100000000E-03 0.  1.
         11    1    4    4    0    0 -0.46374367127E-01 -0.28447351319E-01  0.60619818411E-02  0.54743423974E-01  0.51100000000E-03 0. -1.
</event>
<event>
 8    1  0.2183582E+004  0.1043930E+01  0.7957747E-01            NaN
         13   -1    0    0    0    0  0.00000000000E+00  0.00000000000E+00  0.74505805969E-08  0.10566000000E+00  0.10566000000E+00 0.  1.
     999900   -1    0    0    0    0 -0.00000000000E+00 -0.00000000000E+00 -0.74505805969E-08  0.93827000000E+00  0.93827000000E+00 0.  1.
     999902    2    1    2    0    0  0.83008278629E-03 -0.13264438886E-01 -0.58063873731E-02  0.10294266035E+01  0.10293244306E+01 0.  0.
     999903    2    3    3    0    0  0.87957552896E-01  0.93268247528E-01 -0.26856698055E-01  0.13848130499E+00  0.44947663921E-01 0.  0.
         14    1    1    2    0    0 -0.83008278629E-03  0.13264438886E-01  0.58063873731E-02  0.14503396523E-01  0.00000000000E+00 0.  1.
     999901    1    3    3    0    0 -0.87127470110E-01 -0.10653268641E+00  0.21050310682E-01  0.89094529849E+00  0.88000000000E+00 0.  1.
        -11    1    4    4    0    0  0.35817979139E-01  0.38686896028E-01  0.11268348223E-01  0.53915121687E-01  0.51100000000E-03 0.  1.
         11    1    4    4    0    0  0.52139573757E-01  0.54581351500E-01 -0.38125046278E-01  0.84566183299E-01  0.51100000000E-03 0. -1.
</event>
<event>
 8    1  0.2183582E+004  0.1043930E+01  0.7957747E-01            NaN
         13   -1    0    0    0    0  0.00000000000E+00  0.00000000000E+00  0.74505805969E-08  0.10566000000E+00  0.10566000000E+00 0.  1.
     999900   -1    0    0    0    0 -0.00000000000E+00 -0.00000000000E+00 -0.74505805969E-08  0.93827000000E+00  0.93827000000E+00 0.  1.
     999902    2    1    2    0    0 -0.12606529171E-01  0.23482447624E-02  0.54112692462E-02  0.10300116428E+01  0.10299176005E+01 0.  0.
     999903    2    3    3    0    0 -0.76768621104E-01  0.82079058529E-01  0.74520497257E-01  0.14138919089E+00  0.42511242690E-01 0.  0.
         14    1    1    2    0    0  0.12606529171E-01 -0.23482447624E-02 -0.54112692462E-02  0.13918357161E-01  0.00000000000E+00 0. -1.
     999901    1    3    3    0    0  0.64162091933E-01 -0.79730813766E-01 -0.69109228011E-01  0.88862245195E+00  0.88000000000E+00 0.  1.
        -11    1    4    4    0    0 -0.17147975103E-01 -0.17912947597E-02  0.10282263670E-01  0.20081032200E-01  0.51100000000E-03 0.  1.
         11    1    4    4    0    0 -0.59620646001E-01  0.83870353288E-01  0.64238233587E-01  0.12130815869E+00  0.51100000000E-03 0. -1.
</event>
<event>
 8    1  0.2183582E+004  0.1043930E+01  0.7957747E-01            NaN
         13   -1    0    0    0    0  0.00000000000E+00  0.00000000000E+00  0.74505805969E-08  0.10566000000E+00  0.10566000000E+00 0.  1.
     999900   -1    0    0    0    0 -0.00000000000E+00 -0.00000000000E+00 -0.74505805969E-08  0.93827000000E+00  0.93827000000E+00 0.  1.
     999902    2    1    2    0    0 -0.43643013725E-02 -0.81260610535E-02 -0.98608908043E-02  0.10304275127E+01  0.10303390422E+01 0.  0.
     999903    2    3    3    0    0 -0.13281986858E+00  0.95785642990E-02  0.29275046738E-02  0.14083331899E+00  0.45744803751E-01 0.  0.
         14    1    1    2    0    0  0.43643013725E-02  0.81260610535E-02  0.98608908043E-02  0.13502487259E-01  0.00000000000E+00 0.  1.
     999901    1    3    3    0    0  0.12845556720E+00 -0.17704625352E-01 -0.12788395478E-01  0.88959419376E+00  0.88000000000E+00 0.  1.
        -11    1    4    4    0    0 -0.30127503457E-01  0.78812736061E-02  0.19573647891E-01  0.36785455699E-01  0.51100000000E-03 0. -1.
         11    1    4    4    0    0 -0.10269236512E+00  0.16972906929E-02 -0.16646143217E-01  0.10404786329E+00  0.51100000000E-03 0.  1.
</event>
<event>
 8    1  0.2183582E+004  0.1043930E+01  0.7957747E-01            NaN
         13   -1    0    0    0    0  0.00000000000E+00  0.00000000000E+00  0.74505805969E-08  0.10566000000E+00  0.10566000000E+00 0. -1.
     999900   -1    0    0    0    0 -0.00000000000E+00 -0.00000000000E+00 -0.74505805969E-08  0.93827000000E+00  0.93827000000E+00 0.  1.
     999902    2    1    2    0    0 -0.11411154426E-01  0.71015555996E-02  0.37386942771E-02  0.10299792161E+01  0.10298847320E+01 0.  0.
     999903    2    3    3    0    0  0.97434856089E-01 -0.68834998864E-01  0.54117583540E-01  0.13860283833E+00  0.45279418021E-01 0.  0.
         14    1    1    2    0    0  0.11411154426E-01 -0.71015555996E-02 -0.37386942771E-02  0.13950783927E-01  0.00000000000E+00 0. -1.
     999901    1    3    3    0    0 -0.10884601051E+00  0.75936554464E-01 -0.50378889263E-01  0.89137637774E+00  0.88000000000E+00 0.  1.
        -11    1    4    4    0    0  0.64715711441E-01 -0.55556812104E-01  0.57895957237E-01  0.10308678705E+00  0.51100000000E-03 0.  1.
         11    1    4    4    0    0  0.32719144648E-01 -0.13278186761E-01 -0.37783736976E-02  0.35516051286E-01  0.51100000000E-03 0. -1.
</event>
<event>
 8    1  0.2183582E+004  0.1043930E+01  0.7957747E-01            NaN
         13   -1    0    0    0    0  0.00000000000E+00  0.00000000000E+00  0.74505805969E-08  0.10566000000E+00  0.10566000000E+00 0. -1.
     999900   -1    0    0    0    0 -0.00000000000E+00 -0.00000000000E+00 -0.74505805969E-08  0.93827000000E+00  0.93827000000E+00 0. -1.
     999902    2    1    2    0    0  0.74111132828E-02  0.14108454765E-03  0.11970721516E-01  0.10298501322E+01  0.10297538793E+01 0.  0.
     999903    2    3    3    0    0 -0.76253984503E-01  0.71600197665E-01  0.81898860195E-01  0.14024561440E+00  0.44946085459E-01 0.  0.
         14    1    1    2    0    0 -0.74111132828E-02 -0.14108454765E-03 -0.11970721516E-01  0.14079867846E-01  0.00000000000E+00 0.  1.
     999901    1    3    3    0    0  0.83665097786E-01 -0.71459113117E-01 -0.69928138679E-01  0.88960451776E+00  0.88000000000E+00 0. -1.
        -11    1    4    4    0    0 -0.53935291823E-01  0.55896081384E-01  0.82001227435E-01  0.11295065312E+00  0.51100000000E-03 0.  1.
         11    1    4    4    0    0 -0.22318692680E-01  0.15704116281E-01 -0.10236724010E-03  0.27294961278E-01  0.51100000000E-03 0. -1.
</event>
<event>
 8    1  0.2183582E+004  0.1043930E+01  0.7957747E-01            NaN
         13   -1    0    0    0    0  0.00000000000E+00  0.00000000000E+00  0.74505805969E-08  0.10566000000E+00  0.10566000000E+00 0.  1.
     999900   -1    0    0    0    0 -0.00000000000E+00 -0.00000000000E+00 -0.74505805969E-08  0.93827000000E+00  0.93827000000E+00 0.  1.
     999902    2    1    2    0    0 -0.75425776252E-02  0.96868783690E-02 -0.13151237712E-01  0.10259388593E+01  0.10257810984E+01 0.  0.
     999903    2    3    3    0    0  0.74001953410E-01  0.88683467807E-01  0.55542978372E-01  0.13599005910E+00  0.45466769804E-01 0.  0.
         14    1    1    2    0    0  0.75425776252E-02 -0.96868783690E-02  0.13151237712E-01  0.17991140684E-01  0.00000000000E+00 0.  1.
     999901    1    3    3    0    0 -0.81544531035E-01 -0.78996589438E-01 -0.68694216084E-01  0.88994880022E+00  0.88000000000E+00 0.  1.
        -11    1    4    4    0    0  0.36743191072E-01  0.12354894616E-01  0.12267372080E-01  0.40662698507E-01  0.51100000000E-03 0. -1.
         11    1    4    4    0    0  0.37258762338E-01  0.76328573192E-01  0.43275606292E-01  0.95327360591E-01  0.51100000000E-03 0.  1.
</event>
<event>
 8    1  0.2183582E+004  0.1043930E+01  0.7957747E-01            NaN
         13   -1    0    0    0    0  0.00000000000E+00  0.00000000000E+00  0.74505805969E-08  0.10566000000E+00  0.10566000000E+00 0.  1.
     999900   -1    0    0    0    0 -0.00000000000E+00 -0.00000000000E+00 -0.74505805969E-08  0.93827000000E+00  0.93827000000E+00 0. -1.
     999902    2    1    2    0    0 -0.10613329610E-01  0.45703476110E-02 -0.72744695060E-02  0.10302753763E+01  0.10301848874E+01 0.  0.
     999903    2    3    3    0    0 -0.92187496400E-01  0.85855990501E-01 -0.45190994985E-01  0.14196272673E+00  0.47343470033E-01 0.  0.
         14    1    1    2    0    0  0.10613329610E-01 -0.45703476110E-02  0.72744695060E-02  0.13654623733E-01  0.00000000000E+00 0.  1.
     999901    1    3    3    0    0  0.81574166790E-01 -0.81285642890E-01  0.37916525479E-01  0.88831264954E+00  0.88000000000E+00 0.  1.
        -11    1    4    4    0    0 -0.46134964299E-01  0.60995715967E-01 -0.62627047290E-02  0.76735877454E-01  0.51100000000E-03 0.  1.
         11    1    4    4    0    0 -0.46052532101E-01  0.24860274534E-01 -0.38928290256E-01  0.65226849273E-01  0.51100000000E-03 0. -1.
</event>
<event>
 8    1  0.2183582E+004  0.1043930E+01  0.7957747E-01            NaN
         13   -1    0    0    0    0  0.00000000000E+00  0.00000000000E+00  0.74505805969E-08  0.10566000000E+00  0.10566000000E+00 0. -1.
     999900   -1    0    0    0    0 -0.00000000000E+00 -0.00000000000E+00 -0.74505805969E-08  0.93827000000E+00  0.93827000000E+00 0.  1.
     999902    2    1    2    0    0  0.36104923069E-02 -0.14422282261E-03  0.14158327723E-01  0.10293178578E+01  0.10292141360E+01 0.  0.
     999903    2    3    3    0    0 -0.12976948765E+00  0.19614326307E-01  0.70459215206E-02  0.13901947771E+00  0.45298216872E-01 0.  0.
         14    1    1    2    0    0 -0.36104923069E-02  0.14422282261E-03 -0.14158327723E-01  0.14612142171E-01  0.00000000000E+00 0.  1.
     999901    1    3    3    0    0  0.13337997996E+00 -0.19758549130E-01  0.71124062023E-02  0.89029838012E+00  0.88000000000E+00 0.  1.
        -11    1    4    4    0    0 -0.10943480063E+00  0.22502236609E-01 -0.10207388275E-01  0.11219081129E+00  0.51100000000E-03 0. -1.
         11    1    4    4    0    0 -0.20334687020E-01 -0.28879103019E-02  0.17253309796E-01  0.26828666423E-01  0.51100000000E-03 0.  1.
</event>
<event>
 8    1  0.2183582E+004  0.1043930E+01  0.7957747E-01            NaN
         13   -1    0    0    0    0  0.00000000000E+00  0.00000000000E+00  0.74505805969E-08  0.10566000000E+00  0.10566000000E+00 0.  1.
     999900   -1    0    0    0    0 -0.00000000000E+00 -0.00000000000E+00 -0.74505805969E-08  0.93827000000E+00  0.93827000000E+00 0.  1.
     999902    2    1    2    0    0 -0.13171855031E-01 -0.35111637365E-03  0.11549108429E-03  0.10307529599E+01  0.10306687295E+01 0.  0.
     999903    2    3    3    0    0  0.22030302373E-01 -0.10458459534E+00 -0.79327438067E-01  0.14035137128E+00  0.44524074215E-01 0.  0.
         14    1    1    2    0    0  0.13171855031E-01  0.35111637365E-03 -0.11549108429E-03  0.13177040102E-01  0.00000000000E+00 0. -1.
     999901    1    3    3    0    0 -0.35202157404E-01  0.10423347897E+00  0.79442929151E-01  0.89040158862E+00  0.88000000000E+00 0. -1.
        -11    1    4    4    0    0  0.29426292642E-01 -0.43225460447E-01 -0.48337411527E-01  0.71211751865E-01  0.51100000000E-03 0.  1.
         11    1    4    4    0    0 -0.73959902691E-02 -0.61359134892E-01 -0.30990026539E-01  0.69139619414E-01  0.51100000000E-03 0. -1.
</event>
<event>
 8    1  0.2183582E+004  0.1043930E+01  0.7957747E-01            NaN
         13   -1    0    0    0    0  0.00000000000E+00  0.00000000000E+00  0.74505805969E-08  0.10566000000E+00  0.10566000000E+00 0.  1.
     999900   -1    0    0    0    0 -0.00000000000E+00 -0.00000000000E+00 -0.74505805969E-08  0.93827000000E+00  0.93827000000E+00 0. -1.
     999902    2    1    2    0    0 -0.69134535445E-02 -0.11345710018E-01  0.19268254879E-02  0.10305048880E+01  0.10304174351E+01 0.  0.
     999903    2    3    3    0    0  0.11905461624E+00  0.27278451366E-01  0.50134651094E-01  0.13939110464E+00  0.44702139268E-01 0.  0.
         14    1    1    2    0    0  0.69134535445E-02  0.11345710018E-01 -0.19268254879E-02  0.13425111999E-01  0.00000000000E+00 0.  1.
     999901    1    3    3    0    0 -0.12596806978E+00 -0.38624161384E-01 -0.48207825606E-01  0.89111378336E+00  0.88000000000E+00 0. -1.
        -11    1    4    4    0    0  0.10664893289E-01  0.58830444793E-02  0.22365927408E-01  0.25472455536E-01  0.51100000000E-03 0. -1.
         11    1    4    4    0    0  0.10838972295E+00  0.21395406887E-01  0.27768723685E-01  0.11391864910E+00  0.51100000000E-03 0.  1.
</event>
<event>
 8    1  0.2183582E+004  0.1043930E+01  0.7957747E-01            NaN
         13   -1    0    0    0    0  0.00000000000E+00  0.00000000000E+00  0.74505805969E-08  0.10566000000E+00  0.10566000000E+00 0.  1.
     999900   -1    0    0    0    0 -0.00000000000E+00 -0.00000000000E+00 -0.74505805969E-08  0.93827000000E+00  0.93827000000E+00 0. -1.
     999902    2    1    2    0    0  0.10506412867E-01  0.47788757659E-02  0.77574657827E-02  0.10300231441E+01  0.10299292582E+01 0.  0.
     999903    2    3    3    0    0 -0.12295253360E+00 -0.38906235935E-01 -0.23266172167E-01  0.13834935541E+00  0.44364497744E-01 0.  0.
         14    1    1    2    0    0 -0.10506412867E-01 -0.47788757659E-02 -0.77574657827E-02  0.13906855873E-01  0.00000000000E+00 0. -1.
     999901    1    3    3    0    0  0.13345894647E+00  0.43685111701E-01  0.31023637949E-01  0.89167378872E+00  0.88000000000E+00 0.  1.
        -11    1    4    4    0    0 -0.34672480041E-01 -0.90596758832E-02 -0.27328184510E-01  0.45070493550E-01  0.51100000000E-03 0.  1.
         11    1    4    4    0    0 -0.88280053564E-01 -0.29846560052E-01  0.40620123431E-02  0.93278861857E-01  0.51100000000E-03 0. -1.
</event>
<event>
 8    1  0.2183582E+004  0.1043930E+01  0.7957747E-01            NaN
         13   -1    0    0    0    0  0.00000000000E+00  0.00000000000E+00  0.74505805969E-08  0.10566000000E+00  0.10566000000E+00 0.  1.
     999900   -1    0    0    0    0 -0.00000000000E+00 -0.00000000000E+00 -0.74505805969E-08  0.93827000000E+00  0.93827000000E+00 0. -1.
     999902    2    1    2    0    0  0.20204395186E-02 -0.93885043984E-02 -0.10059874115E-01  0.10300221872E+01  0.10299282882E+01 0.  0.
     999903    2    3    3    0    0 -0.44045767881E-01 -0.31142346137E-01  0.12008601274E+00  0.13899285153E+00  0.44592453735E-01 0.  0.
         14    1    1    2    0    0 -0.20204395186E-02  0.93885043984E-02  0.10059874115E-01  0.13907812836E-01  0.00000000000E+00 0.  1.
     999901    1    3    3    0    0  0.46066207400E-01  0.21753841739E-01 -0.13014588685E+00  0.89102933563E+00  0.88000000000E+00 0.  1.
        -11    1    4    4    0    0 -0.22108714698E-01 -0.31003486844E-01  0.37144217548E-01  0.53197419865E-01  0.51100000000E-03 0. -1.
         11    1    4    4    0    0 -0.21937053183E-01 -0.13885929327E-03  0.82941795190E-01  0.85795431665E-01  0.51100000000E-03 0.  1.
</event>
<event>
 8    1  0.2183582E+004  0.1043930E+01  0.7957747E-01            NaN
         13   -1    0    0    0    0  0.00000000000E+00  0.00000000000E+00  0.74505805969E-08  0.10566000000E+00  0.10566000000E+00 0. -1.
     999900   -1    0    0    0    0 -0.00000000000E+00 -0.00000000000E+00 -0.74505805969E-08  0.93827000000E+00  0.93827000000E+00 0.  1.
     999902    2    1    2    0    0 -0.24898330209E-01  0.92230207564E-02  0.95179079859E-02  0.10157239451E+01  0.10153322368E+01 0.  0.
     999903    2    3    3    0    0 -0.57645012412E-01  0.64248423257E-01 -0.83539486452E-01  0.12850366877E+00  0.45645807521E-01 0.  0.
         14    1    1    2    0    0  0.24898330209E-01 -0.92230207564E-02 -0.95179079859E-02  0.28206054873E-01  0.00000000000E+00 0. -1.
     999901    1    3    3    0    0  0.32746682203E-01 -0.55025402500E-01  0.93057394438E-01  0.88722027635E+00  0.88000000000E+00 0.  1.
        -11    1    4    4    0    0 -0.56912528790E-01  0.45608051822E-01 -0.82054213573E-01  0.10978290127E+00  0.51100000000E-03 0.  1.
         11    1    4    4    0    0 -0.73248362236E-03  0.18640371435E-01 -0.14852728784E-02  0.18720767506E-01  0.51100000000E-03 0. -1.
</event>
<event>
 8    1  0.2183582E+004  0.1043930E+01  0.7957747E-01            NaN
         13   -1    0    0    0    0  0.00000000000E+00  0.00000000000E+00  0.74505805969E-08  0.10566000000E+00  0.10566000000E+00 0. -1.
     999900   -1    0    0    0    0 -0.00000000000E+00 -0.00000000000E+00 -0.74505805969E-08  0.93827000000E+00  0.93827000000E+00 0. -1.
     999902    2    1    2    0    0  0.91693021606E-02  0.95202961904E-02  0.13290093076E-02  0.10306454824E+01  0.10305598634E+01 0.  0.
     999903    2    3    3    0    0 -0.81210560165E-01  0.88768542406E-01 -0.56819050021E-01  0.14057245123E+00  0.45356371069E-01 0.  0.
         14    1    1    2    0    0 -0.91693021606E-02 -0.95202961904E-02 -0.13290093076E-02  0.13284517583E-01  0.00000000000E+00 0.  1.
     999901    1    3    3    0    0  0.90379862326E-01 -0.79248246215E-01  0.58148059329E-01  0.89007303119E+00  0.88000000000E+00 0.  1.
        -11    1    4    4    0    0 -0.73798911438E-01  0.76186240368E-01 -0.64421791975E-01  0.12410097080E+00  0.51100000000E-03 0. -1.
         11    1    4    4    0    0 -0.74116487265E-02  0.12582302037E-01  0.76027419535E-02  0.16471480432E-01  0.51100000000E-03 0.  1.
</event>
<event>
 8    1  0.2183582E+004  0.1043930E+01  0.7957747E-01            NaN
         13   -1    0    0    0    0  0.00000000000E+00  0.00000000000E+00  0.74505805969E-08  0.10566000000E+00  0.10566000000E+00 0. -1.
     999900   -1    0    0    0    0 -0.00000000000E+00 -0.00000000000E+00 -0.74505805969E-08  0.93827000000E+00  0.93827000000E+00 0.  1.
     999902    2    1    2    0    0  0.10465815120E-01  0.79531087886E-02 -0.41993717970E-02  0.10301307265E+01  0.10300382972E+01 0.  0.
     999903    2    3    3    0    0  0.16519180265E-01 -0.12924857254E+00 -0.22276920026E-01  0.13929530829E+00  0.43918617065E-01 0.  0.
         14    1    1    2    0    0 -0.10465815120E-01 -0.79531087886E-02  0.41993717970E-02  0.13799273496E-01  0.00000000000E+00 0. -1.
     999901    1    3    3    0    0 -0.60533651445E-02  0.13720168133E+00  0.18077548229E-01  0.89083541821E+00  0.88000000000E+00 0. -1.
        -11    1    4    4    0    0 -0.97590254279E-02 -0.72684125797E-01 -0.23186220795E-01  0.76916075537E-01  0.51100000000E-03 0. -1.
         11    1    4    4    0    0  0.26278205693E-01 -0.56564446747E-01  0.90930076932E-03  0.62379232755E-01  0.51100000000E-03 0.  1.
</event>
<event>
 8    1  0.2183582E+004  0.1043930E+01  0.7957747E-01            NaN
         13   -1    0    0    0    0  0.00000000000E+00  0.00000000000E+00  0.74505805969E-08  0.10566000000E+00  0.10566000000E+00 0. -1.
     999900   -1    0    0    0    0 -0.00000000000E+00 -0.00000000000E+00 -0.74505805969E-08  0.93827000000E+00  0.93827000000E+00 0. -1.
     999902    2    1    2    0    0  0.13221420374E-01  0.62052313774E-03  0.32342023332E-02  0.10303046167E+01  0.10302145175E+01 0.  0.
     999903    2    3    3    0    0  0.57271518210E-01 -0.38703268556E-01  0.11327542451E+00  0.14148751385E+00  0.49085893929E-01 0.  0.
         14    1    1    2    0    0 -0.13221420374E-01 -0.62052313774E-03 -0.32342023332E-02  0.13625383312E-01  0.00000000000E+00 0.  1.
     999901    1    3    3    0    0 -0.44050097836E-01  0.39323791694E-01 -0.11004122218E+00  0.88881710283E+00  0.88000000000E+00 0. -1.
        -11    1    4    4    0    0  0.43498190982E-01 -0.48762706282E-01  0.10164247543E+00  0.12083603798E+00  0.51100000000E-03 0. -1.
         11    1    4    4    0    0  0.13773327228E-01  0.10059437725E-01  0.11632949081E-01  0.20651475870E-01  0.51100000000E-03 0.  1.
</event>
<event>
 8    1  0.2183582E+004  0.1043930E+01  0.7957747E-01            NaN
         13   -1    0    0    0    0  0.00000000000E+00  0.00000000000E+00  0.74505805969E-08  0.10566000000E+00  0.10566000000E+00 0. -1.
     999900   -1    0    0    0    0 -0.00000000000E+00 -0.00000000000E+00 -0.74505805969E-08  0.93827000000E+00  0.93827000000E+00 0. -1.
     999902    2    1    2    0    0  0.16466430793E-02  0.90517984899E-02  0.11620103240E-01  0.10291086206E+01  0.10290018851E+01 0.  0.
     999903    2    3    3    0    0 -0.58058368775E-01  0.11471341057E+00 -0.27360588423E-01  0.13992441071E+00  0.47961423731E-01 0.  0.
         14    1    1    2    0    0 -0.16466430793E-02 -0.90517984899E-02 -0.11620103240E-01  0.14821379445E-01  0.00000000000E+00 0.  1.
     999901    1    3    3    0    0  0.59705011854E-01 -0.10566161208E+00  0.38980691663E-01  0.88918420984E+00  0.88000000000E+00 0.  1.
        -11    1    4    4    0    0 -0.92818220626E-02  0.62870861066E-01 -0.26168878042E-01  0.68731133346E-01  0.51100000000E-03 0.  1.
         11    1    4    4    0    0 -0.48776546712E-01  0.51842549500E-01 -0.11917103804E-02  0.71193277369E-01  0.51100000000E-03 0. -1.
</event>
<event>
 8    1  0.2183582E+004  0.1043930E+01  0.7957747E-01            NaN
         13   -1    0    0    0    0  0.00000000000E+00  0.00000000000E+00  0.74505805969E-08  0.10566000000E+00  0.10566000000E+00 0.  1.
     999900   -1    0    0    0    0 -0.00000000000E+00 -0.00000000000E+00 -0.74505805969E-08  0.93827000000E+00  0.93827000000E+00 0. -1.
     999902    2    1    2    0    0  0.83583130463E-02  0.23758219714E-01 -0.98971161474E-02  0.10168695619E+01  0.10165094385E+01 0.  0.
     999903    2    3    3    0    0 -0.52508349555E-01 -0.98256702726E-01  0.35046802459E-01  0.12523491268E+00  0.45210602592E-01 0.  0.
         14    1    1    2    0    0 -0.83583130463E-02 -0.23758219714E-01  0.98971161474E-02  0.27060438079E-01  0.00000000000E+00 0. -1.
     999901    1    3    3    0    0  0.60866662601E-01  0.12201492244E+00 -0.44943918606E-01  0.89163464924E+00  0.88000000000E+00 0.  1.
        -11    1    4    4    0    0 -0.13205529320E-01  0.12003749568E-02  0.45671812529E-02  0.14033786740E-01  0.51100000000E-03 0.  1.
         11    1    4    4    0    0 -0.39302820235E-01 -0.99457077683E-01  0.30479621206E-01  0.11120112594E+00  0.51100000000E-03 0. -1.
</event>
<event>
 8    1  0.2183582E+004  0.1043930E+01  0.7957747E-01            NaN
         13   -1    0    0    0    0  0.00000000000E+00  0.00000000000E+00  0.74505805969E-08  0.10566000000E+00  0.10566000000E+00 0. -1.
     999900   -1    0    0    0    0 -0.00000000000E+00 -0.00000000000E+00 -0.74505805969E-08  0.93827000000E+00  0.93827000000E+00 0. -1.
     999902    2    1    2    0    0 -0.35367111688E-02  0.29597534319E-02  0.12778799195E-01  0.10303444866E+01  0.10302549174E+01 0.  0.
     999903    2    3    3    0    0 -0.12998282759E+00 -0.14131193197E-01  0.28230713308E-01  0.14100794596E+00  0.44621088758E-01 0.  0.
         14    1    1    2    0    0  0.35367111688E-02 -0.29597534319E-02 -0.12778799195E-01  0.13585513429E-01  0.00000000000E+00 0.  1.
     999901    1    3    3    0    0  0.12644611642E+00  0.17090946629E-01 -0.15451914113E-01  0.88933654061E+00  0.88000000000E+00 0.  1.
        -11    1    4    4    0    0 -0.53156495414E-01  0.29582459575E-02  0.32166637438E-01  0.62203841593E-01  0.51100000000E-03 0. -1.
         11    1    4    4    0    0 -0.76826332172E-01 -0.17089439155E-01 -0.39359241293E-02  0.78804104368E-01  0.51100000000E-03 0.  1.
</event>
<event>
 8    1  0.2183582E+004  0.1043930E+01  0.7957747E-01            NaN
         13   -1    0    0    0    0  0.00000000000E+00  0.00000000000E+00  0.74505805969E-08  0.10566000000E+00  0.10566000000E+00 0.  1.
     999900   -1    0    0    0    0 -0.00000000000E+00 -0.00000000000E+00 -0.74505805969E-08  0.93827000000E+00  0.93827000000E+00 0.  1.
     999902    2    1    2    0    0 -0.35436129897E-02 -0.12253623943E-01  0.15083021621E-02  0.10310854109E+01  0.10310054031E+01 0.  0.
     999903    2    3    3    0    0  0.68616187892E-01 -0.10758966084E+00  0.43121211262E-01  0.14202544052E+00  0.45034104132E-01 0.  0.
         14    1    1    2    0    0  0.35436129897E-02  0.12253623943E-01 -0.15083021621E-02  0.12844589062E-01  0.00000000000E+00 0.  1.
     999901    1    3    3    0    0 -0.72159800881E-01  0.95336036892E-01 -0.41612909100E-01  0.88905997042E+00  0.88000000000E+00 0.  1.
        -11    1    4    4    0    0  0.60680430390E-01 -0.59326715568E-01  0.37530871542E-01  0.92793325472E-01  0.51100000000E-03 0. -1.
         11    1    4    4    0    0  0.79357575017E-02 -0.48262945268E-01  0.55903397201E-02  0.49232115049E-01  0.51100000000E-03 0.  1.
</event>
<event>
 8    1  0.2183582E+004  0.1043930E+01  0.7957747E-01            NaN
         13   -1    0    0    0    0  0.00000000000E+00  0.00000000000E+00  0.74505805969E-08  0.10566000000E+00  0.10566000000E+00 0.  1.
     999900   -1    0    0    0    0 -0.00000000000E+00 -0.00000000000E+00 -0.74505805969E-08  0.93827000000E+00  0.93827000000E+00 0. -1.
     999902    2    1    2    0    0  0.44281581747E-02  0.33642267442E-02  0.12693291325E-01  0.10300719247E+01  0.10299787007E+01 0.  0.
     999903    2    3    3    0    0  0.12365573219E+00 -0.65922523588E-02 -0.47303348627E-01  0.13995174029E+00  0.44885241715E-01 0.  0.
         14    1    1    2    0    0 -0.44281581747E-02 -0.33642267442E-02 -0.12693291325E-01  0.13858075302E-01  0.00000000000E+00 0. -1.
     999901    1    3    3    0    0 -0.11922757402E+00  0.99564791031E-02  0.59996639952E-01  0.89012018441E+00  0.88000000000E+00 0. -1.
        -11    1    4    4    0    0  0.77033464305E-01  0.94600642776E-03 -0.51291113686E-01  0.92553168585E-01  0.51100000000E-03 0.  1.
         11    1    4    4    0    0  0.46622267889E-01 -0.75382587866E-02  0.39877650594E-02  0.47398571707E-01  0.51100000000E-03 0. -1.
</event>
<event>
 8    1  0.2183582E+004  0.1043930E+01  0.7957747E-01            NaN
         13   -1    0    0    0    0  0.00000000000E+00  0.00000000000E+00  0.74505805969E-08  0.10566000000E+00  0.10566000000E+00 0.  1.
     999900   -1    0    0    0    0 -0.00000000000E+00 -0.00000000000E+00 -0.74505805969E-08  0.93827000000E+00  0.93827000000E+00 0. -1.
     999902    2    1    2    0    0  0.54720512105E-02 -0.10657038955E-01 -0.82656087243E-02  0.10293754093E+01  0.10292725087E+01 0.  0.
     999903    2    3    3    0    0  0.22075884384E-02 -0.13275094602E+00  0.10030249107E-01  0.14075157588E+00  0.45636751620E-01 0.  0.
         14    1    1    2    0    0 -0.54720512105E-02  0.10657038955E-01  0.82656087243E-02  0.14554590730E-01  0.00000000000E+00 0. -1.
     999901    1    3    3    0    0  0.32644627721E-02  0.12209390707E+00 -0.18295857831E-01  0.88862383339E+00  0.88000000000E+00 0. -1.
        -11    1    4    4    0    0 -0.15995468684E-01 -0.33884843703E-01  0.14355125350E-01  0.40129395659E-01  0.51100000000E-03 0.  1.
         11    1    4    4    0    0  0.18203057122E-01 -0.98866102319E-01 -0.43248762429E-02  0.10062218022E+00  0.51100000000E-03 0. -1.
</event>
<event>
 8    1  0.2183582E+004  0.1043930E+01  0.7957747E-01            NaN
         13   -1    0    0    0    0  0.00000000000E+00  0.00000000000E+00  0.74505805969E-08  0.10566000000E+00  0.10566000000E+00 0. -1.
     999900   -1    0    0    0    0 -0.00000000000E+00 -0.00000000000E+00 -0.74505805969E-08  0.93827000000E+00  0.93827000000E+00 0. -1.
     999902    2    1    2    0    0 -0.13824210362E-01  0.12883661959E-01  0.15700958207E-01  0.10193613691E+01  0.10190652497E+01 0.  0.
     999903    2    3    3    0    0 -0.45407677313E-01 -0.28807685889E-01 -0.10797766725E+00  0.12917482329E+00  0.46208423717E-01 0.  0.
         14    1    1    2    0    0  0.13824210362E-01 -0.12883661959E-01 -0.15700958207E-01  0.24568630939E-01  0.00000000000E+00 0.  1.
     999901    1    3    3    0    0  0.31583466952E-01  0.41691347848E-01  0.12367862546E+00  0.89018654577E+00  0.88000000000E+00 0.  1.
        -11    1    4    4    0    0 -0.48278222259E-01 -0.69729436126E-02 -0.77357934559E-01  0.91454468711E-01  0.51100000000E-03 0.  1.
         11    1    4    4    0    0  0.28705449457E-02 -0.21834742276E-01 -0.30619732693E-01  0.37720354582E-01  0.51100000000E-03 0. -1.
</event>
<event>
 8    1  0.2183582E+004  0.1043930E+01  0.7957747E-01            NaN
         13   -1    0    0    0    0  0.00000000000E+00  0.00000000000E+00  0.74505805969E-08  0.10566000000E+00  0.10566000000E+00 0. -1.
     999900   -1    0    0    0    0 -0.00000000000E+00 -0.00000000000E+00 -0.74505805969E-08  0.93827000000E+00  0.93827000000E+00 0.  1.
     999902    2    1    2    0    0 -0.67681846698E-02 -0.94083936337E-02  0.32318661161E-02  0.10318979115E+01  0.10318277611E+01 0.  0.
     999903    2    3    3    0    0  0.21395611807E-01  0.11158512985E+00 -0.69096000327E-01  0.14023432450E+00  0.44524095714E-01 0.  0.
         14    1    1    2    0    0  0.67681846698E-02  0.94083936337E-02 -0.32318661161E-02  0.12032088476E-01  0.00000000000E+00 0. -1.
     999901    1    3    3    0    0 -0.28163796477E-01 -0.12099352348E+00  0.72327866443E-01  0.89166358702E+00  0.88000000000E+00 0. -1.
        -11    1    4    4    0    0 -0.33459458429E-02  0.79070633375E-01 -0.33122920333E-01  0.85794809798E-01  0.51100000000E-03 0.  1.
         11    1    4    4    0    0  0.24741557650E-01  0.32514496475E-01 -0.35973079994E-01  0.54439514704E-01  0.51100000000E-03 0. -1.
</event>
<event>
 8    1  0.2183582E+004  0.1043930E+01  0.7957747E-01            NaN
         13   -1    0    0    0    0  0.00000000000E+00  0.00000000000E+00  0.74505805969E-08  0.10566000000E+00  0.10566000000E+00 0.  1.
     999900   -1    0    0    0    0 -0.00000000000E+00 -0.00000000000E+00 -0.74505805969E-08  0.93827000000E+00  0.93827000000E+00 0.  1.
     999902    2    1    2    0    0  0.10499008227E-01 -0.81863391657E-02 -0.73535646791E-02  0.10287207845E+01  0.10286083473E+01 0.  0.
     999903    2    3    3    0    0 -0.10213204288E+00  0.59410037422E-01  0.47449832588E-01  0.13728461956E+00  0.51332966276E-01 0.  0.
         14    1    1    2    0    0 -0.10499008227E-01  0.81863391657E-02  0.73535646791E-02  0.15209215502E-01  0.00000000000E+00 0.  1.
     999901    1    3    3    0    0  0.11263105111E+00 -0.67596376588E-01 -0.54803397267E-01  0.89143616493E+00  0.88000000000E+00 0.  1.
        -11    1    4    4    0    0 -0.18348924665E-01  0.66193088056E-02 -0.10892523125E-01  0.22347404020E-01  0.51100000000E-03 0. -1.
         11    1    4    4    0    0 -0.83783118215E-01  0.52790728617E-01  0.58342355712E-01  0.11493721554E+00  0.51100000000E-03 0.  1.
</event>
<event>
 8    1  0.2183582E+004  0.1043930E+01  0.7957747E-01            NaN
         13   -1    0    0    0    0  0.00000000000E+00  0.00000000000E+00  0.74505805969E-08  0.10566000000E+00  0.10566000000E+00 0. -1.
     999900   -1    0    0    0    0 -0.00000000000E+00 -0.00000000000E+00 -0.74505805969E-08  0.93827000000E+00  0.93827000000E+00 0. -1.
     999902    2    1    2    0    0 -0.11406247828E-01 -0.84095955930E-03 -0.28740361823E-02  0.10321372146E+01  0.10320698426E+01 0.  0.
     999903    2    3    3    0    0 -0.10338774983E+00 -0.85944692536E-01 -0.17602357979E-01  0.14313768397E+00  0.45858876732E-01 0.  0.
         14    1    1    2    0    0  0.11406247828E-01  0.84095955930E-03  0.28740361823E-02  0.11792785356E-01  0.00000000000E+00 0. -1.
     999901    1    3    3    0    0  0.91981502004E-01  0.85103732976E-01  0.14728321797E-01  0.88899953068E+00  0.88000000000E+00 0.  1.
        -11    1    4    4    0    0 -0.48183570100E-01 -0.68463725638E-01 -0.15817665249E-01  0.85202099802E-01  0.51100000000E-03 0. -1.
         11    1    4    4    0    0 -0.55204179732E-01 -0.17480966898E-01 -0.17846927301E-02  0.57935584166E-01  0.51100000000E-03 0.  1.
</event>
<event>
 8    1  0.2183582E+004  0.1043930E+01  0.7957747E-01            NaN
         13   -1    0    0    0    0  0.00000000000E+00  0.00000000000E+00  0.74505805969E-08  0.10566000000E+00  0.10566000000E+00 0. -1.
     999900   -1    0    0    0    0 -0.00000000000E+00 -0.00000000000E+00 -0.74505805969E-08  0.93827000000E+00  0.93827000000E+00 0. -1.
     999902    2    1    2    0    0  0.74572314166E-02 -0.67673226338E-02 -0.89658844140E-02  0.10304468980E+01  0.10303586830E+01 0.  0.
     999903    2    3    3    0    0  0.63441704558E-01 -0.11718829625E+00  0.13070636853E-01  0.14150783321E+00  0.45778582963E-01 0.  0.
         14    1    1    2    0    0 -0.74572314166E-02  0.67673226338E-02  0.89658844140E-02  0.13483101993E-01  0.00000000000E+00 0. -1.
     999901    1    3    3    0    0 -0.55984473141E-01  0.11042097361E+00 -0.22036521267E-01  0.88893906479E+00  0.88000000000E+00 0.  1.
        -11    1    4    4    0    0  0.65483052168E-01 -0.78816351173E-01  0.91472964453E-02  0.10287847922E+00  0.51100000000E-03 0. -1.
         11    1    4    4    0    0 -0.20413476100E-02 -0.38371945075E-01  0.39233404077E-02  0.38629353993E-01  0.51100000000E-03 0.  1.
</event>
<event>
 8    1  0.2183582E+004  0.1043930E+01  0.7957747E-01            NaN
         13   -1    0    0    0    0  0.00000000000E+00  0.00000000000E+00  0.74505805969E-08  0.10566000000E+00  0.10566000000E+00 0. -1.
     999900   -1    0    0    0    0 -0.00000000000E+00 -0.00000000000E+00 -0.74505805969E-08  0.93827000000E+00  0.93827000000E+00 0.  1.
     999902    2    1    2    0    0 -0.88246864552E-02 -0.80083674805E-02 -0.12305461413E-01  0.10268001015E+01  0.10266572043E+01 0.  0.
     999903    2    3    3    0    0 -0.10786862707E-01  0.96765740652E-01  0.83349367156E-01  0.13543524353E+00  0.43767833081E-01 0.  0.
         14    1    1    2    0    0  0.88246864552E-02  0.80083674805E-02  0.12305461413E-01  0.17129898462E-01  0.00000000000E+00 0. -1.
     999901    1    3    3    0    0  0.19621762522E-02 -0.10477410813E+00 -0.95654828569E-01  0.89136485801E+00  0.88000000000E+00 0. -1.
        -11    1    4    4    0    0  0.79925654501E-02  0.61791710801E-01  0.69613523826E-01  0.93425908862E-01  0.51100000000E-03 0. -1.
         11    1    4    4    0    0 -0.18779428157E-01  0.34974029850E-01  0.13735843330E-01  0.42009334664E-01  0.51100000000E-03 0.  1.
</event>
<event>
 8    1  0.2183582E+004  0.1043930E+01  0.7957747E-01            NaN
         13   -1    0    0    0    0  0.00000000000E+00  0.00000000000E+00  0.74505805969E-08  0.10566000000E+00  0.10566000000E+00 0. -1.
     999900   -1    0    0    0    0 -0.00000000000E+00 -0.00000000000E+00 -0.74505805969E-08  0.93827000000E+00  0.93827000000E+00 0. -1.
     999902    2    1    2    0    0 -0.23995226593E-02  0.12484598144E-01  0.58191990069E-02  0.10299483700E+01  0.10298534648E+01 0.  0.
     999903    2    3    3    0    0 -0.78573014397E-01 -0.75863055688E-01 -0.72536631367E-01  0.13879891851E+00  0.45548381734E-01 0.  0.
         14    1    1    2    0    0  0.23995226593E-02 -0.12484598144E-01 -0.58191990069E-02  0.13981629980E-01  0.00000000000E+00 0. -1.
     999901    1    3    3    0    0  0.76173491738E-01  0.88347653832E-01  0.78355830373E-01  0.89114945151E+00  0.88000000000E+00 0. -1.
        -11    1    4    4    0    0 -0.63507988961E-01 -0.62797554074E-01 -0.34304836642E-01  0.95675913361E-01  0.51100000000E-03 0.  1.
         11    1    4    4    0    0 -0.15065025437E-01 -0.13065501614E-01 -0.38231794724E-01  0.43123005144E-01  0.51100000000E-03 0. -1.
</event>
<event>
 8    1  0.2183582E+004  0.1043930E+01  0.7957747E-01            NaN
         13   -1    0    0    0    0  0.00000000000E+00  0.00000000000E+00  0.74505805969E-08  0.10566000000E+00  0.10566000000E+00 0.  1.
     999900   -1    0    0    0    0 -0.00000000000E+00 -0.00000000000E+00 -0.74505805969E-08  0.93827000000E+00  0.93827000000E+00 0.  1.
     999902    2    1    2    0    0  0.96559324441E-02  0.70540821645E-02  0.66415841753E-02  0.10302512666E+01  0.10301604558E+01 0.  0.
     999903    2    3    3    0    0 -0.29222359788E-01  0.11946644262E+00  0.52170172415E-01  0.14108260279E+00  0.45347510351E-01 0.  0.
         14    1    1    2    0    0 -0.96559324441E-02 -0.70540821645E-02 -0.66415841753E-02  0.13678733381E-01  0.00000000000E+00 0.  1.
     999901    1    3    3    0    0  0.38878292232E-01 -0.11241236046E+00 -0.45528588240E-01  0.88916866383E+00  0.88000000000E+00 0. -1.
        -11    1    4    4    0    0  0.46858400742E-02  0.75019382831E-01  0.30698830346E-01  0.81194483822E-01  0.51100000000E-03 0.  1.
         11    1    4    4    0    0 -0.33908199862E-01  0.44447059793E-01  0.21471342069E-01  0.59888118966E-01  0.51100000000E-03 0. -1.
</event>
<event>
 8    1  0.2183582E+004  0.1043930E+01  0.7957747E-01            NaN
         13   -1    0    0    0    0  0.00000000000E+00  0.00000000000E+00  0.74505805969E-08  0.10566000000E+00  0.10566000000E+00 0.  1.
     999900   -1    0    0    0    0 -0.00000000000E+00 -0.00000000000E+00 -0.74505805969E-08  0.93827000000E+00  0.93827000000E+00 0.  1.
     999902    2    1    2    0    0  0.48451496283E-03  0.10149666074E-01 -0.95983026764E-02  0.10299522359E+01  0.10298573835E+01 0.  0.
     999903    2    3    3    0    0 -0.12310816314E+00  0.22632480750E-01  0.41921557572E-01  0.13973582018E+00  0.45834849569E-01 0.  0.
         14    1    1    2    0    0 -0.48451496283E-03 -0.10149666074E-01  0.95983026764E-02  0.13977764143E-01  0.00000000000E+00 0.  1.
     999901    1    3    3    0    0  0.12359267810E+00 -0.12482814676E-01 -0.51519860249E-01  0.89021641568E+00  0.88000000000E+00 0. -1.
        -11    1    4    4    0    0 -0.65499838266E-01  0.99639988653E-02  0.45921030628E-01  0.80613350391E-01  0.51100000000E-03 0.  1.
         11    1    4    4    0    0 -0.57608324874E-01  0.12668481885E-01 -0.39994730559E-02  0.59122469788E-01  0.51100000000E-03 0. -1.
</event>
<event>
 8    1  0.2183582E+004  0.1043930E+01  0.7957747E-01            NaN
         13   -1    0    0    0    0  0.00000000000E+00  0.00000000000E+00  0.74505805969E-08  0.10566000000E+00  0.10566000000E+00 0. -1.
     999900   -1    0    0    0    0 -0.00000000000E+00 -0.00000000000E+00 -0.74505805969E-08  0.93827000000E+00  0.93827000000E+00 0. -1.
     999902    2    1    2    0    0  0.13963070378E-02 -0.94438716985E-03 -0.10480452982E-01  0.10333148488E+01  0.10332603231E+01 0.  0.
     999903    2    3    3    0    0  0.99231868980E-01 -0.93902867137E-01  0.20886812027E-01  0.14247424493E+00  0.34611259341E-01 0.  0.
         14    1    1    2    0    0 -0.13963070378E-02  0.94438716985E-03  0.10480452982E-01  0.10615151208E-01  0.00000000000E+00 0. -1.
     999901    1    3    3    0    0 -0.97835561942E-01  0.92958479968E-01 -0.31367265009E-01  0.89084060386E+00  0.88000000000E+00 0.  1.
        -11    1    4    4    0    0  0.45641601461E-01 -0.57301596577E-01  0.25098344838E-01  0.77439116658E-01  0.51100000000E-03 0.  1.
         11    1    4    4    0    0  0.53590267519E-01 -0.36601270561E-01 -0.42115328113E-02  0.65035128269E-01  0.51100000000E-03 0. -1.
</event>
<event>
 7    1  0.2183582E+004  0.1043930E+01  0.7957747E-01            NaN
         13   -1    0    0    0    0  0.00000000000E+00  0.00000000000E+00  0.74505805969E-08  0.10566000000E+00  0.10566000000E+00 0.  1.
     999900   -1    0    0    0    0 -0.00000000000E+00 -0.00000000000E+00 -0.74505805969E-08  0.93827000000E+00  0.93827000000E+00 0. -1.
     999903    2    1    2    0    0 -0.24854612495E-01 -0.30057753078E-01 -0.11079342798E+00  0.12593610463E+00  0.45425746928E-01 0.  0.
         14    1    1    2    0    0  0.23873557771E-01  0.66208595332E-02  0.22144670508E-01  0.33229038107E-01  0.00000000000E+00 0.  1.
     999901    1    1    2    0    0  0.98105472361E-03  0.23436893545E-01  0.88648757469E-01  0.88476485726E+00  0.88000000000E+00 0.  1.
        -11    1    3    3    0    0 -0.16839183854E-01 -0.40964541347E-01 -0.68916513673E-01  0.81923127006E-01  0.51100000000E-03 0.  1.
         11    1    3    3    0    0 -0.80154286403E-02  0.10906788269E-01 -0.41876914305E-01  0.44012977624E-01  0.51100000000E-03 0. -1.
</event>
<event>
 8    1  0.2183582E+004  0.1043930E+01  0.7957747E-01            NaN
         13   -1    0    0    0    0  0.00000000000E+00  0.00000000000E+00  0.74505805969E-08  0.10566000000E+00  0.10566000000E+00 0.  1.
     999900   -1    0    0    0    0 -0.00000000000E+00 -0.00000000000E+00 -0.74505805969E-08  0.93827000000E+00  0.93827000000E+00 0.  1.
     999902    2    1    2    0    0 -0.27727091843E-02 -0.20964066794E-02  0.13175625732E-01  0.10303035569E+01  0.10302134437E+01 0.  0.
     999903    2    3    3    0    0 -0.96932980280E-01 -0.33606325655E-02 -0.89495656096E-01  0.13934387938E+00  0.44720775292E-01 0.  0.
         14    1    1    2    0    0  0.27727091843E-02  0.20964066794E-02 -0.13175625732E-01  0.13626443066E-01  0.00000000000E+00 0. -1.
     999901    1    3    3    0    0  0.94160271096E-01  0.12642258861E-02  0.10267128183E+00  0.89095967756E+00  0.88000000000E+00 0. -1.
        -11    1    4    4    0    0 -0.68674549373E-01  0.17525961416E-01 -0.67549962443E-01  0.97911243492E-01  0.51100000000E-03 0.  1.
         11    1    4    4    0    0 -0.28258430907E-01 -0.20886593982E-01 -0.21945693653E-01  0.41432635885E-01  0.51100000000E-03 0. -1.
</event>
<event>
 8    1  0.2183582E+004  0.1043930E+01  0.7957747E-01            NaN
         13   -1    0    0    0    0  0.00000000000E+00  0.00000000000E+00  0.74505805969E-08  0.10566000000E+00  0.10566000000E+00 0. -1.
     999900   -1    0    0    0    0 -0.00000000000E+00 -0.00000000000E+00 -0.74505805969E-08  0.93827000000E+00  0.93827000000E+00 0. -1.
     999902    2    1    2    0    0  0.13678831105E-01 -0.30889812460E-02  0.10688060347E-03  0.10299063183E+01  0.10298108374E+01 0.  0.
     999903    2    3    3    0    0  0.12083634875E+00  0.47467343159E-01  0.33763631413E-01  0.14132798611E+00  0.44486458679E-01 0.  0.
         14    1    1    2    0    0 -0.13678831105E-01  0.30889812460E-02 -0.10688060347E-03  0.14023681720E-01  0.00000000000E+00 0. -1.
     999901    1    3    3    0    0 -0.10715751765E+00 -0.50556324405E-01 -0.33656750810E-01  0.88857833217E+00  0.88000000000E+00 0.  1.
        -11    1    4    4    0    0  0.69960821890E-01  0.21212000042E-01  0.40671816867E-01  0.83659568213E-01  0.51100000000E-03 0.  1.
         11    1    4    4    0    0  0.50875526860E-01  0.26255343117E-01 -0.69081854535E-02  0.57668417897E-01  0.51100000000E-03 0. -1.
</event>
<event>
 7    1  0.2183582E+004  0.1043930E+01  0.7957747E-01            NaN
         13   -1    0    0    0    0  0.00000000000E+00  0.00000000000E+00  0.74505805969E-08  0.10566000000E+00  0.10566000000E+00 0. -1.
     999900   -1    0    0    0    0 -0.00000000000E+00 -0.00000000000E+00 -0.74505805969E-08  0.93827000000E+00  0.93827000000E+00 0.  1.
     999903    2    1    2    0    0 -0.89363437822E-01  0.52642593339E-01  0.18194863517E-01  0.11467388623E+00  0.45409035146E-01 0.  0.
         14    1    1    2    0    0  0.35270145411E-01 -0.27319082055E-01  0.13657295304E-01  0.46656587066E-01  0.00000000000E+00 0. -1.
     999901    1    1    2    0    0  0.54093292411E-01 -0.25323511284E-01 -0.31852158821E-01  0.88259952670E+00  0.88000000000E+00 0.  1.
        -11    1    3    3    0    0  0.95459929387E-03  0.56039557146E-02  0.11235336463E-01  0.12601963573E-01  0.51100000000E-03 0. -1.
         11    1    3    3    0    0 -0.90318037116E-01  0.47038637624E-01  0.69595270544E-02  0.10207192266E+00  0.51100000000E-03 0.  1.
</event>
<event>
 8    1  0.2183582E+004  0.1043930E+01  0.7957747E-01            NaN
         13   -1    0    0    0    0  0.00000000000E+00  0.00000000000E+00  0.74505805969E-08  0.10566000000E+00  0.10566000000E+00 0. -1.
     999900   -1    0    0    0    0 -0.00000000000E+00 -0.00000000000E+00 -0.74505805969E-08  0.93827000000E+00  0.93827000000E+00 0. -1.
     999902    2    1    2    0    0 -0.52138886597E-02 -0.50270407374E-02 -0.11465362614E-01  0.10303686463E+01  0.10302793976E+01 0.  0.
     999903    2    3    3    0    0 -0.65328620035E-01  0.45638633723E-01  0.10505119830E+00  0.13921383348E+00  0.44654492330E-01 0.  0.
         14    1    1    2    0    0  0.52138886597E-02  0.50270407374E-02  0.11465362614E-01  0.13561353671E-01  0.00000000000E+00 0. -1.
     999901    1    3    3    0    0  0.60114731375E-01 -0.50665674461E-01 -0.11651656091E+00  0.89115481285E+00  0.88000000000E+00 0. -1.
        -11    1    4    4    0    0 -0.48647342483E-01  0.38492599290E-01  0.45436071375E-01  0.76895655493E-01  0.51100000000E-03 0.  1.
         11    1    4    4    0    0 -0.16681277552E-01  0.71460344336E-02  0.59615126921E-01  0.62318177987E-01  0.51100000000E-03 0. -1.
</event>
<event>
 8    1  0.2183582E+004  0.1043930E+01  0.7957747E-01            NaN
         13   -1    0    0    0    0  0.00000000000E+00  0.00000000000E+00  0.74505805969E-08  0.10566000000E+00  0.10566000000E+00 0.  1.
     999900   -1    0    0    0    0 -0.00000000000E+00 -0.00000000000E+00 -0.74505805969E-08  0.93827000000E+00  0.93827000000E+00 0. -1.
     999902    2    1    2    0    0 -0.99237883100E-02 -0.91469476290E-02  0.17226513486E-02  0.10303242750E+01  0.10302344373E+01 0.  0.
     999903    2    3    3    0    0  0.67152333101E-01 -0.83097272966E-01  0.79534322575E-01  0.14045684931E+00  0.44585036003E-01 0.  0.
         14    1    1    2    0    0  0.99237883100E-02  0.91469476290E-02 -0.17226513486E-02  0.13605725009E-01  0.00000000000E+00 0. -1.
     999901    1    3    3    0    0 -0.77076121411E-01  0.73950325337E-01 -0.77811671226E-01  0.88986742568E+00  0.88000000000E+00 0. -1.
        -11    1    4    4    0    0  0.35553890463E-01 -0.65119282841E-01  0.32481094134E-01  0.80993102928E-01  0.51100000000E-03 0.  1.
         11    1    4    4    0    0  0.31598442638E-01 -0.17977990125E-01  0.47053228441E-01  0.59463746382E-01  0.51100000000E-03 0. -1.
</event>
<event>
 8    1  0.2183582E+004  0.1043930E+01  0.7957747E-01            NaN
         13   -1    0    0    0    0  0.00000000000E+00  0.00000000000E+00  0.74505805969E-08  0.10566000000E+00  0.10566000000E+00 0. -1.
     999900   -1    0    0    0    0 -0.00000000000E+00 -0.00000000000E+00 -0.74505805969E-08  0.93827000000E+00  0.93827000000E+00 0.  1.
     999902    2    1    2    0    0  0.49696340439E-02 -0.12034403106E-01  0.48646527269E-02  0.10300307566E+01  0.10299369741E+01 0.  0.
     999903    2    3    3    0    0  0.12827725199E+00  0.17995608767E-01 -0.27959742780E-01  0.14032068518E+00  0.46143820391E-01 0.  0.
         14    1    1    2    0    0 -0.49696340439E-02  0.12034403106E-01 -0.48646527269E-02  0.13899243389E-01  0.00000000000E+00 0.  1.
     999901    1    3    3    0    0 -0.12330761795E+00 -0.30030011873E-01  0.32824395506E-01  0.88971007143E+00  0.88000000000E+00 0. -1.
        -11    1    4    4    0    0  0.46495573269E-01  0.25111314819E-02 -0.32777189474E-01  0.56945143653E-01  0.51100000000E-03 0.  1.
         11    1    4    4    0    0  0.81781678725E-01  0.15484477286E-01  0.48174466940E-02  0.83375541531E-01  0.51100000000E-03 0. -1.
</event>
<event>
 8    1  0.2183582E+004  0.1043930E+01  0.7957747E-01            NaN
         13   -1    0    0    0    0  0.00000000000E+00  0.00000000000E+00  0.74505805969E-08  0.10566000000E+00  0.10566000000E+00 0. -1.
     999900   -1    0    0    0    0 -0.00000000000E+00 -0.00000000000E+00 -0.74505805969E-08  0.93827000000E+00  0.93827000000E+00 0.  1.
     999902    2    1    2    0    0  0.53860425508E-02  0.12225750440E-01  0.55960926692E-02  0.10294457092E+01  0.10293438072E+01 0.  0.
     999903    2    3    3    0    0 -0.11594864676E+00 -0.19620466705E-01  0.58701070176E-01  0.13896470036E+00  0.45125612551E-01 0.  0.
         14    1    1    2    0    0 -0.53860425508E-02 -0.12225750440E-01 -0.55960926692E-02  0.14484290847E-01  0.00000000000E+00 0.  1.
     999901    1    3    3    0    0  0.12133468931E+00  0.31846217146E-01 -0.53104977507E-01  0.89048100879E+00  0.88000000000E+00 0.  1.
        -11    1    4    4    0    0 -0.10669737933E+00 -0.65828370042E-02  0.39478991048E-01  0.11395839747E+00  0.51100000000E-03 0. -1.
         11    1    4    4    0    0 -0.92512674274E-02 -0.13037629701E-01  0.19222079128E-01  0.25006302890E-01  0.51100000000E-03 0.  1.
</event>
<event>
 8    1  0.2183582E+004  0.1043930E+01  0.7957747E-01            NaN
         13   -1    0    0    0    0  0.00000000000E+00  0.00000000000E+00  0.74505805969E-08  0.10566000000E+00  0.10566000000E+00 0.  1.
     999900   -1    0    0    0    0 -0.00000000000E+00 -0.00000000000E+00 -0.74505805969E-08  0.93827000000E+00  0.93827000000E+00 0. -1.
     999902    2    1    2    0    0 -0.46063259151E-02  0.13249023552E-01 -0.21550888026E-02  0.10297384789E+01  0.10296406828E+01 0.  0.
     999903    2    3    3    0    0  0.24311241636E-01 -0.12202246230E+00  0.39294293401E-01  0.13796908500E+00  0.44843161655E-01 0.  0.
         14    1    1    2    0    0  0.46063259151E-02 -0.13249023552E-01  0.21550888026E-02  0.14191521104E-01  0.00000000000E+00 0. -1.
     999901    1    3    3    0    0 -0.28917567551E-01  0.13527148585E+00 -0.41449382204E-01  0.89176939389E+00  0.88000000000E+00 0. -1.
        -11    1    4    4    0    0  0.34334838704E-02 -0.81283808872E-01  0.64242815062E-02  0.81611144521E-01  0.51100000000E-03 0. -1.
         11    1    4    4    0    0  0.20877757765E-01 -0.40738653428E-01  0.32870011895E-01  0.56357940482E-01  0.51100000000E-03 0.  1.
</event>
<event>
 8    1  0.2183582E+004  0.1043930E+01  0.7957747E-01            NaN
         13   -1    0    0    0    0  0.00000000000E+00  0.00000000000E+00  0.74505805969E-08  0.10566000000E+00  0.10566000000E+00 0. -1.
     999900   -1    0    0    0    0 -0.00000000000E+00 -0.00000000000E+00 -0.74505805969E-08  0.93827000000E+00  0.93827000000E+00 0. -1.
     999902    2    1    2    0    0  0.35038796930E-02  0.10525552315E-01  0.81790770273E-02  0.10301473397E+01  0.10300551343E+01 0.  0.
     999903    2    3    3    0    0  0.80739473656E-01  0.10344005992E+00  0.26531736236E-01  0.14170192054E+00  0.46441281777E-01 0.  0.
         14    1    1    2    0    0 -0.35038796930E-02 -0.10525552315E-01 -0.81790770273E-02  0.13782660319E-01  0.00000000000E+00 0. -1.
     999901    1    3    3    0    0 -0.77235593963E-01 -0.92914507607E-01 -0.18352659208E-01  0.88844541914E+00  0.88000000000E+00 0. -1.
        -11    1    4    4    0    0  0.50780506626E-01  0.37952018205E-01 -0.39030020350E-02  0.63517793451E-01  0.51100000000E-03 0. -1.
         11    1    4    4    0    0  0.29958967030E-01  0.65488041718E-01  0.30434738271E-01  0.78184127086E-01  0.51100000000E-03 0.  1.
</event>
<event>
 8    1  0.2183582E+004  0.1043930E+01  0.7957747E-01            NaN
         13   -1    0    0    0    0  0.00000000000E+00  0.00000000000E+00  0.74505805969E-08  0.10566000000E+00  0.10566000000E+00 0. -1.
     999900   -1    0    0    0    0 -0.00000000000E+00 -0.00000000000E+00 -0.74505805969E-08  0.93827000000E+00  0.93827000000E+00 0. -1.
     999902    2    1    2    0    0  0.49811334001E-02  0.64329005045E-03 -0.16772894502E-01  0.10264212735E+01  0.10262719305E+01 0.  0.
     999903    2    3    3    0    0 -0.17444599710E-01 -0.11771108328E+00  0.47217088463E-01  0.13591277324E+00  0.45635680142E-01 0.  0.
         14    1    1    2    0    0 -0.49811334001E-02 -0.64329005045E-03  0.16772894502E-01  0.17508726453E-01  0.00000000000E+00 0. -1.
     999901    1    3    3    0    0  0.22425733110E-01  0.11835437333E+00 -0.63989982965E-01  0.89050850030E+00  0.88000000000E+00 0. -1.
        -11    1    4    4    0    0 -0.10071752331E-01 -0.10477035261E-02  0.91735138352E-03  0.10180399415E-01  0.51100000000E-03 0. -1.
         11    1    4    4    0    0 -0.73728473789E-02 -0.11666337975E+00  0.46299737080E-01  0.12573237383E+00  0.51100000000E-03 0.  1.
</event>
<event>
 8    1  0.2183582E+004  0.1043930E+01  0.7957747E-01            NaN
         13   -1    0    0    0    0  0.00000000000E+00  0.00000000000E+00  0.74505805969E-08  0.10566000000E+00  0.10566000000E+00 0. -1.
     999900   -1    0    0    0    0 -0.00000000000E+00 -0.00000000000E+00 -0.74505805969E-08  0.93827000000E+00  0.93827000000E+00 0.  1.
     999902    2    1    2    0    0 -0.65250888429E-02 -0.70470164911E-02 -0.98349355706E-02  0.10301836120E+01  0.10300918945E+01 0.  0.
     999903    2    3    3    0    0 -0.12549845428E+00  0.42052807137E-01  0.11729143522E-01  0.14055983540E+00  0.45838781664E-01 0.  0.
         14    1    1    2    0    0  0.65250888429E-02  0.70470164911E-02  0.98349355706E-02  0.13746388017E-01  0.00000000000E+00 0.  1.
     999901    1    3    3    0    0  0.11897336543E+00 -0.49099823628E-01 -0.21564079093E-01  0.88962377659E+00  0.88000000000E+00 0. -1.
        -11    1    4    4    0    0 -0.46891209491E-01  0.35990196916E-01  0.17094751673E-01  0.61535123770E-01  0.51100000000E-03 0.  1.
         11    1    4    4    0    0 -0.78607244787E-01  0.60626102205E-02 -0.53656081509E-02  0.79024711626E-01  0.51100000000E-03 0. -1.
</event>
<event>
 8    1  0.2183582E+004  0.1043930E+01  0.7957747E-01            NaN
         13   -1    0    0    0    0  0.00000000000E+00  0.00000000000E+00  0.74505805969E-08  0.10566000000E+00  0.10566000000E+00 0. -1.
     999900   -1    0    0    0    0 -0.00000000000E+00 -0.00000000000E+00 -0.74505805969E-08  0.93827000000E+00  0.93827000000E+00 0. -1.
     999902    2    1    2    0    0 -0.66817703637E-02 -0.88384431835E-02  0.83201738905E-02  0.10300739751E+01  0.10299807788E+01 0.  0.
     999903    2    3    3    0    0  0.11834114829E+00 -0.71445248478E-02 -0.55752202244E-01  0.13892927923E+00  0.46231644556E-01 0.  0.
         14    1    1    2    0    0  0.66817703637E-02  0.88384431835E-02 -0.83201738905E-02  0.13856024923E-01  0.00000000000E+00 0.  1.
     999901    1    3    3    0    0 -0.12502291866E+00 -0.16939183357E-02  0.64072376135E-01  0.89114469584E+00  0.88000000000E+00 0.  1.
        -11    1    4    4    0    0  0.34699292313E-01 -0.16728923374E-01 -0.35386641681E-01  0.52310355521E-01  0.51100000000E-03 0.  1.
         11    1    4    4    0    0  0.83641855980E-01  0.95843985263E-02 -0.20365560564E-01  0.86618923711E-01  0.51100000000E-03 0. -1.
</event>
<event>
 8    1  0.2183582E+004  0.1043930E+01  0.7957747E-01            NaN
         13   -1    0    0    0    0  0.00000000000E+00  0.00000000000E+00  0.74505805969E-08  0.10566000000E+00  0.10566000000E+00 0.  1.
     999900   -1    0    0    0    0 -0.00000000000E+00 -0.00000000000E+00 -0.74505805969E-08  0.93827000000E+00  0.93827000000E+00 0. -1.
     999902    2    1    2    0    0 -0.73802560203E-03 -0.55271684311E-02 -0.13163415628E-01  0.10296342040E+01  0.10295349553E+01 0.  0.
     999903    2    3    3    0    0  0.89980936520E-01 -0.69680305342E-01 -0.70180378849E-01  0.14081673726E+00  0.44183187161E-01 0.  0.
         14    1    1    2    0    0  0.73802560203E-03  0.55271684311E-02  0.13163415628E-01  0.14295796013E-01  0.00000000000E+00 0.  1.
     999901    1    3    3    0    0 -0.90718962122E-01  0.64153136911E-01  0.57016963221E-01  0.88881746673E+00  0.88000000000E+00 0.  1.
        -11    1    4    4    0    0  0.30666118061E-01 -0.41290414046E-01 -0.11553427502E-01  0.52716713640E-01  0.51100000000E-03 0.  1.
         11    1    4    4    0    0  0.59314818459E-01 -0.28389891296E-01 -0.58626951346E-01  0.88100023620E-01  0.51100000000E-03 0. -1.
</event>
<event>
 8    1  0.2183582E+004  0.1043930E+01  0.7957747E-01            NaN
         13   -1    0    0    0    0  0.00000000000E+00  0.00000000000E+00  0.74505805969E-08  0.10566000000E+00  0.10566000000E+00 0.  1.
     999900   -1    0    0    0    0 -0.00000000000E+00 -0.00000000000E+00 -0.74505805969E-08  0.93827000000E+00  0.93827000000E+00 0.  1.
     999902    2    1    2    0    0  0.14128409264E-01  0.19123988793E-02  0.42774410731E-02  0.10290449162E+01  0.10289372546E+01 0.  0.
     999903    2    3    3    0    0  0.90999386499E-01  0.73532643339E-01 -0.65499074329E-01  0.14005258290E+00  0.40455645572E-01 0.  0.
         14    1    1    2    0    0 -0.14128409264E-01 -0.19123988793E-02 -0.42774410731E-02  0.14885083807E-01  0.00000000000E+00 0. -1.
     999901    1    3    3    0    0 -0.76870977235E-01 -0.71620244460E-01  0.69776515402E-01  0.88899233330E+00  0.88000000000E+00 0. -1.
        -11    1    4    4    0    0  0.54069642278E-02 -0.36729198161E-02 -0.10393204003E-01  0.12288425961E-01  0.51100000000E-03 0.  1.
         11    1    4    4    0    0  0.85592422271E-01  0.77205563155E-01 -0.55105870325E-01  0.12776415694E+00  0.51100000000E-03 0. -1.
</event>
<event>
 8    1  0.2183582E+004  0.1043930E+01  0.7957747E-01            NaN
         13   -1    0    0    0    0  0.00000000000E+00  0.00000000000E+00  0.74505805969E-08  0.10566000000E+00  0.10566000000E+00 0. -1.
     999900   -1    0    0    0    0 -0.00000000000E+00 -0.00000000000E+00 -0.74505805969E-08  0.93827000000E+00  0.93827000000E+00 0.  1.
     999902    2    1    2    0    0 -0.77882678836E-02  0.11403626922E-01 -0.71453619487E-03  0.10301021157E+01  0.10300093001E+01 0.  0.
     999903    2    3    3    0    0 -0.76234831219E-01 -0.57292009981E-01  0.92294064898E-01  0.13990291186E+00  0.44277606434E-01 0.  0.
         14    1    1    2    0    0  0.77882678836E-02 -0.11403626922E-01  0.71453619487E-03  0.13827884349E-01  0.00000000000E+00 0.  1.
     999901    1    3    3    0    0  0.68446563336E-01  0.68695636903E-01 -0.93008601093E-01  0.89019920380E+00  0.88000000000E+00 0.  1.
        -11    1    4    4    0    0 -0.57105937073E-01 -0.28739480968E-01  0.82089960227E-01  0.10404839502E+00  0.51100000000E-03 0. -1.
         11    1    4    4    0    0 -0.19128894147E-01 -0.28552529013E-01  0.10204104671E-01  0.35854516835E-01  0.51100000000E-03 0.  1.
</event>
<event>
 8    1  0.2183582E+004  0.1043930E+01  0.7957747E-01            NaN
         13   -1    0    0    0    0  0.00000000000E+00  0.00000000000E+00  0.74505805969E-08  0.10566000000E+00  0.10566000000E+00 0. -1.
     999900   -1    0    0    0    0 -0.00000000000E+00 -0.00000000000E+00 -0.74505805969E-08  0.93827000000E+00  0.93827000000E+00 0.  1.
     999902    2    1    2    0    0 -0.11762185896E-01 -0.50995020069E-02 -0.48002385276E-02  0.10302407258E+01  0.10301497740E+01 0.  0.
     999903    2    3    3    0    0 -0.44635327930E-01  0.11293292701E+00 -0.54010308200E-01  0.14039021662E+00  0.45234290398E-01 0.  0.
         14    1    1    2    0    0  0.11762185896E-01  0.50995020069E-02  0.48002385276E-02  0.13689274184E-01  0.00000000000E+00 0. -1.
     999901    1    3    3    0    0  0.32873142034E-01 -0.11803242901E+00  0.49210069672E-01  0.88985050920E+00  0.88000000000E+00 0.  1.
        -11    1    4    4    0    0  0.19818039666E-02  0.54626202296E-01 -0.27301633275E-01  0.61103108143E-01  0.51100000000E-03 0.  1.
         11    1    4    4    0    0 -0.46617131896E-01  0.58306724711E-01 -0.26708674924E-01  0.79287108473E-01  0.51100000000E-03 0. -1.
</event>
<event>
 8    1  0.2183582E+004  0.1043930E+01  0.7957747E-01            NaN
         13   -1    0    0    0    0  0.00000000000E+00  0.00000000000E+00  0.74505805969E-08  0.10566000000E+00  0.10566000000E+00 0.  1.
     999900   -1    0    0    0    0 -0.00000000000E+00 -0.00000000000E+00 -0.74505805969E-08  0.93827000000E+00  0.93827000000E+00 0. -1.
     999902    2    1    2    0    0  0.65509235458E-02  0.13873776632E-02  0.13600073065E-01  0.10287707981E+01  0.10286591046E+01 0.  0.
     999903    2    3    3    0    0 -0.12978631594E+00 -0.81713681679E-03 -0.12320940442E-01  0.13789224197E+00  0.44914466531E-01 0.  0.
         14    1    1    2    0    0 -0.65509235458E-02 -0.13873776632E-02 -0.13600073065E-01  0.15159201940E-01  0.00000000000E+00 0. -1.
     999901    1    3    3    0    0  0.13633723949E+00  0.22045144800E-02  0.25921013507E-01  0.89087855609E+00  0.88000000000E+00 0.  1.
        -11    1    4    4    0    0 -0.76864598774E-01 -0.10512655114E-01  0.12596191137E-01  0.78597758330E-01  0.51100000000E-03 0.  1.
         11    1    4    4    0    0 -0.52921717171E-01  0.96955182972E-02 -0.24917131579E-01  0.59294483643E-01  0.51100000000E-03 0. -1.
</event>
<event>
 8    1  0.2183582E+004  0.1043930E+01  0.7957747E-01            NaN
         13   -1    0    0    0    0  0.00000000000E+00  0.00000000000E+00  0.74505805969E-08  0.10566000000E+00  0.10566000000E+00 0.  1.
     999900   -1    0    0    0    0 -0.00000000000E+00 -0.00000000000E+00 -0.74505805969E-08  0.93827000000E+00  0.93827000000E+00 0.  1.
     999902    2    1    2    0    0  0.13973336546E-01  0.42766514391E-02 -0.32861187442E-02  0.10289519341E+01  0.10288429133E+01 0.  0.
     999903    2    3    3    0    0 -0.15623870493E-01 -0.82771714666E-01  0.99979240520E-01  0.13815613980E+00  0.44676709289E-01 0.  0.
         14    1    1    2    0    0 -0.13973336546E-01 -0.42766514391E-02  0.32861187442E-02  0.14978065902E-01  0.00000000000E+00 0.  1.
     999901    1    3    3    0    0  0.29597207039E-01  0.87048366105E-01 -0.10326535926E+00  0.89079579429E+00  0.88000000000E+00 0.  1.
        -11    1    4    4    0    0  0.97506961288E-02 -0.53189020532E-01  0.72582895540E-01  0.90513456602E-01  0.51100000000E-03 0.  1.
         11    1    4    4    0    0 -0.25374566622E-01 -0.29582694134E-01  0.27396344980E-01  0.47642683203E-01  0.51100000000E-03 0. -1.
</event>
<event>
 8    1  0.2183582E+004  0.1043930E+01  0.7957747E-01            NaN
         13   -1    0    0    0    0  0.00000000000E+00  0.00000000000E+00  0.74505805969E-08  0.10566000000E+00  0.10566000000E+00 0.  1.
     999900   -1    0    0    0    0 -0.00000000000E+00 -0.00000000000E+00 -0.74505805969E-08  0.93827000000E+00  0.93827000000E+00 0. -1.
     999902    2    1    2    0    0 -0.16385540521E-02  0.11569948235E-01 -0.75671544899E-03  0.10322201247E+01  0.10321537020E+01 0.  0.
     999903    2    3    3    0    0 -0.25840866232E-01  0.22873131079E-01  0.13073577612E+00  0.14204947296E+00  0.43534803533E-01 0.  0.
         14    1    1    2    0    0  0.16385540521E-02 -0.11569948235E-01  0.75671544899E-03  0.11709875311E-01  0.00000000000E+00 0.  1.
     999901    1    3    3    0    0  0.24202312180E-01 -0.11303182844E-01 -0.13149249157E+00  0.89017065173E+00  0.88000000000E+00 0. -1.
        -11    1    4    4    0    0 -0.70625108924E-02 -0.21056030607E-02  0.91913004158E-01  0.92209403418E-01  0.51100000000E-03 0.  1.
         11    1    4    4    0    0 -0.18778355340E-01  0.24978734139E-01  0.38822771959E-01  0.49840069543E-01  0.51100000000E-03 0. -1.
</event>
<event>
 8    1  0.2183582E+004  0.1043930E+01  0.7957747E-01            NaN
         13   -1    0    0    0    0  0.00000000000E+00  0.00000000000E+00  0.74505805969E-08  0.10566000000E+00  0.10566000000E+00 0. -1.
     999900   -1    0    0    0    0 -0.00000000000E+00 -0.00000000000E+00 -0.74505805969E-08  0.93827000000E+00  0.93827000000E+00 0. -1.
     999902    2    1    2    0    0  0.11541299787E-01  0.19451141423E-02 -0.82825222508E-02  0.10295917559E+01  0.10294919128E+01 0.  0.
     999903    2    3    3    0    0  0.10142386981E+00  0.83764754647E-01 -0.23805197138E-01  0.14110186657E+00  0.45163191317E-01 0.  0.
         14    1    1    2    0    0 -0.11541299787E-01 -0.19451141423E-02  0.82825222508E-02  0.14338244127E-01  0.00000000000E+00 0. -1.
     999901    1    3    3    0    0 -0.89882570020E-01 -0.81819640504E-01  0.15522674887E-01  0.88848988931E+00  0.88000000000E+00 0. -1.
        -11    1    4    4    0    0  0.60014362078E-01  0.22072888106E-01 -0.33479887711E-02  0.64034414144E-01  0.51100000000E-03 0. -1.
         11    1    4    4    0    0  0.41409507730E-01  0.61691866541E-01 -0.20457208367E-01  0.77067452422E-01  0.51100000000E-03 0.  1.
</event>
<event>
 8    1  0.2183582E+004  0.1043930E+01  0.7957747E-01            NaN
         13   -1    0    0    0    0  0.00000000000E+00  0.00000000000E+00  0.74505805969E-08  0.10566000000E+00  0.10566000000E+00 0.  1.
     999900   -1    0    0    0    0 -0.00000000000E+00 -0.00000000000E+00 -0.74505805969E-08  0.93827000000E+00  0.93827000000E+00 0. -1.
     999902    2    1    2    0    0 -0.12877074577E-01 -0.60178311604E-02  0.17523651734E-02  0.10296085432E+01  0.10295089354E+01 0.  0.
     999903    2    3    3    0    0 -0.76644333447E-01  0.99427861600E-01 -0.41953668167E-01  0.13994834133E+00  0.45444190557E-01 0.  0.
         14    1    1    2    0    0  0.12877074577E-01  0.60178311604E-02 -0.17523651734E-02  0.14321456813E-01  0.00000000000E+00 0.  1.
     999901    1    3    3    0    0  0.63767258870E-01 -0.10544569276E+00  0.43706033341E-01  0.88966020186E+00  0.88000000000E+00 0. -1.
        -11    1    4    4    0    0 -0.41856275910E-01  0.35002271280E-01  0.19037688555E-02  0.54598464124E-01  0.51100000000E-03 0.  1.
         11    1    4    4    0    0 -0.34788057537E-01  0.64425590319E-01 -0.43857437023E-01  0.85349877202E-01  0.51100000000E-03 0. -1.
</event>
<event>
 8    1  0.2183582E+004  0.1043930E+01  0.7957747E-01            NaN
         13   -1    0    0    0    0  0.00000000000E+00  0.00000000000E+00  0.74505805969E-08  0.10566000000E+00  0.10566000000E+00 0.  1.
     999900   -1    0    0    0    0 -0.00000000000E+00 -0.00000000000E+00 -0.74505805969E-08  0.93827000000E+00  0.93827000000E+00 0. -1.
     999902    2    1    2    0    0 -0.78650967231E-02  0.18028974643E-05 -0.11151235034E-01  0.10302841291E+01  0.10301937570E+01 0.  0.
     999903    2    3    3    0    0  0.12418299748E+00 -0.42638121522E-01 -0.10173288431E-01  0.13941050242E+00  0.45742388623E-01 0.  0.
         14    1    1    2    0    0  0.78650967231E-02 -0.18028974643E-05  0.11151235034E-01  0.13645870895E-01  0.00000000000E+00 0.  1.
     999901    1    3    3    0    0 -0.13204809421E+00  0.42639924420E-01 -0.97794660332E-03  0.89087362668E+00  0.88000000000E+00 0. -1.
        -11    1    4    4    0    0  0.83206436973E-02 -0.76633046908E-02 -0.14388620796E-01  0.18309912062E-01  0.51100000000E-03 0.  1.
         11    1    4    4    0    0  0.11586235379E+00 -0.34974816832E-01  0.42153323656E-02  0.12110059036E+00  0.51100000000E-03 0. -1.
</event>
<event>
 8    1  0.2183582E+004  0.1043930E+01  0.7957747E-01            NaN
         13   -1    0    0    0    0  0.00000000000E+00  0.00000000000E+00  0.74505805969E-08  0.10566000000E+00  0.10566000000E+00 0. -1.
     999900   -1    0    0    0    0 -0.00000000000E+00 -0.00000000000E+00 -0.74505805969E-08  0.93827000000E+00  0.93827000000E+00 0.  1.
     999902    2    1    2    0    0 -0.49188333512E-02 -0.11458779048E-01  0.60946277276E-02  0.10300504097E+01  0.10299568940E+01 0.  0.
     999903    2    3    3    0    0 -0.27410869669E-01 -0.18681983207E-01 -0.12774684589E+00  0.13961702849E+00  0.45533347511E-01 0.  0.
         14    1    1    2    0    0  0.49188333512E-02  0.11458779048E-01 -0.60946277276E-02  0.13879590265E-01  0.00000000000E+00 0.  1.
     999901    1    3    3    0    0  0.22492036317E-01  0.72232041593E-02  0.13384147362E+00  0.89043338125E+00  0.88000000000E+00 0. -1.
        -11    1    4    4    0    0  0.29133241782E-02  0.97288135936E-02 -0.54162564380E-01  0.55108817560E-01  0.51100000000E-03 0.  1.
         11    1    4    4    0    0 -0.30324193847E-01 -0.28410796801E-01 -0.73584281515E-01  0.84508210928E-01  0.51100000000E-03 0. -1.
</event>
<event>
 8    1  0.2183582E+004  0.1043930E+01  0.7957747E-01            NaN
         13   -1    0    0    0    0  0.00000000000E+00  0.00000000000E+00  0.74505805969E-08  0.10566000000E+00  0.10566000000E+00 0. -1.
     999900   -1    0    0    0    0 -0.00000000000E+00 -0.00000000000E+00 -0.74505805969E-08  0.93827000000E+00  0.93827000000E+00 0.  1.
     999902    2    1    2    0    0 -0.23609302722E-02  0.66524850155E-02  0.12427835092E-01  0.10296373224E+01  0.10295381173E+01 0.  0.
     999903    2    3    3    0    0 -0.88681199537E-01 -0.59284570117E-01  0.80240781191E-01  0.14036937637E+00  0.43427680712E-01 0.  0.
         14    1    1    2    0    0  0.23609302722E-02 -0.66524850155E-02 -0.12427835092E-01  0.14292677625E-01  0.00000000000E+00 0. -1.
     999901    1    3    3    0    0  0.86320269265E-01  0.65937055133E-01 -0.67812946099E-01  0.88926794600E+00  0.88000000000E+00 0.  1.
        -11    1    4    4    0    0 -0.60607540226E-01 -0.37171072728E-01  0.26601727623E-01  0.75913606248E-01  0.51100000000E-03 0. -1.
         11    1    4    4    0    0 -0.28073659312E-01 -0.22113497389E-01  0.53639053568E-01  0.64455770126E-01  0.51100000000E-03 0.  1.
</event>
<event>
 8    1  0.2183582E+004  0.1043930E+01  0.7957747E-01            NaN
         13   -1    0    0    0    0  0.00000000000E+00  0.00000000000E+00  0.74505805969E-08  0.10566000000E+00  0.10566000000E+00 0.  1.
     999900   -1    0    0    0    0 -0.00000000000E+00 -0.00000000000E+00 -0.74505805969E-08  0.93827000000E+00  0.93827000000E+00 0. -1.
     999902    2    1    2    0    0  0.36758732691E-02  0.12461851109E-01 -0.12343503856E-01  0.10260087315E+01  0.10258522044E+01 0.  0.
     999903    2    3    3    0    0 -0.31612240335E-01 -0.69919532111E-01  0.10092329897E+00  0.13423448210E+00  0.44105659487E-01 0.  0.
         14    1    1    2    0    0 -0.36758732691E-02 -0.12461851109E-01  0.12343503856E-01  0.17921268504E-01  0.00000000000E+00 0.  1.
     999901    1    3    3    0    0  0.35288113605E-01  0.82381383221E-01 -0.11326680283E+00  0.89177424940E+00  0.88000000000E+00 0. -1.
        -11    1    4    4    0    0 -0.40543454409E-01 -0.51130181034E-01  0.88638696047E-01  0.11006882695E+00  0.51100000000E-03 0.  1.
         11    1    4    4    0    0  0.89312140738E-02 -0.18789351077E-01  0.12284602928E-01  0.24165655150E-01  0.51100000000E-03 0. -1.
</event>
<event>
 8    1  0.2183582E+004  0.1043930E+01  0.7957747E-01            NaN
         13   -1    0    0    0    0  0.00000000000E+00  0.00000000000E+00  0.74505805969E-08  0.10566000000E+00  0.10566000000E+00 0. -1.
     999900   -1    0    0    0    0 -0.00000000000E+00 -0.00000000000E+00 -0.74505805969E-08  0.93827000000E+00  0.93827000000E+00 0. -1.
     999902    2    1    2    0    0  0.10818246535E-01 -0.61281789377E-02  0.77067322728E-02  0.10293018505E+01  0.10291978997E+01 0.  0.
     999903    2    3    3    0    0  0.16203935207E-02 -0.12705732232E+00 -0.35457467246E-01  0.13993600546E+00  0.46676169630E-01 0.  0.
         14    1    1    2    0    0 -0.10818246535E-01  0.61281789377E-02 -0.77067322728E-02  0.14628149490E-01  0.00000000000E+00 0. -1.
     999901    1    3    3    0    0  0.91978530139E-02  0.12092914338E+00  0.43164199519E-01  0.88936584505E+00  0.88000000000E+00 0. -1.
        -11    1    4    4    0    0 -0.18972108839E-01 -0.38616570269E-01 -0.17177710973E-02  0.43062655186E-01  0.51100000000E-03 0.  1.
         11    1    4    4    0    0  0.20592502360E-01 -0.88440752049E-01 -0.33739696149E-01  0.96873350276E-01  0.51100000000E-03 0. -1.
</event>
<event>
 8    1  0.2183582E+004  0.1043930E+01  0.7957747E-01            NaN
         13   -1    0    0    0    0  0.00000000000E+00  0.00000000000E+00  0.74505805969E-08  0.10566000000E+00  0.10566000000E+00 0. -1.
     999900   -1    0    0    0    0 -0.00000000000E+00 -0.00000000000E+00 -0.74505805969E-08  0.93827000000E+00  0.93827000000E+00 0.  1.
     999902    2    1    2    0    0 -0.93219536112E-02  0.95486970372E-02 -0.29587505022E-02  0.10302613995E+01  0.10301707241E+01 0.  0.
     999903    2    3    3    0    0 -0.69333751119E-01  0.98690265196E-01  0.59620074845E-01  0.14151861087E+00  0.43886517402E-01 0.  0.
         14    1    1    2    0    0  0.93219536112E-02 -0.95486970372E-02  0.29587505022E-02  0.13668600469E-01  0.00000000000E+00 0.  1.
     999901    1    3    3    0    0  0.60011797508E-01 -0.89141568158E-01 -0.62578825347E-01  0.88874278866E+00  0.88000000000E+00 0. -1.
        -11    1    4    4    0    0 -0.23650529846E-01  0.56023366956E-01  0.98317851912E-02  0.61602681177E-01  0.51100000000E-03 0.  1.
         11    1    4    4    0    0 -0.45683221273E-01  0.42666898239E-01  0.49788289654E-01  0.79915929694E-01  0.51100000000E-03 0. -1.
</event>
<event>
 8    1  0.2183582E+004  0.1043930E+01  0.7957747E-01            NaN
         13   -1    0    0    0    0  0.00000000000E+00  0.00000000000E+00  0.74505805969E-08  0.10566000000E+00  0.10566000000E+00 0. -1.
     999900   -1    0    0    0    0 -0.00000000000E+00 -0.00000000000E+00 -0.74505805969E-08  0.93827000000E+00  0.93827000000E+00 0. -1.
     999902    2    1    2    0    0  0.48092213506E-02 -0.80484759551E-02  0.68820759413E-02  0.10322994564E+01  0.10322339358E+01 0.  0.
     999903    2    3    3    0    0 -0.54549672131E-01 -0.10860452969E+00  0.60742734199E-01  0.14295364700E+00  0.44446089077E-01 0.  0.
         14    1    1    2    0    0 -0.48092213506E-02  0.80484759551E-02 -0.68820759413E-02  0.11630543601E-01  0.00000000000E+00 0.  1.
     999901    1    3    3    0    0  0.59358893482E-01  0.10055605374E+00 -0.53860658258E-01  0.88934580939E+00  0.88000000000E+00 0. -1.
        -11    1    4    4    0    0 -0.24932721297E-01 -0.56722209256E-01  0.55148022371E-01  0.82949473215E-01  0.51100000000E-03 0. -1.
         11    1    4    4    0    0 -0.29616950834E-01 -0.51882320438E-01  0.55947118277E-02  0.60004173790E-01  0.51100000000E-03 0.  1.
</event>
<event>
 8    1  0.2183582E+004  0.1043930E+01  0.7957747E-01            NaN
         13   -1    0    0    0    0  0.00000000000E+00  0.00000000000E+00  0.74505805969E-08  0.10566000000E+00  0.10566000000E+00 0. -1.
     999900   -1    0    0    0    0 -0.00000000000E+00 -0.00000000000E+00 -0.74505805969E-08  0.93827000000E+00  0.93827000000E+00 0.  1.
     999902    2    1    2    0    0  0.59735222178E-02 -0.10527102652E-01 -0.34242047227E-03  0.10318213209E+01  0.10317502693E+01 0.  0.
     999903    2    3    3    0    0  0.42329485587E-01  0.50530866541E-01 -0.11636565398E+00  0.14136569460E+00  0.45805462125E-01 0.  0.
         14    1    1    2    0    0 -0.59735222178E-02  0.10527102652E-01  0.34242047227E-03  0.12108679106E-01  0.00000000000E+00 0. -1.
     999901    1    3    3    0    0 -0.36355963369E-01 -0.61057969193E-01  0.11602323351E+00  0.89045562629E+00  0.88000000000E+00 0. -1.
        -11    1    4    4    0    0  0.19809731389E-01  0.29858398304E-01 -0.21719754009E-01  0.41904155428E-01  0.51100000000E-03 0.  1.
         11    1    4    4    0    0  0.22519754199E-01  0.20672468237E-01 -0.94645899976E-01  0.99461539177E-01  0.51100000000E-03 0. -1.
</event>
<event>
 8    1  0.2294567E+004  0.1043930E+01  0.7957747E-01            NaN
         13   -1    0    0    0    0  0.00000000000E+00  0.00000000000E+00  0.74505805969E-08  0.10566000000E+00  0.10566000000E+00 0. -1.
     999900   -1    0    0    0    0 -0.00000000000E+00 -0.00000000000E+00 -0.74505805969E-08  0.93827000000E+00  0.93827000000E+00 0.  1.
     999902    2    1    2    0    0 -0.77628497843E-02 -0.11207046552E-01  0.10054984181E-02  0.10302599321E+01  0.10301692370E+01 0.  0.
     999903    2    3    3    0    0  0.10872220706E+00  0.54544751073E-01  0.49708609427E-01  0.13882061259E+00  0.44772407239E-01 0.  0.
         14    1    1    2    0    0  0.77628497843E-02  0.11207046552E-01 -0.10054984181E-02  0.13670067896E-01  0.00000000000E+00 0.  1.
     999901    1    3    3    0    0 -0.11648505685E+00 -0.65751797626E-01 -0.48703111009E-01  0.89143931952E+00  0.88000000000E+00 0.  1.
        -11    1    4    4    0    0  0.53610780046E-01  0.19101699110E-01  0.46016641465E-01  0.73190047539E-01  0.51100000000E-03 0.  1.
         11    1    4    4    0    0  0.55111427015E-01  0.35443051963E-01  0.36919679621E-02  0.65630565048E-01  0.51100000000E-03 0. -1.
</event>
<event>
 8    1  0.2183582E+004  0.1043930E+01  0.7957747E-01            NaN
         13   -1    0    0    0    0  0.00000000000E+00  0.00000000000E+00  0.74505805969E-08  0.10566000000E+00  0.10566000000E+00 0. -1.
     999900   -1    0    0    0    0 -0.00000000000E+00 -0.00000000000E+00 -0.74505805969E-08  0.93827000000E+00  0.93827000000E+00 0. -1.
     999902    2    1    2    0    0  0.42100534826E-02 -0.46180754186E-02  0.11291752985E-01  0.10310243866E+01  0.10309436119E+01 0.  0.
     999903    2    3    3    0    0 -0.10192581833E+00  0.86213248794E-01  0.13847617976E-01  0.14000155573E+00  0.39838202428E-01 0.  0.
         14    1    1    2    0    0 -0.42100534826E-02  0.46180754186E-02 -0.11291752985E-01  0.12905613367E-01  0.00000000000E+00 0.  1.
     999901    1    3    3    0    0  0.10613587182E+00 -0.90831324212E-01 -0.25558649903E-02  0.89102283090E+00  0.88000000000E+00 0.  1.
        -11    1    4    4    0    0 -0.58304794581E-01  0.63253216519E-01  0.24742745862E-01  0.89514708651E-01  0.51100000000E-03 0. -1.
         11    1    4    4    0    0 -0.43621023753E-01  0.22960032275E-01 -0.10895127887E-01  0.50486847079E-01  0.51100000000E-03 0.  1.
</event>
<event>
 8    1  0.2183582E+004  0.1043930E+01  0.7957747E-01            NaN
         13   -1    0    0    0    0  0.00000000000E+00  0.00000000000E+00  0.74505805969E-08  0.10566000000E+00  0.10566000000E+00 0.  1.
     999900   -1    0    0    0    0 -0.00000000000E+00 -0.00000000000E+00 -0.74505805969E-08  0.93827000000E+00  0.93827000000E+00 0.  1.
     999902    2    1    2    0    0 -0.43524049150E-02 -0.48476527517E-02  0.12239316848E-01  0.10300647902E+01  0.10299714695E+01 0.  0.
     999903    2    3    3    0    0  0.49977704712E-01  0.78412124287E-01  0.95464818725E-01  0.14056468596E+00  0.44706455040E-01 0.  0.
         14    1    1    2    0    0  0.43524049150E-02  0.48476527517E-02 -0.12239316848E-01  0.13865209795E-01  0.00000000000E+00 0. -1.
     999901    1    3    3    0    0 -0.54330109627E-01 -0.83259777039E-01 -0.83225501877E-01  0.88950010424E+00  0.88000000000E+00 0. -1.
        -11    1    4    4    0    0  0.58499363260E-01  0.68197126677E-01  0.82481427901E-01  0.12196913814E+00  0.51100000000E-03 0.  1.
         11    1    4    4    0    0 -0.85216585480E-02  0.10214997610E-01  0.12983390824E-01  0.18595547824E-01  0.51100000000E-03 0. -1.
</event>
<event>
 8    1  0.2183582E+004  0.1043930E+01  0.7957747E-01            NaN
         13   -1    0    0    0    0  0.00000000000E+00  0.00000000000E+00  0.74505805969E-08  0.10566000000E+00  0.10566000000E+00 0. -1.
     999900   -1    0    0    0    0 -0.00000000000E+00 -0.00000000000E+00 -0.74505805969E-08  0.93827000000E+00  0.93827000000E+00 0. -1.
     999902    2    1    2    0    0 -0.11386168125E-01  0.15226121741E-02 -0.20714538267E-01  0.10202433948E+01  0.10199683962E+01 0.  0.
     999903    2    3    3    0    0 -0.87100798907E-01 -0.49106692056E-01  0.71920331179E-01  0.13070573350E+00  0.43742866355E-01 0.  0.
         14    1    1    2    0    0  0.11386168125E-01 -0.15226121741E-02  0.20714538267E-01  0.23686605244E-01  0.00000000000E+00 0. -1.
     999901    1    3    3    0    0  0.75714630782E-01  0.50629304230E-01 -0.92634869446E-01  0.88953766126E+00  0.88000000000E+00 0. -1.
        -11    1    4    4    0    0 -0.47249205082E-01 -0.11213818795E-01  0.13353626417E-01  0.50366830080E-01  0.51100000000E-03 0.  1.
         11    1    4    4    0    0 -0.39851593825E-01 -0.37892873261E-01  0.58566704763E-01  0.80338903416E-01  0.51100000000E-03 0. -1.
</event>
<event>
 8    1  0.2183582E+004  0.1043930E+01  0.7957747E-01            NaN
         13   -1    0    0    0    0  0.00000000000E+00  0.00000000000E+00  0.74505805969E-08  0.10566000000E+00  0.10566000000E+00 0.  1.
     999900   -1    0    0    0    0 -0.00000000000E+00 -0.00000000000E+00 -0.74505805969E-08  0.93827000000E+00  0.93827000000E+00 0. -1.
     999902    2    1    2    0    0  0.11740232317E-01 -0.64323090870E-02  0.57935211323E-02  0.10293432751E+01  0.10292399164E+01 0.  0.
     999903    2    3    3    0    0  0.99374039615E-01  0.49689144184E-01  0.73572026325E-01  0.14062328129E+00  0.44920522977E-01 0.  0.
         14    1    1    2    0    0 -0.11740232317E-01  0.64323090870E-02 -0.57935211323E-02  0.14586724861E-01  0.00000000000E+00 0. -1.
     999901    1    3    3    0    0 -0.87633807297E-01 -0.56121453271E-01 -0.67778505192E-01  0.88871999385E+00  0.88000000000E+00 0. -1.
        -11    1    4    4    0    0  0.76546418727E-02  0.19695232773E-01  0.24516328922E-01  0.32369850803E-01  0.51100000000E-03 0. -1.
         11    1    4    4    0    0  0.91719397742E-01  0.29993911411E-01  0.49055697403E-01  0.10825343049E+00  0.51100000000E-03 0.  1.
</event>
<event>
 8    1  0.2183582E+004  0.1043930E+01  0.7957747E-01            NaN
         13   -1    0    0    0    0  0.00000000000E+00  0.00000000000E+00  0.74505805969E-08  0.10566000000E+00  0.10566000000E+00 0. -1.
     999900   -1    0    0    0    0 -0.00000000000E+00 -0.00000000000E+00 -0.74505805969E-08  0.93827000000E+00  0.93827000000E+00 0. -1.
     999902    2    1    2    0    0 -0.10857914716E-01 -0.86795067689E-02  0.85035583527E-03  0.10300033617E+01  0.10299092066E+01 0.  0.
     999903    2    3    3    0    0 -0.21844584466E-01  0.91001076915E-01  0.92723374157E-01  0.13955539736E+00  0.46040231827E-01 0.  0.
         14    1    1    2    0    0  0.10857914716E-01  0.86795067689E-02 -0.85035583527E-03  0.13926638316E-01  0.00000000000E+00 0. -1.
     999901    1    3    3    0    0  0.10986669750E-01 -0.99680583683E-01 -0.91873018322E-01  0.89044796433E+00  0.88000000000E+00 0. -1.
        -11    1    4    4    0    0  0.93566659152E-05  0.23014256671E-01  0.64545721980E-03  0.23028978129E-01  0.51100000000E-03 0.  1.
         11    1    4    4    0    0 -0.21853941132E-01  0.67986820244E-01  0.92077916938E-01  0.11652641923E+00  0.51100000000E-03 0. -1.
</event>
<event>
 8    1  0.2183582E+004  0.1043930E+01  0.7957747E-01            NaN
         13   -1    0    0    0    0  0.00000000000E+00  0.00000000000E+00  0.74505805969E-08  0.10566000000E+00  0.10566000000E+00 0. -1.
     999900   -1    0    0    0    0 -0.00000000000E+00 -0.00000000000E+00 -0.74505805969E-08  0.93827000000E+00  0.93827000000E+00 0. -1.
     999902    2    1    2    0    0 -0.57019500461E-02 -0.35439894011E-02 -0.11917846073E-01  0.10302512884E+01  0.10301604779E+01 0.  0.
     999903    2    3    3    0    0  0.11067896883E+00 -0.41602216349E-01 -0.62264569560E-01  0.14034806926E+00  0.42896682592E-01 0.  0.
         14    1    1    2    0    0  0.57019500461E-02  0.35439894011E-02  0.11917846073E-01  0.13678711570E-01  0.00000000000E+00 0. -1.
     999901    1    3    3    0    0 -0.11638091887E+00  0.38058226948E-01  0.50346723487E-01  0.88990321917E+00  0.88000000000E+00 0.  1.
        -11    1    4    4    0    0  0.89867273359E-01 -0.20276060677E-01 -0.61052043532E-01  0.11052085142E+00  0.51100000000E-03 0. -1.
         11    1    4    4    0    0  0.20811695470E-01 -0.21326155672E-01 -0.12125260277E-02  0.29827217846E-01  0.51100000000E-03 0.  1.
</event>
<event>
 8    1  0.2183582E+004  0.1043930E+01  0.7957747E-01            NaN
         13   -1    0    0    0    0  0.00000000000E+00  0.00000000000E+00  0.74505805969E-08  0.10566000000E+00  0.10566000000E+00 0.  1.
     999900   -1    0    0    0    0 -0.00000000000E+00 -0.00000000000E+00 -0.74505805969E-08  0.93827000000E+00  0.93827000000E+00 0.  1.
     999902    2    1    2    0    0  0.15714517047E-02 -0.12912947830E-01  0.19772805705E-02  0.10307723665E+01  0.10306883856E+01 0.  0.
     999903    2    3    3    0    0 -0.61081205229E-01 -0.11814497760E+00 -0.22165874359E-01  0.14196303513E+00  0.44418779751E-01 0.  0.
         14    1    1    2    0    0 -0.15714517047E-02  0.12912947830E-01 -0.19772805705E-02  0.13157633548E-01  0.00000000000E+00 0.  1.
     999901    1    3    3    0    0  0.62652656934E-01  0.10523202977E+00  0.24143154929E-01  0.88880933132E+00  0.88000000000E+00 0. -1.
        -11    1    4    4    0    0 -0.48996236741E-01 -0.11124330120E+00 -0.31030738075E-01  0.12545465756E+00  0.51100000000E-03 0.  1.
         11    1    4    4    0    0 -0.12084968488E-01 -0.69016763960E-02  0.88648637156E-02  0.16508377574E-01  0.51100000000E-03 0. -1.
</event>
<event>
 8    1  0.2183582E+004  0.1043930E+01  0.7957747E-01            NaN
         13   -1    0    0    0    0  0.00000000000E+00  0.00000000000E+00  0.74505805969E-08  0.10566000000E+00  0.10566000000E+00 0.  1.
     999900   -1    0    0    0    0 -0.00000000000E+00 -0.00000000000E+00 -0.74505805969E-08  0.93827000000E+00  0.93827000000E+00 0. -1.
     999902    2    1    2    0    0  0.65991161859E-02  0.87501625550E-02  0.87110406464E-02  0.10299301461E+01  0.10298349916E+01 0.  0.
     999903    2    3    3    0    0  0.31730081092E-01 -0.10924948195E+00  0.67229960947E-01  0.13977288725E+00  0.45544977882E-01 0.  0.
         14    1    1    2    0    0 -0.65991161859E-02 -0.87501625550E-02 -0.87110406464E-02  0.13999853868E-01  0.00000000000E+00 0. -1.
     999901    1    3    3    0    0 -0.25130964906E-01  0.11799964450E+00 -0.58518920301E-01  0.89015725888E+00  0.88000000000E+00 0.  1.
        -11    1    4    4    0    0  0.22736786248E-01 -0.23067160911E-01  0.34019434759E-01  0.46974870129E-01  0.51100000000E-03 0.  1.
         11    1    4    4    0    0  0.89932948442E-02 -0.86182321038E-01  0.33210526188E-01  0.92798017125E-01  0.51100000000E-03 0. -1.
</event>
<event>
 8    1  0.2183582E+004  0.1043930E+01  0.7957747E-01            NaN
         13   -1    0    0    0    0  0.00000000000E+00  0.00000000000E+00  0.74505805969E-08  0.10566000000E+00  0.10566000000E+00 0.  1.
     999900   -1    0    0    0    0 -0.00000000000E+00 -0.00000000000E+00 -0.74505805969E-08  0.93827000000E+00  0.93827000000E+00 0. -1.
     999902    2    1    2    0    0 -0.11662552152E-02  0.13228364392E-01  0.74294730850E-03  0.10306295584E+01  0.10305437327E+01 0.  0.
     999903    2    3    3    0    0  0.41686287704E-01  0.39274273808E-01 -0.12095475472E+00  0.14084022351E+00  0.43882806472E-01 0.  0.
         14    1    1    2    0    0  0.11662552152E-02 -0.13228364392E-01 -0.74294730850E-03  0.13300441587E-01  0.00000000000E+00 0. -1.
     999901    1    3    3    0    0 -0.42852542920E-01 -0.26045909416E-01  0.12169770202E+00  0.88978933490E+00  0.88000000000E+00 0.  1.
        -11    1    4    4    0    0  0.25150003902E-01  0.12577315937E-01 -0.18460296955E-01  0.33641570372E-01  0.51100000000E-03 0. -1.
         11    1    4    4    0    0  0.16536283803E-01  0.26696957872E-01 -0.10249445776E+00  0.10719865314E+00  0.51100000000E-03 0.  1.
</event>
<event>
 8    1  0.2183582E+004  0.1043930E+01  0.7957747E-01            NaN
         13   -1    0    0    0    0  0.00000000000E+00  0.00000000000E+00  0.74505805969E-08  0.10566000000E+00  0.10566000000E+00 0. -1.
     999900   -1    0    0    0    0 -0.00000000000E+00 -0.00000000000E+00 -0.74505805969E-08  0.93827000000E+00  0.93827000000E+00 0.  1.
     999902    2    1    2    0    0 -0.12553885871E-01  0.14009340110E-01  0.63657887800E-02  0.10240708729E+01  0.10238782974E+01 0.  0.
     999903    2    3    3    0    0 -0.12663012947E+00  0.90342075430E-03 -0.23080440986E-01  0.13612254397E+00  0.44279051040E-01 0.  0.
         14    1    1    2    0    0  0.12553885871E-01 -0.14009340110E-01 -0.63657887800E-02  0.19859127059E-01  0.00000000000E+00 0. -1.
     999901    1    3    3    0    0  0.11407624360E+00  0.13105919355E-01  0.29446229766E-01  0.88794832897E+00  0.88000000000E+00 0. -1.
        -11    1    4    4    0    0 -0.21561215055E-01  0.16026690255E-01  0.23290548974E-02  0.26970843755E-01  0.51100000000E-03 0.  1.
         11    1    4    4    0    0 -0.10506891442E+00 -0.15123269500E-01 -0.25409495883E-01  0.10915170021E+00  0.51100000000E-03 0. -1.
</event>
<event>
 8    1  0.2183582E+004  0.1043930E+01  0.7957747E-01            NaN
         13   -1    0    0    0    0  0.00000000000E+00  0.00000000000E+00  0.74505805969E-08  0.10566000000E+00  0.10566000000E+00 0. -1.
     999900   -1    0    0    0    0 -0.00000000000E+00 -0.00000000000E+00 -0.74505805969E-08  0.93827000000E+00  0.93827000000E+00 0.  1.
     999902    2    1    2    0    0 -0.12395399181E-01 -0.47720984440E-02  0.23320025789E-02  0.10304445604E+01  0.10303563146E+01 0.  0.
     999903    2    3    3    0    0  0.72393992607E-01  0.79663980837E-01 -0.75329856751E-01  0.13895700761E+00  0.45246244441E-01 0.  0.
         14    1    1    2    0    0  0.12395399181E-01  0.47720984440E-02 -0.23320025789E-02  0.13485439572E-01  0.00000000000E+00 0.  1.
     999901    1    3    3    0    0 -0.84789391788E-01 -0.84436079281E-01  0.77661859329E-01  0.89148755282E+00  0.88000000000E+00 0. -1.
        -11    1    4    4    0    0 -0.13432979119E-02  0.19353329084E-03 -0.14645156248E-01  0.14716780455E-01  0.51100000000E-03 0.  1.
         11    1    4    4    0    0  0.73737290519E-01  0.79470447547E-01 -0.60684700502E-01  0.12424022715E+00  0.51100000000E-03 0. -1.
</event>
<event>
 8    1  0.2183582E+004  0.1043930E+01  0.7957747E-01            NaN
         13   -1    0    0    0    0  0.00000000000E+00  0.00000000000E+00  0.74505805969E-08  0.10566000000E+00  0.10566000000E+00 0. -1.
     999900   -1    0    0    0    0 -0.00000000000E+00 -0.00000000000E+00 -0.74505805969E-08  0.93827000000E+00  0.93827000000E+00 0.  1.
     999902    2    1    2    0    0 -0.12039003248E-01 -0.18798261558E-03  0.50717696389E-02  0.10308649403E+01  0.10307821445E+01 0.  0.
     999903    2    3    3    0    0  0.38903474552E-01 -0.85481708673E-02 -0.12586103507E+00  0.13968121734E+00  0.45643080223E-01 0.  0.
         14    1    1    2    0    0  0.12039003248E-01  0.18798261558E-03 -0.50717696389E-02  0.13065059661E-01  0.00000000000E+00 0.  1.
     999901    1    3    3    0    0 -0.50942477800E-01  0.83601882517E-02  0.13093280470E+00  0.89118372300E+00  0.88000000000E+00 0. -1.
        -11    1    4    4    0    0  0.22394421800E-01  0.16293334214E-01 -0.38963788142E-01  0.47806074666E-01  0.51100000000E-03 0.  1.
         11    1    4    4    0    0  0.16509052752E-01 -0.24841505081E-01 -0.86897246923E-01  0.91875142673E-01  0.51100000000E-03 0. -1.
</event>
<event>
 8    1  0.2183582E+004  0.1043930E+01  0.7957747E-01            NaN
         13   -1    0    0    0    0  0.00000000000E+00  0.00000000000E+00  0.74505805969E-08  0.10566000000E+00  0.10566000000E+00 0. -1.
     999900   -1    0    0    0    0 -0.00000000000E+00 -0.00000000000E+00 -0.74505805969E-08  0.93827000000E+00  0.93827000000E+00 0. -1.
     999902    2    1    2    0    0  0.95270820024E-02  0.45436870486E-02  0.80819433671E-02  0.10306360844E+01  0.10305503434E+01 0.  0.
     999903    2    3    3    0    0 -0.84437239016E-01  0.10179210546E+00 -0.34735127810E-02  0.14023163861E+00  0.46492656526E-01 0.  0.
         14    1    1    2    0    0 -0.95270820024E-02 -0.45436870486E-02 -0.80819433671E-02  0.13293915603E-01  0.00000000000E+00 0.  1.
     999901    1    3    3    0    0  0.93964321019E-01 -0.97248418407E-01  0.11555456148E-01  0.89040444579E+00  0.88000000000E+00 0. -1.
        -11    1    4    4    0    0 -0.76886538348E-01  0.94288018084E-01 -0.17178525964E-01  0.12287039110E+00  0.51100000000E-03 0.  1.
         11    1    4    4    0    0 -0.75507006683E-02  0.75040873718E-02  0.13705013183E-01  0.17361247513E-01  0.51100000000E-03 0. -1.
</event>
<event>
 8    1  0.2183582E+004  0.1043930E+01  0.7957747E-01            NaN
         13   -1    0    0    0    0  0.00000000000E+00  0.00000000000E+00  0.74505805969E-08  0.10566000000E+00  0.10566000000E+00 0.  1.
     999900   -1    0    0    0    0 -0.00000000000E+00 -0.00000000000E+00 -0.74505805969E-08  0.93827000000E+00  0.93827000000E+00 0. -1.
     999902    2    1    2    0    0 -0.31964000810E-02  0.12426916652E-01  0.29232792372E-02  0.10307698027E+01  0.10306857889E+01 0.  0.
     999903    2    3    3    0    0 -0.49017289481E-01 -0.72220935599E-01 -0.99100774949E-01  0.13966166089E+00  0.45451707574E-01 0.  0.
         14    1    1    2    0    0  0.31964000810E-02 -0.12426916652E-01 -0.29232792372E-02  0.13160197280E-01  0.00000000000E+00 0. -1.
     999901    1    3    3    0    0  0.45820889400E-01  0.84647852251E-01  0.10202405419E+00  0.89110814183E+00  0.88000000000E+00 0.  1.
        -11    1    4    4    0    0 -0.82907170843E-02 -0.51696406562E-01 -0.59522531199E-01  0.79274505880E-01  0.51100000000E-03 0. -1.
         11    1    4    4    0    0 -0.40726572397E-01 -0.20524529037E-01 -0.39578243750E-01  0.60387155014E-01  0.51100000000E-03 0.  1.
</event>
<event>
 8    1  0.2183582E+004  0.1043930E+01  0.7957747E-01            NaN
         13   -1    0    0    0    0  0.00000000000E+00  0.00000000000E+00  0.74505805969E-08  0.10566000000E+00  0.10566000000E+00 0.  1.
     999900   -1    0    0    0    0 -0.00000000000E+00 -0.00000000000E+00 -0.74505805969E-08  0.93827000000E+00  0.93827000000E+00 0.  1.
     999902    2    1    2    0    0  0.58823308558E-02  0.10625844396E-01  0.59814896994E-02  0.10303915878E+01  0.10303026427E+01 0.  0.
     999903    2    3    3    0    0 -0.65222606204E-01  0.43156164719E-01 -0.10465442777E+00  0.14002400078E+00  0.50375873470E-01 0.  0.
         14    1    1    2    0    0 -0.58823308558E-02 -0.10625844396E-01 -0.59814896994E-02  0.13538412183E-01  0.00000000000E+00 0. -1.
     999901    1    3    3    0    0  0.71104937060E-01 -0.32530320324E-01  0.11063591747E+00  0.89036758704E+00  0.88000000000E+00 0. -1.
        -11    1    4    4    0    0 -0.13859258672E-01  0.72522408407E-02  0.25388357159E-02  0.15854994669E-01  0.51100000000E-03 0.  1.
         11    1    4    4    0    0 -0.51363347532E-01  0.35903923879E-01 -0.10719326349E+00  0.12416900611E+00  0.51100000000E-03 0. -1.
</event>
<event>
 8    1  0.2183582E+004  0.1043930E+01  0.7957747E-01            NaN
         13   -1    0    0    0    0  0.00000000000E+00  0.00000000000E+00  0.74505805969E-08  0.10566000000E+00  0.10566000000E+00 0. -1.
     999900   -1    0    0    0    0 -0.00000000000E+00 -0.00000000000E+00 -0.74505805969E-08  0.93827000000E+00  0.93827000000E+00 0.  1.
     999902    2    1    2    0    0  0.77190242809E-03 -0.98475794506E-02  0.97289451588E-02  0.10300655480E+01  0.10299722376E+01 0.  0.
     999903    2    3    3    0    0 -0.91776162918E-01  0.19299921562E-01 -0.91902926635E-01  0.13891810873E+00  0.45351317036E-01 0.  0.
         14    1    1    2    0    0 -0.77190242809E-03  0.98475794506E-02 -0.97289451588E-02  0.13864451965E-01  0.00000000000E+00 0.  1.
     999901    1    3    3    0    0  0.92548065346E-01 -0.29147501012E-01  0.10163187179E+00  0.89114743930E+00  0.88000000000E+00 0.  1.
        -11    1    4    4    0    0 -0.75278774181E-01  0.22679664755E-01 -0.48545366610E-01  0.92402244431E-01  0.51100000000E-03 0. -1.
         11    1    4    4    0    0 -0.16497388737E-01 -0.33797431932E-02 -0.43357560025E-01  0.46515864299E-01  0.51100000000E-03 0.  1.
</event>
<event>
 8    1  0.2183582E+004  0.1043930E+01  0.7957747E-01            NaN
         13   -1    0    0    0    0  0.00000000000E+00  0.00000000000E+00  0.74505805969E-08  0.10566000000E+00  0.10566000000E+00 0. -1.
     999900   -1    0    0    0    0 -0.00000000000E+00 -0.00000000000E+00 -0.74505805969E-08  0.93827000000E+00  0.93827000000E+00 0.  1.
     999902    2    1    2    0    0  0.13352045279E-01 -0.45210414809E-03  0.43743240353E-02  0.10298723963E+01  0.10297764497E+01 0.  0.
     999903    2    3    3    0    0  0.51865467036E-01 -0.12089606123E+00 -0.20971245469E-01  0.14047235787E+00  0.44573600899E-01 0.  0.
         14    1    1    2    0    0 -0.13352045279E-01  0.45210414809E-03 -0.43743240353E-02  0.14057603709E-01  0.00000000000E+00 0. -1.
     999901    1    3    3    0    0 -0.38513421757E-01  0.12044395708E+00  0.25345569504E-01  0.88940003842E+00  0.88000000000E+00 0.  1.
        -11    1    4    4    0    0  0.38681736542E-01 -0.38146642537E-01 -0.10381050660E-02  0.54339505536E-01  0.51100000000E-03 0. -1.
         11    1    4    4    0    0  0.13183730493E-01 -0.82749418692E-01 -0.19933140403E-01  0.86132852332E-01  0.51100000000E-03 0.  1.
</event>
<event>
 8    1  0.2183582E+004  0.1043930E+01  0.7957747E-01            NaN
         13   -1    0    0    0    0  0.00000000000E+00  0.00000000000E+00  0.74505805969E-08  0.10566000000E+00  0.10566000000E+00 0. -1.
     999900   -1    0    0    0    0 -0.00000000000E+00 -0.00000000000E+00 -0.74505805969E-08  0.93827000000E+00  0.93827000000E+00 0. -1.
     999902    2    1    2    0    0  0.19628694327E-02  0.89969524342E-02 -0.84818656922E-02  0.10314104131E+01  0.10313344270E+01 0.  0.
     999903    2    3    3    0    0  0.22715606987E-02 -0.77453351136E-01 -0.10939699756E+00  0.14143422575E+00  0.45074999163E-01 0.  0.
         14    1    1    2    0    0 -0.19628694327E-02 -0.89969524342E-02  0.84818656922E-02  0.12519586860E-01  0.00000000000E+00 0. -1.
     999901    1    3    3    0    0 -0.30869126604E-03  0.86450303571E-01  0.10091513186E+00  0.88997618739E+00  0.88000000000E+00 0.  1.
        -11    1    4    4    0    0  0.17224750385E-01 -0.48559964897E-01 -0.41563597739E-01  0.66200876087E-01  0.51100000000E-03 0.  1.
         11    1    4    4    0    0 -0.14953189686E-01 -0.28893386239E-01 -0.67833399818E-01  0.75233349666E-01  0.51100000000E-03 0. -1.
</event>
<event>
 8    1  0.2183582E+004  0.1043930E+01  0.7957747E-01            NaN
         13   -1    0    0    0    0  0.00000000000E+00  0.00000000000E+00  0.74505805969E-08  0.10566000000E+00  0.10566000000E+00 0.  1.
     999900   -1    0    0    0    0 -0.00000000000E+00 -0.00000000000E+00 -0.74505805969E-08  0.93827000000E+00  0.93827000000E+00 0. -1.
     999902    2    1    2    0    0  0.75515399939E-03 -0.62929142297E-02  0.11212041858E-01  0.10310505237E+01  0.10309700779E+01 0.  0.
     999903    2    3    3    0    0  0.59047108602E-01  0.11907029376E+00 -0.13352111163E-02  0.14016819733E+00  0.44508930148E-01 0.  0.
         14    1    1    2    0    0 -0.75515399939E-03  0.62929142297E-02 -0.11212041858E-01  0.12879476297E-01  0.00000000000E+00 0. -1.
     999901    1    3    3    0    0 -0.58291954603E-01 -0.12536320799E+00  0.12547252974E-01  0.89088232637E+00  0.88000000000E+00 0.  1.
        -11    1    4    4    0    0  0.33910241377E-01  0.87980665116E-01 -0.19444298964E-01  0.96274834655E-01  0.51100000000E-03 0. -1.
         11    1    4    4    0    0  0.25136867225E-01  0.31089628644E-01  0.18109087847E-01  0.43893362674E-01  0.51100000000E-03 0.  1.
</event>
<event>
 8    1  0.2183582E+004  0.1043930E+01  0.7957747E-01            NaN
         13   -1    0    0    0    0  0.00000000000E+00  0.00000000000E+00  0.74505805969E-08  0.10566000000E+00  0.10566000000E+00 0. -1.
     999900   -1    0    0    0    0 -0.00000000000E+00 -0.00000000000E+00 -0.74505805969E-08  0.93827000000E+00  0.93827000000E+00 0. -1.
     999902    2    1    2    0    0  0.10534482511E-02  0.12469978389E-01 -0.51493202531E-02  0.10303976087E+01  0.10303087433E+01 0.  0.
     999903    2    3    3    0    0  0.95562136438E-01 -0.63518231652E-01 -0.66901622062E-01  0.13993736426E+00  0.44044877225E-01 0.  0.
         14    1    1    2    0    0 -0.10534482511E-02 -0.12469978389E-01  0.51493202531E-02  0.13532391263E-01  0.00000000000E+00 0.  1.
     999901    1    3    3    0    0 -0.94508688187E-01  0.75988210041E-01  0.61752301809E-01  0.89046024447E+00  0.88000000000E+00 0.  1.
        -11    1    4    4    0    0  0.67653756564E-01 -0.45821496801E-01 -0.68819274854E-01  0.10683161545E+00  0.51100000000E-03 0. -1.
         11    1    4    4    0    0  0.27908379874E-01 -0.17696734851E-01  0.19176527920E-02  0.33105748818E-01  0.51100000000E-03 0.  1.
</event>
<event>
 8    1  0.2183582E+004  0.1043930E+01  0.7957747E-01            NaN
         13   -1    0    0    0    0  0.00000000000E+00  0.00000000000E+00  0.74505805969E-08  0.10566000000E+00  0.10566000000E+00 0.  1.
     999900   -1    0    0    0    0 -0.00000000000E+00 -0.00000000000E+00 -0.74505805969E-08  0.93827000000E+00  0.93827000000E+00 0. -1.
     999902    2    1    2    0    0  0.11772104317E-01 -0.57844428591E-02 -0.38968035755E-02  0.10302468974E+01  0.10301560281E+01 0.  0.
     999903    2    3    3    0    0 -0.13955308757E-01  0.12757866700E+00  0.29938889774E-01  0.13918434458E+00  0.44775861132E-01 0.  0.
         14    1    1    2    0    0 -0.11772104317E-01  0.57844428591E-02  0.38968035755E-02  0.13683102621E-01  0.00000000000E+00 0. -1.
     999901    1    3    3    0    0  0.25727413074E-01 -0.13336310986E+00 -0.33835693349E-01  0.89106255280E+00  0.88000000000E+00 0. -1.
        -11    1    4    4    0    0 -0.22648973268E-01  0.70624760222E-01  0.33656894292E-01  0.81448636581E-01  0.51100000000E-03 0.  1.
         11    1    4    4    0    0  0.86936645111E-02  0.56953906776E-01 -0.37180045181E-02  0.57735708000E-01  0.51100000000E-03 0. -1.
</event>
<event>
 8    1  0.2183582E+004  0.1043930E+01  0.7957747E-01            NaN
         13   -1    0    0    0    0  0.00000000000E+00  0.00000000000E+00  0.74505805969E-08  0.10566000000E+00  0.10566000000E+00 0. -1.
     999900   -1    0    0    0    0 -0.00000000000E+00 -0.00000000000E+00 -0.74505805969E-08  0.93827000000E+00  0.93827000000E+00 0. -1.
     999902    2    1    2    0    0 -0.95893961688E-02  0.33742568344E-02 -0.81253464927E-02  0.10309160312E+01  0.10308338858E+01 0.  0.
     999903    2    3    3    0    0 -0.15502579471E-01 -0.13207246975E+00 -0.59237469720E-02  0.14053092996E+00  0.45059785414E-01 0.  0.
         14    1    1    2    0    0  0.95893961688E-02 -0.33742568344E-02  0.81253464927E-02  0.13013968791E-01  0.00000000000E+00 0. -1.
     999901    1    3    3    0    0  0.59131833026E-02  0.13544672659E+00 -0.22015995208E-02  0.89038510125E+00  0.88000000000E+00 0.  1.
        -11    1    4    4    0    0 -0.15470643451E-01 -0.16854054180E-01 -0.10593626263E-01  0.25216779919E-01  0.51100000000E-03 0.  1.
         11    1    4    4    0    0 -0.31936020824E-04 -0.11521841557E+00  0.46698792912E-02  0.11531415004E+00  0.51100000000E-03 0. -1.
</event>
<event>
 8    1  0.2183582E+004  0.1043930E+01  0.7957747E-01            NaN
         13   -1    0    0    0    0  0.00000000000E+00  0.00000000000E+00  0.74505805969E-08  0.10566000000E+00  0.10566000000E+00 0. -1.
     999900   -1    0    0    0    0 -0.00000000000E+00 -0.00000000000E+00 -0.74505805969E-08  0.93827000000E+00  0.93827000000E+00 0. -1.
     999902    2    1    2    0    0  0.11726275006E-01 -0.58077596305E-02 -0.62899267421E-02  0.10294110890E+01  0.10293086959E+01 0.  0.
     999903    2    3    3    0    0  0.68120537242E-02  0.19637993941E-01 -0.13051394456E+00  0.14030859631E+00  0.47122792703E-01 0.  0.
         14    1    1    2    0    0 -0.11726275006E-01  0.58077596305E-02  0.62899267421E-02  0.14518910974E-01  0.00000000000E+00 0.  1.
     999901    1    3    3    0    0  0.49142212816E-02 -0.25445753571E-01  0.12422401782E+00  0.88910249271E+00  0.88000000000E+00 0.  1.
        -11    1    4    4    0    0 -0.20134564046E-01  0.11875709776E-01 -0.55584588315E-01  0.60302078995E-01  0.51100000000E-03 0.  1.
         11    1    4    4    0    0  0.26946617770E-01  0.77622841645E-02 -0.74929356247E-01  0.80006517318E-01  0.51100000000E-03 0. -1.
</event>
<event>
 8    1  0.2183582E+004  0.1043930E+01  0.7957747E-01            NaN
         13   -1    0    0    0    0  0.00000000000E+00  0.00000000000E+00  0.74505805969E-08  0.10566000000E+00  0.10566000000E+00 0.  1.
     999900   -1    0    0    0    0 -0.00000000000E+00 -0.00000000000E+00 -0.74505805969E-08  0.93827000000E+00  0.93827000000E+00 0.  1.
     999902    2    1    2    0    0  0.16083896332E-02  0.59033224366E-02  0.15831372491E-01  0.10269574195E+01  0.10268171566E+01 0.  0.
     999903    2    3    3    0    0  0.42736105110E-01 -0.46417301573E-01  0.11499981906E+00  0.13889023881E+00  0.45657414354E-01 0.  0.
         14    1    1    2    0    0 -0.16083896332E-02 -0.59033224366E-02 -0.15831372491E-01  0.16972580474E-01  0.00000000000E+00 0. -1.
     999901    1    3    3    0    0 -0.41127715477E-01  0.52320624009E-01 -0.99168446573E-01  0.88806718072E+00  0.88000000000E+00 0.  1.
        -11    1    4    4    0    0  0.56227714492E-02  0.92946115594E-02  0.14204087839E-01  0.17889175363E-01  0.51100000000E-03 0. -1.
         11    1    4    4    0    0  0.37113333661E-01 -0.55711913132E-01  0.10079573122E+00  0.12100106344E+00  0.51100000000E-03 0.  1.
</event>
<event>
 8    1  0.2183582E+004  0.1043930E+01  0.7957747E-01            NaN
         13   -1    0    0    0    0  0.00000000000E+00  0.00000000000E+00  0.74505805969E-08  0.10566000000E+00  0.10566000000E+00 0.  1.
     999900   -1    0    0    0    0 -0.00000000000E+00 -0.00000000000E+00 -0.74505805969E-08  0.93827000000E+00  0.93827000000E+00 0. -1.
     999902    2    1    2    0    0  0.68035872280E-03  0.68654759221E-02  0.15569364513E-01  0.10269005326E+01  0.10267593200E+01 0.  0.
     999903    2    3    3    0    0 -0.10525469497E+00 -0.73433024964E-01  0.15048259072E-01  0.13691718649E+00  0.45264841641E-01 0.  0.
         14    1    1    2    0    0 -0.68035872280E-03 -0.68654759221E-02 -0.15569364513E-01  0.17029467372E-01  0.00000000000E+00 0. -1.
     999901    1    3    3    0    0  0.10593505369E+00  0.80298500886E-01  0.52110544136E-03  0.88998334613E+00  0.88000000000E+00 0.  1.
        -11    1    4    4    0    0 -0.78917457221E-01 -0.48119177197E-01  0.30380497126E-01  0.97296741954E-01  0.51100000000E-03 0. -1.
         11    1    4    4    0    0 -0.26337237745E-01 -0.25313847767E-01 -0.15332238054E-01  0.39620444540E-01  0.51100000000E-03 0.  1.
</event>
<event>
 8    1  0.2183582E+004  0.1043930E+01  0.7957747E-01            NaN
         13   -1    0    0    0    0  0.00000000000E+00  0.00000000000E+00  0.74505805969E-08  0.10566000000E+00  0.10566000000E+00 0. -1.
     999900   -1    0    0    0    0 -0.00000000000E+00 -0.00000000000E+00 -0.74505805969E-08  0.93827000000E+00  0.93827000000E+00 0.  1.
     999902    2    1    2    0    0 -0.51484745854E-02 -0.12224680349E-01  0.98332564151E-03  0.10306290027E+01  0.10305431697E+01 0.  0.
     999903    2    3    3    0    0  0.11107786633E+00  0.32366667548E-01 -0.63575726803E-01  0.13952585384E+00  0.45163008054E-01 0.  0.
         14    1    1    2    0    0  0.51484745854E-02  0.12224680349E-01 -0.98332564151E-03  0.13300997312E-01  0.00000000000E+00 0.  1.
     999901    1    3    3    0    0 -0.11622634091E+00 -0.44591347896E-01  0.64559052444E-01  0.89110314884E+00  0.88000000000E+00 0.  1.
        -11    1    4    4    0    0  0.28645958212E-01  0.17496961968E-01 -0.40573187616E-01  0.52660984365E-01  0.51100000000E-03 0.  1.
         11    1    4    4    0    0  0.82431908114E-01  0.14869705580E-01 -0.23002539187E-01  0.86864869478E-01  0.51100000000E-03 0. -1.
</event>
<event>
 7    1  0.2183582E+004  0.1043930E+01  0.7957747E-01            NaN
         13   -1    0    0    0    0  0.00000000000E+00  0.00000000000E+00  0.74505805969E-08  0.10566000000E+00  0.10566000000E+00 0. -1.
     999900   -1    0    0    0    0 -0.00000000000E+00 -0.00000000000E+00 -0.74505805969E-08  0.93827000000E+00  0.93827000000E+00 0. -1.
     999903    2    1    2    0    0 -0.25536578757E-01 -0.53268698406E-01  0.87743112650E-01  0.11494989691E+00  0.44999487740E-01 0.  0.
         14    1    1    2    0    0 -0.44076823175E-03 -0.39409593358E-01 -0.18486366407E-03  0.39412491673E-01  0.00000000000E+00 0. -1.
     999901    1    1    2    0    0  0.25977346989E-01  0.92678291765E-01 -0.87558248986E-01  0.88956761142E+00  0.88000000000E+00 0. -1.
        -11    1    3    3    0    0 -0.21057896777E-01 -0.17208325039E-01  0.97300322090E-02  0.28887646410E-01  0.51100000000E-03 0.  1.
         11    1    3    3    0    0 -0.44786819799E-02 -0.36060373367E-01  0.78013080441E-01  0.86062250497E-01  0.51100000000E-03 0. -1.
</event>
<event>
 8    1  0.2183582E+004  0.1043930E+01  0.7957747E-01            NaN
         13   -1    0    0    0    0  0.00000000000E+00  0.00000000000E+00  0.74505805969E-08  0.10566000000E+00  0.10566000000E+00 0.  1.
     999900   -1    0    0    0    0 -0.00000000000E+00 -0.00000000000E+00 -0.74505805969E-08  0.93827000000E+00  0.93827000000E+00 0.  1.
     999902    2    1    2    0    0  0.10132191677E-01 -0.12493422283E-02 -0.89226700023E-02  0.10303713790E+01  0.10302821664E+01 0.  0.
     999903    2    3    3    0    0  0.27846816359E-01 -0.52948054954E-01 -0.12022782600E+00  0.14167829214E+00  0.45156025232E-01 0.  0.
         14    1    1    2    0    0 -0.10132191677E-01  0.12493422283E-02  0.89226700023E-02  0.13558621027E-01  0.00000000000E+00 0.  1.
     999901    1    3    3    0    0 -0.17714624682E-01  0.51698712725E-01  0.11130515600E+00  0.88869308683E+00  0.88000000000E+00 0. -1.
        -11    1    4    4    0    0  0.32902362872E-01 -0.25430775637E-01 -0.96165209461E-01  0.10477260359E+00  0.51100000000E-03 0.  1.
         11    1    4    4    0    0 -0.50555465134E-02 -0.27517279317E-01 -0.24062616542E-01  0.36905688551E-01  0.51100000000E-03 0. -1.
</event>
<event>
 8    1  0.2183582E+004  0.1043930E+01  0.7957747E-01            NaN
         13   -1    0    0    0    0  0.00000000000E+00  0.00000000000E+00  0.74505805969E-08  0.10566000000E+00  0.10566000000E+00 0. -1.
     999900   -1    0    0    0    0 -0.00000000000E+00 -0.00000000000E+00 -0.74505805969E-08  0.93827000000E+00  0.93827000000E+00 0.  1.
     999902    2    1    2    0    0  0.32838258508E-02  0.11085377301E-01 -0.64943299116E-02  0.10306693280E+01  0.10305840180E+01 0.  0.
     999903    2    3    3    0    0 -0.10837060957E+00  0.33994677154E-01 -0.69869687401E-01  0.14105818543E+00  0.45997949575E-01 0.  0.
         14    1    1    2    0    0 -0.32838258508E-02 -0.11085377301E-01  0.64943299116E-02  0.13260672047E-01  0.00000000000E+00 0. -1.
     999901    1    3    3    0    0  0.11165443542E+00 -0.22909299853E-01  0.63375357489E-01  0.88961114253E+00  0.88000000000E+00 0.  1.
        -11    1    4    4    0    0 -0.50137936053E-01 -0.67713843469E-03 -0.11117332254E-01  0.51362703838E-01  0.51100000000E-03 0. -1.
         11    1    4    4    0    0 -0.58232673517E-01  0.34671815589E-01 -0.58752355147E-01  0.89695481589E-01  0.51100000000E-03 0.  1.
</event>
<event>
 8    1  0.2183582E+004  0.1043930E+01  0.7957747E-01            NaN
         13   -1    0    0    0    0  0.00000000000E+00  0.00000000000E+00  0.74505805969E-08  0.10566000000E+00  0.10566000000E+00 0. -1.
     999900   -1    0    0    0    0 -0.00000000000E+00 -0.00000000000E+00 -0.74505805969E-08  0.93827000000E+00  0.93827000000E+00 0. -1.
     999902    2    1    2    0    0 -0.10549819110E-02 -0.74159743163E-02  0.11127173989E-01  0.10305164374E+01  0.10304291358E+01 0.  0.
     999903    2    3    3    0    0 -0.95396369258E-01  0.46216144717E-01 -0.78485471786E-01  0.13933344389E+00  0.44915921500E-01 0.  0.
         14    1    1    2    0    0  0.10549819110E-02  0.74159743163E-02 -0.11127173989E-01  0.13413562647E-01  0.00000000000E+00 0.  1.
     999901    1    3    3    0    0  0.94341387347E-01 -0.53632119034E-01  0.89612645775E-01  0.89118299347E+00  0.88000000000E+00 0.  1.
        -11    1    4    4    0    0 -0.51161517420E-01  0.95321014274E-03 -0.27718989399E-01  0.58198049526E-01  0.51100000000E-03 0.  1.
         11    1    4    4    0    0 -0.44234851838E-01  0.45262934575E-01 -0.50766482386E-01  0.81135394362E-01  0.51100000000E-03 0. -1.
</event>
<event>
 8    1  0.2183582E+004  0.1043930E+01  0.7957747E-01            NaN
         13   -1    0    0    0    0  0.00000000000E+00  0.00000000000E+00  0.74505805969E-08  0.10566000000E+00  0.10566000000E+00 0. -1.
     999900   -1    0    0    0    0 -0.00000000000E+00 -0.00000000000E+00 -0.74505805969E-08  0.93827000000E+00  0.93827000000E+00 0.  1.
     999902    2    1    2    0    0  0.37975724860E-02 -0.14429023160E-01 -0.20545151444E-03  0.10290081879E+01  0.10288999904E+01 0.  0.
     999903    2    3    3    0    0 -0.13162816446E-01  0.12648205901E+00  0.24749116847E-01  0.13728720107E+00  0.45434412097E-01 0.  0.
         14    1    1    2    0    0 -0.37975724860E-02  0.14429023160E-01  0.20545151444E-03  0.14921812104E-01  0.00000000000E+00 0. -1.
     999901    1    3    3    0    0  0.16960388932E-01 -0.14091108217E+00 -0.24954568362E-01  0.89172098683E+00  0.88000000000E+00 0.  1.
        -11    1    4    4    0    0  0.14602089052E-01  0.20006786559E-01  0.14895184941E-02  0.24818789242E-01  0.51100000000E-03 0.  1.
         11    1    4    4    0    0 -0.27764905498E-01  0.10647527245E+00  0.23259598353E-01  0.11246841182E+00  0.51100000000E-03 0. -1.
</event>
<event>
 8    1  0.2183582E+004  0.1043930E+01  0.7957747E-01            NaN
         13   -1    0    0    0    0  0.00000000000E+00  0.00000000000E+00  0.74505805969E-08  0.10566000000E+00  0.10566000000E+00 0. -1.
     999900   -1    0    0    0    0 -0.00000000000E+00 -0.00000000000E+00 -0.74505805969E-08  0.93827000000E+00  0.93827000000E+00 0. -1.
     999902    2    1    2    0    0 -0.21868579431E-02 -0.19901688416E-02 -0.13610812516E-01  0.10300017073E+01  0.10299075297E+01 0.  0.
     999903    2    3    3    0    0 -0.10855330019E+00 -0.48376365651E-01 -0.61291289162E-01  0.14110411640E+00  0.45051723621E-01 0.  0.
         14    1    1    2    0    0  0.21868579431E-02  0.19901688416E-02  0.13610812516E-01  0.13928292682E-01  0.00000000000E+00 0. -1.
     999901    1    3    3    0    0  0.10636644225E+00  0.46386196810E-01  0.47680476645E-01  0.88889759092E+00  0.88000000000E+00 0.  1.
        -11    1    4    4    0    0 -0.56566946246E-01 -0.44755317162E-01 -0.20692716555E-01  0.75042037961E-01  0.51100000000E-03 0.  1.
         11    1    4    4    0    0 -0.51986353945E-01 -0.36210484890E-02 -0.40598572607E-01  0.66062078436E-01  0.51100000000E-03 0. -1.
</event>
<event>
 8    1  0.2183582E+004  0.1043930E+01  0.7957747E-01            NaN
         13   -1    0    0    0    0  0.00000000000E+00  0.00000000000E+00  0.74505805969E-08  0.10566000000E+00  0.10566000000E+00 0.  1.
     999900   -1    0    0    0    0 -0.00000000000E+00 -0.00000000000E+00 -0.74505805969E-08  0.93827000000E+00  0.93827000000E+00 0. -1.
     999902    2    1    2    0    0 -0.42380064716E-02  0.98528853157E-02 -0.96219624875E-02  0.10295208984E+01  0.10294200590E+01 0.  0.
     999903    2    3    3    0    0 -0.99399746607E-01 -0.79884320483E-01 -0.34637140125E-01  0.13950163902E+00  0.44711984168E-01 0.  0.
         14    1    1    2    0    0  0.42380064716E-02 -0.98528853157E-02  0.96219624875E-02  0.14409101638E-01  0.00000000000E+00 0.  1.
     999901    1    3    3    0    0  0.95161740135E-01  0.89737205799E-01  0.25015177638E-01  0.89001925934E+00  0.88000000000E+00 0.  1.
        -11    1    4    4    0    0 -0.62663860672E-01 -0.22953593586E-01 -0.10410570093E-01  0.67544562945E-01  0.51100000000E-03 0.  1.
         11    1    4    4    0    0 -0.36735885935E-01 -0.56930726898E-01 -0.24226570032E-01  0.71957076073E-01  0.51100000000E-03 0. -1.
</event>
<event>
 8    1  0.2183582E+004  0.1043930E+01  0.7957747E-01            NaN
         13   -1    0    0    0    0  0.00000000000E+00  0.00000000000E+00  0.74505805969E-08  0.10566000000E+00  0.10566000000E+00 0. -1.
     999900   -1    0    0    0    0 -0.00000000000E+00 -0.00000000000E+00 -0.74505805969E-08  0.93827000000E+00  0.93827000000E+00 0.  1.
     999902    2    1    2    0    0 -0.23244213716E-02 -0.13444700700E-01 -0.15027356065E-02  0.10302033425E+01  0.10301118899E+01 0.  0.
     999903    2    3    3    0    0  0.58551678040E-01  0.63672108578E-01 -0.10110239842E+00  0.13915171966E+00  0.40731679392E-01 0.  0.
         14    1    1    2    0    0  0.23244213716E-02  0.13444700700E-01  0.15027356065E-02  0.13726657493E-01  0.00000000000E+00 0. -1.
     999901    1    3    3    0    0 -0.60876099412E-01 -0.77116809277E-01  0.99599662809E-01  0.89105162285E+00  0.88000000000E+00 0. -1.
        -11    1    4    4    0    0 -0.48015475462E-02  0.79089513726E-02 -0.20268165650E-01  0.22286005260E-01  0.51100000000E-03 0.  1.
         11    1    4    4    0    0  0.63353225586E-01  0.55763157205E-01 -0.80834232766E-01  0.11686571440E+00  0.51100000000E-03 0. -1.
</event>
<event>
 8    1  0.2183582E+004  0.1043930E+01  0.7957747E-01            NaN
         13   -1    0    0    0    0  0.00000000000E+00  0.00000000000E+00  0.74505805969E-08  0.10566000000E+00  0.10566000000E+00 0. -1.
     999900   -1    0    0    0    0 -0.00000000000E+00 -0.00000000000E+00 -0.74505805969E-08  0.93827000000E+00  0.93827000000E+00 0.  1.
     999902    2    1    2    0    0 -0.11863622871E-01  0.50581515235E-02 -0.41670662333E-02  0.10303765914E+01  0.10302874478E+01 0.  0.
     999903    2    3    3    0    0  0.67766156795E-01 -0.54093114375E-02  0.11591736321E+00  0.13859705596E+00  0.33923386754E-01 0.  0.
         14    1    1    2    0    0  0.11863622871E-01 -0.50581515235E-02  0.41670662333E-02  0.13553408629E-01  0.00000000000E+00 0. -1.
     999901    1    3    3    0    0 -0.79629779667E-01  0.10467462961E-01 -0.12008442944E+00  0.89177953542E+00  0.88000000000E+00 0.  1.
        -11    1    4    4    0    0  0.53922558957E-01 -0.87149096100E-02  0.11067433928E+00  0.12342067294E+00  0.51100000000E-03 0. -1.
         11    1    4    4    0    0  0.13843597839E-01  0.33055981725E-02  0.52430239317E-02  0.15176383012E-01  0.51100000000E-03 0.  1.
</event>
<event>
 8    1  0.2183582E+004  0.1043930E+01  0.7957747E-01            NaN
         13   -1    0    0    0    0  0.00000000000E+00  0.00000000000E+00  0.74505805969E-08  0.10566000000E+00  0.10566000000E+00 0.  1.
     999900   -1    0    0    0    0 -0.00000000000E+00 -0.00000000000E+00 -0.74505805969E-08  0.93827000000E+00  0.93827000000E+00 0. -1.
     999902    2    1    2    0    0  0.81914494926E-02 -0.10960882169E-01  0.11161363396E-02  0.10302009599E+01  0.10301094753E+01 0.  0.
     999903    2    3    3    0    0  0.42024017856E-01 -0.19222958225E-02 -0.12641738618E+00  0.14031830575E+00  0.44024517045E-01 0.  0.
         14    1    1    2    0    0 -0.81914494926E-02  0.10960882169E-01 -0.11161363396E-02  0.13729040135E-01  0.00000000000E+00 0.  1.
     999901    1    3    3    0    0 -0.33832568364E-01 -0.90385863463E-02  0.12753352252E+00  0.88988265411E+00  0.88000000000E+00 0.  1.
        -11    1    4    4    0    0  0.23230082487E-01 -0.17706851020E-01 -0.10033105969E+00  0.10449761703E+00  0.51100000000E-03 0.  1.
         11    1    4    4    0    0  0.18793935369E-01  0.15784555197E-01 -0.26086326492E-01  0.35820688719E-01  0.51100000000E-03 0. -1.
</event>
<event>
 8    1  0.2183582E+004  0.1043930E+01  0.7957747E-01            NaN
         13   -1    0    0    0    0  0.00000000000E+00  0.00000000000E+00  0.74505805969E-08  0.10566000000E+00  0.10566000000E+00 0.  1.
     999900   -1    0    0    0    0 -0.00000000000E+00 -0.00000000000E+00 -0.74505805969E-08  0.93827000000E+00  0.93827000000E+00 0.  1.
     999902    2    1    2    0    0  0.82516628877E-02 -0.16454143042E-01 -0.24085813433E-02  0.10253657864E+01  0.10251977204E+01 0.  0.
     999903    2    3    3    0    0  0.92209216247E-01  0.78479270853E-01  0.35215698345E-01  0.13549118270E+00  0.49559859403E-01 0.  0.
         14    1    1    2    0    0 -0.82516628877E-02  0.16454143042E-01  0.24085813433E-02  0.18564213631E-01  0.00000000000E+00 0.  1.
     999901    1    3    3    0    0 -0.83957553359E-01 -0.94933413894E-01 -0.37624279688E-01  0.88987460367E+00  0.88000000000E+00 0.  1.
        -11    1    4    4    0    0  0.90692079355E-02  0.35145656170E-01  0.16546402380E-01  0.39893761830E-01  0.51100000000E-03 0.  1.
         11    1    4    4    0    0  0.83140008311E-01  0.43333614682E-01  0.18669295965E-01  0.95597420866E-01  0.51100000000E-03 0. -1.
</event>
<event>
 8    1  0.2275532E+004  0.1043930E+01  0.7957747E-01            NaN
         13   -1    0    0    0    0  0.00000000000E+00  0.00000000000E+00  0.74505805969E-08  0.10566000000E+00  0.10566000000E+00 0. -1.
     999900   -1    0    0    0    0 -0.00000000000E+00 -0.00000000000E+00 -0.74505805969E-08  0.93827000000E+00  0.93827000000E+00 0. -1.
     999902    2    1    2    0    0 -0.82573913495E-03 -0.19228050715E-02 -0.13622849192E-01  0.10301473644E+01  0.10300551593E+01 0.  0.
     999903    2    3    3    0    0 -0.26703969542E-01  0.12946924660E+00 -0.11671874327E-01  0.14001402586E+00  0.44635266124E-01 0.  0.
         14    1    1    2    0    0  0.82573913495E-03  0.19228050715E-02  0.13622849192E-01  0.13782635617E-01  0.00000000000E+00 0. -1.
     999901    1    3    3    0    0  0.25878230407E-01 -0.13139205167E+00 -0.19509748646E-02  0.89013333853E+00  0.88000000000E+00 0.  1.
        -11    1    4    4    0    0 -0.21971381330E-02  0.10319704439E+00 -0.13127006497E-01  0.10405304804E+00  0.51100000000E-03 0. -1.
         11    1    4    4    0    0 -0.24506831409E-01  0.26272202213E-01  0.14551321696E-02  0.35960977815E-01  0.51100000000E-03 0.  1.
</event>
<event>
 8    1  0.2183582E+004  0.1043930E+01  0.7957747E-01            NaN
         13   -1    0    0    0    0  0.00000000000E+00  0.00000000000E+00  0.74505805969E-08  0.10566000000E+00  0.10566000000E+00 0.  1.
     999900   -1    0    0    0    0 -0.00000000000E+00 -0.00000000000E+00 -0.74505805969E-08  0.93827000000E+00  0.93827000000E+00 0.  1.
     999902    2    1    2    0    0  0.20304687093E-02 -0.79484553175E-02  0.34356045827E-02  0.10350359501E+01  0.10349977362E+01 0.  0.
     999903    2    3    3    0    0 -0.62803982940E-01 -0.11496812872E+00  0.43592151740E-01  0.14527796900E+00  0.45204000823E-01 0.  0.
         14    1    1    2    0    0 -0.20304687093E-02  0.79484553175E-02 -0.34356045827E-02  0.88940499190E-02  0.00000000000E+00 0. -1.
     999901    1    3    3    0    0  0.64834451649E-01  0.10701967340E+00 -0.40156547157E-01  0.88975798108E+00  0.88000000000E+00 0.  1.
        -11    1    4    4    0    0 -0.35725179488E-01 -0.65690635770E-01  0.48027913975E-01  0.88873447773E-01  0.51100000000E-03 0. -1.
         11    1    4    4    0    0 -0.27078803452E-01 -0.49277492945E-01 -0.44357622350E-02  0.56404521228E-01  0.51100000000E-03 0.  1.
</event>
<event>
 8    1  0.2183582E+004  0.1043930E+01  0.7957747E-01            NaN
         13   -1    0    0    0    0  0.00000000000E+00  0.00000000000E+00  0.74505805969E-08  0.10566000000E+00  0.10566000000E+00 0. -1.
     999900   -1    0    0    0    0 -0.00000000000E+00 -0.00000000000E+00 -0.74505805969E-08  0.93827000000E+00  0.93827000000E+00 0. -1.
     999902    2    1    2    0    0 -0.13835351137E-01  0.57952487414E-03 -0.21405175855E-02  0.10299180549E+01  0.10298227348E+01 0.  0.
     999903    2    3    3    0    0 -0.77453769993E-01  0.86490493954E-01  0.66350499338E-01  0.14080669110E+00  0.44095844084E-01 0.  0.
         14    1    1    2    0    0  0.13835351137E-01 -0.57952487414E-03  0.21405175855E-02  0.14011945108E-01  0.00000000000E+00 0. -1.
     999901    1    3    3    0    0  0.63618418855E-01 -0.85910969080E-01 -0.68491016924E-01  0.88911136379E+00  0.88000000000E+00 0. -1.
        -11    1    4    4    0    0 -0.79295126812E-01  0.72751397894E-01  0.48077612536E-01  0.11786518137E+00  0.51100000000E-03 0.  1.
         11    1    4    4    0    0  0.18413568197E-02  0.13739096061E-01  0.18272886802E-01  0.22941509728E-01  0.51100000000E-03 0. -1.
</event>
<event>
 8    1  0.2183582E+004  0.1043930E+01  0.7957747E-01            NaN
         13   -1    0    0    0    0  0.00000000000E+00  0.00000000000E+00  0.74505805969E-08  0.10566000000E+00  0.10566000000E+00 0.  1.
     999900   -1    0    0    0    0 -0.00000000000E+00 -0.00000000000E+00 -0.74505805969E-08  0.93827000000E+00  0.93827000000E+00 0. -1.
     999902    2    1    2    0    0  0.13197252239E-01 -0.75306450698E-02 -0.10441881357E-01  0.10254933255E+01  0.10253275816E+01 0.  0.
     999903    2    3    3    0    0 -0.92730058124E-01  0.83177645013E-01  0.19416041624E-01  0.13401136572E+00  0.45438740754E-01 0.  0.
         14    1    1    2    0    0 -0.13197252239E-01  0.75306450698E-02  0.10441881357E-01  0.18436674540E-01  0.00000000000E+00 0.  1.
     999901    1    3    3    0    0  0.10592731036E+00 -0.90708290083E-01 -0.29857922981E-01  0.89148195974E+00  0.88000000000E+00 0. -1.
        -11    1    4    4    0    0 -0.19020312197E-01  0.46128495379E-01  0.37579243744E-02  0.50039918851E-01  0.51100000000E-03 0.  1.
         11    1    4    4    0    0 -0.73709745926E-01  0.37049149634E-01  0.15658117249E-01  0.83971446873E-01  0.51100000000E-03 0. -1.
</event>
<event>
 8    1  0.2183582E+004  0.1043930E+01  0.7957747E-01            NaN
         13   -1    0    0    0    0  0.00000000000E+00  0.00000000000E+00  0.74505805969E-08  0.10566000000E+00  0.10566000000E+00 0. -1.
     999900   -1    0    0    0    0 -0.00000000000E+00 -0.00000000000E+00 -0.74505805969E-08  0.93827000000E+00  0.93827000000E+00 0. -1.
     999902    2    1    2    0    0  0.51229445541E-02 -0.11514338801E-02 -0.12702522468E-01  0.10301850214E+01  0.10300933229E+01 0.  0.
     999903    2    3    3    0    0  0.46223447016E-01  0.10582224245E+00  0.63819871833E-01  0.13946155385E+00  0.45184011666E-01 0.  0.
         14    1    1    2    0    0 -0.51229445541E-02  0.11514338801E-02  0.12702522468E-01  0.13744978644E-01  0.00000000000E+00 0. -1.
     999901    1    3    3    0    0 -0.41100502462E-01 -0.10697367633E+00 -0.76522394301E-01  0.89072346750E+00  0.88000000000E+00 0.  1.
        -11    1    4    4    0    0  0.51453549340E-01  0.99802071801E-01  0.48766795436E-01  0.12241888226E+00  0.51100000000E-03 0. -1.
         11    1    4    4    0    0 -0.52301023246E-02  0.60201706524E-02  0.15053076397E-01  0.17042671593E-01  0.51100000000E-03 0.  1.
</event>
<event>
 8    1  0.2183582E+004  0.1043930E+01  0.7957747E-01            NaN
         13   -1    0    0    0    0  0.00000000000E+00  0.00000000000E+00  0.74505805969E-08  0.10566000000E+00  0.10566000000E+00 0.  1.
     999900   -1    0    0    0    0 -0.00000000000E+00 -0.00000000000E+00 -0.74505805969E-08  0.93827000000E+00  0.93827000000E+00 0.  1.
     999902    2    1    2    0    0 -0.23443428759E-02  0.13169747400E-01 -0.19642185555E-02  0.10304097802E+01  0.10303210755E+01 0.  0.
     999903    2    3    3    0    0 -0.88500603412E-01  0.37246592599E-01 -0.93141748342E-01  0.14118768324E+00  0.45154303783E-01 0.  0.
         14    1    1    2    0    0  0.23443428759E-02 -0.13169747400E-01  0.19642185555E-02  0.13520219844E-01  0.00000000000E+00 0. -1.
     999901    1    3    3    0    0  0.86156260536E-01 -0.24076845199E-01  0.91177529787E-01  0.88922209692E+00  0.88000000000E+00 0. -1.
        -11    1    4    4    0    0 -0.69520011405E-01  0.27155135371E-01 -0.41846017850E-01  0.85567421918E-01  0.51100000000E-03 0.  1.
         11    1    4    4    0    0 -0.18980592007E-01  0.10091457227E-01 -0.51295730492E-01  0.55620261323E-01  0.51100000000E-03 0. -1.
</event>
<event>
 8    1  0.2183582E+004  0.1043930E+01  0.7957747E-01            NaN
         13   -1    0    0    0    0  0.00000000000E+00  0.00000000000E+00  0.74505805969E-08  0.10566000000E+00  0.10566000000E+00 0. -1.
     999900   -1    0    0    0    0 -0.00000000000E+00 -0.00000000000E+00 -0.74505805969E-08  0.93827000000E+00  0.93827000000E+00 0.  1.
     999902    2    1    2    0    0  0.38287879885E-02 -0.89241404195E-02  0.10338560315E-01  0.10297460045E+01  0.10296483128E+01 0.  0.
     999903    2    3    3    0    0 -0.88027129547E-01 -0.87386841771E-01  0.49034620076E-01  0.14065023341E+00  0.44641444200E-01 0.  0.
         14    1    1    2    0    0 -0.38287879885E-02  0.89241404195E-02 -0.10338560315E-01  0.14183995526E-01  0.00000000000E+00 0. -1.
     999901    1    3    3    0    0  0.91855917536E-01  0.78462701351E-01 -0.38696059762E-01  0.88909577107E+00  0.88000000000E+00 0. -1.
        -11    1    4    4    0    0 -0.22591321367E-01 -0.13236081471E-01  0.30205814276E-01  0.39977668652E-01  0.51100000000E-03 0. -1.
         11    1    4    4    0    0 -0.65435808181E-01 -0.74150760300E-01  0.18828805800E-01  0.10067256475E+00  0.51100000000E-03 0.  1.
</event>
<event>
 8    1  0.2183582E+004  0.1043930E+01  0.7957747E-01            NaN
         13   -1    0    0    0    0  0.00000000000E+00  0.00000000000E+00  0.74505805969E-08  0.10566000000E+00  0.10566000000E+00 0. -1.
     999900   -1    0    0    0    0 -0.00000000000E+00 -0.00000000000E+00 -0.74505805969E-08  0.93827000000E+00  0.93827000000E+00 0.  1.
     999902    2    1    2    0    0  0.60954278044E-02 -0.19838376318E-01  0.46486536680E-02  0.10226620571E+01  0.10224408822E+01 0.  0.
     999903    2    3    3    0    0 -0.57918131079E-01  0.39478324700E-01  0.10401170121E+00  0.13278047959E+00  0.43579510601E-01 0.  0.
         14    1    1    2    0    0 -0.60954278044E-02  0.19838376318E-01 -0.46486536680E-02  0.21267942918E-01  0.00000000000E+00 0.  1.
     999901    1    3    3    0    0  0.64013558883E-01 -0.59316701018E-01 -0.99363047537E-01  0.88988157749E+00  0.88000000000E+00 0.  1.
        -11    1    4    4    0    0 -0.61716811808E-01  0.24479636446E-01  0.90421918302E-01  0.11218111200E+00  0.51100000000E-03 0. -1.
         11    1    4    4    0    0  0.37986807288E-02  0.14998688254E-01  0.13589782903E-01  0.20599367587E-01  0.51100000000E-03 0.  1.
</event>
<event>
 8    1  0.2183582E+004  0.1043930E+01  0.7957747E-01            NaN
         13   -1    0    0    0    0  0.00000000000E+00  0.00000000000E+00  0.74505805969E-08  0.10566000000E+00  0.10566000000E+00 0.  1.
     999900   -1    0    0    0    0 -0.00000000000E+00 -0.00000000000E+00 -0.74505805969E-08  0.93827000000E+00  0.93827000000E+00 0.  1.
     999902    2    1    2    0    0 -0.97983372964E-02  0.11417596766E-01 -0.88025124545E-02  0.10264986158E+01  0.10263506005E+01 0.  0.
     999903    2    3    3    0    0  0.18941565680E-01 -0.90051839110E-01  0.88244138730E-01  0.13490449236E+00  0.44091693116E-01 0.  0.
         14    1    1    2    0    0  0.97983372964E-02 -0.11417596766E-01  0.88025124545E-02  0.17431384202E-01  0.00000000000E+00 0.  1.
     999901    1    3    3    0    0 -0.28739902976E-01  0.10146943588E+00 -0.97046651184E-01  0.89159412344E+00  0.88000000000E+00 0.  1.
        -11    1    4    4    0    0  0.12082509790E-01 -0.24602910349E-01  0.54366111752E-01  0.60886989320E-01  0.51100000000E-03 0.  1.
         11    1    4    4    0    0  0.68590558903E-02 -0.65448928761E-01  0.33878026978E-01  0.74017503042E-01  0.51100000000E-03 0. -1.
</event>
<event>
 8    1  0.2183582E+004  0.1043930E+01  0.7957747E-01            NaN
         13   -1    0    0    0    0  0.00000000000E+00  0.00000000000E+00  0.74505805969E-08  0.10566000000E+00  0.10566000000E+00 0. -1.
     999900   -1    0    0    0    0 -0.00000000000E+00 -0.00000000000E+00 -0.74505805969E-08  0.93827000000E+00  0.93827000000E+00 0.  1.
     999902    2    1    2    0    0 -0.37637563238E-02 -0.52929946799E-02 -0.11187461766E-01  0.10309939668E+01  0.10309128084E+01 0.  0.
     999903    2    3    3    0    0 -0.12735818257E+00  0.36169431964E-01 -0.20147571352E-01  0.14134516047E+00  0.45212777846E-01 0.  0.
         14    1    1    2    0    0  0.37637563238E-02  0.52929946799E-02  0.11187461766E-01  0.12936033206E-01  0.00000000000E+00 0. -1.
     999901    1    3    3    0    0  0.12359442625E+00 -0.41462426644E-01  0.89601095856E-02  0.88964880632E+00  0.88000000000E+00 0. -1.
        -11    1    4    4    0    0 -0.36807382746E-01  0.65334247967E-02 -0.26545776542E-01  0.45852027626E-01  0.51100000000E-03 0. -1.
         11    1    4    4    0    0 -0.90550799828E-01  0.29636007167E-01  0.63982051899E-02  0.95493132847E-01  0.51100000000E-03 0.  1.
</event>
<event>
 8    1  0.2183582E+004  0.1043930E+01  0.7957747E-01            NaN
         13   -1    0    0    0    0  0.00000000000E+00  0.00000000000E+00  0.74505805969E-08  0.10566000000E+00  0.10566000000E+00 0. -1.
     999900   -1    0    0    0    0 -0.00000000000E+00 -0.00000000000E+00 -0.74505805969E-08  0.93827000000E+00  0.93827000000E+00 0.  1.
     999902    2    1    2    0    0 -0.49451811615E-02  0.63124946816E-02  0.10998718062E-01  0.10303184533E+01  0.10302285382E+01 0.  0.
     999903    2    3    3    0    0 -0.11776084114E+00  0.18266578374E-01  0.61744987764E-01  0.14158595292E+00  0.45087192874E-01 0.  0.
         14    1    1    2    0    0  0.49451811615E-02 -0.63124946816E-02 -0.10998718062E-01  0.13611546746E-01  0.00000000000E+00 0.  1.
     999901    1    3    3    0    0  0.11281565997E+00 -0.11954083692E-01 -0.50746269703E-01  0.88873250033E+00  0.88000000000E+00 0.  1.
        -11    1    4    4    0    0 -0.77502907558E-01  0.33121577130E-01  0.37002949453E-01  0.92050089303E-01  0.51100000000E-03 0.  1.
         11    1    4    4    0    0 -0.40257933578E-01 -0.14854998756E-01  0.24742038311E-01  0.49535863622E-01  0.51100000000E-03 0. -1.
</event>
<event>
 8    1  0.2207566E+004  0.1043930E+01  0.7957747E-01            NaN
         13   -1    0    0    0    0  0.00000000000E+00  0.00000000000E+00  0.74505805969E-08  0.10566000000E+00  0.10566000000E+00 0.  1.
     999900   -1    0    0    0    0 -0.00000000000E+00 -0.00000000000E+00 -0.74505805969E-08  0.93827000000E+00  0.93827000000E+00 0. -1.
     999902    2    1    2    0    0 -0.73835167666E-02  0.50379498695E-02 -0.98801490964E-02  0.10306065393E+01  0.10305204143E+01 0.  0.
     999903    2    3    3    0    0  0.31052971522E-02  0.32854807283E-01 -0.13058052754E+00  0.14187014749E+00  0.44573347912E-01 0.  0.
         14    1    1    2    0    0  0.73835167666E-02 -0.50379498695E-02  0.98801490964E-02  0.13323460695E-01  0.00000000000E+00 0.  1.
     999901    1    3    3    0    0 -0.10488813919E-01 -0.27816857414E-01  0.12070037845E+00  0.88873639181E+00  0.88000000000E+00 0.  1.
        -11    1    4    4    0    0 -0.10261353458E-01  0.29378675888E-01 -0.42310386471E-01  0.52524583730E-01  0.51100000000E-03 0.  1.
         11    1    4    4    0    0  0.13366650610E-01  0.34761313950E-02 -0.88270141073E-01  0.89345563763E-01  0.51100000000E-03 0. -1.
</event>
<event>
 8    1  0.2183582E+004  0.1043930E+01  0.7957747E-01            NaN
         13   -1    0    0    0    0  0.00000000000E+00  0.00000000000E+00  0.74505805969E-08  0.10566000000E+00  0.10566000000E+00 0. -1.
     999900   -1    0    0    0    0 -0.00000000000E+00 -0.00000000000E+00 -0.74505805969E-08  0.93827000000E+00  0.93827000000E+00 0. -1.
     999902    2    1    2    0    0 -0.35583794155E-02  0.16066589016E-02  0.13713843538E-01  0.10296712160E+01  0.10295724841E+01 0.  0.
     999903    2    3    3    0    0 -0.56584673519E-01 -0.11703341969E-01  0.12097332980E+00  0.14147442395E+00  0.45184871588E-01 0.  0.
         14    1    1    2    0    0  0.35583794155E-02 -0.16066589016E-02 -0.13713843538E-01  0.14258784011E-01  0.00000000000E+00 0.  1.
     999901    1    3    3    0    0  0.53026294103E-01  0.13310000870E-01 -0.10725948626E+00  0.88819679204E+00  0.88000000000E+00 0. -1.
        -11    1    4    4    0    0 -0.87133951463E-03  0.30279242550E-02  0.49764970862E-01  0.49867233769E-01  0.51100000000E-03 0. -1.
         11    1    4    4    0    0 -0.55713334004E-01 -0.14731266224E-01  0.71208358935E-01  0.91607190185E-01  0.51100000000E-03 0.  1.
</event>
<event>
 8    1  0.2183582E+004  0.1043930E+01  0.7957747E-01            NaN
         13   -1    0    0    0    0  0.00000000000E+00  0.00000000000E+00  0.74505805969E-08  0.10566000000E+00  0.10566000000E+00 0.  1.
     999900   -1    0    0    0    0 -0.00000000000E+00 -0.00000000000E+00 -0.74505805969E-08  0.93827000000E+00  0.93827000000E+00 0.  1.
     999902    2    1    2    0    0 -0.34856007419E-02  0.51484548241E-02 -0.11364170492E-01  0.10309762218E+01  0.10308948392E+01 0.  0.
     999903    2    3    3    0    0  0.89689687851E-01  0.34693288508E-01  0.90617105650E-01  0.13971042960E+00  0.45383696719E-01 0.  0.
         14    1    1    2    0    0  0.34856007419E-02 -0.51484548241E-02  0.11364170492E-01  0.12953778236E-01  0.00000000000E+00 0.  1.
     999901    1    3    3    0    0 -0.93175288592E-01 -0.29544833684E-01 -0.10198127614E+00  0.89126579217E+00  0.88000000000E+00 0.  1.
        -11    1    4    4    0    0  0.64657777663E-01  0.29252823762E-02  0.65569618521E-01  0.92134800610E-01  0.51100000000E-03 0. -1.
         11    1    4    4    0    0  0.25031910187E-01  0.31768006132E-01  0.25047487129E-01  0.47575628989E-01  0.51100000000E-03 0.  1.
</event>
<event>
 8    1  0.2183582E+004  0.1043930E+01  0.7957747E-01            NaN
         13   -1    0    0    0    0  0.00000000000E+00  0.00000000000E+00  0.74505805969E-08  0.10566000000E+00  0.10566000000E+00 0.  1.
     999900   -1    0    0    0    0 -0.00000000000E+00 -0.00000000000E+00 -0.74505805969E-08  0.93827000000E+00  0.93827000000E+00 0.  1.
     999902    2    1    2    0    0  0.83559731059E-02  0.73050720474E-02  0.86249777357E-02  0.10298738055E+01  0.10297778783E+01 0.  0.
     999903    2    3    3    0    0 -0.97200766020E-01 -0.87862191923E-01  0.26082297775E-02  0.13845065422E+00  0.44654530634E-01 0.  0.
         14    1    1    2    0    0 -0.83559731059E-02 -0.73050720474E-02 -0.86249777357E-02  0.14056194546E-01  0.00000000000E+00 0. -1.
     999901    1    3    3    0    0  0.10555673913E+00  0.95167263970E-01  0.60167479583E-02  0.89142315124E+00  0.88000000000E+00 0. -1.
        -11    1    4    4    0    0 -0.56304574460E-01 -0.21099314967E-01  0.84126164322E-03  0.60136137549E-01  0.51100000000E-03 0.  1.
         11    1    4    4    0    0 -0.40896191560E-01 -0.66762876955E-01  0.17669681342E-02  0.78314516668E-01  0.51100000000E-03 0. -1.
</event>
<event>
 8    1  0.2183582E+004  0.1043930E+01  0.7957747E-01            NaN
         13   -1    0    0    0    0  0.00000000000E+00  0.00000000000E+00  0.74505805969E-08  0.10566000000E+00  0.10566000000E+00 0. -1.
     999900   -1    0    0    0    0 -0.00000000000E+00 -0.00000000000E+00 -0.74505805969E-08  0.93827000000E+00  0.93827000000E+00 0.  1.
     999902    2    1    2    0    0  0.25032901921E-02 -0.14044071602E-01 -0.82175344837E-02  0.10274670026E+01  0.10273351017E+01 0.  0.
     999903    2    3    3    0    0 -0.44772426819E-01  0.12027252051E+00 -0.10432315120E-04  0.13598324123E+00  0.44959897634E-01 0.  0.
         14    1    1    2    0    0 -0.25032901921E-02  0.14044071602E-01  0.82175344837E-02  0.16462997356E-01  0.00000000000E+00 0.  1.
     999901    1    3    3    0    0  0.47275717011E-01 -0.13431659211E+00 -0.82071021686E-02  0.89148376141E+00  0.88000000000E+00 0. -1.
        -11    1    4    4    0    0 -0.48998490459E-01  0.70578672287E-01  0.34225525408E-02  0.85989394904E-01  0.51100000000E-03 0. -1.
         11    1    4    4    0    0  0.42260636406E-02  0.49693848219E-01 -0.34329848559E-02  0.49993846329E-01  0.51100000000E-03 0.  1.
</event>
<event>
 8    1  0.2183582E+004  0.1043930E+01  0.7957747E-01            NaN
         13   -1    0    0    0    0  0.00000000000E+00  0.00000000000E+00  0.74505805969E-08  0.10566000000E+00  0.10566000000E+00 0.  1.
     999900   -1    0    0    0    0 -0.00000000000E+00 -0.00000000000E+00 -0.74505805969E-08  0.93827000000E+00  0.93827000000E+00 0.  1.
     999902    2    1    2    0    0  0.49119836260E-02 -0.12379909388E-01 -0.14603688670E-02  0.10305314024E+01  0.10304442969E+01 0.  0.
     999903    2    3    3    0    0  0.37675651646E-01  0.27975644429E-01 -0.12418198563E+00  0.14049622117E+00  0.45999252149E-01 0.  0.
         14    1    1    2    0    0 -0.49119836260E-02  0.12379909388E-01  0.14603688670E-02  0.13398597569E-01  0.00000000000E+00 0.  1.
     999901    1    3    3    0    0 -0.32763668020E-01 -0.40355553816E-01  0.12272161677E+00  0.89003518126E+00  0.88000000000E+00 0. -1.
        -11    1    4    4    0    0  0.22156358197E-01 -0.98134681487E-02 -0.37230947061E-01  0.44425363315E-01  0.51100000000E-03 0. -1.
         11    1    4    4    0    0  0.15519293449E-01  0.37789112577E-01 -0.86951038572E-01  0.96070857852E-01  0.51100000000E-03 0.  1.
</event>
<event>
 8    1  0.2183582E+004  0.1043930E+01  0.7957747E-01            NaN
         13   -1    0    0    0    0  0.00000000000E+00  0.00000000000E+00  0.74505805969E-08  0.10566000000E+00  0.10566000000E+00 0.  1.
     999900   -1    0    0    0    0 -0.00000000000E+00 -0.00000000000E+00 -0.74505805969E-08  0.93827000000E+00  0.93827000000E+00 0.  1.
     999902    2    1    2    0    0 -0.34911460418E-02  0.11167429570E-01 -0.77872848766E-02  0.10298750582E+01  0.10297791482E+01 0.  0.
     999903    2    3    3    0    0 -0.33285752110E-01  0.12663941030E+00 -0.29644500558E-01  0.14156248100E+00  0.44896080889E-01 0.  0.
         14    1    1    2    0    0  0.34911460418E-02 -0.11167429570E-01  0.77872848766E-02  0.14054941823E-01  0.00000000000E+00 0.  1.
     999901    1    3    3    0    0  0.29794606069E-01 -0.11547198073E+00  0.21857215681E-01  0.88831257717E+00  0.88000000000E+00 0. -1.
        -11    1    4    4    0    0 -0.18010425109E-01  0.39289976718E-01  0.10096890597E-01  0.44387903801E-01  0.51100000000E-03 0. -1.
         11    1    4    4    0    0 -0.15275327002E-01  0.87349433586E-01 -0.39741391155E-01  0.97174577203E-01  0.51100000000E-03 0.  1.
</event>
<event>
 8    1  0.2183582E+004  0.1043930E+01  0.7957747E-01            NaN
         13   -1    0    0    0    0  0.00000000000E+00  0.00000000000E+00  0.74505805969E-08  0.10566000000E+00  0.10566000000E+00 0.  1.
     999900   -1    0    0    0    0 -0.00000000000E+00 -0.00000000000E+00 -0.74505805969E-08  0.93827000000E+00  0.93827000000E+00 0.  1.
     999902    2    1    2    0    0  0.38973222085E-02  0.13026690475E-01  0.17865372879E-02  0.10302159379E+01  0.10301246542E+01 0.  0.
     999903    2    3    3    0    0  0.88317401968E-01  0.73846840167E-01 -0.68880300884E-01  0.14127294615E+00  0.44274486689E-01 0.  0.
         14    1    1    2    0    0 -0.38973222085E-02 -0.13026690475E-01 -0.17865372879E-02  0.13714062148E-01  0.00000000000E+00 0. -1.
     999901    1    3    3    0    0 -0.84420079759E-01 -0.60820149692E-01  0.70666838172E-01  0.88894299170E+00  0.88000000000E+00 0.  1.
        -11    1    4    4    0    0  0.16659641308E-01  0.14719788430E-01 -0.36780481537E-01  0.42980004223E-01  0.51100000000E-03 0.  1.
         11    1    4    4    0    0  0.71657760660E-01  0.59127051736E-01 -0.32099819347E-01  0.98292941929E-01  0.51100000000E-03 0. -1.
</event>
<event>
 8    1  0.2183582E+004  0.1043930E+01  0.7957747E-01            NaN
         13   -1    0    0    0    0  0.00000000000E+00  0.00000000000E+00  0.74505805969E-08  0.10566000000E+00  0.10566000000E+00 0.  1.
     999900   -1    0    0    0    0 -0.00000000000E+00 -0.00000000000E+00 -0.74505805969E-08  0.93827000000E+00  0.93827000000E+00 0.  1.
     999902    2    1    2    0    0  0.10950360819E-01  0.88368106178E-02 -0.24579734354E-01  0.10156075184E+01  0.10152125238E+01 0.  0.
     999903    2    3    3    0    0 -0.19800387273E-01 -0.19085303324E-01  0.11109639079E+00  0.12424156442E+00  0.48345156361E-01 0.  0.
         14    1    1    2    0    0 -0.10950360819E-01 -0.88368106178E-02  0.24579734354E-01  0.28322481615E-01  0.00000000000E+00 0.  1.
     999901    1    3    3    0    0  0.30750748091E-01  0.27922113942E-01 -0.13567612514E+00  0.89136595397E+00  0.88000000000E+00 0.  1.
        -11    1    4    4    0    0  0.81380866629E-02 -0.24830070627E-01  0.64666029267E-01  0.69747525576E-01  0.51100000000E-03 0.  1.
         11    1    4    4    0    0 -0.27938473935E-01  0.57447673032E-02  0.46430361523E-01  0.54494038843E-01  0.51100000000E-03 0. -1.
</event>
<event>
 8    1  0.2183582E+004  0.1043930E+01  0.7957747E-01            NaN
         13   -1    0    0    0    0  0.00000000000E+00  0.00000000000E+00  0.74505805969E-08  0.10566000000E+00  0.10566000000E+00 0.  1.
     999900   -1    0    0    0    0 -0.00000000000E+00 -0.00000000000E+00 -0.74505805969E-08  0.93827000000E+00  0.93827000000E+00 0. -1.
     999902    2    1    2    0    0 -0.29994905841E-02  0.61749074605E-02  0.11562884718E-01  0.10304828171E+01  0.10303950745E+01 0.  0.
     999903    2    3    3    0    0 -0.38864403940E-01 -0.93985125038E-01  0.86477563989E-01  0.14091520677E+00  0.45111869863E-01 0.  0.
         14    1    1    2    0    0  0.29994905841E-02 -0.61749074605E-02 -0.11562884718E-01  0.13447182936E-01  0.00000000000E+00 0. -1.
     999901    1    3    3    0    0  0.35864913356E-01  0.10016003250E+00 -0.74914679271E-01  0.88956761030E+00  0.88000000000E+00 0.  1.
        -11    1    4    4    0    0 -0.12655334943E-01 -0.80728539007E-01  0.66967303207E-01  0.10565100725E+00  0.51100000000E-03 0. -1.
         11    1    4    4    0    0 -0.26209068997E-01 -0.13256586031E-01  0.19510260782E-01  0.35264199518E-01  0.51100000000E-03 0.  1.
</event>
<event>
 8    1  0.2183582E+004  0.1043930E+01  0.7957747E-01            NaN
         13   -1    0    0    0    0  0.00000000000E+00  0.00000000000E+00  0.74505805969E-08  0.10566000000E+00  0.10566000000E+00 0. -1.
     999900   -1    0    0    0    0 -0.00000000000E+00 -0.00000000000E+00 -0.74505805969E-08  0.93827000000E+00  0.93827000000E+00 0. -1.
     999902    2    1    2    0    0  0.13845248966E-02  0.18214971055E-01  0.16775878390E-02  0.10255856172E+01  0.10254215435E+01 0.  0.
     999903    2    3    3    0    0  0.63812856218E-01  0.11386388883E+00  0.68212453189E-02  0.13818916169E+00  0.44862559258E-01 0.  0.
         14    1    1    2    0    0 -0.13845248966E-02 -0.18214971055E-01 -0.16775878390E-02  0.18344382810E-01  0.00000000000E+00 0.  1.
     999901    1    3    3    0    0 -0.62428331321E-01 -0.95648917772E-01 -0.51436574799E-02  0.88739645550E+00  0.88000000000E+00 0.  1.
        -11    1    4    4    0    0  0.10597164186E-01  0.56101090270E-01 -0.97417249468E-02  0.57920588259E-01  0.51100000000E-03 0.  1.
         11    1    4    4    0    0  0.53215692032E-01  0.57762798557E-01  0.16562970266E-01  0.80268573430E-01  0.51100000000E-03 0. -1.
</event>
<event>
 8    1  0.2183582E+004  0.1043930E+01  0.7957747E-01            NaN
         13   -1    0    0    0    0  0.00000000000E+00  0.00000000000E+00  0.74505805969E-08  0.10566000000E+00  0.10566000000E+00 0.  1.
     999900   -1    0    0    0    0 -0.00000000000E+00 -0.00000000000E+00 -0.74505805969E-08  0.93827000000E+00  0.93827000000E+00 0.  1.
     999902    2    1    2    0    0 -0.38768672129E-02 -0.72623988060E-02 -0.10735545068E-01  0.10304013466E+01  0.10303125305E+01 0.  0.
     999903    2    3    3    0    0  0.56215244876E-01  0.91043834103E-01 -0.79158535475E-01  0.14025704198E+00  0.44236078072E-01 0.  0.
         14    1    1    2    0    0  0.38768672129E-02  0.72623988060E-02  0.10735545068E-01  0.13528653433E-01  0.00000000000E+00 0.  1.
     999901    1    3    3    0    0 -0.60092112088E-01 -0.98306232909E-01  0.68422990407E-01  0.89014430458E+00  0.88000000000E+00 0.  1.
        -11    1    4    4    0    0  0.35330405397E-01  0.79441279410E-01 -0.43209507719E-01  0.97090046339E-01  0.51100000000E-03 0. -1.
         11    1    4    4    0    0  0.20884839478E-01  0.11602554693E-01 -0.35949027756E-01  0.43166995645E-01  0.51100000000E-03 0.  1.
</event>
<event>
 8    1  0.2183582E+004  0.1043930E+01  0.7957747E-01            NaN
         13   -1    0    0    0    0  0.00000000000E+00  0.00000000000E+00  0.74505805969E-08  0.10566000000E+00  0.10566000000E+00 0. -1.
     999900   -1    0    0    0    0 -0.00000000000E+00 -0.00000000000E+00 -0.74505805969E-08  0.93827000000E+00  0.93827000000E+00 0. -1.
     999902    2    1    2    0    0  0.31374299425E-02 -0.10896809621E-01  0.64410714982E-02  0.10308888601E+01  0.10308063691E+01 0.  0.
     999903    2    3    3    0    0 -0.14092372163E-01  0.12899103053E+00  0.20395777910E-01  0.13956388701E+00  0.47167890473E-01 0.  0.
         14    1    1    2    0    0 -0.31374299425E-02  0.10896809621E-01 -0.64410714982E-02  0.13041139851E-01  0.00000000000E+00 0.  1.
     999901    1    3    3    0    0  0.17229802105E-01 -0.13988784015E+00 -0.13954706412E-01  0.89132497313E+00  0.88000000000E+00 0.  1.
        -11    1    4    4    0    0 -0.12439491230E-01  0.31933644927E-01 -0.13364232677E-01  0.36788074921E-01  0.51100000000E-03 0.  1.
         11    1    4    4    0    0 -0.16528809331E-02  0.97057385603E-01  0.33760010588E-01  0.10277581209E+00  0.51100000000E-03 0. -1.
</event>
<event>
 7    1  0.2183582E+004  0.1043930E+01  0.7957747E-01            NaN
         13   -1    0    0    0    0  0.00000000000E+00  0.00000000000E+00  0.74505805969E-08  0.10566000000E+00  0.10566000000E+00 0.  1.
     999900   -1    0    0    0    0 -0.00000000000E+00 -0.00000000000E+00 -0.74505805969E-08  0.93827000000E+00  0.93827000000E+00 0.  1.
     999903    2    1    2    0    0  0.88282851841E-02 -0.61607290934E-01 -0.96532399214E-01  0.12331670288E+00  0.44889956502E-01 0.  0.
         14    1    1    2    0    0  0.59099978879E-02  0.29940847278E-01 -0.12928481166E-01  0.33144049784E-01  0.00000000000E+00 0. -1.
     999901    1    1    2    0    0 -0.14738283072E-01  0.31666443655E-01  0.10946088038E+00  0.88746924734E+00  0.88000000000E+00 0. -1.
        -11    1    3    3    0    0 -0.15159285722E-01 -0.62866050483E-02 -0.21764828840E-01  0.27263423154E-01  0.51100000000E-03 0. -1.
         11    1    3    3    0    0  0.23987570906E-01 -0.55320685885E-01 -0.74767570373E-01  0.96053279722E-01  0.51100000000E-03 0.  1.
</event>
<event>
 7    1  0.2183582E+004  0.1043930E+01  0.7957747E-01            NaN
         13   -1    0    0    0    0  0.00000000000E+00  0.00000000000E+00  0.74505805969E-08  0.10566000000E+00  0.10566000000E+00 0.  1.
     999900   -1    0    0    0    0 -0.00000000000E+00 -0.00000000000E+00 -0.74505805969E-08  0.93827000000E+00  0.93827000000E+00 0.  1.
     999903    2    1    2    0    0 -0.17015222332E-02 -0.79167368507E-01 -0.82592853473E-01  0.12313457685E+00  0.45499199525E-01 0.  0.
         14    1    1    2    0    0 -0.25820278936E-01 -0.15960612834E-01  0.11246595588E-01  0.32371497938E-01  0.00000000000E+00 0.  1.
     999901    1    1    2    0    0  0.27521801169E-01  0.95127981341E-01  0.71346257884E-01  0.88842392521E+00  0.88000000000E+00 0. -1.
        -11    1    3    3    0    0  0.11008642037E-01 -0.15925030048E-01 -0.43723123240E-01  0.47820177837E-01  0.51100000000E-03 0. -1.
         11    1    3    3    0    0 -0.12710164270E-01 -0.63242338458E-01 -0.38869730233E-01  0.75314399014E-01  0.51100000000E-03 0.  1.
</event>
<event>
 8    1  0.2183582E+004  0.1043930E+01  0.7957747E-01            NaN
         13   -1    0    0    0    0  0.00000000000E+00  0.00000000000E+00  0.74505805969E-08  0.10566000000E+00  0.10566000000E+00 0.  1.
     999900   -1    0    0    0    0 -0.00000000000E+00 -0.00000000000E+00 -0.74505805969E-08  0.93827000000E+00  0.93827000000E+00 0. -1.
     999902    2    1    2    0    0  0.97237300029E-03  0.11973961412E-01 -0.65519251065E-02  0.10302461050E+01  0.10301552251E+01 0.  0.
     999903    2    3    3    0    0 -0.88021977045E-01  0.96760017805E-01  0.26361938892E-01  0.14109370398E+00  0.45848794897E-01 0.  0.
         14    1    1    2    0    0 -0.97237300029E-03 -0.11973961412E-01  0.65519251065E-02  0.13683895050E-01  0.00000000000E+00 0.  1.
     999901    1    3    3    0    0  0.88994350046E-01 -0.84786056393E-01 -0.32913863998E-01  0.88915240097E+00  0.88000000000E+00 0. -1.
        -11    1    4    4    0    0 -0.80283694138E-01  0.82320196915E-01  0.62631056487E-02  0.11515890751E+00  0.51100000000E-03 0. -1.
         11    1    4    4    0    0 -0.77382829071E-02  0.14439820890E-01  0.20098833243E-01  0.25934796479E-01  0.51100000000E-03 0.  1.
</event>
<event>
 8    1  0.2183582E+004  0.1043930E+01  0.7957747E-01            NaN
         13   -1    0    0    0    0  0.00000000000E+00  0.00000000000E+00  0.74505805969E-08  0.10566000000E+00  0.10566000000E+00 0. -1.
     999900   -1    0    0    0    0 -0.00000000000E+00 -0.00000000000E+00 -0.74505805969E-08  0.93827000000E+00  0.93827000000E+00 0.  1.
     999902    2    1    2    0    0 -0.34760893606E-02 -0.11199523454E-01 -0.68390987172E-02  0.10303548096E+01  0.10302653774E+01 0.  0.
     999903    2    3    3    0    0  0.60854149336E-01  0.69342487127E-01 -0.94827581548E-01  0.13997996260E+00  0.45722113850E-01 0.  0.
         14    1    1    2    0    0  0.34760893606E-02  0.11199523454E-01  0.68390987172E-02  0.13575190389E-01  0.00000000000E+00 0. -1.
     999901    1    3    3    0    0 -0.64330238697E-01 -0.80542010581E-01  0.87988482830E-01  0.89037484701E+00  0.88000000000E+00 0. -1.
        -11    1    4    4    0    0  0.54055930389E-01  0.29905084849E-01 -0.47054985365E-01  0.77658164276E-01  0.51100000000E-03 0. -1.
         11    1    4    4    0    0  0.67982189477E-02  0.39437402278E-01 -0.47772596183E-01  0.62321798324E-01  0.51100000000E-03 0.  1.
</event>
<event>
 8    1  0.2183582E+004  0.1043930E+01  0.7957747E-01            NaN
         13   -1    0    0    0    0  0.00000000000E+00  0.00000000000E+00  0.74505805969E-08  0.10566000000E+00  0.10566000000E+00 0. -1.
     999900   -1    0    0    0    0 -0.00000000000E+00 -0.00000000000E+00 -0.74505805969E-08  0.93827000000E+00  0.93827000000E+00 0. -1.
     999902    2    1    2    0    0 -0.22814106776E-02 -0.15546796659E-01  0.69909968218E-02  0.10267316932E+01  0.10265876426E+01 0.  0.
     999903    2    3    3    0    0  0.13971199380E-01 -0.49274686356E-01  0.12048105336E+00  0.13865415669E+00  0.45673863642E-01 0.  0.
         14    1    1    2    0    0  0.22814106776E-02  0.15546796659E-01 -0.69909968218E-02  0.17198306824E-01  0.00000000000E+00 0. -1.
     999901    1    3    3    0    0 -0.16252610058E-01  0.33727889696E-01 -0.11349005654E+00  0.88807753649E+00  0.88000000000E+00 0. -1.
        -11    1    4    4    0    0  0.30052736598E-01 -0.33832608703E-01  0.68597749830E-01  0.82181048858E-01  0.51100000000E-03 0. -1.
         11    1    4    4    0    0 -0.16081537218E-01 -0.15442077653E-01  0.51883303535E-01  0.56473107832E-01  0.51100000000E-03 0.  1.
</event>
<event>
 8    1  0.2183582E+004  0.1043930E+01  0.7957747E-01            NaN
         13   -1    0    0    0    0  0.00000000000E+00  0.00000000000E+00  0.74505805969E-08  0.10566000000E+00  0.10566000000E+00 0.  1.
     999900   -1    0    0    0    0 -0.00000000000E+00 -0.00000000000E+00 -0.74505805969E-08  0.93827000000E+00  0.93827000000E+00 0.  1.
     999902    2    1    2    0    0 -0.31505329465E-02  0.13089496085E-01 -0.52956218023E-02  0.10294626445E+01  0.10293609824E+01 0.  0.
     999903    2    3    3    0    0 -0.12620236542E+00 -0.26481069416E-01  0.28395011498E-01  0.13938251218E+00  0.44642176805E-01 0.  0.
         14    1    1    2    0    0  0.31505329465E-02 -0.13089496085E-01  0.52956218023E-02  0.14467355525E-01  0.00000000000E+00 0.  1.
     999901    1    3    3    0    0  0.12305183247E+00  0.39570565501E-01 -0.33690633300E-01  0.89008013229E+00  0.88000000000E+00 0.  1.
        -11    1    4    4    0    0 -0.67162525835E-01  0.72179857384E-02  0.60476128601E-02  0.67821375222E-01  0.51100000000E-03 0.  1.
         11    1    4    4    0    0 -0.59039839583E-01 -0.33699055154E-01  0.22347398638E-01  0.71561136961E-01  0.51100000000E-03 0. -1.
</event>
<event>
 8    1  0.2183582E+004  0.1043930E+01  0.7957747E-01            NaN
         13   -1    0    0    0    0  0.00000000000E+00  0.00000000000E+00  0.74505805969E-08  0.10566000000E+00  0.10566000000E+00 0. -1.
     999900   -1    0    0    0    0 -0.00000000000E+00 -0.00000000000E+00 -0.74505805969E-08  0.93827000000E+00  0.93827000000E+00 0.  1.
     999902    2    1    2    0    0  0.30306607658E-02 -0.33148221965E-02  0.13017345766E-01  0.10301595882E+01  0.10300675477E+01 0.  0.
     999903    2    3    3    0    0  0.50554302964E-02 -0.10842331471E+00  0.78879959115E-01  0.14145841302E+00  0.44802478916E-01 0.  0.
         14    1    1    2    0    0 -0.30306607658E-02  0.33148221965E-02 -0.13017345766E-01  0.13770411819E-01  0.00000000000E+00 0.  1.
     999901    1    3    3    0    0 -0.20247695306E-02  0.10510849251E+00 -0.65862613349E-01  0.88870117516E+00  0.88000000000E+00 0.  1.
        -11    1    4    4    0    0  0.92821399298E-03 -0.34506877679E-01  0.52563292045E-01  0.62886779055E-01  0.51100000000E-03 0. -1.
         11    1    4    4    0    0  0.41272163034E-02 -0.73916437030E-01  0.26316667070E-01  0.78571633968E-01  0.51100000000E-03 0.  1.
</event>
<event>
 8    1  0.2183582E+004  0.1043930E+01  0.7957747E-01            NaN
         13   -1    0    0    0    0  0.00000000000E+00  0.00000000000E+00  0.74505805969E-08  0.10566000000E+00  0.10566000000E+00 0. -1.
     999900   -1    0    0    0    0 -0.00000000000E+00 -0.00000000000E+00 -0.74505805969E-08  0.93827000000E+00  0.93827000000E+00 0. -1.
     999902    2    1    2    0    0  0.46390024957E-02 -0.40089480962E-02  0.12739383195E-01  0.10297919700E+01  0.10296949148E+01 0.  0.
     999903    2    3    3    0    0  0.81612542087E-01 -0.70142853807E-01 -0.76612945807E-01  0.13946480652E+00  0.44724286747E-01 0.  0.
         14    1    1    2    0    0 -0.46390024957E-02  0.40089480962E-02 -0.12739383195E-01  0.14138030032E-01  0.00000000000E+00 0.  1.
     999901    1    3    3    0    0 -0.76973539592E-01  0.66133905711E-01  0.89352329003E-01  0.89032716345E+00  0.88000000000E+00 0.  1.
        -11    1    4    4    0    0  0.30046845130E-01 -0.10254378323E-01 -0.43311912067E-01  0.53704264495E-01  0.51100000000E-03 0. -1.
         11    1    4    4    0    0  0.51565696958E-01 -0.59888475484E-01 -0.33301033740E-01  0.85760542021E-01  0.51100000000E-03 0.  1.
</event>
<event>
 8    1  0.2183582E+004  0.1043930E+01  0.7957747E-01            NaN
         13   -1    0    0    0    0  0.00000000000E+00  0.00000000000E+00  0.74505805969E-08  0.10566000000E+00  0.10566000000E+00 0. -1.
     999900   -1    0    0    0    0 -0.00000000000E+00 -0.00000000000E+00 -0.74505805969E-08  0.93827000000E+00  0.93827000000E+00 0. -1.
     999902    2    1    2    0    0  0.18470310847E-02  0.11995599019E-01 -0.46529355451E-02  0.10309317028E+01  0.10308497564E+01 0.  0.
     999903    2    3    3    0    0  0.86198658390E-01 -0.90802497406E-01  0.42109077034E-01  0.13971381059E+00  0.45513429425E-01 0.  0.
         14    1    1    2    0    0 -0.18470310847E-02 -0.11995599019E-01  0.46529355451E-02  0.12998297152E-01  0.00000000000E+00 0.  1.
     999901    1    3    3    0    0 -0.84351627305E-01  0.10279809642E+00 -0.46762012579E-01  0.89121789226E+00  0.88000000000E+00 0. -1.
        -11    1    4    4    0    0  0.89000605334E-01 -0.74367835648E-01  0.32437982932E-01  0.12043324535E+00  0.51100000000E-03 0.  1.
         11    1    4    4    0    0 -0.28019469438E-02 -0.16434661758E-01  0.96710941018E-02  0.19280565238E-01  0.51100000000E-03 0. -1.
</event>
<event>
 8    1  0.2183582E+004  0.1043930E+01  0.7957747E-01            NaN
         13   -1    0    0    0    0  0.00000000000E+00  0.00000000000E+00  0.74505805969E-08  0.10566000000E+00  0.10566000000E+00 0. -1.
     999900   -1    0    0    0    0 -0.00000000000E+00 -0.00000000000E+00 -0.74505805969E-08  0.93827000000E+00  0.93827000000E+00 0.  1.
     999902    2    1    2    0    0  0.92958374351E-02  0.31060107460E-02 -0.10764191527E-01  0.10293722627E+01  0.10292693173E+01 0.  0.
     999903    2    3    3    0    0  0.48813676254E-03  0.12858119844E+00  0.29707455364E-01  0.13950735580E+00  0.45237225230E-01 0.  0.
         14    1    1    2    0    0 -0.92958374351E-02 -0.31060107460E-02  0.10764191527E-01  0.14557737311E-01  0.00000000000E+00 0. -1.
     999901    1    3    3    0    0  0.88077006726E-02 -0.12547518770E+00 -0.40471646891E-01  0.88986490689E+00  0.88000000000E+00 0.  1.
        -11    1    4    4    0    0 -0.79801855770E-03  0.10180724435E+00  0.32836467428E-02  0.10186459292E+00  0.51100000000E-03 0. -1.
         11    1    4    4    0    0  0.12861553202E-02  0.26773954097E-01  0.26423808621E-01  0.37642762871E-01  0.51100000000E-03 0.  1.
</event>
<event>
 8    1  0.2183582E+004  0.1043930E+01  0.7957747E-01            NaN
         13   -1    0    0    0    0  0.00000000000E+00  0.00000000000E+00  0.74505805969E-08  0.10566000000E+00  0.10566000000E+00 0. -1.
     999900   -1    0    0    0    0 -0.00000000000E+00 -0.00000000000E+00 -0.74505805969E-08  0.93827000000E+00  0.93827000000E+00 0.  1.
     999902    2    1    2    0    0 -0.29117178173E-02 -0.13365730481E-01  0.86258179814E-03  0.10302236183E+01  0.10301324375E+01 0.  0.
     999903    2    3    3    0    0 -0.51675117253E-01  0.82106354412E-01 -0.88650148369E-01  0.13920997251E+00  0.45921633933E-01 0.  0.
         14    1    1    2    0    0  0.29117178173E-02  0.13365730481E-01 -0.86258179814E-03  0.13706381700E-01  0.00000000000E+00 0.  1.
     999901    1    3    3    0    0  0.48763399436E-01 -0.95472084893E-01  0.89512730167E-01  0.89101364579E+00  0.88000000000E+00 0.  1.
        -11    1    4    4    0    0 -0.23110523291E-01  0.32006241579E-01 -0.83659857201E-02  0.40357733148E-01  0.51100000000E-03 0. -1.
         11    1    4    4    0    0 -0.28564593962E-01  0.50100112833E-01 -0.80284162649E-01  0.98852239365E-01  0.51100000000E-03 0.  1.
</event>
<event>
 8    1  0.2183582E+004  0.1043930E+01  0.7957747E-01            NaN
         13   -1    0    0    0    0  0.00000000000E+00  0.00000000000E+00  0.74505805969E-08  0.10566000000E+00  0.10566000000E+00 0.  1.
     999900   -1    0    0    0    0 -0.00000000000E+00 -0.00000000000E+00 -0.74505805969E-08  0.93827000000E+00  0.93827000000E+00 0. -1.
     999902    2    1    2    0    0 -0.82518324977E-02  0.22087147871E-01 -0.56764925509E-03  0.10203448974E+01  0.10200722781E+01 0.  0.
     999903    2    3    3    0    0  0.11632964307E+00 -0.17205201741E-01  0.32369166045E-01  0.13009253618E+00  0.45251521927E-01 0.  0.
         14    1    1    2    0    0  0.82518324977E-02 -0.22087147871E-01  0.56764925509E-03  0.23585102636E-01  0.00000000000E+00 0.  1.
     999901    1    3    3    0    0 -0.12458147556E+00  0.39292349612E-01 -0.32936815300E-01  0.89025236118E+00  0.88000000000E+00 0. -1.
        -11    1    4    4    0    0  0.87042156842E-01 -0.31181651549E-01  0.31317259723E-01  0.97619999685E-01  0.51100000000E-03 0.  1.
         11    1    4    4    0    0  0.29287486223E-01  0.13976449808E-01  0.10519063219E-02  0.32472536495E-01  0.51100000000E-03 0. -1.
</event>
<event>
 8    1  0.2183582E+004  0.1043930E+01  0.7957747E-01            NaN
         13   -1    0    0    0    0  0.00000000000E+00  0.00000000000E+00  0.74505805969E-08  0.10566000000E+00  0.10566000000E+00 0. -1.
     999900   -1    0    0    0    0 -0.00000000000E+00 -0.00000000000E+00 -0.74505805969E-08  0.93827000000E+00  0.93827000000E+00 0. -1.
     999902    2    1    2    0    0 -0.93564050392E-02 -0.51157957467E-03  0.99454789060E-02  0.10302655725E+01  0.10301749527E+01 0.  0.
     999903    2    3    3    0    0  0.38076500568E-01 -0.33816527797E-01 -0.12090808454E+00  0.13870415834E+00  0.45018898088E-01 0.  0.
         14    1    1    2    0    0  0.93564050392E-02  0.51157957467E-03 -0.99454789060E-02  0.13664427525E-01  0.00000000000E+00 0.  1.
     999901    1    3    3    0    0 -0.47432905607E-01  0.33304948222E-01  0.13085356345E+00  0.89156141414E+00  0.88000000000E+00 0.  1.
        -11    1    4    4    0    0  0.45544449795E-01 -0.17134842952E-01 -0.76342693855E-01  0.90533793558E-01  0.51100000000E-03 0. -1.
         11    1    4    4    0    0 -0.74679492270E-02 -0.16681684845E-01 -0.44565390687E-01  0.48170364780E-01  0.51100000000E-03 0.  1.
</event>
<event>
 8    1  0.2183582E+004  0.1043930E+01  0.7957747E-01            NaN
         13   -1    0    0    0    0  0.00000000000E+00  0.00000000000E+00  0.74505805969E-08  0.10566000000E+00  0.10566000000E+00 0.  1.
     999900   -1    0    0    0    0 -0.00000000000E+00 -0.00000000000E+00 -0.74505805969E-08  0.93827000000E+00  0.93827000000E+00 0.  1.
     999902    2    1    2    0    0  0.88354139974E-02 -0.97867030167E-02 -0.45439347179E-02  0.10299839812E+01  0.10298895621E+01 0.  0.
     999903    2    3    3    0    0 -0.44920736056E-01  0.99047695926E-01 -0.74278779854E-01  0.13891855228E+00  0.44189460687E-01 0.  0.
         14    1    1    2    0    0 -0.88354139974E-02  0.97867030167E-02  0.45439347179E-02  0.13946018757E-01  0.00000000000E+00 0.  1.
     999901    1    3    3    0    0  0.53756150053E-01 -0.10883439894E+00  0.69734845136E-01  0.89106542896E+00  0.88000000000E+00 0.  1.
        -11    1    4    4    0    0 -0.73716157184E-02  0.54726108145E-01 -0.54407870887E-01  0.77522675177E-01  0.51100000000E-03 0. -1.
         11    1    4    4    0    0 -0.37549120337E-01  0.44321587781E-01 -0.19870908967E-01  0.61395877107E-01  0.51100000000E-03 0.  1.
</event>
<event>
 8    1  0.2183582E+004  0.1043930E+01  0.7957747E-01            NaN
         13   -1    0    0    0    0  0.00000000000E+00  0.00000000000E+00  0.74505805969E-08  0.10566000000E+00  0.10566000000E+00 0.  1.
     999900   -1    0    0    0    0 -0.00000000000E+00 -0.00000000000E+00 -0.74505805969E-08  0.93827000000E+00  0.93827000000E+00 0. -1.
     999902    2    1    2    0    0  0.75195973854E-02 -0.88246263808E-02 -0.24475441451E-02  0.10320805761E+01  0.10320125516E+01 0.  0.
     999903    2    3    3    0    0 -0.11110363307E+00  0.13399633086E-01  0.72405039159E-01  0.14069497052E+00  0.45044617726E-01 0.  0.
         14    1    1    2    0    0 -0.75195973854E-02  0.88246263808E-02  0.24475441451E-02  0.11849423950E-01  0.00000000000E+00 0. -1.
     999901    1    3    3    0    0  0.11862323046E+00 -0.22224259467E-01 -0.74852583304E-01  0.89138560553E+00  0.88000000000E+00 0.  1.
        -11    1    4    4    0    0 -0.53506761918E-01  0.65510430605E-02  0.88166210155E-02  0.54624936277E-01  0.51100000000E-03 0.  1.
         11    1    4    4    0    0 -0.57596871155E-01  0.68485900258E-02  0.63588418144E-01  0.86070034247E-01  0.51100000000E-03 0. -1.
</event>
<event>
 8    1  0.2183582E+004  0.1043930E+01  0.7957747E-01            NaN
         13   -1    0    0    0    0  0.00000000000E+00  0.00000000000E+00  0.74505805969E-08  0.10566000000E+00  0.10566000000E+00 0. -1.
     999900   -1    0    0    0    0 -0.00000000000E+00 -0.00000000000E+00 -0.74505805969E-08  0.93827000000E+00  0.93827000000E+00 0. -1.
     999902    2    1    2    0    0 -0.10305031719E-01 -0.45307659761E-02  0.40348963367E-02  0.10319716595E+01  0.10319023714E+01 0.  0.
     999903    2    3    3    0    0  0.62607323853E-02  0.13255081936E+00 -0.18780747307E-01  0.14091254857E+00  0.43528305628E-01 0.  0.
         14    1    1    2    0    0  0.10305031719E-01  0.45307659761E-02 -0.40348963367E-02  0.11958340500E-01  0.00000000000E+00 0. -1.
     999901    1    3    3    0    0 -0.16565764105E-01 -0.13708158534E+00  0.22815643644E-01  0.89105911093E+00  0.88000000000E+00 0.  1.
        -11    1    4    4    0    0  0.11814323112E-01  0.40079862267E-01  0.11687823734E-01  0.43391703522E-01  0.51100000000E-03 0.  1.
         11    1    4    4    0    0 -0.55535907262E-02  0.92470957096E-01 -0.30468571041E-01  0.97520845046E-01  0.51100000000E-03 0. -1.
</event>
<event>
 8    1  0.2183582E+004  0.1043930E+01  0.7957747E-01            NaN
         13   -1    0    0    0    0  0.00000000000E+00  0.00000000000E+00  0.74505805969E-08  0.10566000000E+00  0.10566000000E+00 0.  1.
     999900   -1    0    0    0    0 -0.00000000000E+00 -0.00000000000E+00 -0.74505805969E-08  0.93827000000E+00  0.93827000000E+00 0.  1.
     999902    2    1    2    0    0 -0.23963052191E-02 -0.10680366502E-01 -0.79017282734E-02  0.10304300068E+01  0.10303415691E+01 0.  0.
     999903    2    3    3    0    0  0.45456188433E-01 -0.12147849300E+00  0.33513959629E-01  0.14122736104E+00  0.44706740973E-01 0.  0.
         14    1    1    2    0    0  0.23963052191E-02  0.10680366502E-01  0.79017282734E-02  0.13499993223E-01  0.00000000000E+00 0.  1.
     999901    1    3    3    0    0 -0.47852493652E-01  0.11079812649E+00 -0.41415687902E-01  0.88920264574E+00  0.88000000000E+00 0.  1.
        -11    1    4    4    0    0  0.13286110340E-02 -0.31856195471E-01  0.25824690540E-01  0.41033622308E-01  0.51100000000E-03 0. -1.
         11    1    4    4    0    0  0.44127577399E-01 -0.89622297525E-01  0.76892690886E-02  0.10019373873E+00  0.51100000000E-03 0.  1.
</event>
<event>
 7    1  0.2183582E+004  0.1043930E+01  0.7957747E-01            NaN
         13   -1    0    0    0    0  0.00000000000E+00  0.00000000000E+00  0.74505805969E-08  0.10566000000E+00  0.10566000000E+00 0. -1.
     999900   -1    0    0    0    0 -0.00000000000E+00 -0.00000000000E+00 -0.74505805969E-08  0.93827000000E+00  0.93827000000E+00 0. -1.
     999903    2    1    2    0    0 -0.28412142515E-01  0.38135400222E-01 -0.10482363636E+00  0.12363464072E+00  0.45121735940E-01 0.  0.
         14    1    1    2    0    0 -0.19949028626E-03  0.23114047359E-01 -0.17867535071E-01  0.29215540235E-01  0.00000000000E+00 0.  1.
     999901    1    1    2    0    0  0.28611632801E-01 -0.61249447581E-01  0.12269117143E+00  0.89107981904E+00  0.88000000000E+00 0.  1.
        -11    1    3    3    0    0 -0.24919644464E-02  0.29463883622E-01 -0.84628840012E-01  0.89647264362E-01  0.51100000000E-03 0.  1.
         11    1    3    3    0    0 -0.25920178069E-01  0.86715165996E-02 -0.20194796348E-01  0.33987376359E-01  0.51100000000E-03 0. -1.
</event>
<event>
 8    1  0.2183582E+004  0.1043930E+01  0.7957747E-01            NaN
         13   -1    0    0    0    0  0.00000000000E+00  0.00000000000E+00  0.74505805969E-08  0.10566000000E+00  0.10566000000E+00 0. -1.
     999900   -1    0    0    0    0 -0.00000000000E+00 -0.00000000000E+00 -0.74505805969E-08  0.93827000000E+00  0.93827000000E+00 0. -1.
     999902    2    1    2    0    0  0.66070528058E-02 -0.78089120993E-03 -0.12237598654E-01  0.10300008307E+01  0.10299066411E+01 0.  0.
     999903    2    3    3    0    0 -0.11723650472E+00  0.87846498634E-02  0.56746939134E-01  0.13860440214E+00  0.46576786904E-01 0.  0.
         14    1    1    2    0    0 -0.66070528058E-02  0.78089120993E-03  0.12237598654E-01  0.13929169346E-01  0.00000000000E+00 0. -1.
     999901    1    3    3    0    0  0.12384355753E+00 -0.95655410734E-02 -0.68984537788E-01  0.89139642852E+00  0.88000000000E+00 0. -1.
        -11    1    4    4    0    0 -0.10837730196E-01  0.25190899196E-03  0.24980635706E-01  0.27236246717E-01  0.51100000000E-03 0.  1.
         11    1    4    4    0    0 -0.10639877453E+00  0.85327408715E-02  0.31766303427E-01  0.11136815542E+00  0.51100000000E-03 0. -1.
</event>
<event>
 8    1  0.2183582E+004  0.1043930E+01  0.7957747E-01            NaN
         13   -1    0    0    0    0  0.00000000000E+00  0.00000000000E+00  0.74505805969E-08  0.10566000000E+00  0.10566000000E+00 0.  1.
     999900   -1    0    0    0    0 -0.00000000000E+00 -0.00000000000E+00 -0.74505805969E-08  0.93827000000E+00  0.93827000000E+00 0. -1.
     999902    2    1    2    0    0  0.82786645616E-02 -0.10556344979E-01 -0.26018781818E-03  0.10305120865E+01  0.10304247279E+01 0.  0.
     999903    2    3    3    0    0  0.77797951497E-01 -0.10997586657E+00 -0.17310823292E-02  0.14218819504E+00  0.45467281404E-01 0.  0.
         14    1    1    2    0    0 -0.82786645616E-02  0.10556344979E-01  0.26018781818E-03  0.13417913547E-01  0.00000000000E+00 0.  1.
     999901    1    3    3    0    0 -0.69519286935E-01  0.99419521586E-01  0.14708945110E-02  0.88832389142E+00  0.88000000000E+00 0. -1.
        -11    1    4    4    0    0  0.17561934040E-01 -0.59412742587E-01 -0.11245188125E-01  0.62968332405E-01  0.51100000000E-03 0. -1.
         11    1    4    4    0    0  0.60236017457E-01 -0.50563123979E-01  0.95141057956E-02  0.79219862633E-01  0.51100000000E-03 0.  1.
</event>
<event>
 8    1  0.2183582E+004  0.1043930E+01  0.7957747E-01            NaN
         13   -1    0    0    0    0  0.00000000000E+00  0.00000000000E+00  0.74505805969E-08  0.10566000000E+00  0.10566000000E+00 0.  1.
     999900   -1    0    0    0    0 -0.00000000000E+00 -0.00000000000E+00 -0.74505805969E-08  0.93827000000E+00  0.93827000000E+00 0. -1.
     999902    2    1    2    0    0  0.42904102926E-02  0.12288960427E-01 -0.40140195872E-02  0.10303087474E+01  0.10302187032E+01 0.  0.
     999903    2    3    3    0    0  0.10784950320E+00 -0.77085356190E-01  0.36291727017E-02  0.13970744908E+00  0.43946933414E-01 0.  0.
         14    1    1    2    0    0 -0.42904102926E-02 -0.12288960427E-01  0.40140195872E-02  0.13621252589E-01  0.00000000000E+00 0.  1.
     999901    1    3    3    0    0 -0.10355909290E+00  0.89374316617E-01 -0.76431922888E-02  0.89060129833E+00  0.88000000000E+00 0.  1.
        -11    1    4    4    0    0  0.66337623169E-01 -0.30518541290E-01  0.19004178302E-01  0.75455162342E-01  0.51100000000E-03 0. -1.
         11    1    4    4    0    0  0.41511880026E-01 -0.46566814900E-01 -0.15375005600E-01  0.64252286741E-01  0.51100000000E-03 0.  1.
</event>
<event>
 8    1  0.2183582E+004  0.1043930E+01  0.7957747E-01            NaN
         13   -1    0    0    0    0  0.00000000000E+00  0.00000000000E+00  0.74505805969E-08  0.10566000000E+00  0.10566000000E+00 0. -1.
     999900   -1    0    0    0    0 -0.00000000000E+00 -0.00000000000E+00 -0.74505805969E-08  0.93827000000E+00  0.93827000000E+00 0. -1.
     999902    2    1    2    0    0 -0.61686711740E-02  0.30430305648E-02 -0.68241711595E-02  0.10342407353E+01  0.10341953474E+01 0.  0.
     999903    2    3    3    0    0  0.26707626516E-01  0.43335768950E-01 -0.12748663940E+00  0.14448583252E+00  0.45078003388E-01 0.  0.
         14    1    1    2    0    0  0.61686711740E-02 -0.30430305648E-02  0.68241711595E-02  0.96892647340E-02  0.00000000000E+00 0. -1.
     999901    1    3    3    0    0 -0.32876297690E-01 -0.40292738386E-01  0.12066246824E+00  0.88975490274E+00  0.88000000000E+00 0.  1.
        -11    1    4    4    0    0  0.14275081640E-01 -0.58039803527E-02 -0.46039119548E-01  0.48552299570E-01  0.51100000000E-03 0. -1.
         11    1    4    4    0    0  0.12432544876E-01  0.49139749303E-01 -0.81447519851E-01  0.95933532951E-01  0.51100000000E-03 0.  1.
</event>
<event>
 8    1  0.2183582E+004  0.1043930E+01  0.7957747E-01            NaN
         13   -1    0    0    0    0  0.00000000000E+00  0.00000000000E+00  0.74505805969E-08  0.10566000000E+00  0.10566000000E+00 0.  1.
     999900   -1    0    0    0    0 -0.00000000000E+00 -0.00000000000E+00 -0.74505805969E-08  0.93827000000E+00  0.93827000000E+00 0.  1.
     999902    2    1    2    0    0  0.11986085311E-01  0.53505424573E-02 -0.15098362977E-03  0.10308030300E+01  0.10307194426E+01 0.  0.
     999903    2    3    3    0    0  0.12240357780E-01 -0.12828868823E+00 -0.31510218599E-01  0.14016117702E+00  0.45215570136E-01 0.  0.
         14    1    1    2    0    0 -0.11986085311E-01 -0.53505424573E-02  0.15098362977E-03  0.13126970013E-01  0.00000000000E+00 0. -1.
     999901    1    3    3    0    0 -0.25427246919E-03  0.13363923068E+00  0.31359234969E-01  0.89064185296E+00  0.88000000000E+00 0. -1.
        -11    1    4    4    0    0 -0.40015123152E-02 -0.92502746790E-01 -0.38438813925E-01  0.10025255010E+00  0.51100000000E-03 0. -1.
         11    1    4    4    0    0  0.16241870095E-01 -0.35785941437E-01  0.69285953255E-02  0.39908626924E-01  0.51100000000E-03 0.  1.
</event>
<event>
 8    1  0.2183582E+004  0.1043930E+01  0.7957747E-01            NaN
         13   -1    0    0    0    0  0.00000000000E+00  0.00000000000E+00  0.74505805969E-08  0.10566000000E+00  0.10566000000E+00 0. -1.
     999900   -1    0    0    0    0 -0.00000000000E+00 -0.00000000000E+00 -0.74505805969E-08  0.93827000000E+00  0.93827000000E+00 0.  1.
     999902    2    1    2    0    0 -0.13086067793E-01  0.37531709765E-02 -0.25294342968E-02  0.10300833578E+01  0.10299902885E+01 0.  0.
     999903    2    3    3    0    0  0.47143723006E-01 -0.84781442908E-01  0.89258744007E-01  0.13885326672E+00  0.43619750297E-01 0.  0.
         14    1    1    2    0    0  0.13086067793E-01 -0.37531709765E-02  0.25294342968E-02  0.13846642211E-01  0.00000000000E+00 0. -1.
     999901    1    3    3    0    0 -0.60229790799E-01  0.88534613885E-01 -0.91788178303E-01  0.89123009107E+00  0.88000000000E+00 0.  1.
        -11    1    4    4    0    0  0.46978936183E-01 -0.41039459520E-01  0.56980518325E-01  0.84488450525E-01  0.51100000000E-03 0.  1.
         11    1    4    4    0    0  0.16478682306E-03 -0.43741983388E-01  0.32278225682E-01  0.54364816192E-01  0.51100000000E-03 0. -1.
</event>
<event>
 8    1  0.2183582E+004  0.1043930E+01  0.7957747E-01            NaN
         13   -1    0    0    0    0  0.00000000000E+00  0.00000000000E+00  0.74505805969E-08  0.10566000000E+00  0.10566000000E+00 0.  1.
     999900   -1    0    0    0    0 -0.00000000000E+00 -0.00000000000E+00 -0.74505805969E-08  0.93827000000E+00  0.93827000000E+00 0. -1.
     999902    2    1    2    0    0 -0.92023070842E-02 -0.10763405946E-01 -0.10514825350E-01  0.10262921170E+01  0.10261405433E+01 0.  0.
     999903    2    3    3    0    0  0.11350890664E+00 -0.59088253784E-01  0.97329600970E-02  0.13623408202E+00  0.45708871884E-01 0.  0.
         14    1    1    2    0    0  0.92023070842E-02  0.10763405946E-01  0.10514825350E-01  0.17637882962E-01  0.00000000000E+00 0.  1.
     999901    1    3    3    0    0 -0.12271121372E+00  0.48324847838E-01 -0.20247785447E-01  0.89005803502E+00  0.88000000000E+00 0. -1.
        -11    1    4    4    0    0  0.81035750370E-01 -0.25175899212E-01  0.22077746183E-01  0.87682990008E-01  0.51100000000E-03 0. -1.
         11    1    4    4    0    0  0.32473156269E-01 -0.33912354572E-01 -0.12344786086E-01  0.48551092008E-01  0.51100000000E-03 0.  1.
</event>
<event>
 8    1  0.2183582E+004  0.1043930E+01  0.7957747E-01            NaN
         13   -1    0    0    0    0  0.00000000000E+00  0.00000000000E+00  0.74505805969E-08  0.10566000000E+00  0.10566000000E+00 0. -1.
     999900   -1    0    0    0    0 -0.00000000000E+00 -0.00000000000E+00 -0.74505805969E-08  0.93827000000E+00  0.93827000000E+00 0. -1.
     999902    2    1    2    0    0  0.14090191873E-01  0.17649575618E-02  0.25486782846E-03  0.10297274108E+01  0.10296294610E+01 0.  0.
     999903    2    3    3    0    0 -0.90129529736E-01 -0.93766610755E-01  0.86024652738E-02  0.13840383696E+00  0.46541489581E-01 0.  0.
         14    1    1    2    0    0 -0.14090191873E-01 -0.17649575618E-02 -0.25486782846E-03  0.14202589194E-01  0.00000000000E+00 0.  1.
     999901    1    3    3    0    0  0.10421972161E+00  0.95531568317E-01 -0.83475974454E-02  0.89132357385E+00  0.88000000000E+00 0. -1.
        -11    1    4    4    0    0 -0.34322378942E-01 -0.64955524329E-01  0.15916060760E-01  0.75171989120E-01  0.51100000000E-03 0. -1.
         11    1    4    4    0    0 -0.55807150794E-01 -0.28811086425E-01 -0.73135954863E-02  0.63231847836E-01  0.51100000000E-03 0.  1.
</event>
<event>
 8    1  0.2183582E+004  0.1043930E+01  0.7957747E-01            NaN
         13   -1    0    0    0    0  0.00000000000E+00  0.00000000000E+00  0.74505805969E-08  0.10566000000E+00  0.10566000000E+00 0. -1.
     999900   -1    0    0    0    0 -0.00000000000E+00 -0.00000000000E+00 -0.74505805969E-08  0.93827000000E+00  0.93827000000E+00 0.  1.
     999902    2    1    2    0    0 -0.23542903074E-02 -0.69713557410E-02 -0.12142814157E-01  0.10297317459E+01  0.10296338563E+01 0.  0.
     999903    2    3    3    0    0  0.86371549675E-01 -0.72819534231E-02  0.98026576107E-01  0.13843512541E+00  0.45188526036E-01 0.  0.
         14    1    1    2    0    0  0.23542903074E-02  0.69713557410E-02  0.12142814157E-01  0.14198254096E-01  0.00000000000E+00 0. -1.
     999901    1    3    3    0    0 -0.88725839982E-01  0.31059768207E-03 -0.11016939026E+00  0.89129662049E+00  0.88000000000E+00 0.  1.
        -11    1    4    4    0    0  0.48822307332E-01  0.18191326068E-01  0.47257009535E-01  0.70342221379E-01  0.51100000000E-03 0.  1.
         11    1    4    4    0    0  0.37549242343E-01 -0.25473279491E-01  0.50769566572E-01  0.68092904032E-01  0.51100000000E-03 0. -1.
</event>
<event>
 8    1  0.2183582E+004  0.1043930E+01  0.7957747E-01            NaN
         13   -1    0    0    0    0  0.00000000000E+00  0.00000000000E+00  0.74505805969E-08  0.10566000000E+00  0.10566000000E+00 0. -1.
     999900   -1    0    0    0    0 -0.00000000000E+00 -0.00000000000E+00 -0.74505805969E-08  0.93827000000E+00  0.93827000000E+00 0.  1.
     999902    2    1    2    0    0  0.79468164554E-02 -0.11488277269E-01  0.22979747150E-02  0.10297732668E+01  0.10296759529E+01 0.  0.
     999903    2    3    3    0    0 -0.48980363339E-01 -0.90677773520E-01 -0.83733621774E-01  0.14021544650E+00  0.45027962612E-01 0.  0.
         14    1    1    2    0    0 -0.79468164554E-02  0.11488277269E-01 -0.22979747150E-02  0.14156733175E-01  0.00000000000E+00 0.  1.
     999901    1    3    3    0    0  0.56927179795E-01  0.79189496251E-01  0.86031596489E-01  0.88955782033E+00  0.88000000000E+00 0.  1.
        -11    1    4    4    0    0 -0.24596843505E-01 -0.69576946496E-01 -0.34755240055E-01  0.81572936851E-01  0.51100000000E-03 0. -1.
         11    1    4    4    0    0 -0.24383519834E-01 -0.21100827024E-01 -0.48978381719E-01  0.58642509645E-01  0.51100000000E-03 0.  1.
</event>
<event>
 8    1  0.2183582E+004  0.1043930E+01  0.7957747E-01            NaN
         13   -1    0    0    0    0  0.00000000000E+00  0.00000000000E+00  0.74505805969E-08  0.10566000000E+00  0.10566000000E+00 0.  1.
     999900   -1    0    0    0    0 -0.00000000000E+00 -0.00000000000E+00 -0.74505805969E-08  0.93827000000E+00  0.93827000000E+00 0.  1.
     999902    2    1    2    0    0 -0.13519366357E-01  0.73796820439E-03 -0.35487236371E-02  0.10299331681E+01  0.10298380550E+01 0.  0.
     999903    2    3    3    0    0  0.34608263751E-01 -0.12000932217E+00  0.41754400508E-01  0.13923201172E+00  0.45190195828E-01 0.  0.
         14    1    1    2    0    0  0.13519366357E-01 -0.73796820439E-03  0.35487236371E-02  0.13996831899E-01  0.00000000000E+00 0. -1.
     999901    1    3    3    0    0 -0.48127630108E-01  0.12074729038E+00 -0.45303124145E-01  0.89070115638E+00  0.88000000000E+00 0. -1.
        -11    1    4    4    0    0  0.57696663458E-02 -0.92822872103E-01  0.32608483147E-01  0.98554294322E-01  0.51100000000E-03 0. -1.
         11    1    4    4    0    0  0.28838597406E-01 -0.27186450070E-01  0.91459173607E-02  0.40677717403E-01  0.51100000000E-03 0.  1.
</event>
<event>
 8    1  0.2183582E+004  0.1043930E+01  0.7957747E-01            NaN
         13   -1    0    0    0    0  0.00000000000E+00  0.00000000000E+00  0.74505805969E-08  0.10566000000E+00  0.10566000000E+00 0.  1.
     999900   -1    0    0    0    0 -0.00000000000E+00 -0.00000000000E+00 -0.74505805969E-08  0.93827000000E+00  0.93827000000E+00 0.  1.
     999902    2    1    2    0    0 -0.12431280885E-02 -0.98482562484E-02 -0.17135612130E-01  0.10241269012E+01  0.10239354213E+01 0.  0.
     999903    2    3    3    0    0  0.93484937706E-02 -0.11939137019E+00 -0.48412482053E-01  0.13672050116E+00  0.44799926413E-01 0.  0.
         14    1    1    2    0    0  0.12431280885E-02  0.98482562484E-02  0.17135612130E-01  0.19803098789E-01  0.00000000000E+00 0.  1.
     999901    1    3    3    0    0 -0.10591621859E-01  0.10954311394E+00  0.31276869923E-01  0.88740640005E+00  0.88000000000E+00 0.  1.
        -11    1    4    4    0    0 -0.17166054180E-01 -0.66597314426E-01 -0.26687649202E-01  0.73772403010E-01  0.51100000000E-03 0. -1.
         11    1    4    4    0    0  0.26514547951E-01 -0.52794055763E-01 -0.21724832851E-01  0.62948098147E-01  0.51100000000E-03 0.  1.
</event>
<event>
 8    1  0.2183582E+004  0.1043930E+01  0.7957747E-01            NaN
         13   -1    0    0    0    0  0.00000000000E+00  0.00000000000E+00  0.74505805969E-08  0.10566000000E+00  0.10566000000E+00 0.  1.
     999900   -1    0    0    0    0 -0.00000000000E+00 -0.00000000000E+00 -0.74505805969E-08  0.93827000000E+00  0.93827000000E+00 0.  1.
     999902    2    1    2    0    0 -0.28235894371E-02 -0.11683276742E-01 -0.76828748611E-02  0.10296647212E+01  0.10295658988E+01 0.  0.
     999903    2    3    3    0    0  0.30382420103E-01 -0.12597843040E-01 -0.12937141244E+00  0.14067002175E+00  0.44376745723E-01 0.  0.
         14    1    1    2    0    0  0.28235894371E-02  0.11683276742E-01  0.76828748611E-02  0.14265278787E-01  0.00000000000E+00 0.  1.
     999901    1    3    3    0    0 -0.33206009540E-01  0.91456629790E-03  0.12168853758E+00  0.88899469947E+00  0.88000000000E+00 0. -1.
        -11    1    4    4    0    0  0.13559158254E-01 -0.63058899750E-02 -0.11897163632E+00  0.11990882532E+00  0.51100000000E-03 0.  1.
         11    1    4    4    0    0  0.16823261849E-01 -0.62919530651E-02 -0.10399776122E-01  0.20761196425E-01  0.51100000000E-03 0. -1.
</event>
<event>
 8    1  0.2183582E+004  0.1043930E+01  0.7957747E-01            NaN
         13   -1    0    0    0    0  0.00000000000E+00  0.00000000000E+00  0.74505805969E-08  0.10566000000E+00  0.10566000000E+00 0. -1.
     999900   -1    0    0    0    0 -0.00000000000E+00 -0.00000000000E+00 -0.74505805969E-08  0.93827000000E+00  0.93827000000E+00 0.  1.
     999902    2    1    2    0    0  0.33573712404E-02  0.12168846565E-02 -0.12648052021E-01  0.10307874748E+01  0.10307036878E+01 0.  0.
     999903    2    3    3    0    0 -0.12588308317E-01 -0.12708476267E+00 -0.39092306955E-01  0.14094767118E+00  0.45044812579E-01 0.  0.
         14    1    1    2    0    0 -0.33573712404E-02 -0.12168846565E-02  0.12648052021E-01  0.13142525246E-01  0.00000000000E+00 0. -1.
     999901    1    3    3    0    0  0.15945679557E-01  0.12830164732E+00  0.26444254934E-01  0.88983980357E+00  0.88000000000E+00 0. -1.
        -11    1    4    4    0    0  0.14214468145E-01 -0.56451604805E-01 -0.27961541143E-01  0.64582843649E-01  0.51100000000E-03 0. -1.
         11    1    4    4    0    0 -0.26802776462E-01 -0.70633157862E-01 -0.11130765812E-01  0.76364827533E-01  0.51100000000E-03 0.  1.
</event>
<event>
 8    1  0.2183582E+004  0.1043930E+01  0.7957747E-01            NaN
         13   -1    0    0    0    0  0.00000000000E+00  0.00000000000E+00  0.74505805969E-08  0.10566000000E+00  0.10566000000E+00 0. -1.
     999900   -1    0    0    0    0 -0.00000000000E+00 -0.00000000000E+00 -0.74505805969E-08  0.93827000000E+00  0.93827000000E+00 0.  1.
     999902    2    1    2    0    0 -0.64400247160E-02  0.13989297483E-01  0.82504547543E-03  0.10285074495E+01  0.10283918119E+01 0.  0.
     999903    2    3    3    0    0 -0.86767044402E-01 -0.76006086026E-01 -0.61856186557E-01  0.13806905415E+00  0.43948046510E-01 0.  0.
         14    1    1    2    0    0  0.64400247160E-02 -0.13989297483E-01 -0.82504547543E-03  0.15422550452E-01  0.00000000000E+00 0.  1.
     999901    1    3    3    0    0  0.80327019686E-01  0.89995383509E-01  0.62681232033E-01  0.89043839540E+00  0.88000000000E+00 0. -1.
        -11    1    4    4    0    0 -0.79536167308E-02 -0.10213646636E-01 -0.26478342340E-01  0.29477827783E-01  0.51100000000E-03 0.  1.
         11    1    4    4    0    0 -0.78813427672E-01 -0.65792439390E-01 -0.35377844217E-01  0.10859122637E+00  0.51100000000E-03 0. -1.
</event>
<event>
 8    1  0.2183582E+004  0.1043930E+01  0.7957747E-01            NaN
         13   -1    0    0    0    0  0.00000000000E+00  0.00000000000E+00  0.74505805969E-08  0.10566000000E+00  0.10566000000E+00 0. -1.
     999900   -1    0    0    0    0 -0.00000000000E+00 -0.00000000000E+00 -0.74505805969E-08  0.93827000000E+00  0.93827000000E+00 0. -1.
     999902    2    1    2    0    0 -0.27897847663E-02 -0.71080941893E-02  0.11447438478E-01  0.10301694858E+01  0.10300775785E+01 0.  0.
     999903    2    3    3    0    0  0.56926173284E-01  0.10587778190E+00  0.57392803006E-01  0.13975229129E+00  0.42261982670E-01 0.  0.
         14    1    1    2    0    0  0.27897847663E-02  0.71080941893E-02 -0.11447438478E-01  0.13760514153E-01  0.00000000000E+00 0.  1.
     999901    1    3    3    0    0 -0.59715958051E-01 -0.11298587609E+00 -0.45945364527E-01  0.89041719456E+00  0.88000000000E+00 0. -1.
        -11    1    4    4    0    0  0.55147688026E-01  0.62672155408E-01  0.30789075106E-01  0.88979181975E-01  0.51100000000E-03 0.  1.
         11    1    4    4    0    0  0.17784852582E-02  0.43205626491E-01  0.26603727900E-01  0.50773109314E-01  0.51100000000E-03 0. -1.
</event>
<event>
 8    1  0.2183582E+004  0.1043930E+01  0.7957747E-01            NaN
         13   -1    0    0    0    0  0.00000000000E+00  0.00000000000E+00  0.74505805969E-08  0.10566000000E+00  0.10566000000E+00 0. -1.
     999900   -1    0    0    0    0 -0.00000000000E+00 -0.00000000000E+00 -0.74505805969E-08  0.93827000000E+00  0.93827000000E+00 0.  1.
     999902    2    1    2    0    0 -0.82067975835E-02  0.80583877936E-02  0.70265029144E-02  0.10304518368E+01  0.10303636868E+01 0.  0.
     999903    2    3    3    0    0  0.10820893581E-01 -0.10955219034E+00 -0.68252236796E-01  0.13923851228E+00  0.51090325191E-01 0.  0.
         14    1    1    2    0    0  0.82067975835E-02 -0.80583877936E-02 -0.70265029144E-02  0.13478163214E-01  0.00000000000E+00 0.  1.
     999901    1    3    3    0    0 -0.19027691165E-01  0.11761057814E+00  0.75278739710E-01  0.89121332450E+00  0.88000000000E+00 0. -1.
        -11    1    4    4    0    0  0.27365604731E-01 -0.58483054258E-01 -0.52699043708E-01  0.83346231387E-01  0.51100000000E-03 0.  1.
         11    1    4    4    0    0 -0.16544711149E-01 -0.51069136085E-01 -0.15553193088E-01  0.55892280896E-01  0.51100000000E-03 0. -1.
</event>
<event>
 8    1  0.2183582E+004  0.1043930E+01  0.7957747E-01            NaN
         13   -1    0    0    0    0  0.00000000000E+00  0.00000000000E+00  0.74505805969E-08  0.10566000000E+00  0.10566000000E+00 0. -1.
     999900   -1    0    0    0    0 -0.00000000000E+00 -0.00000000000E+00 -0.74505805969E-08  0.93827000000E+00  0.93827000000E+00 0.  1.
     999902    2    1    2    0    0  0.41679479370E-02  0.73492274533E-02 -0.11680715118E-01  0.10295139659E+01  0.10294130288E+01 0.  0.
     999903    2    3    3    0    0 -0.10366260340E-01  0.13180131999E+00 -0.16926502037E-01  0.14062303622E+00  0.44825043657E-01 0.  0.
         14    1    1    2    0    0 -0.41679479370E-02 -0.73492274533E-02  0.11680715118E-01  0.14416034123E-01  0.00000000000E+00 0. -1.
     999901    1    3    3    0    0  0.14534208277E-01 -0.12445209254E+00  0.52457869184E-02  0.88889092966E+00  0.88000000000E+00 0.  1.
        -11    1    4    4    0    0 -0.18870344143E-01  0.24438230728E-01  0.32438506761E-02  0.31049970973E-01  0.51100000000E-03 0. -1.
         11    1    4    4    0    0  0.85040838030E-02  0.10736308927E+00 -0.20170352713E-01  0.10957306525E+00  0.51100000000E-03 0.  1.
</event>
<event>
 8    1  0.2183582E+004  0.1043930E+01  0.7957747E-01            NaN
         13   -1    0    0    0    0  0.00000000000E+00  0.00000000000E+00  0.74505805969E-08  0.10566000000E+00  0.10566000000E+00 0. -1.
     999900   -1    0    0    0    0 -0.00000000000E+00 -0.00000000000E+00 -0.74505805969E-08  0.93827000000E+00  0.93827000000E+00 0. -1.
     999902    2    1    2    0    0  0.10304680952E-01 -0.80426704749E-02  0.50158212132E-02  0.10299289479E+01  0.10298337770E+01 0.  0.
     999903    2    3    3    0    0 -0.53678710393E-01 -0.11968275363E+00 -0.21352978365E-01  0.14018027768E+00  0.44600393492E-01 0.  0.
         14    1    1    2    0    0 -0.10304680952E-01  0.80426704749E-02 -0.50158212132E-02  0.14001052115E-01  0.00000000000E+00 0.  1.
     999901    1    3    3    0    0  0.63983391345E-01  0.11164008316E+00  0.26368799578E-01  0.88974867020E+00  0.88000000000E+00 0.  1.
        -11    1    4    4    0    0 -0.19919694574E-01 -0.29487597185E-01 -0.25503476379E-01  0.43783570527E-01  0.51100000000E-03 0. -1.
         11    1    4    4    0    0 -0.33759015819E-01 -0.90195156447E-01  0.41504980149E-02  0.96396707155E-01  0.51100000000E-03 0.  1.
</event>
<event>
 8    1  0.2183582E+004  0.1043930E+01  0.7957747E-01            NaN
         13   -1    0    0    0    0  0.00000000000E+00  0.00000000000E+00  0.74505805969E-08  0.10566000000E+00  0.10566000000E+00 0.  1.
     999900   -1    0    0    0    0 -0.00000000000E+00 -0.00000000000E+00 -0.74505805969E-08  0.93827000000E+00  0.93827000000E+00 0.  1.
     999902    2    1    2    0    0 -0.12955725391E-01  0.88959976627E-03  0.39658543175E-02  0.10303517008E+01  0.10302622274E+01 0.  0.
     999903    2    3    3    0    0  0.44935011098E-01  0.46507053673E-01 -0.11497719286E+00  0.13929629404E+00  0.44739707105E-01 0.  0.
         14    1    1    2    0    0  0.12955725391E-01 -0.88959976627E-03 -0.39658543175E-02  0.13578299180E-01  0.00000000000E+00 0. -1.
     999901    1    3    3    0    0 -0.57890736489E-01 -0.45617453907E-01  0.11894304718E+00  0.89105540678E+00  0.88000000000E+00 0. -1.
        -11    1    4    4    0    0 -0.70173500775E-02 -0.20433571184E-02 -0.13890839407E-01  0.15704618775E-01  0.51100000000E-03 0. -1.
         11    1    4    4    0    0  0.51952361175E-01  0.48550410791E-01 -0.10108635346E+00  0.12359167527E+00  0.51100000000E-03 0.  1.
</event>
<event>
 8    1  0.2183582E+004  0.1043930E+01  0.7957747E-01            NaN
         13   -1    0    0    0    0  0.00000000000E+00  0.00000000000E+00  0.74505805969E-08  0.10566000000E+00  0.10566000000E+00 0. -1.
     999900   -1    0    0    0    0 -0.00000000000E+00 -0.00000000000E+00 -0.74505805969E-08  0.93827000000E+00  0.93827000000E+00 0. -1.
     999902    2    1    2    0    0 -0.50987008719E-02  0.84758268096E-02 -0.98054708159E-02  0.10300021987E+01  0.10299080278E+01 0.  0.
     999903    2    3    3    0    0 -0.79645064695E-01  0.10663949630E+00 -0.13457700870E-01  0.14140408643E+00  0.45811433585E-01 0.  0.
         14    1    1    2    0    0  0.50987008719E-02 -0.84758268096E-02  0.98054708159E-02  0.13927801284E-01  0.00000000000E+00 0. -1.
     999901    1    3    3    0    0  0.74546363824E-01 -0.98163669486E-01  0.36522300545E-02  0.88859811228E+00  0.88000000000E+00 0. -1.
        -11    1    4    4    0    0 -0.12281248545E-01  0.53543318405E-01 -0.71142495402E-02  0.55394852460E-01  0.51100000000E-03 0.  1.
         11    1    4    4    0    0 -0.67363816151E-01  0.53096177891E-01 -0.63434513303E-02  0.86009233974E-01  0.51100000000E-03 0. -1.
</event>
<event>
 8    1  0.2183582E+004  0.1043930E+01  0.7957747E-01            NaN
         13   -1    0    0    0    0  0.00000000000E+00  0.00000000000E+00  0.74505805969E-08  0.10566000000E+00  0.10566000000E+00 0.  1.
     999900   -1    0    0    0    0 -0.00000000000E+00 -0.00000000000E+00 -0.74505805969E-08  0.93827000000E+00  0.93827000000E+00 0.  1.
     999902    2    1    2    0    0 -0.16616084739E-03  0.35502577452E-02 -0.13498459787E-01  0.10299714773E+01  0.10298768876E+01 0.  0.
     999903    2    3    3    0    0 -0.50949243183E-01 -0.11155196480E+00  0.38173055281E-01  0.13952361888E+00  0.54497631541E-01 0.  0.
         14    1    1    2    0    0  0.16616084739E-03 -0.35502577452E-02  0.13498459787E-01  0.13958522705E-01  0.00000000000E+00 0.  1.
     999901    1    3    3    0    0  0.50783082336E-01  0.11510222255E+00 -0.51671515068E-01  0.89044785842E+00  0.88000000000E+00 0.  1.
        -11    1    4    4    0    0 -0.44000682630E-01 -0.37892374559E-01  0.45334960433E-02  0.58246938366E-01  0.51100000000E-03 0.  1.
         11    1    4    4    0    0 -0.69485605527E-02 -0.73659590244E-01  0.33639559238E-01  0.81276680514E-01  0.51100000000E-03 0. -1.
</event>
<event>
 8    1  0.2183582E+004  0.1043930E+01  0.7957747E-01            NaN
         13   -1    0    0    0    0  0.00000000000E+00  0.00000000000E+00  0.74505805969E-08  0.10566000000E+00  0.10566000000E+00 0. -1.
     999900   -1    0    0    0    0 -0.00000000000E+00 -0.00000000000E+00 -0.74505805969E-08  0.93827000000E+00  0.93827000000E+00 0. -1.
     999902    2    1    2    0    0  0.19517573011E-01  0.10943067195E-01 -0.64305971564E-03  0.10215447392E+01  0.10212994440E+01 0.  0.
     999903    2    3    3    0    0 -0.18076531148E-01  0.78521074907E-01  0.94837562898E-01  0.13300849733E+00  0.46955051307E-01 0.  0.
         14    1    1    2    0    0 -0.19517573011E-01 -0.10943067195E-01  0.64305971564E-03  0.22385260813E-01  0.00000000000E+00 0.  1.
     999901    1    3    3    0    0  0.37594104159E-01 -0.67578007711E-01 -0.95480622614E-01  0.88853624185E+00  0.88000000000E+00 0. -1.
        -11    1    4    4    0    0 -0.24949590617E-01  0.47240468770E-01  0.83303941470E-01  0.98964396360E-01  0.51100000000E-03 0. -1.
         11    1    4    4    0    0  0.68730594693E-02  0.31280606136E-01  0.11533621429E-01  0.34044100972E-01  0.51100000000E-03 0.  1.
</event>
<event>
 8    1  0.2183582E+004  0.1043930E+01  0.7957747E-01            NaN
         13   -1    0    0    0    0  0.00000000000E+00  0.00000000000E+00  0.74505805969E-08  0.10566000000E+00  0.10566000000E+00 0.  1.
     999900   -1    0    0    0    0 -0.00000000000E+00 -0.00000000000E+00 -0.74505805969E-08  0.93827000000E+00  0.93827000000E+00 0. -1.
     999902    2    1    2    0    0  0.68659020727E-02 -0.10011569760E-01  0.72363143919E-02  0.10297971876E+01  0.10297002045E+01 0.  0.
     999903    2    3    3    0    0  0.30083001877E-01 -0.92011424257E-01 -0.90590149517E-01  0.14028438449E+00  0.45848054984E-01 0.  0.
         14    1    1    2    0    0 -0.68659020727E-02  0.10011569760E-01 -0.72363143919E-02  0.14132812399E-01  0.00000000000E+00 0. -1.
     999901    1    3    3    0    0 -0.23217099805E-01  0.81999854497E-01  0.97826463909E-01  0.88951280311E+00  0.88000000000E+00 0.  1.
        -11    1    4    4    0    0  0.94898588389E-02 -0.12256599611E-01  0.27973623622E-02  0.15759695809E-01  0.51100000000E-03 0. -1.
         11    1    4    4    0    0  0.20593143038E-01 -0.79754824646E-01 -0.93387511879E-01  0.12452468868E+00  0.51100000000E-03 0.  1.
</event>
<event>
 8    1  0.2183582E+004  0.1043930E+01  0.7957747E-01            NaN
         13   -1    0    0    0    0  0.00000000000E+00  0.00000000000E+00  0.74505805969E-08  0.10566000000E+00  0.10566000000E+00 0. -1.
     999900   -1    0    0    0    0 -0.00000000000E+00 -0.00000000000E+00 -0.74505805969E-08  0.93827000000E+00  0.93827000000E+00 0. -1.
     999902    2    1    2    0    0  0.84685401244E-02 -0.66877433361E-02  0.85508368364E-02  0.10301619612E+01  0.10300699526E+01 0.  0.
     999903    2    3    3    0    0 -0.89618204786E-02  0.38307108397E-01 -0.12523275217E+00  0.13874376366E+00  0.44931514107E-01 0.  0.
         14    1    1    2    0    0 -0.84685401244E-02  0.66877433361E-02 -0.85508368364E-02  0.13768038835E-01  0.00000000000E+00 0.  1.
     999901    1    3    3    0    0  0.17430360603E-01 -0.44994851733E-01  0.13378358900E+00  0.89141819750E+00  0.88000000000E+00 0.  1.
        -11    1    4    4    0    0 -0.24493788543E-01  0.29860745768E-01 -0.61680180767E-01  0.72775790174E-01  0.51100000000E-03 0.  1.
         11    1    4    4    0    0  0.15531968065E-01  0.84463626287E-02 -0.63552571399E-01  0.65967973487E-01  0.51100000000E-03 0. -1.
</event>
<event>
 8    1  0.2183582E+004  0.1043930E+01  0.7957747E-01            NaN
         13   -1    0    0    0    0  0.00000000000E+00  0.00000000000E+00  0.74505805969E-08  0.10566000000E+00  0.10566000000E+00 0.  1.
     999900   -1    0    0    0    0 -0.00000000000E+00 -0.00000000000E+00 -0.74505805969E-08  0.93827000000E+00  0.93827000000E+00 0. -1.
     999902    2    1    2    0    0 -0.10484294225E-01  0.76987518277E-02  0.80192541895E-02  0.10286493049E+01  0.10285358005E+01 0.  0.
     999903    2    3    3    0    0  0.14808030350E-01  0.77747354917E-01 -0.10427316843E+00  0.13839310769E+00  0.44897991530E-01 0.  0.
         14    1    1    2    0    0  0.10484294225E-01 -0.76987518277E-02 -0.80192541895E-02  0.15280695104E-01  0.00000000000E+00 0. -1.
     999901    1    3    3    0    0 -0.25292324575E-01 -0.70048603089E-01  0.11229242262E+00  0.89025619720E+00  0.88000000000E+00 0.  1.
        -11    1    4    4    0    0  0.63021842673E-02  0.39102294662E-01 -0.18063655233E-01  0.43534626858E-01  0.51100000000E-03 0. -1.
         11    1    4    4    0    0  0.85058460826E-02  0.38645060255E-01 -0.86209513198E-01  0.94858480836E-01  0.51100000000E-03 0.  1.
</event>
<event>
 8    1  0.2183582E+004  0.1043930E+01  0.7957747E-01            NaN
         13   -1    0    0    0    0  0.00000000000E+00  0.00000000000E+00  0.74505805969E-08  0.10566000000E+00  0.10566000000E+00 0. -1.
     999900   -1    0    0    0    0 -0.00000000000E+00 -0.00000000000E+00 -0.74505805969E-08  0.93827000000E+00  0.93827000000E+00 0. -1.
     999902    2    1    2    0    0  0.16776718946E-02 -0.13823482388E-01 -0.25492007494E-02  0.10297736702E+01  0.10296763619E+01 0.  0.
     999903    2    3    3    0    0 -0.78665017821E-01  0.40523041024E-01  0.97281186572E-01  0.13883338118E+00  0.44505916322E-01 0.  0.
         14    1    1    2    0    0 -0.16776718946E-02  0.13823482388E-01  0.25492007494E-02  0.14156329778E-01  0.00000000000E+00 0.  1.
     999901    1    3    3    0    0  0.80342689715E-01 -0.54346523412E-01 -0.99830387322E-01  0.89094028904E+00  0.88000000000E+00 0. -1.
        -11    1    4    4    0    0 -0.74850003829E-01  0.19916239272E-01  0.82634501188E-01  0.11326032654E+00  0.51100000000E-03 0. -1.
         11    1    4    4    0    0 -0.38150139920E-02  0.20606801752E-01  0.14646685384E-01  0.25573054646E-01  0.51100000000E-03 0.  1.
</event>
<event>
 8    1  0.2183582E+004  0.1043930E+01  0.7957747E-01            NaN
         13   -1    0    0    0    0  0.00000000000E+00  0.00000000000E+00  0.74505805969E-08  0.10566000000E+00  0.10566000000E+00 0. -1.
     999900   -1    0    0    0    0 -0.00000000000E+00 -0.00000000000E+00 -0.74505805969E-08  0.93827000000E+00  0.93827000000E+00 0.  1.
     999902    2    1    2    0    0 -0.10978412007E-02  0.13313241264E-01  0.12349763092E-02  0.10305146053E+01  0.10304272798E+01 0.  0.
     999903    2    3    3    0    0  0.27811934826E-01  0.10816280886E+00  0.75011319624E-01  0.14187791664E+00  0.45054946660E-01 0.  0.
         14    1    1    2    0    0  0.10978412007E-02 -0.13313241264E-01 -0.12349763092E-02  0.13415394692E-01  0.00000000000E+00 0.  1.
     999901    1    3    3    0    0 -0.28909776027E-01 -0.94849567592E-01 -0.73776343315E-01  0.88863668867E+00  0.88000000000E+00 0.  1.
        -11    1    4    4    0    0  0.34222533810E-01  0.53984732188E-01  0.53044373828E-01  0.83063227999E-01  0.51100000000E-03 0.  1.
         11    1    4    4    0    0 -0.64105989833E-02  0.54178076668E-01  0.21966945796E-01  0.58814688637E-01  0.51100000000E-03 0. -1.
</event>
<event>
 8    1  0.2183582E+004  0.1043930E+01  0.7957747E-01            NaN
         13   -1    0    0    0    0  0.00000000000E+00  0.00000000000E+00  0.74505805969E-08  0.10566000000E+00  0.10566000000E+00 0. -1.
     999900   -1    0    0    0    0 -0.00000000000E+00 -0.00000000000E+00 -0.74505805969E-08  0.93827000000E+00  0.93827000000E+00 0. -1.
     999902    2    1    2    0    0 -0.11383110417E-01 -0.90566835434E-02  0.37684467319E-02  0.10289033600E+01  0.10287936257E+01 0.  0.
     999903    2    3    3    0    0  0.13763852205E-01 -0.18252153016E-01  0.13087514347E+00  0.13936806628E+00  0.42101900211E-01 0.  0.
         14    1    1    2    0    0  0.11383110417E-01  0.90566835434E-02 -0.37684467319E-02  0.15026640022E-01  0.00000000000E+00 0. -1.
     999901    1    3    3    0    0 -0.25146962622E-01  0.91954694723E-02 -0.12710669674E+00  0.88953529370E+00  0.88000000000E+00 0. -1.
        -11    1    4    4    0    0  0.21478975109E-02  0.13518776005E-01  0.46083291101E-01  0.48075998254E-01  0.51100000000E-03 0.  1.
         11    1    4    4    0    0  0.11615954695E-01 -0.31770929020E-01  0.84791852370E-01  0.91292068021E-01  0.51100000000E-03 0. -1.
</event>
<event>
 8    1  0.2183582E+004  0.1043930E+01  0.7957747E-01            NaN
         13   -1    0    0    0    0  0.00000000000E+00  0.00000000000E+00  0.74505805969E-08  0.10566000000E+00  0.10566000000E+00 0.  1.
     999900   -1    0    0    0    0 -0.00000000000E+00 -0.00000000000E+00 -0.74505805969E-08  0.93827000000E+00  0.93827000000E+00 0. -1.
     999902    2    1    2    0    0 -0.83089541299E-02 -0.39943262070E-02 -0.88522380719E-02  0.10311489406E+01  0.10310697271E+01 0.  0.
     999903    2    3    3    0    0 -0.59725220792E-01  0.64980306534E-01  0.99552518873E-01  0.14033317751E+00  0.44644758479E-01 0.  0.
         14    1    1    2    0    0  0.83089541299E-02  0.39943262070E-02  0.88522380719E-02  0.12781059403E-01  0.00000000000E+00 0.  1.
     999901    1    3    3    0    0  0.51416266662E-01 -0.68974632741E-01 -0.10840475695E+00  0.89081576309E+00  0.88000000000E+00 0. -1.
        -11    1    4    4    0    0 -0.10757672433E-02  0.30460887309E-01  0.25348627044E-01  0.39646398889E-01  0.51100000000E-03 0. -1.
         11    1    4    4    0    0 -0.58649453548E-01  0.34519419225E-01  0.74203891829E-01  0.10068677862E+00  0.51100000000E-03 0.  1.
</event>
<event>
 8    1  0.2183582E+004  0.1043930E+01  0.7957747E-01            NaN
         13   -1    0    0    0    0  0.00000000000E+00  0.00000000000E+00  0.74505805969E-08  0.10566000000E+00  0.10566000000E+00 0. -1.
     999900   -1    0    0    0    0 -0.00000000000E+00 -0.00000000000E+00 -0.74505805969E-08  0.93827000000E+00  0.93827000000E+00 0. -1.
     999902    2    1    2    0    0 -0.39177213942E-02 -0.41295176583E-02 -0.11352991108E-01  0.10312299266E+01  0.10311517200E+01 0.  0.
     999903    2    3    3    0    0  0.56307214861E-02  0.60896432172E-01  0.11726666385E+00  0.13945497599E+00  0.44228264734E-01 0.  0.
         14    1    1    2    0    0  0.39177213942E-02  0.41295176583E-02  0.11352991108E-01  0.12700073390E-01  0.00000000000E+00 0. -1.
     999901    1    3    3    0    0 -0.95484428803E-02 -0.65025949830E-01 -0.12861965496E+00  0.89177495062E+00  0.88000000000E+00 0. -1.
        -11    1    4    4    0    0  0.20638726965E-01  0.41648745761E-01  0.97605559468E-01  0.10810958068E+00  0.51100000000E-03 0. -1.
         11    1    4    4    0    0 -0.15008005479E-01  0.19247686411E-01  0.19661104384E-01  0.31345395311E-01  0.51100000000E-03 0.  1.
</event>
<event>
 8    1  0.2183582E+004  0.1043930E+01  0.7957747E-01            NaN
         13   -1    0    0    0    0  0.00000000000E+00  0.00000000000E+00  0.74505805969E-08  0.10566000000E+00  0.10566000000E+00 0. -1.
     999900   -1    0    0    0    0 -0.00000000000E+00 -0.00000000000E+00 -0.74505805969E-08  0.93827000000E+00  0.93827000000E+00 0.  1.
     999902    2    1    2    0    0 -0.60076334097E-02  0.11960852900E-01  0.45702989319E-02  0.10297864045E+01  0.10296892724E+01 0.  0.
     999903    2    3    3    0    0  0.83761539527E-01 -0.24951971261E-01  0.98804382920E-01  0.13944875867E+00  0.45222271473E-01 0.  0.
         14    1    1    2    0    0  0.60076334097E-02 -0.11960852900E-01 -0.45702989319E-02  0.14143595498E-01  0.00000000000E+00 0. -1.
     999901    1    3    3    0    0 -0.89769172937E-01  0.36912824161E-01 -0.94234083988E-01  0.89033764583E+00  0.88000000000E+00 0.  1.
        -11    1    4    4    0    0  0.60650552624E-01 -0.15430646967E-01  0.36820107596E-01  0.72612504734E-01  0.51100000000E-03 0. -1.
         11    1    4    4    0    0  0.23110986903E-01 -0.95213242943E-02  0.61984275324E-01  0.66836253938E-01  0.51100000000E-03 0.  1.
</event>
<event>
 8    1  0.2183582E+004  0.1043930E+01  0.7957747E-01            NaN
         13   -1    0    0    0    0  0.00000000000E+00  0.00000000000E+00  0.74505805969E-08  0.10566000000E+00  0.10566000000E+00 0.  1.
     999900   -1    0    0    0    0 -0.00000000000E+00 -0.00000000000E+00 -0.74505805969E-08  0.93827000000E+00  0.93827000000E+00 0.  1.
     999902    2    1    2    0    0 -0.42307259016E-02 -0.81316336428E-02 -0.10877182576E-01  0.10297055278E+01  0.10296072739E+01 0.  0.
     999903    2    3    3    0    0  0.14566411976E-01  0.19411346940E-02  0.13003462562E+00  0.13823991957E+00  0.44556965113E-01 0.  0.
         14    1    1    2    0    0  0.42307259016E-02  0.81316336428E-02  0.10877182576E-01  0.14224472157E-01  0.00000000000E+00 0.  1.
     999901    1    3    3    0    0 -0.18797137878E-01 -0.10072768337E-01 -0.14091180819E+00  0.89146560828E+00  0.88000000000E+00 0.  1.
        -11    1    4    4    0    0  0.33132601505E-02 -0.19561903026E-01  0.82644908016E-01  0.84994633270E-01  0.51100000000E-03 0. -1.
         11    1    4    4    0    0  0.11253151826E-01  0.21503037720E-01  0.47389717602E-01  0.53245286295E-01  0.51100000000E-03 0.  1.
</event>
<event>
 8    1  0.2183582E+004  0.1043930E+01  0.7957747E-01            NaN
         13   -1    0    0    0    0  0.00000000000E+00  0.00000000000E+00  0.74505805969E-08  0.10566000000E+00  0.10566000000E+00 0. -1.
     999900   -1    0    0    0    0 -0.00000000000E+00 -0.00000000000E+00 -0.74505805969E-08  0.93827000000E+00  0.93827000000E+00 0.  1.
     999902    2    1    2    0    0 -0.92385504809E-02  0.45419916907E-02 -0.91296990017E-02  0.10301702069E+01  0.10300783092E+01 0.  0.
     999903    2    3    3    0    0  0.71219975857E-01  0.14329042163E-01  0.10895270876E+00  0.13859137364E+00  0.45379176832E-01 0.  0.
         14    1    1    2    0    0  0.92385504809E-02 -0.45419916907E-02  0.91296990017E-02  0.13759793144E-01  0.00000000000E+00 0. -1.
     999901    1    3    3    0    0 -0.80458526337E-01 -0.97870504722E-02 -0.11808240776E+00  0.89157883322E+00  0.88000000000E+00 0.  1.
        -11    1    4    4    0    0  0.30668655008E-01  0.26436145692E-01  0.35661657979E-01  0.53957864764E-01  0.51100000000E-03 0. -1.
         11    1    4    4    0    0  0.40551320849E-01 -0.12107103529E-01  0.73291050784E-01  0.84633508875E-01  0.51100000000E-03 0.  1.
</event>
<event>
 7    1  0.2183582E+004  0.1043930E+01  0.7957747E-01            NaN
         13   -1    0    0    0    0  0.00000000000E+00  0.00000000000E+00  0.74505805969E-08  0.10566000000E+00  0.10566000000E+00 0.  1.
     999900   -1    0    0    0    0 -0.00000000000E+00 -0.00000000000E+00 -0.74505805969E-08  0.93827000000E+00  0.93827000000E+00 0.  1.
     999903    2    1    2    0    0 -0.79660255837E-01 -0.30245366782E-01  0.38809969315E-01  0.10337993713E+00  0.43825325006E-01 0.  0.
         14    1    1    2    0    0 -0.12124375921E-01  0.33961269941E-01 -0.42531121962E-01  0.55760780867E-01  0.00000000000E+00 0. -1.
     999901    1    1    2    0    0  0.91784631758E-01 -0.37159031586E-02  0.37211526470E-02  0.88478928200E+00  0.88000000000E+00 0.  1.
        -11    1    3    3    0    0 -0.43589888647E-01 -0.49331235812E-02 -0.11580013759E-02  0.43886400954E-01  0.51100000000E-03 0.  1.
         11    1    3    3    0    0 -0.36070367190E-01 -0.25312243201E-01  0.39967970691E-01  0.59493536181E-01  0.51100000000E-03 0. -1.
</event>
<event>
 8    1  0.2183582E+004  0.1043930E+01  0.7957747E-01            NaN
         13   -1    0    0    0    0  0.00000000000E+00  0.00000000000E+00  0.74505805969E-08  0.10566000000E+00  0.10566000000E+00 0.  1.
     999900   -1    0    0    0    0 -0.00000000000E+00 -0.00000000000E+00 -0.74505805969E-08  0.93827000000E+00  0.93827000000E+00 0. -1.
     999902    2    1    2    0    0 -0.80846233601E-04 -0.41942404688E-02  0.11902084901E-01  0.10313102609E+01  0.10312330466E+01 0.  0.
     999903    2    3    3    0    0 -0.12884820997E+00  0.23070653226E-01  0.27960709218E-01  0.14137639383E+00  0.45512275481E-01 0.  0.
         14    1    1    2    0    0  0.80846233601E-04  0.41942404688E-02 -0.11902084901E-01  0.12619739071E-01  0.00000000000E+00 0. -1.
     999901    1    3    3    0    0  0.12876736374E+00 -0.27264893695E-01 -0.16058624317E-01  0.88993386710E+00  0.88000000000E+00 0.  1.
        -11    1    4    4    0    0 -0.50582071447E-01  0.80898372914E-03 -0.10024791704E-01  0.51574780429E-01  0.51100000000E-03 0.  1.
         11    1    4    4    0    0 -0.78266138525E-01  0.22261669497E-01  0.37985500922E-01  0.89801613403E-01  0.51100000000E-03 0. -1.
</event>
<event>
 8    1  0.2183582E+004  0.1043930E+01  0.7957747E-01            NaN
         13   -1    0    0    0    0  0.00000000000E+00  0.00000000000E+00  0.74505805969E-08  0.10566000000E+00  0.10566000000E+00 0.  1.
     999900   -1    0    0    0    0 -0.00000000000E+00 -0.00000000000E+00 -0.74505805969E-08  0.93827000000E+00  0.93827000000E+00 0. -1.
     999902    2    1    2    0    0 -0.40626023301E-02  0.33747337878E-02 -0.16336682273E-01  0.10267608197E+01  0.10266172607E+01 0.  0.
     999903    2    3    3    0    0 -0.10982520969E+00  0.51930737751E-01 -0.45977524560E-01  0.13860430521E+00  0.48361580300E-01 0.  0.
         14    1    1    2    0    0  0.40626023301E-02 -0.33747337878E-02  0.16336682273E-01  0.17169180339E-01  0.00000000000E+00 0.  1.
     999901    1    3    3    0    0  0.10576260736E+00 -0.48556003964E-01  0.29640842287E-01  0.88815651446E+00  0.88000000000E+00 0.  1.
        -11    1    4    4    0    0 -0.43636486951E-01  0.40147063412E-01 -0.39086320957E-01  0.71020639965E-01  0.51100000000E-03 0. -1.
         11    1    4    4    0    0 -0.66188722743E-01  0.11783674339E-01 -0.68912036028E-02  0.67583665241E-01  0.51100000000E-03 0.  1.
</event>
<event>
 8    1  0.2183582E+004  0.1043930E+01  0.7957747E-01            NaN
         13   -1    0    0    0    0  0.00000000000E+00  0.00000000000E+00  0.74505805969E-08  0.10566000000E+00  0.10566000000E+00 0. -1.
     999900   -1    0    0    0    0 -0.00000000000E+00 -0.00000000000E+00 -0.74505805969E-08  0.93827000000E+00  0.93827000000E+00 0. -1.
     999902    2    1    2    0    0  0.15043202787E-02  0.89264807742E-02  0.10931421780E-01  0.10297370080E+01  0.10296391915E+01 0.  0.
     999903    2    3    3    0    0 -0.12359925258E+00 -0.82240693005E-02 -0.44323194866E-01  0.13900802683E+00  0.44880679215E-01 0.  0.
         14    1    1    2    0    0 -0.15043202787E-02 -0.89264807742E-02 -0.10931421780E-01  0.14192991956E-01  0.00000000000E+00 0.  1.
     999901    1    3    3    0    0  0.12510357286E+00  0.17150550075E-01  0.55254616647E-01  0.89072898121E+00  0.88000000000E+00 0.  1.
        -11    1    4    4    0    0 -0.44967147955E-02 -0.51579892584E-02 -0.14722185882E-01  0.16242819191E-01  0.51100000000E-03 0. -1.
         11    1    4    4    0    0 -0.11910253778E+00 -0.30660800421E-02 -0.29601008984E-01  0.12276520764E+00  0.51100000000E-03 0.  1.
</event>
<event>
 8    1  0.2183582E+004  0.1043930E+01  0.7957747E-01            NaN
         13   -1    0    0    0    0  0.00000000000E+00  0.00000000000E+00  0.74505805969E-08  0.10566000000E+00  0.10566000000E+00 0.  1.
     999900   -1    0    0    0    0 -0.00000000000E+00 -0.00000000000E+00 -0.74505805969E-08  0.93827000000E+00  0.93827000000E+00 0.  1.
     999902    2    1    2    0    0 -0.29456205080E-03 -0.75164180654E-02  0.11717805681E-01  0.10300055511E+01  0.10299114258E+01 0.  0.
     999903    2    3    3    0    0  0.24792230416E-01  0.12274850886E+00 -0.37815676961E-01  0.13868525836E+00  0.46062179111E-01 0.  0.
         14    1    1    2    0    0  0.29456205080E-03  0.75164180654E-02 -0.11717805681E-01  0.13924448905E-01  0.00000000000E+00 0. -1.
     999901    1    3    3    0    0 -0.25086792467E-01 -0.13026492693E+00  0.49533482642E-01  0.89132029274E+00  0.88000000000E+00 0. -1.
        -11    1    4    4    0    0  0.29242664487E-01  0.89036713048E-01 -0.90687260290E-02  0.94155045587E-01  0.51100000000E-03 0. -1.
         11    1    4    4    0    0 -0.44504340702E-02  0.33711795815E-01 -0.28746950932E-01  0.44530212770E-01  0.51100000000E-03 0.  1.
</event>
<event>
 8    1  0.2183582E+004  0.1043930E+01  0.7957747E-01            NaN
         13   -1    0    0    0    0  0.00000000000E+00  0.00000000000E+00  0.74505805969E-08  0.10566000000E+00  0.10566000000E+00 0. -1.
     999900   -1    0    0    0    0 -0.00000000000E+00 -0.00000000000E+00 -0.74505805969E-08  0.93827000000E+00  0.93827000000E+00 0. -1.
     999902    2    1    2    0    0  0.75591588556E-02 -0.10686679008E-02  0.11448266876E-01  0.10301697039E+01  0.10300777996E+01 0.  0.
     999903    2    3    3    0    0  0.98389475985E-01 -0.88440193290E-01  0.21225049476E-01  0.14113679371E+00  0.44350141379E-01 0.  0.
         14    1    1    2    0    0 -0.75591588556E-02  0.10686679008E-02 -0.11448266876E-01  0.13760296077E-01  0.00000000000E+00 0.  1.
     999901    1    3    3    0    0 -0.90830317129E-01  0.87371525390E-01 -0.97767826007E-02  0.88903291021E+00  0.88000000000E+00 0.  1.
        -11    1    4    4    0    0  0.62163665004E-01 -0.26913792439E-01  0.15600646719E-01  0.69514852868E-01  0.51100000000E-03 0. -1.
         11    1    4    4    0    0  0.36225810980E-01 -0.61526400852E-01  0.56244027574E-02  0.71621940845E-01  0.51100000000E-03 0.  1.
</event>
<event>
 8    1  0.2183582E+004  0.1043930E+01  0.7957747E-01            NaN
         13   -1    0    0    0    0  0.00000000000E+00  0.00000000000E+00  0.74505805969E-08  0.10566000000E+00  0.10566000000E+00 0.  1.
     999900   -1    0    0    0    0 -0.00000000000E+00 -0.00000000000E+00 -0.74505805969E-08  0.93827000000E+00  0.93827000000E+00 0.  1.
     999902    2    1    2    0    0  0.36062091338E-02  0.10656777890E-01 -0.65656875901E-02  0.10309038758E+01  0.10308215758E+01 0.  0.
     999903    2    3    3    0    0 -0.73319043791E-01  0.51819169825E-01  0.93826013576E-01  0.14090930796E+00  0.54691897951E-01 0.  0.
         14    1    1    2    0    0 -0.36062091338E-02 -0.10656777890E-01  0.65656875901E-02  0.13026124245E-01  0.00000000000E+00 0.  1.
     999901    1    3    3    0    0  0.76925252924E-01 -0.41162391935E-01 -0.10039170117E+00  0.88999456780E+00  0.88000000000E+00 0. -1.
        -11    1    4    4    0    0 -0.80396127050E-02  0.26057692992E-01  0.53287154882E-01  0.59861680004E-01  0.51100000000E-03 0. -1.
         11    1    4    4    0    0 -0.65279431086E-01  0.25761476833E-01  0.40538858694E-01  0.81047627952E-01  0.51100000000E-03 0.  1.
</event>
<event>
 8    1  0.2183582E+004  0.1043930E+01  0.7957747E-01            NaN
         13   -1    0    0    0    0  0.00000000000E+00  0.00000000000E+00  0.74505805969E-08  0.10566000000E+00  0.10566000000E+00 0. -1.
     999900   -1    0    0    0    0 -0.00000000000E+00 -0.00000000000E+00 -0.74505805969E-08  0.93827000000E+00  0.93827000000E+00 0.  1.
     999902    2    1    2    0    0  0.28773697935E-03 -0.14301179207E-01 -0.16345997096E-02  0.10295328324E+01  0.10294321612E+01 0.  0.
     999903    2    3    3    0    0 -0.27869284514E-01  0.85839223529E-02  0.12814327039E+00  0.13927509369E+00  0.46113698960E-01 0.  0.
         14    1    1    2    0    0 -0.28773697935E-03  0.14301179207E-01  0.16345997096E-02  0.14397167621E-01  0.00000000000E+00 0. -1.
     999901    1    3    3    0    0  0.28157021494E-01 -0.22885101560E-01 -0.12977787010E+00  0.89025773869E+00  0.88000000000E+00 0.  1.
        -11    1    4    4    0    0 -0.15657742930E-01  0.11651899151E-01  0.13027008068E-01  0.23471168008E-01  0.51100000000E-03 0.  1.
         11    1    4    4    0    0 -0.12211541585E-01 -0.30679767976E-02  0.11511626233E+00  0.11580392568E+00  0.51100000000E-03 0. -1.
</event>
<event>
 8    1  0.2183582E+004  0.1043930E+01  0.7957747E-01            NaN
         13   -1    0    0    0    0  0.00000000000E+00  0.00000000000E+00  0.74505805969E-08  0.10566000000E+00  0.10566000000E+00 0. -1.
     999900   -1    0    0    0    0 -0.00000000000E+00 -0.00000000000E+00 -0.74505805969E-08  0.93827000000E+00  0.93827000000E+00 0. -1.
     999902    2    1    2    0    0  0.75424304169E-02 -0.68134087455E-02  0.64598636039E-02  0.10318867183E+01  0.10318164366E+01 0.  0.
     999903    2    3    3    0    0 -0.45478761521E-01 -0.12702126101E+00  0.73633314459E-03  0.14211487492E+00  0.44647250631E-01 0.  0.
         14    1    1    2    0    0 -0.75424304169E-02  0.68134087455E-02 -0.64598636039E-02  0.12043281659E-01  0.00000000000E+00 0.  1.
     999901    1    3    3    0    0  0.53021191938E-01  0.12020785227E+00  0.57235304593E-02  0.88977184342E+00  0.88000000000E+00 0.  1.
        -11    1    4    4    0    0 -0.26618247458E-01 -0.93805830358E-01  0.19678178263E-01  0.99476412921E-01  0.51100000000E-03 0. -1.
         11    1    4    4    0    0 -0.18860514063E-01 -0.33215430654E-01 -0.18941845119E-01  0.42638462001E-01  0.51100000000E-03 0.  1.
</event>
<event>
 8    1  0.2183582E+004  0.1043930E+01  0.7957747E-01            NaN
         13   -1    0    0    0    0  0.00000000000E+00  0.00000000000E+00  0.74505805969E-08  0.10566000000E+00  0.10566000000E+00 0.  1.
     999900   -1    0    0    0    0 -0.00000000000E+00 -0.00000000000E+00 -0.74505805969E-08  0.93827000000E+00  0.93827000000E+00 0.  1.
     999902    2    1    2    0    0 -0.16062659595E-01 -0.46370455006E-02  0.11912755104E-02  0.10271690227E+01  0.10270322637E+01 0.  0.
     999903    2    3    3    0    0  0.90868766706E-01 -0.33064194077E-01  0.84742729167E-01  0.13631365947E+00  0.45273722167E-01 0.  0.
         14    1    1    2    0    0  0.16062659595E-01  0.46370455006E-02 -0.11912755104E-02  0.16760977345E-01  0.00000000000E+00 0.  1.
     999901    1    3    3    0    0 -0.10693142630E+00  0.28427148576E-01 -0.83551453657E-01  0.89085536318E+00  0.88000000000E+00 0.  1.
        -11    1    4    4    0    0  0.64219662284E-01 -0.35505094234E-01  0.38464149962E-01  0.82852451344E-01  0.51100000000E-03 0.  1.
         11    1    4    4    0    0  0.26649104422E-01  0.24409001566E-02  0.46278579205E-01  0.53461208126E-01  0.51100000000E-03 0. -1.
</event>
<event>
 8    1  0.2183582E+004  0.1043930E+01  0.7957747E-01            NaN
         13   -1    0    0    0    0  0.00000000000E+00  0.00000000000E+00  0.74505805969E-08  0.10566000000E+00  0.10566000000E+00 0. -1.
     999900   -1    0    0    0    0 -0.00000000000E+00 -0.00000000000E+00 -0.74505805969E-08  0.93827000000E+00  0.93827000000E+00 0.  1.
     999902    2    1    2    0    0 -0.11900901304E-01  0.24622326076E-02  0.67032743178E-02  0.10300509536E+01  0.10299574453E+01 0.  0.
     999903    2    3    3    0    0 -0.54107003770E-01  0.79748261381E-01  0.93453696189E-01  0.14141147611E+00  0.44455136870E-01 0.  0.
         14    1    1    2    0    0  0.11900901304E-01 -0.24622326076E-02 -0.67032743178E-02  0.13879046359E-01  0.00000000000E+00 0.  1.
     999901    1    3    3    0    0  0.42206102465E-01 -0.77286028774E-01 -0.86750421872E-01  0.88863947753E+00  0.88000000000E+00 0.  1.
        -11    1    4    4    0    0 -0.24214521236E-01  0.63804013357E-01  0.43090668180E-01  0.80711597459E-01  0.51100000000E-03 0. -1.
         11    1    4    4    0    0 -0.29892482534E-01  0.15944248024E-01  0.50363028010E-01  0.60699878652E-01  0.51100000000E-03 0.  1.
</event>
<event>
 8    1  0.2183582E+004  0.1043930E+01  0.7957747E-01            NaN
         13   -1    0    0    0    0  0.00000000000E+00  0.00000000000E+00  0.74505805969E-08  0.10566000000E+00  0.10566000000E+00 0. -1.
     999900   -1    0    0    0    0 -0.00000000000E+00 -0.00000000000E+00 -0.74505805969E-08  0.93827000000E+00  0.93827000000E+00 0.  1.
     999902    2    1    2    0    0  0.45715379396E-02  0.96077898333E-02 -0.83457371796E-02  0.10304074295E+01  0.10303186938E+01 0.  0.
     999903    2    3    3    0    0 -0.93155892704E-01 -0.82946828544E-01 -0.43523754657E-01  0.13947841940E+00  0.44740535832E-01 0.  0.
         14    1    1    2    0    0 -0.45715379396E-02 -0.96077898333E-02  0.83457371796E-02  0.13522570528E-01  0.00000000000E+00 0.  1.
     999901    1    3    3    0    0  0.97727430644E-01  0.92554618377E-01  0.35178017477E-01  0.89092901008E+00  0.88000000000E+00 0. -1.
        -11    1    4    4    0    0 -0.63623050374E-01 -0.51173872491E-01 -0.55756153884E-02  0.81841348795E-01  0.51100000000E-03 0. -1.
         11    1    4    4    0    0 -0.29532842330E-01 -0.31772956053E-01 -0.37948139268E-01  0.57637070600E-01  0.51100000000E-03 0.  1.
</event>
<event>
 8    1  0.2183582E+004  0.1043930E+01  0.7957747E-01            NaN
         13   -1    0    0    0    0  0.00000000000E+00  0.00000000000E+00  0.74505805969E-08  0.10566000000E+00  0.10566000000E+00 0. -1.
     999900   -1    0    0    0    0 -0.00000000000E+00 -0.00000000000E+00 -0.74505805969E-08  0.93827000000E+00  0.93827000000E+00 0.  1.
     999902    2    1    2    0    0  0.18399657861E-01 -0.82869689761E-05  0.41917953678E-02  0.10250588944E+01  0.10248851733E+01 0.  0.
     999903    2    3    3    0    0  0.45984336014E-01  0.15130712260E-01 -0.11894150075E+00  0.13592903191E+00  0.44565945539E-01 0.  0.
         14    1    1    2    0    0 -0.18399657861E-01  0.82869689761E-05 -0.41917953678E-02  0.18871105598E-01  0.00000000000E+00 0.  1.
     999901    1    3    3    0    0 -0.27584678153E-01 -0.15138999229E-01  0.12313329612E+00  0.88912986249E+00  0.88000000000E+00 0. -1.
        -11    1    4    4    0    0  0.20980311342E-01  0.25096614100E-01 -0.35609053583E-01  0.48355757893E-01  0.51100000000E-03 0. -1.
         11    1    4    4    0    0  0.25004024672E-01 -0.99659018401E-02 -0.83332447170E-01  0.87573274015E-01  0.51100000000E-03 0.  1.
</event>
<event>
 8    1  0.3084475E+004  0.1043930E+01  0.7957747E-01            NaN
         13   -1    0    0    0    0  0.00000000000E+00  0.00000000000E+00  0.74505805969E-08  0.10566000000E+00  0.10566000000E+00 0.  1.
     999900   -1    0    0    0    0 -0.00000000000E+00 -0.00000000000E+00 -0.74505805969E-08  0.93827000000E+00  0.93827000000E+00 0. -1.
     999902    2    1    2    0    0 -0.10829676861E-01 -0.21908842179E-02  0.91046968271E-02  0.10296129689E+01  0.10295134231E+01 0.  0.
     999903    2    3    3    0    0  0.95162558939E-01  0.73303415856E-01  0.54499307337E-01  0.13888606686E+00  0.43472539237E-01 0.  0.
         14    1    1    2    0    0  0.10829676861E-01  0.21908842179E-02 -0.91046968271E-02  0.14317031078E-01  0.00000000000E+00 0. -1.
     999901    1    3    3    0    0 -0.10599223580E+00 -0.75494300073E-01 -0.45394610510E-01  0.89072690206E+00  0.88000000000E+00 0. -1.
        -11    1    4    4    0    0  0.26362581407E-01  0.23901810456E-01  0.38967230967E-01  0.52772989794E-01  0.51100000000E-03 0. -1.
         11    1    4    4    0    0  0.68799977532E-01  0.49401605400E-01  0.15532076370E-01  0.86113077067E-01  0.51100000000E-03 0.  1.
</event>
<event>
 8    1  0.2183582E+004  0.1043930E+01  0.7957747E-01            NaN
         13   -1    0    0    0    0  0.00000000000E+00  0.00000000000E+00  0.74505805969E-08  0.10566000000E+00  0.10566000000E+00 0. -1.
     999900   -1    0    0    0    0 -0.00000000000E+00 -0.00000000000E+00 -0.74505805969E-08  0.93827000000E+00  0.93827000000E+00 0.  1.
     999902    2    1    2    0    0 -0.93987870972E-02  0.82181340377E-02  0.68467375636E-02  0.10296908729E+01  0.10295924150E+01 0.  0.
     999903    2    3    3    0    0  0.67981545881E-01  0.68631623046E-01  0.90961673900E-01  0.14024563673E+00  0.45420504637E-01 0.  0.
         14    1    1    2    0    0  0.93987870972E-02 -0.82181340377E-02 -0.68467375636E-02  0.14239127123E-01  0.00000000000E+00 0. -1.
     999901    1    3    3    0    0 -0.77380332978E-01 -0.60413489008E-01 -0.84114936336E-01  0.88944523614E+00  0.88000000000E+00 0.  1.
        -11    1    4    4    0    0  0.44093637559E-01  0.49407474057E-01  0.86980114098E-01  0.10932130961E+00  0.51100000000E-03 0. -1.
         11    1    4    4    0    0  0.23887908322E-01  0.19224148989E-01  0.39815598017E-02  0.30924327120E-01  0.51100000000E-03 0.  1.
</event>
<event>
 8    1  0.2183582E+004  0.1043930E+01  0.7957747E-01            NaN
         13   -1    0    0    0    0  0.00000000000E+00  0.00000000000E+00  0.74505805969E-08  0.10566000000E+00  0.10566000000E+00 0.  1.
     999900   -1    0    0    0    0 -0.00000000000E+00 -0.00000000000E+00 -0.74505805969E-08  0.93827000000E+00  0.93827000000E+00 0. -1.
     999902    2    1    2    0    0  0.16026271575E-01  0.10970594445E-01  0.87942826375E-02  0.10226101799E+01  0.10223879133E+01 0.  0.
     999903    2    3    3    0    0  0.18383718633E-01 -0.10923258407E+00 -0.55797957953E-01  0.13208981558E+00  0.45437745712E-01 0.  0.
         14    1    1    2    0    0 -0.16026271575E-01 -0.10970594445E-01 -0.87942826375E-02  0.21319820126E-01  0.00000000000E+00 0. -1.
     999901    1    3    3    0    0 -0.23574470579E-02  0.12020317851E+00  0.64592240590E-01  0.89052036430E+00  0.88000000000E+00 0.  1.
        -11    1    4    4    0    0 -0.84584608403E-03 -0.88025325606E-01 -0.54274579903E-01  0.10341742865E+00  0.51100000000E-03 0.  1.
         11    1    4    4    0    0  0.19229564717E-01 -0.21207258460E-01 -0.15233780499E-02  0.28672386930E-01  0.51100000000E-03 0. -1.
</event>
<event>
 8    1  0.2183582E+004  0.1043930E+01  0.7957747E-01            NaN
         13   -1    0    0    0    0  0.00000000000E+00  0.00000000000E+00  0.74505805969E-08  0.10566000000E+00  0.10566000000E+00 0. -1.
     999900   -1    0    0    0    0 -0.00000000000E+00 -0.00000000000E+00 -0.74505805969E-08  0.93827000000E+00  0.93827000000E+00 0.  1.
     999902    2    1    2    0    0  0.11238616103E-01  0.47789580399E-02  0.78441536573E-02  0.10294153289E+01  0.10293129959E+01 0.  0.
     999903    2    3    3    0    0  0.93698790952E-01 -0.27105907807E-01 -0.89514691164E-01  0.13964284683E+00  0.44419039526E-01 0.  0.
         14    1    1    2    0    0 -0.11238616103E-01 -0.47789580399E-02 -0.78441536573E-02  0.14514671145E-01  0.00000000000E+00 0.  1.
     999901    1    3    3    0    0 -0.82460174849E-01  0.31884865847E-01  0.97358844821E-01  0.88977248203E+00  0.88000000000E+00 0. -1.
        -11    1    4    4    0    0  0.17701635442E-01 -0.69388872522E-02 -0.45997358469E-01  0.49774633708E-01  0.51100000000E-03 0. -1.
         11    1    4    4    0    0  0.75997155510E-01 -0.20167020555E-01 -0.43517332694E-01  0.89868213120E-01  0.51100000000E-03 0.  1.
</event>
<event>
 8    1  0.2183582E+004  0.1043930E+01  0.7957747E-01            NaN
         13   -1    0    0    0    0  0.00000000000E+00  0.00000000000E+00  0.74505805969E-08  0.10566000000E+00  0.10566000000E+00 0. -1.
     999900   -1    0    0    0    0 -0.00000000000E+00 -0.00000000000E+00 -0.74505805969E-08  0.93827000000E+00  0.93827000000E+00 0. -1.
     999902    2    1    2    0    0  0.99189200293E-02  0.60077578948E-02 -0.95892245579E-02  0.10288823637E+01  0.10287723203E+01 0.  0.
     999903    2    3    3    0    0  0.11401636318E+00 -0.62554697295E-01  0.24312215096E-01  0.13945198673E+00  0.44078924365E-01 0.  0.
         14    1    1    2    0    0 -0.99189200293E-02 -0.60077578948E-02  0.95892245579E-02  0.15047636263E-01  0.00000000000E+00 0. -1.
     999901    1    3    3    0    0 -0.10409744315E+00  0.68562455190E-01 -0.33901439654E-01  0.88943037701E+00  0.88000000000E+00 0.  1.
        -11    1    4    4    0    0  0.98156342030E-02  0.65014681983E-02 -0.12736387135E-02  0.11853229101E-01  0.51100000000E-03 0. -1.
         11    1    4    4    0    0  0.10420072898E+00 -0.69056165494E-01  0.25585853809E-01  0.12759875763E+00  0.51100000000E-03 0.  1.
</event>
<event>
 8    1  0.2183582E+004  0.1043930E+01  0.7957747E-01            NaN
         13   -1    0    0    0    0  0.00000000000E+00  0.00000000000E+00  0.74505805969E-08  0.10566000000E+00  0.10566000000E+00 0.  1.
     999900   -1    0    0    0    0 -0.00000000000E+00 -0.00000000000E+00 -0.74505805969E-08  0.93827000000E+00  0.93827000000E+00 0. -1.
     999902    2    1    2    0    0 -0.21531945711E-01  0.16386269655E-02  0.32536195387E-02  0.10220920554E+01  0.10218587348E+01 0.  0.
     999903    2    3    3    0    0  0.73363394360E-01 -0.98328700308E-01 -0.86538663943E-02  0.13128322051E+00  0.45931183826E-01 0.  0.
         14    1    1    2    0    0  0.21531945711E-01 -0.16386269655E-02 -0.32536195387E-02  0.21837944604E-01  0.00000000000E+00 0.  1.
     999901    1    3    3    0    0 -0.94895340071E-01  0.99967327273E-01  0.11907485933E-01  0.89080883489E+00  0.88000000000E+00 0. -1.
        -11    1    4    4    0    0  0.60919588291E-03 -0.13178315173E-01  0.11470833583E-01  0.17489432653E-01  0.51100000000E-03 0. -1.
         11    1    4    4    0    0  0.72754198477E-01 -0.85150385134E-01 -0.20124699978E-01  0.11379378786E+00  0.51100000000E-03 0.  1.
</event>
<event>
 8    1  0.2183582E+004  0.1043930E+01  0.7957747E-01            NaN
         13   -1    0    0    0    0  0.00000000000E+00  0.00000000000E+00  0.74505805969E-08  0.10566000000E+00  0.10566000000E+00 0. -1.
     999900   -1    0    0    0    0 -0.00000000000E+00 -0.00000000000E+00 -0.74505805969E-08  0.93827000000E+00  0.93827000000E+00 0.  1.
     999902    2    1    2    0    0 -0.47100383319E-02  0.59882068993E-02 -0.11202343330E-01  0.10303824696E+01  0.10302934039E+01 0.  0.
     999903    2    3    3    0    0  0.70168788208E-01 -0.92173165161E-01 -0.64815805695E-01  0.14014828866E+00  0.44954453971E-01 0.  0.
         14    1    1    2    0    0  0.47100383319E-02 -0.59882068993E-02  0.11202343330E-01  0.13547530367E-01  0.00000000000E+00 0. -1.
     999901    1    3    3    0    0 -0.74878826540E-01  0.98161372060E-01  0.53613462365E-01  0.89023418097E+00  0.88000000000E+00 0. -1.
        -11    1    4    4    0    0  0.58037298541E-01 -0.92424699522E-01 -0.47566591987E-01  0.11905248800E+00  0.51100000000E-03 0.  1.
         11    1    4    4    0    0  0.12131489667E-01  0.25153436153E-03 -0.17249213708E-01  0.21095800663E-01  0.51100000000E-03 0. -1.
</event>
<event>
 7    1  0.2183582E+004  0.1043930E+01  0.7957747E-01            NaN
         13   -1    0    0    0    0  0.00000000000E+00  0.00000000000E+00  0.74505805969E-08  0.10566000000E+00  0.10566000000E+00 0.  1.
     999900   -1    0    0    0    0 -0.00000000000E+00 -0.00000000000E+00 -0.74505805969E-08  0.93827000000E+00  0.93827000000E+00 0. -1.
     999902    2    1    2    0    0  0.17083362401E-02 -0.25399439665E-02 -0.13753692101E-01  0.10298397986E+01  0.10297434035E+01 0.  0.
         14    1    1    2    0    0 -0.17083362401E-02  0.25399439665E-02  0.13753692101E-01  0.14090201364E-01  0.00000000000E+00 0.  1.
     999901    1    3    3    0    0  0.57673078041E-01  0.10198390210E+00  0.31448915154E-01  0.88832197681E+00  0.88000000000E+00 0.  1.
        -11    1    3    3    0    0 -0.38563453372E-02 -0.13487848075E-01  0.15024300655E-01  0.20561716276E-01  0.51100000000E-03 0.  1.
         11    1    3    3    0    0 -0.52108396464E-01 -0.91035997992E-01 -0.60226907910E-01  0.12095610555E+00  0.51100000000E-03 0. -1.
</event>
<event>
 8    1  0.2183582E+004  0.1043930E+01  0.7957747E-01            NaN
         13   -1    0    0    0    0  0.00000000000E+00  0.00000000000E+00  0.74505805969E-08  0.10566000000E+00  0.10566000000E+00 0.  1.
     999900   -1    0    0    0    0 -0.00000000000E+00 -0.00000000000E+00 -0.74505805969E-08  0.93827000000E+00  0.93827000000E+00 0.  1.
     999902    2    1    2    0    0  0.45159447863E-02 -0.33487737626E-02 -0.11778832054E-01  0.10308782213E+01  0.10307955948E+01 0.  0.
     999903    2    3    3    0    0 -0.12448620961E+00 -0.29126050055E-01 -0.40109477724E-01  0.14064867263E+00  0.42756703989E-01 0.  0.
         14    1    1    2    0    0 -0.45159447863E-02  0.33487737626E-02  0.11778832054E-01  0.13051778713E-01  0.00000000000E+00 0.  1.
     999901    1    3    3    0    0  0.12900215439E+00  0.25777276293E-01  0.28330645671E-01  0.89022954865E+00  0.88000000000E+00 0.  1.
        -11    1    4    4    0    0 -0.84898491706E-01 -0.10362912110E-02 -0.15820917511E-01  0.86367762188E-01  0.51100000000E-03 0.  1.
         11    1    4    4    0    0 -0.39587717901E-01 -0.28089758844E-01 -0.24288560214E-01  0.54280910446E-01  0.51100000000E-03 0. -1.
</event>
<event>
 8    1  0.2183582E+004  0.1043930E+01  0.7957747E-01            NaN
         13   -1    0    0    0    0  0.00000000000E+00  0.00000000000E+00  0.74505805969E-08  0.10566000000E+00  0.10566000000E+00 0.  1.
     999900   -1    0    0    0    0 -0.00000000000E+00 -0.00000000000E+00 -0.74505805969E-08  0.93827000000E+00  0.93827000000E+00 0. -1.
     999902    2    1    2    0    0 -0.41662409612E-02 -0.23286310949E-02  0.12523111080E-01  0.10305281942E+01  0.10304410467E+01 0.  0.
     999903    2    3    3    0    0  0.13117163232E+00 -0.13353460855E-01  0.16703451858E-01  0.14010393465E+00  0.44337288581E-01 0.  0.
         14    1    1    2    0    0  0.41662409612E-02  0.23286310949E-02 -0.12523111080E-01  0.13401805761E-01  0.00000000000E+00 0. -1.
     999901    1    3    3    0    0 -0.13533787328E+00  0.11024829760E-01 -0.41803407778E-02  0.89042425959E+00  0.88000000000E+00 0.  1.
        -11    1    4    4    0    0  0.68158075886E-01  0.60673530646E-02  0.26614325607E-01  0.73422881516E-01  0.51100000000E-03 0.  1.
         11    1    4    4    0    0  0.63013556433E-01 -0.19420813920E-01 -0.99108737489E-02  0.66681053134E-01  0.51100000000E-03 0. -1.
</event>
<event>
 8    1  0.2183582E+004  0.1043930E+01  0.7957747E-01            NaN
         13   -1    0    0    0    0  0.00000000000E+00  0.00000000000E+00  0.74505805969E-08  0.10566000000E+00  0.10566000000E+00 0.  1.
     999900   -1    0    0    0    0 -0.00000000000E+00 -0.00000000000E+00 -0.74505805969E-08  0.93827000000E+00  0.93827000000E+00 0.  1.
     999902    2    1    2    0    0  0.85597002244E-02 -0.63694947558E-03  0.10916596227E-01  0.10300430908E+01  0.10299494758E+01 0.  0.
     999903    2    3    3    0    0  0.83058998589E-01 -0.92916449272E-01  0.49773644196E-01  0.14123741934E+00  0.44026459908E-01 0.  0.
         14    1    1    2    0    0 -0.85597002244E-02  0.63694947558E-03 -0.10916596227E-01  0.13886909150E-01  0.00000000000E+00 0. -1.
     999901    1    3    3    0    0 -0.74499298364E-01  0.92279499797E-01 -0.38857047969E-01  0.88880567151E+00  0.88000000000E+00 0.  1.
        -11    1    4    4    0    0  0.55712305714E-01 -0.86679480151E-01  0.31465312702E-01  0.10773820266E+00  0.51100000000E-03 0.  1.
         11    1    4    4    0    0  0.27346692875E-01 -0.62369691212E-02  0.18308331493E-01  0.33499216678E-01  0.51100000000E-03 0. -1.
</event>
<event>
 8    1  0.2183582E+004  0.1043930E+01  0.7957747E-01            NaN
         13   -1    0    0    0    0  0.00000000000E+00  0.00000000000E+00  0.74505805969E-08  0.10566000000E+00  0.10566000000E+00 0. -1.
     999900   -1    0    0    0    0 -0.00000000000E+00 -0.00000000000E+00 -0.74505805969E-08  0.93827000000E+00  0.93827000000E+00 0. -1.
     999902    2    1    2    0    0 -0.35772002245E-02  0.16664776776E-02 -0.24628556238E-01  0.10189872798E+01  0.10186819607E+01 0.  0.
     999903    2    3    3    0    0 -0.99825266789E-01 -0.29440497599E-01  0.61677338862E-01  0.12899849235E+00  0.44773765889E-01 0.  0.
         14    1    1    2    0    0  0.35772002245E-02 -0.16664776776E-02  0.24628556238E-01  0.24942720213E-01  0.00000000000E+00 0. -1.
     999901    1    3    3    0    0  0.96248066565E-01  0.31106975277E-01 -0.86305895100E-01  0.88998878743E+00  0.88000000000E+00 0. -1.
        -11    1    4    4    0    0 -0.94851813920E-01 -0.12637336733E-01  0.53807008127E-01  0.10978171126E+00  0.51100000000E-03 0. -1.
         11    1    4    4    0    0 -0.49734528697E-02 -0.16803160866E-01  0.78703307350E-02  0.19216781089E-01  0.51100000000E-03 0.  1.
</event>
<event>
 8    1  0.2183582E+004  0.1043930E+01  0.7957747E-01            NaN
         13   -1    0    0    0    0  0.00000000000E+00  0.00000000000E+00  0.74505805969E-08  0.10566000000E+00  0.10566000000E+00 0.  1.
     999900   -1    0    0    0    0 -0.00000000000E+00 -0.00000000000E+00 -0.74505805969E-08  0.93827000000E+00  0.93827000000E+00 0. -1.
     999902    2    1    2    0    0 -0.30603289776E-02  0.81361162654E-02 -0.11525015519E-01  0.10294943502E+01  0.10293931364E+01 0.  0.
     999903    2    3    3    0    0 -0.77808011474E-01  0.94044573262E-01  0.50652192180E-01  0.13998129009E+00  0.46158949211E-01 0.  0.
         14    1    1    2    0    0  0.30603289776E-02 -0.81361162654E-02  0.11525015519E-01  0.14435649762E-01  0.00000000000E+00 0.  1.
     999901    1    3    3    0    0  0.74747682496E-01 -0.85908456997E-01 -0.62177207699E-01  0.88951306015E+00  0.88000000000E+00 0. -1.
        -11    1    4    4    0    0 -0.48794871604E-01  0.32837462467E-01  0.40678037682E-01  0.71513651191E-01  0.51100000000E-03 0.  1.
         11    1    4    4    0    0 -0.29013139870E-01  0.61207110795E-01  0.99741544982E-02  0.68467638896E-01  0.51100000000E-03 0. -1.
</event>
<event>
 8    1  0.2183582E+004  0.1043930E+01  0.7957747E-01            NaN
         13   -1    0    0    0    0  0.00000000000E+00  0.00000000000E+00  0.74505805969E-08  0.10566000000E+00  0.10566000000E+00 0.  1.
     999900   -1    0    0    0    0 -0.00000000000E+00 -0.00000000000E+00 -0.74505805969E-08  0.93827000000E+00  0.93827000000E+00 0. -1.
     999902    2    1    2    0    0 -0.93519169719E-02  0.10957866788E-01  0.13699882475E-02  0.10294589923E+01  0.10293572785E+01 0.  0.
     999903    2    3    3    0    0 -0.20986774184E-01  0.87174976767E-01  0.98784797854E-01  0.14073290241E+00  0.44803931385E-01 0.  0.
         14    1    1    2    0    0  0.93519169719E-02 -0.10957866788E-01 -0.13699882475E-02  0.14471007684E-01  0.00000000000E+00 0. -1.
     999901    1    3    3    0    0  0.11634857212E-01 -0.76217109979E-01 -0.97414809607E-01  0.88872608991E+00  0.88000000000E+00 0. -1.
        -11    1    4    4    0    0  0.91429742321E-02  0.13790299036E-01  0.38132074826E-02  0.16987289296E-01  0.51100000000E-03 0. -1.
         11    1    4    4    0    0 -0.30129748416E-01  0.73384677731E-01  0.94971590372E-01  0.12374561311E+00  0.51100000000E-03 0.  1.
</event>
<event>
 8    1  0.2183582E+004  0.1043930E+01  0.7957747E-01            NaN
         13   -1    0    0    0    0  0.00000000000E+00  0.00000000000E+00  0.74505805969E-08  0.10566000000E+00  0.10566000000E+00 0.  1.
     999900   -1    0    0    0    0 -0.00000000000E+00 -0.00000000000E+00 -0.74505805969E-08  0.93827000000E+00  0.93827000000E+00 0.  1.
     999902    2    1    2    0    0 -0.88681393678E-02 -0.10570259607E-01 -0.67890409002E-05  0.10301323795E+01  0.10300399726E+01 0.  0.
     999903    2    3    3    0    0  0.42499829024E-01  0.97339785998E-01 -0.76758274202E-01  0.13874355497E+00  0.45570516573E-01 0.  0.
         14    1    1    2    0    0  0.88681393678E-02  0.10570259607E-01  0.67890409002E-05  0.13797620450E-01  0.00000000000E+00 0. -1.
     999901    1    3    3    0    0 -0.51367968392E-01 -0.10791004561E+00  0.76751485161E-01  0.89138882458E+00  0.88000000000E+00 0. -1.
        -11    1    4    4    0    0  0.52574125813E-03  0.41315103874E-02 -0.22740537019E-01  0.23124422736E-01  0.51100000000E-03 0. -1.
         11    1    4    4    0    0  0.41974087766E-01  0.93208275611E-01 -0.54017737183E-01  0.11561913223E+00  0.51100000000E-03 0.  1.
</event>
<event>
 8    1  0.2183582E+004  0.1043930E+01  0.7957747E-01            NaN
         13   -1    0    0    0    0  0.00000000000E+00  0.00000000000E+00  0.74505805969E-08  0.10566000000E+00  0.10566000000E+00 0.  1.
     999900   -1    0    0    0    0 -0.00000000000E+00 -0.00000000000E+00 -0.74505805969E-08  0.93827000000E+00  0.93827000000E+00 0. -1.
     999902    2    1    2    0    0 -0.13704720082E-01 -0.14681724492E-02  0.26042511477E-02  0.10299029901E+01  0.10298074636E+01 0.  0.
     999903    2    3    3    0    0  0.12501639489E+00 -0.27580775988E-01  0.27519859757E-01  0.13830543326E+00  0.44511256927E-01 0.  0.
         14    1    1    2    0    0  0.13704720082E-01  0.14681724492E-02 -0.26042511477E-02  0.14027009906E-01  0.00000000000E+00 0.  1.
     999901    1    3    3    0    0 -0.13872111497E+00  0.26112603538E-01 -0.24915608610E-01  0.89159755684E+00  0.88000000000E+00 0. -1.
        -11    1    4    4    0    0  0.66982357100E-01 -0.32948940295E-02 -0.54329532326E-02  0.67284995289E-01  0.51100000000E-03 0.  1.
         11    1    4    4    0    0  0.58034037788E-01 -0.24285881958E-01  0.32952812990E-01  0.71020437969E-01  0.51100000000E-03 0. -1.
</event>
<event>
 8    1  0.2183582E+004  0.1043930E+01  0.7957747E-01            NaN
         13   -1    0    0    0    0  0.00000000000E+00  0.00000000000E+00  0.74505805969E-08  0.10566000000E+00  0.10566000000E+00 0. -1.
     999900   -1    0    0    0    0 -0.00000000000E+00 -0.00000000000E+00 -0.74505805969E-08  0.93827000000E+00  0.93827000000E+00 0.  1.
     999902    2    1    2    0    0 -0.11053152750E-01  0.76944813697E-02  0.26699617861E-02  0.10302002540E+01  0.10301087600E+01 0.  0.
     999903    2    3    3    0    0 -0.10897216232E+00 -0.59763801434E-01  0.48334329926E-01  0.14102986152E+00  0.45897388461E-01 0.  0.
         14    1    1    2    0    0  0.11053152750E-01 -0.76944813697E-02 -0.26699617861E-02  0.13729745999E-01  0.00000000000E+00 0.  1.
     999901    1    3    3    0    0  0.97919009569E-01  0.67458282804E-01 -0.45664368140E-01  0.88917039248E+00  0.88000000000E+00 0.  1.
        -11    1    4    4    0    0 -0.48373864327E-01 -0.10956205583E-01  0.38106071304E-01  0.62549204487E-01  0.51100000000E-03 0. -1.
         11    1    4    4    0    0 -0.60598297992E-01 -0.48807595851E-01  0.10228258621E-01  0.78480657029E-01  0.51100000000E-03 0.  1.
</event>
<event>
 7    1  0.2183582E+004  0.1043930E+01  0.7957747E-01            NaN
         13   -1    0    0    0    0  0.00000000000E+00  0.00000000000E+00  0.74505805969E-08  0.10566000000E+00  0.10566000000E+00 0.  1.
     999900   -1    0    0    0    0 -0.00000000000E+00 -0.00000000000E+00 -0.74505805969E-08  0.93827000000E+00  0.93827000000E+00 0. -1.
     999903    2    1    2    0    0 -0.87184142564E-01  0.99750783962E-02 -0.71740353325E-01  0.12251269127E+00  0.46498433571E-01 0.  0.
         14    1    1    2    0    0  0.35169408032E-01 -0.79129460696E-02 -0.56490880871E-02  0.36488548519E-01  0.00000000000E+00 0. -1.
     999901    1    1    2    0    0  0.52014734532E-01 -0.20621323266E-02  0.77389441412E-01  0.88492876021E+00  0.88000000000E+00 0.  1.
        -11    1    3    3    0    0 -0.75309370044E-01  0.12290562842E-01 -0.77796926047E-01  0.10897330854E+00  0.51100000000E-03 0. -1.
         11    1    3    3    0    0 -0.11874772520E-01 -0.23154844462E-02  0.60565727221E-02  0.13539382732E-01  0.51100000000E-03 0.  1.
</event>
<event>
 8    1  0.2183582E+004  0.1043930E+01  0.7957747E-01            NaN
         13   -1    0    0    0    0  0.00000000000E+00  0.00000000000E+00  0.74505805969E-08  0.10566000000E+00  0.10566000000E+00 0.  1.
     999900   -1    0    0    0    0 -0.00000000000E+00 -0.00000000000E+00 -0.74505805969E-08  0.93827000000E+00  0.93827000000E+00 0. -1.
     999902    2    1    2    0    0  0.66693132139E-02 -0.93683890776E-02  0.75145849966E-02  0.10301926261E+01  0.10301010298E+01 0.  0.
     999903    2    3    3    0    0 -0.92034351104E-01  0.65666759131E-01 -0.68179894754E-01  0.13828324674E+00  0.41125578923E-01 0.  0.
         14    1    1    2    0    0 -0.66693132139E-02  0.93683890776E-02 -0.75145849966E-02  0.13737373851E-01  0.00000000000E+00 0. -1.
     999901    1    3    3    0    0  0.98703664318E-01 -0.75035148208E-01  0.75694479751E-01  0.89190937941E+00  0.88000000000E+00 0.  1.
        -11    1    4    4    0    0 -0.67282030620E-01  0.26458593164E-01 -0.30236531613E-01  0.78367325855E-01  0.51100000000E-03 0.  1.
         11    1    4    4    0    0 -0.24752320484E-01  0.39208165967E-01 -0.37943363141E-01  0.59915920883E-01  0.51100000000E-03 0. -1.
</event>
<event>
 8    1  0.2183582E+004  0.1043930E+01  0.7957747E-01            NaN
         13   -1    0    0    0    0  0.00000000000E+00  0.00000000000E+00  0.74505805969E-08  0.10566000000E+00  0.10566000000E+00 0.  1.
     999900   -1    0    0    0    0 -0.00000000000E+00 -0.00000000000E+00 -0.74505805969E-08  0.93827000000E+00  0.93827000000E+00 0. -1.
     999902    2    1    2    0    0 -0.12639885804E-01 -0.55735311152E-02  0.97820081811E-03  0.10300812514E+01  0.10299881536E+01 0.  0.
     999903    2    3    3    0    0 -0.71705132019E-01  0.39936713009E-01  0.10515115043E+00  0.14080520363E+00  0.45086294241E-01 0.  0.
         14    1    1    2    0    0  0.12639885804E-01  0.55735311152E-02 -0.97820081811E-03  0.13848748647E-01  0.00000000000E+00 0.  1.
     999901    1    3    3    0    0  0.59065246215E-01 -0.45510244125E-01 -0.10417294961E+00  0.88927604773E+00  0.88000000000E+00 0. -1.
        -11    1    4    4    0    0 -0.45520216587E-01  0.12627015632E-01  0.28106973582E-01  0.54970853430E-01  0.51100000000E-03 0.  1.
         11    1    4    4    0    0 -0.26184915432E-01  0.27309697377E-01  0.77044176844E-01  0.85834350196E-01  0.51100000000E-03 0. -1.
</event>
<event>
 8    1  0.2183582E+004  0.1043930E+01  0.7957747E-01            NaN
         13   -1    0    0    0    0  0.00000000000E+00  0.00000000000E+00  0.74505805969E-08  0.10566000000E+00  0.10566000000E+00 0.  1.
     999900   -1    0    0    0    0 -0.00000000000E+00 -0.00000000000E+00 -0.74505805969E-08  0.93827000000E+00  0.93827000000E+00 0. -1.
     999902    2    1    2    0    0 -0.83208011854E-02  0.80486692208E-02 -0.67007893334E-02  0.10305539996E+01  0.10304671895E+01 0.  0.
     999903    2    3    3    0    0 -0.91152483075E-01  0.83941685508E-01 -0.53421854855E-01  0.14218262715E+00  0.44799811959E-01 0.  0.
         14    1    1    2    0    0  0.83208011854E-02 -0.80486692208E-02  0.67007893334E-02  0.13376000384E-01  0.00000000000E+00 0. -1.
     999901    1    3    3    0    0  0.82831681890E-01 -0.75893016287E-01  0.46721065522E-01  0.88837137246E+00  0.88000000000E+00 0.  1.
        -11    1    4    4    0    0 -0.66200814893E-01  0.42914796237E-01 -0.14164435022E-01  0.80156846052E-01  0.51100000000E-03 0. -1.
         11    1    4    4    0    0 -0.24951668182E-01  0.41026889271E-01 -0.39257419833E-01  0.62025781102E-01  0.51100000000E-03 0.  1.
</event>
<event>
 8    1  0.2183582E+004  0.1043930E+01  0.7957747E-01            NaN
         13   -1    0    0    0    0  0.00000000000E+00  0.00000000000E+00  0.74505805969E-08  0.10566000000E+00  0.10566000000E+00 0. -1.
     999900   -1    0    0    0    0 -0.00000000000E+00 -0.00000000000E+00 -0.74505805969E-08  0.93827000000E+00  0.93827000000E+00 0. -1.
     999902    2    1    2    0    0  0.50278521470E-03 -0.15719599840E-01  0.12691684814E-02  0.10281512358E+01  0.10280301524E+01 0.  0.
     999903    2    3    3    0    0  0.33345271953E-01 -0.45930350394E-01 -0.11830082618E+00  0.13894467821E+00  0.45705950145E-01 0.  0.
         14    1    1    2    0    0 -0.50278521470E-03  0.15719599840E-01 -0.12691684814E-02  0.15778764234E-01  0.00000000000E+00 0. -1.
     999901    1    3    3    0    0 -0.32842486739E-01  0.30210750553E-01  0.11956999466E+00  0.88920655756E+00  0.88000000000E+00 0.  1.
        -11    1    4    4    0    0 -0.63082973032E-02 -0.11546462913E-01 -0.55778573424E-01  0.57311654965E-01  0.51100000000E-03 0. -1.
         11    1    4    4    0    0  0.39653569257E-01 -0.34383887481E-01 -0.62522252755E-01  0.81633023242E-01  0.51100000000E-03 0.  1.
</event>
<event>
 8    1  0.2183582E+004  0.1043930E+01  0.7957747E-01            NaN
         13   -1    0    0    0    0  0.00000000000E+00  0.00000000000E+00  0.74505805969E-08  0.10566000000E+00  0.10566000000E+00 0. -1.
     999900   -1    0    0    0    0 -0.00000000000E+00 -0.00000000000E+00 -0.74505805969E-08  0.93827000000E+00  0.93827000000E+00 0. -1.
     999902    2    1    2    0    0  0.49338252315E-02  0.40456290184E-02 -0.10957525930E-01  0.10312502082E+01  0.10311722527E+01 0.  0.
     999903    2    3    3    0    0 -0.34013100091E-01 -0.12008759590E+00  0.43799737329E-01  0.14000148960E+00  0.45870234739E-01 0.  0.
         14    1    1    2    0    0 -0.49338252315E-02 -0.40456290184E-02  0.10957525930E-01  0.12679791799E-01  0.00000000000E+00 0. -1.
     999901    1    3    3    0    0  0.38946925323E-01  0.12413322492E+00 -0.54757263258E-01  0.89124871860E+00  0.88000000000E+00 0. -1.
        -11    1    4    4    0    0  0.11040660152E-01 -0.34777556834E-01  0.11500631991E-01  0.38260949977E-01  0.51100000000E-03 0.  1.
         11    1    4    4    0    0 -0.45053760243E-01 -0.85310039064E-01  0.32299105338E-01  0.10174053963E+00  0.51100000000E-03 0. -1.
</event>
<event>
 8    1  0.2183582E+004  0.1043930E+01  0.7957747E-01            NaN
         13   -1    0    0    0    0  0.00000000000E+00  0.00000000000E+00  0.74505805969E-08  0.10566000000E+00  0.10566000000E+00 0. -1.
     999900   -1    0    0    0    0 -0.00000000000E+00 -0.00000000000E+00 -0.74505805969E-08  0.93827000000E+00  0.93827000000E+00 0. -1.
     999902    2    1    2    0    0  0.54370855212E-02  0.13132668809E-02 -0.11803935018E-01  0.10308678619E+01  0.10307851034E+01 0.  0.
     999903    2    3    3    0    0 -0.62523103017E-01  0.39083377536E-01  0.10920698935E+00  0.13919033486E+00  0.44845668501E-01 0.  0.
         14    1    1    2    0    0 -0.54370855212E-02 -0.13132668809E-02  0.11803935018E-01  0.13062138063E-01  0.00000000000E+00 0. -1.
     999901    1    3    3    0    0  0.67960188538E-01 -0.37770110655E-01 -0.12101092437E+00  0.89167752708E+00  0.88000000000E+00 0. -1.
        -11    1    4    4    0    0  0.65369868344E-02  0.23017155190E-02  0.16326622641E-01  0.17744007976E-01  0.51100000000E-03 0.  1.
         11    1    4    4    0    0 -0.69060089852E-01  0.36781662016E-01  0.92880366711E-01  0.12144632688E+00  0.51100000000E-03 0. -1.
</event>
<event>
 8    1  0.2183582E+004  0.1043930E+01  0.7957747E-01            NaN
         13   -1    0    0    0    0  0.00000000000E+00  0.00000000000E+00  0.74505805969E-08  0.10566000000E+00  0.10566000000E+00 0. -1.
     999900   -1    0    0    0    0 -0.00000000000E+00 -0.00000000000E+00 -0.74505805969E-08  0.93827000000E+00  0.93827000000E+00 0.  1.
     999902    2    1    2    0    0  0.14092167023E-01 -0.18427592966E-01  0.68645867288E-02  0.10197372758E+01  0.10194502556E+01 0.  0.
     999903    2    3    3    0    0 -0.40760672431E-01  0.11253885883E+00  0.95472886058E-02  0.12835170131E+00  0.45349546256E-01 0.  0.
         14    1    1    2    0    0 -0.14092167023E-01  0.18427592966E-01 -0.68645867288E-02  0.24192724214E-01  0.00000000000E+00 0.  1.
     999901    1    3    3    0    0  0.54852839454E-01 -0.13096645180E+00 -0.26827018770E-02  0.89138557447E+00  0.88000000000E+00 0. -1.
        -11    1    4    4    0    0 -0.14523068517E-01  0.60054366048E-02 -0.73205639137E-02  0.17344640815E-01  0.51100000000E-03 0.  1.
         11    1    4    4    0    0 -0.26237603914E-01  0.10653342223E+00  0.16867852519E-01  0.11100706050E+00  0.51100000000E-03 0. -1.
</event>
<event>
 8    1  0.2183582E+004  0.1043930E+01  0.7957747E-01            NaN
         13   -1    0    0    0    0  0.00000000000E+00  0.00000000000E+00  0.74505805969E-08  0.10566000000E+00  0.10566000000E+00 0.  1.
     999900   -1    0    0    0    0 -0.00000000000E+00 -0.00000000000E+00 -0.74505805969E-08  0.93827000000E+00  0.93827000000E+00 0. -1.
     999902    2    1    2    0    0  0.88912389312E-02 -0.10162608925E-01 -0.21100178768E-02  0.10302630718E+01  0.10301724187E+01 0.  0.
     999903    2    3    3    0    0 -0.77215188687E-01  0.20888887687E-01  0.10454876137E+00  0.13910954550E+00  0.44972115267E-01 0.  0.
         14    1    1    2    0    0 -0.88912389312E-02  0.10162608925E-01  0.21100178768E-02  0.13666928160E-01  0.00000000000E+00 0. -1.
     999901    1    3    3    0    0  0.86106427618E-01 -0.31051496612E-01 -0.10665877925E+00  0.89115352634E+00  0.88000000000E+00 0. -1.
        -11    1    4    4    0    0 -0.23788348651E-01  0.28128552722E-01  0.52746644969E-01  0.64339495539E-01  0.51100000000E-03 0. -1.
         11    1    4    4    0    0 -0.53426840036E-01 -0.72396650346E-02  0.51802116404E-01  0.74770049960E-01  0.51100000000E-03 0.  1.
</event>
<event>
 8    1  0.2183582E+004  0.1043930E+01  0.7957747E-01            NaN
         13   -1    0    0    0    0  0.00000000000E+00  0.00000000000E+00  0.74505805969E-08  0.10566000000E+00  0.10566000000E+00 0. -1.
     999900   -1    0    0    0    0 -0.00000000000E+00 -0.00000000000E+00 -0.74505805969E-08  0.93827000000E+00  0.93827000000E+00 0.  1.
     999902    2    1    2    0    0  0.88597764052E-02 -0.20834177720E-02  0.10408588544E-01  0.10301033958E+01  0.10300105976E+01 0.  0.
     999903    2    3    3    0    0 -0.49757615986E-01  0.12261276644E+00  0.51856071041E-02  0.13936638829E+00  0.43432577890E-01 0.  0.
         14    1    1    2    0    0 -0.88597764052E-02  0.20834177720E-02 -0.10408588544E-01  0.13826604176E-01  0.00000000000E+00 0.  1.
     999901    1    3    3    0    0  0.58617392391E-01 -0.12469618421E+00  0.52229814400E-02  0.89073700753E+00  0.88000000000E+00 0.  1.
        -11    1    4    4    0    0 -0.11285661572E-01  0.36893726279E-01 -0.18020017812E-01  0.42585154207E-01  0.51100000000E-03 0.  1.
         11    1    4    4    0    0 -0.38471954414E-01  0.85719040162E-01  0.23205624916E-01  0.96781234087E-01  0.51100000000E-03 0. -1.
</event>
<event>
 8    1  0.2183582E+004  0.1043930E+01  0.7957747E-01            NaN
         13   -1    0    0    0    0  0.00000000000E+00  0.00000000000E+00  0.74505805969E-08  0.10566000000E+00  0.10566000000E+00 0. -1.
     999900   -1    0    0    0    0 -0.00000000000E+00 -0.00000000000E+00 -0.74505805969E-08  0.93827000000E+00  0.93827000000E+00 0.  1.
     999902    2    1    2    0    0  0.12120831791E-01 -0.75620754564E-04  0.71984430447E-02  0.10298325582E+01  0.10297360633E+01 0.  0.
     999903    2    3    3    0    0 -0.86397420895E-01  0.14131599413E-01  0.98868296984E-01  0.13948933603E+00  0.44923471359E-01 0.  0.
         14    1    1    2    0    0 -0.12120831791E-01  0.75620754564E-04 -0.71984430447E-02  0.14097441756E-01  0.00000000000E+00 0.  1.
     999901    1    3    3    0    0  0.98518252686E-01 -0.14207220168E-01 -0.91669853939E-01  0.89034322221E+00  0.88000000000E+00 0.  1.
        -11    1    4    4    0    0 -0.52628579959E-01 -0.12787134041E-01  0.44797162441E-01  0.70287446313E-01  0.51100000000E-03 0. -1.
         11    1    4    4    0    0 -0.33768840936E-01  0.26918733454E-01  0.54071134543E-01  0.69201889719E-01  0.51100000000E-03 0.  1.
</event>
<event>
 8    1  0.2183582E+004  0.1043930E+01  0.7957747E-01            NaN
         13   -1    0    0    0    0  0.00000000000E+00  0.00000000000E+00  0.74505805969E-08  0.10566000000E+00  0.10566000000E+00 0.  1.
     999900   -1    0    0    0    0 -0.00000000000E+00 -0.00000000000E+00 -0.74505805969E-08  0.93827000000E+00  0.93827000000E+00 0.  1.
     999902    2    1    2    0    0  0.34254820833E-02 -0.39100827728E-02 -0.13483099153E-01  0.10294795108E+01  0.10293780873E+01 0.  0.
     999903    2    3    3    0    0  0.12529348100E+00 -0.24752699949E-01 -0.36979014366E-01  0.14052603516E+00  0.45485893621E-01 0.  0.
         14    1    1    2    0    0 -0.34254820833E-02  0.39100827728E-02  0.13483099153E-01  0.14450489181E-01  0.00000000000E+00 0.  1.
     999901    1    3    3    0    0 -0.12186799892E+00  0.20842617176E-01  0.23495915213E-01  0.88895347566E+00  0.88000000000E+00 0.  1.
        -11    1    4    4    0    0  0.11917748347E+00 -0.17683951092E-01 -0.44581040681E-01  0.12846682452E+00  0.51100000000E-03 0.  1.
         11    1    4    4    0    0  0.61159975272E-02 -0.70687488578E-02  0.76020263150E-02  0.12059210640E-01  0.51100000000E-03 0. -1.
</event>
<event>
 8    1  0.2183582E+004  0.1043930E+01  0.7957747E-01            NaN
         13   -1    0    0    0    0  0.00000000000E+00  0.00000000000E+00  0.74505805969E-08  0.10566000000E+00  0.10566000000E+00 0.  1.
     999900   -1    0    0    0    0 -0.00000000000E+00 -0.00000000000E+00 -0.74505805969E-08  0.93827000000E+00  0.93827000000E+00 0. -1.
     999902    2    1    2    0    0  0.44316613909E-02  0.12225987470E-01  0.30106232455E-02  0.10305816576E+01  0.10304952085E+01 0.  0.
     999903    2    3    3    0    0  0.11484604733E-01 -0.60071888528E-01  0.11821951981E+00  0.14010436046E+00  0.43736129464E-01 0.  0.
         14    1    1    2    0    0 -0.44316613909E-02 -0.12225987470E-01 -0.30106232455E-02  0.13348342392E-01  0.00000000000E+00 0. -1.
     999901    1    3    3    0    0 -0.70529433416E-02  0.72297875998E-01 -0.11520889656E+00  0.89047729714E+00  0.88000000000E+00 0. -1.
        -11    1    4    4    0    0 -0.13123354323E-01 -0.31936844992E-01  0.77403009220E-01  0.84756542249E-01  0.51100000000E-03 0.  1.
         11    1    4    4    0    0  0.24607959055E-01 -0.28135043537E-01  0.40816510585E-01  0.55347818214E-01  0.51100000000E-03 0. -1.
</event>
<event>
 8    1  0.2276541E+004  0.1043930E+01  0.7957747E-01            NaN
         13   -1    0    0    0    0  0.00000000000E+00  0.00000000000E+00  0.74505805969E-08  0.10566000000E+00  0.10566000000E+00 0.  1.
     999900   -1    0    0    0    0 -0.00000000000E+00 -0.00000000000E+00 -0.74505805969E-08  0.93827000000E+00  0.93827000000E+00 0.  1.
     999902    2    1    2    0    0 -0.88410171528E-02 -0.11384731164E-01 -0.36220399938E-02  0.10290674679E+01  0.10289601346E+01 0.  0.
     999903    2    3    3    0    0 -0.62726445820E-01 -0.37738444922E-01 -0.11186947829E+00  0.14040799115E+00  0.42904854909E-01 0.  0.
         14    1    1    2    0    0  0.88410171528E-02  0.11384731164E-01  0.36220399938E-02  0.14862532142E-01  0.00000000000E+00 0. -1.
     999901    1    3    3    0    0  0.53885428667E-01  0.26353713758E-01  0.10824743830E+00  0.88865947671E+00  0.88000000000E+00 0. -1.
        -11    1    4    4    0    0 -0.44718139607E-01 -0.38713596860E-01 -0.55089465248E-01  0.80830470085E-01  0.51100000000E-03 0. -1.
         11    1    4    4    0    0 -0.18008306213E-01  0.97515193790E-03 -0.56780013041E-01  0.59577521062E-01  0.51100000000E-03 0.  1.
</event>
<event>
 8    1  0.2183582E+004  0.1043930E+01  0.7957747E-01            NaN
         13   -1    0    0    0    0  0.00000000000E+00  0.00000000000E+00  0.74505805969E-08  0.10566000000E+00  0.10566000000E+00 0.  1.
     999900   -1    0    0    0    0 -0.00000000000E+00 -0.00000000000E+00 -0.74505805969E-08  0.93827000000E+00  0.93827000000E+00 0. -1.
     999902    2    1    2    0    0 -0.15210441002E-02  0.13202124398E-01  0.72969471857E-03  0.10306205252E+01  0.10305345821E+01 0.  0.
     999903    2    3    3    0    0  0.97520511837E-01 -0.11559911375E-01 -0.88913111080E-01  0.14019466037E+00  0.45881583380E-01 0.  0.
         14    1    1    2    0    0  0.15210441002E-02 -0.13202124398E-01 -0.72969471857E-03  0.13309474752E-01  0.00000000000E+00 0. -1.
     999901    1    3    3    0    0 -0.99041555938E-01  0.24762035773E-01  0.89642805799E-01  0.89042586488E+00  0.88000000000E+00 0.  1.
        -11    1    4    4    0    0  0.92559775473E-02  0.27966883371E-02  0.46736538754E-02  0.10751685801E-01  0.51100000000E-03 0. -1.
         11    1    4    4    0    0  0.88264534290E-01 -0.14356599712E-01 -0.93586764955E-01  0.12944297457E+00  0.51100000000E-03 0.  1.
</event>
<event>
 8    1  0.2183582E+004  0.1043930E+01  0.7957747E-01            NaN
         13   -1    0    0    0    0  0.00000000000E+00  0.00000000000E+00  0.74505805969E-08  0.10566000000E+00  0.10566000000E+00 0.  1.
     999900   -1    0    0    0    0 -0.00000000000E+00 -0.00000000000E+00 -0.74505805969E-08  0.93827000000E+00  0.93827000000E+00 0.  1.
     999902    2    1    2    0    0 -0.23905799507E-03  0.26738949947E-02  0.13023151346E-01  0.10306330329E+01  0.10305472523E+01 0.  0.
     999903    2    3    3    0    0  0.50408956354E-01  0.10096476438E-01 -0.12156272488E+00  0.13893035030E+00  0.43372161991E-01 0.  0.
         14    1    1    2    0    0  0.23905799507E-03 -0.26738949947E-02 -0.13023151346E-01  0.13296967103E-01  0.00000000000E+00 0. -1.
     999901    1    3    3    0    0 -0.50648014349E-01 -0.74225814438E-02  0.13458587623E+00  0.89170268260E+00  0.88000000000E+00 0. -1.
        -11    1    4    4    0    0  0.50868690657E-03  0.96939570564E-02 -0.54372225293E-01  0.55234333255E-01  0.51100000000E-03 0. -1.
         11    1    4    4    0    0  0.49900269448E-01  0.40251938206E-03 -0.67190499591E-01  0.83696017044E-01  0.51100000000E-03 0.  1.
</event>
<event>
 8    1  0.2183582E+004  0.1043930E+01  0.7957747E-01            NaN
         13   -1    0    0    0    0  0.00000000000E+00  0.00000000000E+00  0.74505805969E-08  0.10566000000E+00  0.10566000000E+00 0. -1.
     999900   -1    0    0    0    0 -0.00000000000E+00 -0.00000000000E+00 -0.74505805969E-08  0.93827000000E+00  0.93827000000E+00 0.  1.
     999902    2    1    2    0    0  0.90078751862E-02  0.13488162107E-02  0.97577852219E-02  0.10305817607E+01  0.10304953129E+01 0.  0.
     999903    2    3    3    0    0 -0.14016217232E-01 -0.59632495404E-01 -0.11941319258E+00  0.13876677387E+00  0.35273476055E-01 0.  0.
         14    1    1    2    0    0 -0.90078751862E-02 -0.13488162107E-02 -0.97577852219E-02  0.13348239321E-01  0.00000000000E+00 0.  1.
     999901    1    3    3    0    0  0.23024092418E-01  0.60981311615E-01  0.12917097780E+00  0.89181498681E+00  0.88000000000E+00 0. -1.
        -11    1    4    4    0    0 -0.83940588643E-02 -0.52909903176E-01 -0.67797794206E-01  0.86410185155E-01  0.51100000000E-03 0.  1.
         11    1    4    4    0    0 -0.56221583678E-02 -0.67225922278E-02 -0.51615398375E-01  0.52356588710E-01  0.51100000000E-03 0. -1.
</event>
<event>
 8    1  0.2183582E+004  0.1043930E+01  0.7957747E-01            NaN
         13   -1    0    0    0    0  0.00000000000E+00  0.00000000000E+00  0.74505805969E-08  0.10566000000E+00  0.10566000000E+00 0.  1.
     999900   -1    0    0    0    0 -0.00000000000E+00 -0.00000000000E+00 -0.74505805969E-08  0.93827000000E+00  0.93827000000E+00 0. -1.
     999902    2    1    2    0    0 -0.45227044528E-02 -0.90919936002E-02 -0.85430884019E-02  0.10306595982E+01  0.10305741623E+01 0.  0.
     999903    2    3    3    0    0  0.92111274423E-01  0.52339408131E-01  0.78015598473E-01  0.13902943430E+00  0.44931608885E-01 0.  0.
         14    1    1    2    0    0  0.45227044528E-02  0.90919936002E-02  0.85430884019E-02  0.13270401751E-01  0.00000000000E+00 0.  1.
     999901    1    3    3    0    0 -0.96633978876E-01 -0.61431401731E-01 -0.86558686875E-01  0.89163016395E+00  0.88000000000E+00 0. -1.
        -11    1    4    4    0    0  0.35546997596E-01  0.37339913619E-01  0.16521174980E-01  0.54139343651E-01  0.51100000000E-03 0.  1.
         11    1    4    4    0    0  0.56564276827E-01  0.14999494511E-01  0.61494423493E-01  0.84890090648E-01  0.51100000000E-03 0. -1.
</event>
<event>
 8    1  0.2183582E+004  0.1043930E+01  0.7957747E-01            NaN
         13   -1    0    0    0    0  0.00000000000E+00  0.00000000000E+00  0.74505805969E-08  0.10566000000E+00  0.10566000000E+00 0. -1.
     999900   -1    0    0    0    0 -0.00000000000E+00 -0.00000000000E+00 -0.74505805969E-08  0.93827000000E+00  0.93827000000E+00 0.  1.
     999902    2    1    2    0    0  0.81321514885E-02  0.98966500993E-02 -0.97326084972E-03  0.10310838797E+01  0.10310038526E+01 0.  0.
     999903    2    3    3    0    0  0.11177516036E+00 -0.47086689123E-01  0.57375540777E-01  0.14125605537E+00  0.44164213260E-01 0.  0.
         14    1    1    2    0    0 -0.81321514885E-02 -0.98966500993E-02  0.97326084972E-03  0.12846120337E-01  0.00000000000E+00 0. -1.
     999901    1    3    3    0    0 -0.10364300887E+00  0.56983339223E-01 -0.58348801627E-01  0.88982782429E+00  0.88000000000E+00 0.  1.
        -11    1    4    4    0    0  0.66969249563E-01 -0.15956095966E-01  0.52301675496E-01  0.86459260732E-01  0.51100000000E-03 0. -1.
         11    1    4    4    0    0  0.44805910797E-01 -0.31130593157E-01  0.50738652804E-02  0.54796794638E-01  0.51100000000E-03 0.  1.
</event>
<event>
 8    1  0.2183582E+004  0.1043930E+01  0.7957747E-01            NaN
         13   -1    0    0    0    0  0.00000000000E+00  0.00000000000E+00  0.74505805969E-08  0.10566000000E+00  0.10566000000E+00 0. -1.
     999900   -1    0    0    0    0 -0.00000000000E+00 -0.00000000000E+00 -0.74505805969E-08  0.93827000000E+00  0.93827000000E+00 0.  1.
     999902    2    1    2    0    0  0.61713563168E-02 -0.10275311311E-01 -0.53747383618E-02  0.10307939628E+01  0.10307102591E+01 0.  0.
     999903    2    3    3    0    0  0.12567715163E+00  0.40025332598E-01  0.23471522788E-01  0.14082548206E+00  0.43406570074E-01 0.  0.
         14    1    1    2    0    0 -0.61713563168E-02  0.10275311311E-01  0.53747383618E-02  0.13136037218E-01  0.00000000000E+00 0. -1.
     999901    1    3    3    0    0 -0.11950579531E+00 -0.50300643910E-01 -0.28846261150E-01  0.88996848072E+00  0.88000000000E+00 0.  1.
        -11    1    4    4    0    0  0.58564374179E-01  0.37320248344E-01 -0.66896480032E-03  0.69449949563E-01  0.51100000000E-03 0.  1.
         11    1    4    4    0    0  0.67112777448E-01  0.27050842545E-02  0.24140487588E-01  0.71375532500E-01  0.51100000000E-03 0. -1.
</event>
<event>
 8    1  0.2183582E+004  0.1043930E+01  0.7957747E-01            NaN
         13   -1    0    0    0    0  0.00000000000E+00  0.00000000000E+00  0.74505805969E-08  0.10566000000E+00  0.10566000000E+00 0.  1.
     999900   -1    0    0    0    0 -0.00000000000E+00 -0.00000000000E+00 -0.74505805969E-08  0.93827000000E+00  0.93827000000E+00 0. -1.
     999902    2    1    2    0    0 -0.71797221368E-02  0.17632228059E-01  0.39073618397E-02  0.10244952025E+01  0.10243108457E+01 0.  0.
     999903    2    3    3    0    0 -0.93653326088E-02  0.75220946279E-01  0.10452313106E+00  0.13688900022E+00  0.45471015392E-01 0.  0.
         14    1    1    2    0    0  0.71797221368E-02 -0.17632228059E-01 -0.39073618397E-02  0.19434797474E-01  0.00000000000E+00 0. -1.
     999901    1    3    3    0    0  0.21856104720E-02 -0.57588718220E-01 -0.10061576922E+00  0.88760620231E+00  0.88000000000E+00 0.  1.
        -11    1    4    4    0    0  0.17829807627E-01  0.40714207441E-01  0.53358583065E-01  0.69447449451E-01  0.51100000000E-03 0. -1.
         11    1    4    4    0    0 -0.27195140235E-01  0.34506738838E-01  0.51164547993E-01  0.67441550768E-01  0.51100000000E-03 0.  1.
</event>
<event>
 8    1  0.2183582E+004  0.1043930E+01  0.7957747E-01            NaN
         13   -1    0    0    0    0  0.00000000000E+00  0.00000000000E+00  0.74505805969E-08  0.10566000000E+00  0.10566000000E+00 0. -1.
     999900   -1    0    0    0    0 -0.00000000000E+00 -0.00000000000E+00 -0.74505805969E-08  0.93827000000E+00  0.93827000000E+00 0. -1.
     999902    2    1    2    0    0 -0.71355638055E-02  0.10863338810E-01 -0.34374553429E-02  0.10304858749E+01  0.10303981725E+01 0.  0.
     999903    2    3    3    0    0  0.99317006462E-02  0.12643663357E+00 -0.44289352106E-01  0.14182544736E+00  0.45475815812E-01 0.  0.
         14    1    1    2    0    0  0.71355638055E-02 -0.10863338810E-01  0.34374553429E-02  0.13444125117E-01  0.00000000000E+00 0. -1.
     999901    1    3    3    0    0 -0.17067264452E-01 -0.11557329476E+00  0.40851896763E-01  0.88866042752E+00  0.88000000000E+00 0.  1.
        -11    1    4    4    0    0 -0.87699566406E-02  0.67461129074E-01 -0.41918298292E-01  0.79908203134E-01  0.51100000000E-03 0. -1.
         11    1    4    4    0    0  0.18701657287E-01  0.58975504492E-01 -0.23710538136E-02  0.61917244226E-01  0.51100000000E-03 0.  1.
</event>
<event>
 8    1  0.2183582E+004  0.1043930E+01  0.7957747E-01            NaN
         13   -1    0    0    0    0  0.00000000000E+00  0.00000000000E+00  0.74505805969E-08  0.10566000000E+00  0.10566000000E+00 0.  1.
     999900   -1    0    0    0    0 -0.00000000000E+00 -0.00000000000E+00 -0.74505805969E-08  0.93827000000E+00  0.93827000000E+00 0. -1.
     999902    2    1    2    0    0 -0.11240436689E-01 -0.15444839527E-02 -0.70137295953E-02  0.10305911376E+01  0.10305048120E+01 0.  0.
     999903    2    3    3    0    0 -0.11324904758E+00  0.37540358238E-01  0.60708924468E-01  0.14125445249E+00  0.45084604502E-01 0.  0.
         14    1    1    2    0    0  0.11240436689E-01  0.15444839527E-02  0.70137295953E-02  0.13338862413E-01  0.00000000000E+00 0. -1.
     999901    1    3    3    0    0  0.10200861089E+00 -0.39084842191E-01 -0.67722654063E-01  0.88933668510E+00  0.88000000000E+00 0. -1.
        -11    1    4    4    0    0 -0.86642499051E-02  0.76503114738E-02  0.23672644099E-01  0.26348656355E-01  0.51100000000E-03 0. -1.
         11    1    4    4    0    0 -0.10458479768E+00  0.29890046765E-01  0.37036280369E-01  0.11490579614E+00  0.51100000000E-03 0.  1.
</event>
<event>
 8    1  0.2183582E+004  0.1043930E+01  0.7957747E-01            NaN
         13   -1    0    0    0    0  0.00000000000E+00  0.00000000000E+00  0.74505805969E-08  0.10566000000E+00  0.10566000000E+00 0. -1.
     999900   -1    0    0    0    0 -0.00000000000E+00 -0.00000000000E+00 -0.74505805969E-08  0.93827000000E+00  0.93827000000E+00 0. -1.
     999902    2    1    2    0    0  0.28775259313E-02 -0.28527050005E-02 -0.11278715655E-01  0.10319455305E+01  0.10318759376E+01 0.  0.
     999903    2    3    3    0    0  0.99353495984E-01  0.74255909159E-01  0.50282643090E-01  0.14119127034E+00  0.44961910723E-01 0.  0.
         14    1    1    2    0    0 -0.28775259313E-02  0.28527050005E-02  0.11278715655E-01  0.11984469455E-01  0.00000000000E+00 0. -1.
     999901    1    3    3    0    0 -0.96475970053E-01 -0.77108614160E-01 -0.61561358745E-01  0.89075426020E+00  0.88000000000E+00 0. -1.
        -11    1    4    4    0    0  0.38774218487E-01  0.32201392022E-01 -0.25545783918E-02  0.50469363570E-01  0.51100000000E-03 0. -1.
         11    1    4    4    0    0  0.60579277497E-01  0.42054517138E-01  0.52837221482E-01  0.90721906774E-01  0.51100000000E-03 0.  1.
</event>
<event>
 8    1  0.2183582E+004  0.1043930E+01  0.7957747E-01            NaN
         13   -1    0    0    0    0  0.00000000000E+00  0.00000000000E+00  0.74505805969E-08  0.10566000000E+00  0.10566000000E+00 0. -1.
     999900   -1    0    0    0    0 -0.00000000000E+00 -0.00000000000E+00 -0.74505805969E-08  0.93827000000E+00  0.93827000000E+00 0. -1.
     999902    2    1    2    0    0  0.12373150196E-01  0.67042740456E-02 -0.72902343526E-03  0.10298383851E+01  0.10297419705E+01 0.  0.
     999903    2    3    3    0    0 -0.10164821894E+00  0.22754613507E-02  0.80426902981E-01  0.13876780908E+00  0.49502322925E-01 0.  0.
         14    1    1    2    0    0 -0.12373150196E-01 -0.67042740456E-02  0.72902343526E-03  0.14091614933E-01  0.00000000000E+00 0. -1.
     999901    1    3    3    0    0  0.11402136914E+00  0.44288126949E-02 -0.81155926416E-01  0.89107057599E+00  0.88000000000E+00 0. -1.
        -11    1    4    4    0    0 -0.64927731317E-01 -0.17158721134E-01  0.67586326820E-01  0.95279613239E-01  0.51100000000E-03 0.  1.
         11    1    4    4    0    0 -0.36720487624E-01  0.19434182484E-01  0.12840576160E-01  0.43488195839E-01  0.51100000000E-03 0. -1.
</event>
<event>
 8    1  0.2183582E+004  0.1043930E+01  0.7957747E-01            NaN
         13   -1    0    0    0    0  0.00000000000E+00  0.00000000000E+00  0.74505805969E-08  0.10566000000E+00  0.10566000000E+00 0.  1.
     999900   -1    0    0    0    0 -0.00000000000E+00 -0.00000000000E+00 -0.74505805969E-08  0.93827000000E+00  0.93827000000E+00 0. -1.
     999902    2    1    2    0    0  0.28465955180E-02 -0.11190401313E-01 -0.39514664311E-02  0.10317258091E+01  0.10316536255E+01 0.  0.
     999903    2    3    3    0    0 -0.22127419011E-01  0.11550016962E+00 -0.64027886815E-01  0.14027565436E+00  0.41806423693E-01 0.  0.
         14    1    1    2    0    0 -0.28465955180E-02  0.11190401313E-01  0.39514664311E-02  0.12204190860E-01  0.00000000000E+00 0. -1.
     999901    1    3    3    0    0  0.24974014529E-01 -0.12669057094E+00  0.60076420383E-01  0.89145015478E+00  0.88000000000E+00 0. -1.
        -11    1    4    4    0    0 -0.34381073717E-01  0.76539249516E-01 -0.41068096137E-01  0.93419294515E-01  0.51100000000E-03 0.  1.
         11    1    4    4    0    0  0.12253654706E-01  0.38960920107E-01 -0.22959790677E-01  0.46856359848E-01  0.51100000000E-03 0. -1.
</event>
<event>
 8    1  0.2183582E+004  0.1043930E+01  0.7957747E-01            NaN
         13   -1    0    0    0    0  0.00000000000E+00  0.00000000000E+00  0.74505805969E-08  0.10566000000E+00  0.10566000000E+00 0. -1.
     999900   -1    0    0    0    0 -0.00000000000E+00 -0.00000000000E+00 -0.74505805969E-08  0.93827000000E+00  0.93827000000E+00 0.  1.
     999902    2    1    2    0    0 -0.22368387480E-02 -0.66098346902E-02  0.10915242835E-01  0.10309748509E+01  0.10308934510E+01 0.  0.
     999903    2    3    3    0    0  0.67826115336E-01  0.32076667635E-01  0.10537478205E+00  0.14230839629E+00  0.59317286133E-01 0.  0.
         14    1    1    2    0    0  0.22368387480E-02  0.66098346902E-02 -0.10915242835E-01  0.12955149106E-01  0.00000000000E+00 0.  1.
     999901    1    3    3    0    0 -0.70062954084E-01 -0.38686502325E-01 -0.94459539212E-01  0.88866645461E+00  0.88000000000E+00 0.  1.
        -11    1    4    4    0    0 -0.10055717452E-01  0.19523218101E-02  0.40991995479E-02  0.11045070025E-01  0.51100000000E-03 0.  1.
         11    1    4    4    0    0  0.77881832788E-01  0.30124345824E-01  0.10127558250E+00  0.13126332626E+00  0.51100000000E-03 0. -1.
</event>
<event>
 8    1  0.2183582E+004  0.1043930E+01  0.7957747E-01            NaN
         13   -1    0    0    0    0  0.00000000000E+00  0.00000000000E+00  0.74505805969E-08  0.10566000000E+00  0.10566000000E+00 0. -1.
     999900   -1    0    0    0    0 -0.00000000000E+00 -0.00000000000E+00 -0.74505805969E-08  0.93827000000E+00  0.93827000000E+00 0. -1.
     999902    2    1    2    0    0  0.13343338693E-02 -0.68786075560E-02 -0.12517179194E-01  0.10295851241E+01  0.10294851880E+01 0.  0.
     999903    2    3    3    0    0  0.71857458409E-01  0.90931516505E-01 -0.63950596499E-01  0.13987408796E+00  0.45200073754E-01 0.  0.
         14    1    1    2    0    0 -0.13343338693E-02  0.68786075560E-02  0.12517179194E-01  0.14344875871E-01  0.00000000000E+00 0. -1.
     999901    1    3    3    0    0 -0.70523124540E-01 -0.97810124061E-01  0.51433417305E-01  0.88971103617E+00  0.88000000000E+00 0.  1.
        -11    1    4    4    0    0  0.19534904579E-01  0.39702199703E-01 -0.47309276767E-01  0.64778900480E-01  0.51100000000E-03 0. -1.
         11    1    4    4    0    0  0.52322553830E-01  0.51229316803E-01 -0.16641319731E-01  0.75095187481E-01  0.51100000000E-03 0.  1.
</event>
<event>
 8    1  0.2183582E+004  0.1043930E+01  0.7957747E-01            NaN
         13   -1    0    0    0    0  0.00000000000E+00  0.00000000000E+00  0.74505805969E-08  0.10566000000E+00  0.10566000000E+00 0. -1.
     999900   -1    0    0    0    0 -0.00000000000E+00 -0.00000000000E+00 -0.74505805969E-08  0.93827000000E+00  0.93827000000E+00 0.  1.
     999902    2    1    2    0    0  0.37785131924E-02 -0.12915481233E-01 -0.29572143038E-02  0.10301520490E+01  0.10300599071E+01 0.  0.
     999903    2    3    3    0    0 -0.72454646119E-01 -0.93317398410E-01 -0.63986258760E-01  0.14110733295E+00  0.43118737360E-01 0.  0.
         14    1    1    2    0    0 -0.37785131924E-02  0.12915481233E-01  0.29572143038E-02  0.13777951004E-01  0.00000000000E+00 0. -1.
     999901    1    3    3    0    0  0.76233159311E-01  0.80401917177E-01  0.61029044456E-01  0.88904471605E+00  0.88000000000E+00 0. -1.
        -11    1    4    4    0    0 -0.65593238468E-01 -0.63878670629E-01 -0.31739559431E-01  0.96905202378E-01  0.51100000000E-03 0.  1.
         11    1    4    4    0    0 -0.68614076506E-02 -0.29438727781E-01 -0.32246699330E-01  0.44202130571E-01  0.51100000000E-03 0. -1.
</event>
<event>
 8    1  0.2183582E+004  0.1043930E+01  0.7957747E-01            NaN
         13   -1    0    0    0    0  0.00000000000E+00  0.00000000000E+00  0.74505805969E-08  0.10566000000E+00  0.10566000000E+00 0. -1.
     999900   -1    0    0    0    0 -0.00000000000E+00 -0.00000000000E+00 -0.74505805969E-08  0.93827000000E+00  0.93827000000E+00 0.  1.
     999902    2    1    2    0    0  0.10695193097E-01 -0.43418112625E-02 -0.86808660367E-02  0.10294871500E+01  0.10293858344E+01 0.  0.
     999903    2    3    3    0    0 -0.14108295312E-01 -0.69118336451E-01 -0.11291070884E+00  0.14062547834E+00  0.45280332995E-01 0.  0.
         14    1    1    2    0    0 -0.10695193097E-01  0.43418112625E-02  0.86808660367E-02  0.14442849981E-01  0.00000000000E+00 0. -1.
     999901    1    3    3    0    0  0.24803488408E-01  0.64776525188E-01  0.10422984281E+00  0.88886167168E+00  0.88000000000E+00 0. -1.
        -11    1    4    4    0    0 -0.18251153068E-01 -0.58526454000E-01 -0.57486556294E-01  0.84044129371E-01  0.51100000000E-03 0. -1.
         11    1    4    4    0    0  0.41428577565E-02 -0.10591882450E-01 -0.55424152548E-01  0.56581348967E-01  0.51100000000E-03 0.  1.
</event>
<event>
 8    1  0.2183582E+004  0.1043930E+01  0.7957747E-01            NaN
         13   -1    0    0    0    0  0.00000000000E+00  0.00000000000E+00  0.74505805969E-08  0.10566000000E+00  0.10566000000E+00 0. -1.
     999900   -1    0    0    0    0 -0.00000000000E+00 -0.00000000000E+00 -0.74505805969E-08  0.93827000000E+00  0.93827000000E+00 0. -1.
     999902    2    1    2    0    0  0.52812213720E-03 -0.99755422505E-03  0.14540019951E-01  0.10293462348E+01  0.10292429183E+01 0.  0.
     999903    2    3    3    0    0 -0.60544494838E-01  0.11205015735E+00 -0.31768339244E-01  0.13881037714E+00  0.45146647788E-01 0.  0.
         14    1    1    2    0    0 -0.52812213720E-03  0.99755422505E-03 -0.14540019951E-01  0.14583765206E-01  0.00000000000E+00 0.  1.
     999901    1    3    3    0    0  0.61072616976E-01 -0.11304771157E+00  0.46308359194E-01  0.89053585765E+00  0.88000000000E+00 0.  1.
        -11    1    4    4    0    0 -0.21808846336E-01  0.13241186003E-01  0.59003886874E-02  0.26192183813E-01  0.51100000000E-03 0.  1.
         11    1    4    4    0    0 -0.38735648503E-01  0.98808971345E-01 -0.37668727931E-01  0.11261819333E+00  0.51100000000E-03 0. -1.
</event>
<event>
 8    1  0.2183582E+004  0.1043930E+01  0.7957747E-01            NaN
         13   -1    0    0    0    0  0.00000000000E+00  0.00000000000E+00  0.74505805969E-08  0.10566000000E+00  0.10566000000E+00 0.  1.
     999900   -1    0    0    0    0 -0.00000000000E+00 -0.00000000000E+00 -0.74505805969E-08  0.93827000000E+00  0.93827000000E+00 0.  1.
     999902    2    1    2    0    0  0.11735980556E-02  0.10340331100E-01 -0.64125088535E-02  0.10317062506E+01  0.10316338340E+01 0.  0.
     999903    2    3    3    0    0 -0.35426541964E-01  0.67967455409E-01  0.10974826269E+00  0.14145135421E+00  0.45707653327E-01 0.  0.
         14    1    1    2    0    0 -0.11735980556E-02 -0.10340331100E-01  0.64125088535E-02  0.12223749402E-01  0.00000000000E+00 0.  1.
     999901    1    3    3    0    0  0.36600140020E-01 -0.57627124310E-01 -0.11616077154E+00  0.89025489639E+00  0.88000000000E+00 0.  1.
        -11    1    4    4    0    0  0.34947416134E-02  0.20273920924E-01  0.71216215961E-02  0.21776677977E-01  0.51100000000E-03 0.  1.
         11    1    4    4    0    0 -0.38921283578E-01  0.47693534486E-01  0.10262664109E+00  0.11967467623E+00  0.51100000000E-03 0. -1.
</event>
<event>
 8    1  0.2183582E+004  0.1043930E+01  0.7957747E-01            NaN
         13   -1    0    0    0    0  0.00000000000E+00  0.00000000000E+00  0.74505805969E-08  0.10566000000E+00  0.10566000000E+00 0. -1.
     999900   -1    0    0    0    0 -0.00000000000E+00 -0.00000000000E+00 -0.74505805969E-08  0.93827000000E+00  0.93827000000E+00 0. -1.
     999902    2    1    2    0    0 -0.42384534259E-02  0.11672934567E-01  0.84767942766E-02  0.10288941119E+01  0.10287842415E+01 0.  0.
     999903    2    3    3    0    0  0.44353391592E-02  0.11040473372E+00 -0.72564082473E-01  0.13962990679E+00  0.44967625506E-01 0.  0.
         14    1    1    2    0    0  0.42384534259E-02 -0.11672934567E-01 -0.84767942766E-02  0.15035888070E-01  0.00000000000E+00 0.  1.
     999901    1    3    3    0    0 -0.86737925851E-02 -0.98731799151E-01  0.81040876749E-01  0.88926420514E+00  0.88000000000E+00 0. -1.
        -11    1    4    4    0    0  0.22677678719E-01  0.68245229787E-01 -0.33541039368E-01  0.79353329758E-01  0.51100000000E-03 0. -1.
         11    1    4    4    0    0 -0.18242339560E-01  0.42159503932E-01 -0.39023043105E-01  0.60276577031E-01  0.51100000000E-03 0.  1.
</event>
<event>
 8    1  0.2183582E+004  0.1043930E+01  0.7957747E-01            NaN
         13   -1    0    0    0    0  0.00000000000E+00  0.00000000000E+00  0.74505805969E-08  0.10566000000E+00  0.10566000000E+00 0.  1.
     999900   -1    0    0    0    0 -0.00000000000E+00 -0.00000000000E+00 -0.74505805969E-08  0.93827000000E+00  0.93827000000E+00 0.  1.
     999902    2    1    2    0    0  0.47614111072E-02  0.71423857687E-02  0.10829667125E-01  0.10301109407E+01  0.10300182444E+01 0.  0.
     999903    2    3    3    0    0 -0.78519801457E-01  0.52582037426E-01  0.94621356966E-01  0.14105437916E+00  0.44865429965E-01 0.  0.
         14    1    1    2    0    0 -0.47614111072E-02 -0.71423857687E-02 -0.10829667125E-01  0.13819059311E-01  0.00000000000E+00 0. -1.
     999901    1    3    3    0    0  0.83281212564E-01 -0.45439651657E-01 -0.83791689840E-01  0.88905656153E+00  0.88000000000E+00 0. -1.
        -11    1    4    4    0    0 -0.22496542940E-01  0.33892253794E-01  0.60315747330E-01  0.72753211672E-01  0.51100000000E-03 0.  1.
         11    1    4    4    0    0 -0.56023258517E-01  0.18689783631E-01  0.34305609635E-01  0.68301167490E-01  0.51100000000E-03 0. -1.
</event>
<event>
 8    1  0.2183582E+004  0.1043930E+01  0.7957747E-01            NaN
         13   -1    0    0    0    0  0.00000000000E+00  0.00000000000E+00  0.74505805969E-08  0.10566000000E+00  0.10566000000E+00 0. -1.
     999900   -1    0    0    0    0 -0.00000000000E+00 -0.00000000000E+00 -0.74505805969E-08  0.93827000000E+00  0.93827000000E+00 0.  1.
     999902    2    1    2    0    0  0.27409664476E-02  0.12777003576E-02  0.14163677961E-01  0.10294470725E+01  0.10293451899E+01 0.  0.
     999903    2    3    3    0    0  0.76640698055E-01 -0.70362745666E-01 -0.79391261630E-01  0.13852280493E+00  0.45396943587E-01 0.  0.
         14    1    1    2    0    0 -0.27409664476E-02 -0.12777003576E-02 -0.14163677961E-01  0.14482927489E-01  0.00000000000E+00 0.  1.
     999901    1    3    3    0    0 -0.73899731607E-01  0.71640446023E-01  0.93554939592E-01  0.89092426758E+00  0.88000000000E+00 0. -1.
        -11    1    4    4    0    0  0.29096160163E-01 -0.71484912719E-02 -0.40495977641E-01  0.50377304312E-01  0.51100000000E-03 0.  1.
         11    1    4    4    0    0  0.47544537892E-01 -0.63214254394E-01 -0.38895283990E-01  0.88145500620E-01  0.51100000000E-03 0. -1.
</event>
<event>
 8    1  0.2183582E+004  0.1043930E+01  0.7957747E-01            NaN
         13   -1    0    0    0    0  0.00000000000E+00  0.00000000000E+00  0.74505805969E-08  0.10566000000E+00  0.10566000000E+00 0. -1.
     999900   -1    0    0    0    0 -0.00000000000E+00 -0.00000000000E+00 -0.74505805969E-08  0.93827000000E+00  0.93827000000E+00 0. -1.
     999902    2    1    2    0    0  0.17441610382E-02 -0.77800678424E-02  0.12191472857E-01  0.10293627915E+01  0.10292597111E+01 0.  0.
     999903    2    3    3    0    0 -0.65403343221E-01  0.66459654346E-01 -0.91046234649E-01  0.13769113223E+00  0.44440388055E-01 0.  0.
         14    1    1    2    0    0 -0.17441610382E-02  0.77800678424E-02 -0.12191472857E-01  0.14567208510E-01  0.00000000000E+00 0.  1.
     999901    1    3    3    0    0  0.67147504259E-01 -0.74239722189E-01  0.10323770751E+00  0.89167165926E+00  0.88000000000E+00 0.  1.
        -11    1    4    4    0    0 -0.49923548681E-01  0.69480790988E-01 -0.65865239451E-01  0.10797421877E+00  0.51100000000E-03 0. -1.
         11    1    4    4    0    0 -0.15479794540E-01 -0.30211366419E-02 -0.25180995197E-01  0.29716913462E-01  0.51100000000E-03 0.  1.
</event>
<event>
 8    1  0.2183582E+004  0.1043930E+01  0.7957747E-01            NaN
         13   -1    0    0    0    0  0.00000000000E+00  0.00000000000E+00  0.74505805969E-08  0.10566000000E+00  0.10566000000E+00 0. -1.
     999900   -1    0    0    0    0 -0.00000000000E+00 -0.00000000000E+00 -0.74505805969E-08  0.93827000000E+00  0.93827000000E+00 0.  1.
     999902    2    1    2    0    0  0.90914192159E-02  0.88019800128E-02  0.56247747137E-02  0.10300820093E+01  0.10299889218E+01 0.  0.
     999903    2    3    3    0    0  0.70094219431E-01  0.76410246558E-01 -0.86810168630E-01  0.14056728875E+00  0.38359248080E-01 0.  0.
         14    1    1    2    0    0 -0.90914192159E-02 -0.88019800128E-02 -0.56247747137E-02  0.13847990688E-01  0.00000000000E+00 0.  1.
     999901    1    3    3    0    0 -0.61002800215E-01 -0.67608266546E-01  0.92434943343E-01  0.88951472056E+00  0.88000000000E+00 0. -1.
        -11    1    4    4    0    0  0.49439650181E-01  0.31445301516E-01 -0.61651540418E-01  0.85054450526E-01  0.51100000000E-03 0. -1.
         11    1    4    4    0    0  0.20654569251E-01  0.44964945042E-01 -0.25158628212E-01  0.55512838228E-01  0.51100000000E-03 0.  1.
</event>
<event>
 8    1  0.2183582E+004  0.1043930E+01  0.7957747E-01            NaN
         13   -1    0    0    0    0  0.00000000000E+00  0.00000000000E+00  0.74505805969E-08  0.10566000000E+00  0.10566000000E+00 0. -1.
     999900   -1    0    0    0    0 -0.00000000000E+00 -0.00000000000E+00 -0.74505805969E-08  0.93827000000E+00  0.93827000000E+00 0. -1.
     999902    2    1    2    0    0 -0.50950402494E-02 -0.74044371952E-02  0.10409905308E-01  0.10301767730E+01  0.10300849636E+01 0.  0.
     999903    2    3    3    0    0 -0.13595761257E-01 -0.13045264699E+00  0.24139358433E-01  0.14146893454E+00  0.47201832422E-01 0.  0.
         14    1    1    2    0    0  0.50950402494E-02  0.74044371952E-02 -0.10409905308E-01  0.13753227034E-01  0.00000000000E+00 0. -1.
     999901    1    3    3    0    0  0.85007210077E-02  0.12304820980E+00 -0.13729453124E-01  0.88870783842E+00  0.88000000000E+00 0.  1.
        -11    1    4    4    0    0 -0.30497930598E-01 -0.81045966162E-01  0.87972868898E-02  0.87041517562E-01  0.51100000000E-03 0. -1.
         11    1    4    4    0    0  0.16902169341E-01 -0.49406680829E-01  0.15342071543E-01  0.54427416981E-01  0.51100000000E-03 0.  1.
</event>
<event>
 8    1  0.2183582E+004  0.1043930E+01  0.7957747E-01            NaN
         13   -1    0    0    0    0  0.00000000000E+00  0.00000000000E+00  0.74505805969E-08  0.10566000000E+00  0.10566000000E+00 0.  1.
     999900   -1    0    0    0    0 -0.00000000000E+00 -0.00000000000E+00 -0.74505805969E-08  0.93827000000E+00  0.93827000000E+00 0. -1.
     999902    2    1    2    0    0 -0.50336330124E-02 -0.63738347037E-02 -0.11177361365E-01  0.10301134651E+01  0.10300208028E+01 0.  0.
     999903    2    3    3    0    0 -0.50687466370E-01 -0.11326037053E+00  0.48902982094E-01  0.14044012519E+00  0.43986319766E-01 0.  0.
         14    1    1    2    0    0  0.50336330124E-02  0.63738347037E-02  0.11177361365E-01  0.13816534921E-01  0.00000000000E+00 0.  1.
     999901    1    3    3    0    0  0.45653833358E-01  0.10688653582E+00 -0.60080343459E-01  0.88967333989E+00  0.88000000000E+00 0. -1.
        -11    1    4    4    0    0 -0.23656736888E-01 -0.16108847643E-01  0.21907150495E-01  0.36046089058E-01  0.51100000000E-03 0.  1.
         11    1    4    4    0    0 -0.27030729482E-01 -0.97151522884E-01  0.26995831599E-01  0.10439403613E+00  0.51100000000E-03 0. -1.
</event>
<event>
 8    1  0.2183582E+004  0.1043930E+01  0.7957747E-01            NaN
         13   -1    0    0    0    0  0.00000000000E+00  0.00000000000E+00  0.74505805969E-08  0.10566000000E+00  0.10566000000E+00 0. -1.
     999900   -1    0    0    0    0 -0.00000000000E+00 -0.00000000000E+00 -0.74505805969E-08  0.93827000000E+00  0.93827000000E+00 0.  1.
     999902    2    1    2    0    0 -0.96941029494E-02 -0.10096515238E-01  0.11941179985E-02  0.10298821827E+01  0.10297863706E+01 0.  0.
     999903    2    3    3    0    0  0.94426205471E-01  0.54922473430E-01 -0.71454226679E-01  0.13839674287E+00  0.45990929107E-01 0.  0.
         14    1    1    2    0    0  0.96941029494E-02  0.10096515238E-01 -0.11941179985E-02  0.14047817259E-01  0.00000000000E+00 0. -1.
     999901    1    3    3    0    0 -0.10412030842E+00 -0.65018988668E-01  0.72648344678E-01  0.89148543987E+00  0.88000000000E+00 0. -1.
        -11    1    4    4    0    0  0.57672582264E-01  0.14779624610E-01 -0.18223421010E-01  0.62264903781E-01  0.51100000000E-03 0. -1.
         11    1    4    4    0    0  0.36753623207E-01  0.40142848820E-01 -0.53230805669E-01  0.76131839091E-01  0.51100000000E-03 0.  1.
</event>
<event>
 8    1  0.2183582E+004  0.1043930E+01  0.7957747E-01            NaN
         13   -1    0    0    0    0  0.00000000000E+00  0.00000000000E+00  0.74505805969E-08  0.10566000000E+00  0.10566000000E+00 0. -1.
     999900   -1    0    0    0    0 -0.00000000000E+00 -0.00000000000E+00 -0.74505805969E-08  0.93827000000E+00  0.93827000000E+00 0.  1.
     999902    2    1    2    0    0  0.25014836422E-02  0.10677606590E-02 -0.15951469820E-01  0.10277483152E+01  0.10276209187E+01 0.  0.
     999903    2    3    3    0    0 -0.26104883388E-01 -0.92720204947E-01  0.85273097895E-01  0.13653514215E+00  0.45736664451E-01 0.  0.
         14    1    1    2    0    0 -0.25014836422E-02 -0.10677606590E-02  0.15951469820E-01  0.16181684790E-01  0.00000000000E+00 0. -1.
     999901    1    3    3    0    0  0.28606367030E-01  0.93787965606E-01 -0.10122456771E+00  0.89121317306E+00  0.88000000000E+00 0.  1.
        -11    1    4    4    0    0 -0.22821898979E-01 -0.14849543453E-01  0.32534171574E-01  0.42427366813E-01  0.51100000000E-03 0.  1.
         11    1    4    4    0    0 -0.32829844091E-02 -0.77870661494E-01  0.52738926321E-01  0.94107775336E-01  0.51100000000E-03 0. -1.
</event>
<event>
 7    1  0.2183582E+004  0.1043930E+01  0.7957747E-01            NaN
         13   -1    0    0    0    0  0.00000000000E+00  0.00000000000E+00  0.74505805969E-08  0.10566000000E+00  0.10566000000E+00 0.  1.
     999900   -1    0    0    0    0 -0.00000000000E+00 -0.00000000000E+00 -0.74505805969E-08  0.93827000000E+00  0.93827000000E+00 0. -1.
     999903    2    1    2    0    0 -0.93499414551E-01 -0.31109279102E-02 -0.66258093328E-01  0.12330464838E+00  0.45410163926E-01 0.  0.
         14    1    1    2    0    0  0.68452344766E-02 -0.32384596149E-01  0.57015278965E-02  0.33587597758E-01  0.00000000000E+00 0.  1.
     999901    1    1    2    0    0  0.86654180074E-01  0.35495524060E-01  0.60556565432E-01  0.88703775386E+00  0.88000000000E+00 0.  1.
        -11    1    3    3    0    0 -0.10863856051E-01 -0.18635483257E-02 -0.31982476330E-01  0.33832470999E-01  0.51100000000E-03 0. -1.
         11    1    3    3    0    0 -0.82635558500E-01 -0.12473795846E-02 -0.34275616998E-01  0.89472177385E-01  0.51100000000E-03 0.  1.
</event>
<event>
 8    1  0.2183582E+004  0.1043930E+01  0.7957747E-01            NaN
         13   -1    0    0    0    0  0.00000000000E+00  0.00000000000E+00  0.74505805969E-08  0.10566000000E+00  0.10566000000E+00 0. -1.
     999900   -1    0    0    0    0 -0.00000000000E+00 -0.00000000000E+00 -0.74505805969E-08  0.93827000000E+00  0.93827000000E+00 0.  1.
     999902    2    1    2    0    0  0.91818275738E-02  0.92360199632E-02 -0.18943798925E-02  0.10307695024E+01  0.10306854847E+01 0.  0.
     999903    2    3    3    0    0  0.49812673462E-01  0.11321467694E+00 -0.53625497403E-01  0.14220969277E+00  0.45266292452E-01 0.  0.
         14    1    1    2    0    0 -0.91818275738E-02 -0.92360199632E-02  0.18943798925E-02  0.13160497617E-01  0.00000000000E+00 0.  1.
     999901    1    3    3    0    0 -0.40630845888E-01 -0.10397865698E+00  0.51731117510E-01  0.88855980962E+00  0.88000000000E+00 0. -1.
        -11    1    4    4    0    0  0.99895263940E-02  0.58920262077E-01 -0.67028139002E-02  0.60137980977E-01  0.51100000000E-03 0.  1.
         11    1    4    4    0    0  0.39823147068E-01  0.54294414867E-01 -0.46922683502E-01  0.82071711790E-01  0.51100000000E-03 0. -1.
</event>
<event>
 8    1  0.2183582E+004  0.1043930E+01  0.7957747E-01            NaN
         13   -1    0    0    0    0  0.00000000000E+00  0.00000000000E+00  0.74505805969E-08  0.10566000000E+00  0.10566000000E+00 0. -1.
     999900   -1    0    0    0    0 -0.00000000000E+00 -0.00000000000E+00 -0.74505805969E-08  0.93827000000E+00  0.93827000000E+00 0. -1.
     999902    2    1    2    0    0 -0.12351379476E-01 -0.33496301513E-02 -0.64023746490E-02  0.10296203180E+01  0.10295208751E+01 0.  0.
     999903    2    3    3    0    0 -0.37377176709E-01 -0.12731300482E+00  0.13724736455E-01  0.14035190557E+00  0.43642118075E-01 0.  0.
         14    1    1    2    0    0  0.12351379476E-01  0.33496301513E-02  0.64023746490E-02  0.14309681976E-01  0.00000000000E+00 0. -1.
     999901    1    3    3    0    0  0.25025797233E-01  0.12396337467E+00 -0.20127111104E-01  0.88926841245E+00  0.88000000000E+00 0. -1.
        -11    1    4    4    0    0 -0.12327592241E-01 -0.64739318886E-02  0.95122760270E-02  0.16870857737E-01  0.51100000000E-03 0. -1.
         11    1    4    4    0    0 -0.25049584468E-01 -0.12083907294E+00  0.42124604277E-02  0.12348104783E+00  0.51100000000E-03 0.  1.
</event>
<event>
 8    1  0.2183582E+004  0.1043930E+01  0.7957747E-01            NaN
         13   -1    0    0    0    0  0.00000000000E+00  0.00000000000E+00  0.74505805969E-08  0.10566000000E+00  0.10566000000E+00 0.  1.
     999900   -1    0    0    0    0 -0.00000000000E+00 -0.00000000000E+00 -0.74505805969E-08  0.93827000000E+00  0.93827000000E+00 0. -1.
     999902    2    1    2    0    0  0.12290221110E-01  0.53383747650E-02  0.11642355909E-02  0.10304799731E+01  0.10303921931E+01 0.  0.
     999903    2    3    3    0    0  0.10706410935E+00  0.63579820469E-01 -0.52364078849E-01  0.14186338739E+00  0.43337130111E-01 0.  0.
         14    1    1    2    0    0 -0.12290221110E-01 -0.53383747650E-02 -0.11642355909E-02  0.13450026935E-01  0.00000000000E+00 0.  1.
     999901    1    3    3    0    0 -0.94773888240E-01 -0.58241445704E-01  0.53528314440E-01  0.88861658567E+00  0.88000000000E+00 0.  1.
        -11    1    4    4    0    0  0.97124165238E-01  0.42468007081E-01 -0.31574468681E-01  0.11060670546E+00  0.51100000000E-03 0.  1.
         11    1    4    4    0    0  0.99399441115E-02  0.21111813388E-01 -0.20789610169E-01  0.31256681932E-01  0.51100000000E-03 0. -1.
</event>
<event>
 8    1  0.2183582E+004  0.1043930E+01  0.7957747E-01            NaN
         13   -1    0    0    0    0  0.00000000000E+00  0.00000000000E+00  0.74505805969E-08  0.10566000000E+00  0.10566000000E+00 0. -1.
     999900   -1    0    0    0    0 -0.00000000000E+00 -0.00000000000E+00 -0.74505805969E-08  0.93827000000E+00  0.93827000000E+00 0.  1.
     999902    2    1    2    0    0  0.91773573733E-02 -0.38857944258E-02  0.91605414622E-02  0.10303934271E+01  0.10303045063E+01 0.  0.
     999903    2    3    3    0    0 -0.31762709043E-01 -0.76830668411E-01  0.10146801066E+00  0.14162027686E+00  0.53373442221E-01 0.  0.
         14    1    1    2    0    0 -0.91773573733E-02  0.38857944258E-02 -0.91605414622E-02  0.13536572925E-01  0.00000000000E+00 0. -1.
     999901    1    3    3    0    0  0.40940066416E-01  0.72944873985E-01 -0.92307469202E-01  0.88877315022E+00  0.88000000000E+00 0.  1.
        -11    1    4    4    0    0 -0.41445128637E-01 -0.64900743785E-01  0.60711966465E-01  0.98061252412E-01  0.51100000000E-03 0.  1.
         11    1    4    4    0    0  0.96824195942E-02 -0.11929924626E-01  0.40756044199E-01  0.43559024444E-01  0.51100000000E-03 0. -1.
</event>
<event>
 8    1  0.2183582E+004  0.1043930E+01  0.7957747E-01            NaN
         13   -1    0    0    0    0  0.00000000000E+00  0.00000000000E+00  0.74505805969E-08  0.10566000000E+00  0.10566000000E+00 0. -1.
     999900   -1    0    0    0    0 -0.00000000000E+00 -0.00000000000E+00 -0.74505805969E-08  0.93827000000E+00  0.93827000000E+00 0. -1.
     999902    2    1    2    0    0  0.48859501760E-02 -0.77216677472E-02 -0.10770180682E-01  0.10298057848E+01  0.10297089205E+01 0.  0.
     999903    2    3    3    0    0  0.88942393567E-01  0.39518524430E-01 -0.91281371457E-01  0.14088555598E+00  0.45210485103E-01 0.  0.
         14    1    1    2    0    0 -0.48859501760E-02  0.77216677472E-02  0.10770180682E-01  0.14124215158E-01  0.00000000000E+00 0. -1.
     999901    1    3    3    0    0 -0.84056443391E-01 -0.47240192177E-01  0.80511190776E-01  0.88892022886E+00  0.88000000000E+00 0.  1.
        -11    1    4    4    0    0  0.95240939885E-02 -0.65967297542E-02 -0.28393505751E-03  0.11600299559E-01  0.51100000000E-03 0.  1.
         11    1    4    4    0    0  0.79418299579E-01  0.46115254184E-01 -0.90997436400E-01  0.12928525642E+00  0.51100000000E-03 0. -1.
</event>
<event>
 8    1  0.2183582E+004  0.1043930E+01  0.7957747E-01            NaN
         13   -1    0    0    0    0  0.00000000000E+00  0.00000000000E+00  0.74505805969E-08  0.10566000000E+00  0.10566000000E+00 0. -1.
     999900   -1    0    0    0    0 -0.00000000000E+00 -0.00000000000E+00 -0.74505805969E-08  0.93827000000E+00  0.93827000000E+00 0.  1.
     999902    2    1    2    0    0  0.20287914718E-02 -0.47652458851E-02  0.13011496854E-01  0.10299256216E+01  0.10298304052E+01 0.  0.
     999903    2    3    3    0    0 -0.12234518241E+00 -0.11049344739E-01  0.51906866886E-01  0.14030703758E+00  0.43604016862E-01 0.  0.
         14    1    1    2    0    0 -0.20287914718E-02  0.47652458851E-02 -0.13011496854E-01  0.14004378372E-01  0.00000000000E+00 0.  1.
     999901    1    3    3    0    0  0.12437397388E+00  0.62840988537E-02 -0.38895370031E-01  0.88961858405E+00  0.88000000000E+00 0.  1.
        -11    1    4    4    0    0 -0.60768655647E-01 -0.26499847256E-01  0.19971840461E-01  0.69240211916E-01  0.51100000000E-03 0. -1.
         11    1    4    4    0    0 -0.61576526761E-01  0.15450502518E-01  0.31935026425E-01  0.71066825663E-01  0.51100000000E-03 0.  1.
</event>
<event>
 7    1  0.2490951E+004  0.1043930E+01  0.7957747E-01            NaN
         13   -1    0    0    0    0  0.00000000000E+00  0.00000000000E+00  0.74505805969E-08  0.10566000000E+00  0.10566000000E+00 0.  1.
     999900   -1    0    0    0    0 -0.00000000000E+00 -0.00000000000E+00 -0.74505805969E-08  0.93827000000E+00  0.93827000000E+00 0. -1.
     999903    2    1    2    0    0  0.86554733646E-01  0.81273231074E-01 -0.15286010088E-01  0.12772819478E+00  0.44539528864E-01 0.  0.
         14    1    1    2    0    0 -0.25392629159E-01  0.10215024784E-01  0.10554204391E-01  0.29334682157E-01  0.00000000000E+00 0.  1.
     999901    1    1    2    0    0 -0.61162104487E-01 -0.91488255858E-01  0.47318056968E-02  0.88686712306E+00  0.88000000000E+00 0. -1.
        -11    1    3    3    0    0  0.53121655511E-01  0.61771842298E-01  0.90978249887E-02  0.81979889763E-01  0.51100000000E-03 0.  1.
         11    1    3    3    0    0  0.33433078136E-01  0.19501388776E-01 -0.24383835077E-01  0.45748305016E-01  0.51100000000E-03 0. -1.
</event>
<event>
 8    1  0.2183582E+004  0.1043930E+01  0.7957747E-01            NaN
         13   -1    0    0    0    0  0.00000000000E+00  0.00000000000E+00  0.74505805969E-08  0.10566000000E+00  0.10566000000E+00 0.  1.
     999900   -1    0    0    0    0 -0.00000000000E+00 -0.00000000000E+00 -0.74505805969E-08  0.93827000000E+00  0.93827000000E+00 0.  1.
     999902    2    1    2    0    0  0.29531605190E-03  0.12692820933E-01  0.55670772019E-02  0.10300668379E+01  0.10299735449E+01 0.  0.
     999903    2    3    3    0    0 -0.11241973311E+00  0.51730584587E-01  0.50361011995E-01  0.14089018172E+00  0.44716462319E-01 0.  0.
         14    1    1    2    0    0 -0.29531605190E-03 -0.12692820933E-01 -0.55670772019E-02  0.13863162099E-01  0.00000000000E+00 0. -1.
     999901    1    3    3    0    0  0.11271504916E+00 -0.39037763654E-01 -0.44793934793E-01  0.88917665618E+00  0.88000000000E+00 0.  1.
        -11    1    4    4    0    0 -0.18971985376E-01  0.24702969346E-01  0.26077338089E-01  0.40625873608E-01  0.51100000000E-03 0.  1.
         11    1    4    4    0    0 -0.93447747735E-01  0.27027615241E-01  0.24283673906E-01  0.10026430811E+00  0.51100000000E-03 0. -1.
</event>
<event>
 8    1  0.2183582E+004  0.1043930E+01  0.7957747E-01            NaN
         13   -1    0    0    0    0  0.00000000000E+00  0.00000000000E+00  0.74505805969E-08  0.10566000000E+00  0.10566000000E+00 0.  1.
     999900   -1    0    0    0    0 -0.00000000000E+00 -0.00000000000E+00 -0.74505805969E-08  0.93827000000E+00  0.93827000000E+00 0.  1.
     999902    2    1    2    0    0 -0.10265892532E-01 -0.78660334067E-03 -0.94542030658E-02  0.10299518295E+01  0.10298569716E+01 0.  0.
     999903    2    3    3    0    0 -0.42443797827E-01  0.79777006290E-01 -0.98609516398E-01  0.14120294335E+00  0.45261327626E-01 0.  0.
         14    1    1    2    0    0  0.10265892532E-01  0.78660334067E-03  0.94542030658E-02  0.13978170477E-01  0.00000000000E+00 0.  1.
     999901    1    3    3    0    0  0.32177905295E-01 -0.80563609631E-01  0.89155313332E-01  0.88874888618E+00  0.88000000000E+00 0. -1.
        -11    1    4    4    0    0 -0.24568452180E-01  0.70702861762E-01 -0.54011316523E-01  0.92303775315E-01  0.51100000000E-03 0.  1.
         11    1    4    4    0    0 -0.17875345647E-01  0.90741445281E-02 -0.44598199876E-01  0.48899168030E-01  0.51100000000E-03 0. -1.
</event>
<event>
 8    1  0.2183582E+004  0.1043930E+01  0.7957747E-01            NaN
         13   -1    0    0    0    0  0.00000000000E+00  0.00000000000E+00  0.74505805969E-08  0.10566000000E+00  0.10566000000E+00 0.  1.
     999900   -1    0    0    0    0 -0.00000000000E+00 -0.00000000000E+00 -0.74505805969E-08  0.93827000000E+00  0.93827000000E+00 0.  1.
     999902    2    1    2    0    0 -0.84080804689E-03  0.27794828181E-02  0.12909079532E-01  0.10306983403E+01  0.10306134057E+01 0.  0.
     999903    2    3    3    0    0 -0.12510557614E+00  0.27942228973E-01 -0.35529506412E-01  0.14029326792E+00  0.44583425805E-01 0.  0.
         14    1    1    2    0    0  0.84080804689E-03 -0.27794828181E-02 -0.12909079532E-01  0.13231659657E-01  0.00000000000E+00 0. -1.
     999901    1    3    3    0    0  0.12426476810E+00 -0.25162746155E-01  0.48438585944E-01  0.89040507242E+00  0.88000000000E+00 0. -1.
        -11    1    4    4    0    0 -0.67205283433E-01  0.35155335718E-01 -0.96372724334E-02  0.76456431330E-01  0.51100000000E-03 0. -1.
         11    1    4    4    0    0 -0.57900292710E-01 -0.72131067444E-02 -0.25892233978E-01  0.63836836593E-01  0.51100000000E-03 0.  1.
</event>
<event>
 8    1  0.2183582E+004  0.1043930E+01  0.7957747E-01            NaN
         13   -1    0    0    0    0  0.00000000000E+00  0.00000000000E+00  0.74505805969E-08  0.10566000000E+00  0.10566000000E+00 0. -1.
     999900   -1    0    0    0    0 -0.00000000000E+00 -0.00000000000E+00 -0.74505805969E-08  0.93827000000E+00  0.93827000000E+00 0.  1.
     999902    2    1    2    0    0 -0.57086198446E-02 -0.36143975788E-03  0.11453932325E-01  0.10311272056E+01  0.10310477208E+01 0.  0.
     999903    2    3    3    0    0  0.19025588181E-01  0.28011897723E-01 -0.12744993331E+00  0.13943717468E+00  0.45305637185E-01 0.  0.
         14    1    1    2    0    0  0.57086198446E-02  0.36143975788E-03 -0.11453932325E-01  0.12802794419E-01  0.00000000000E+00 0.  1.
     999901    1    3    3    0    0 -0.24734208025E-01 -0.28373337480E-01  0.13890386564E+00  0.89169003091E+00  0.88000000000E+00 0. -1.
        -11    1    4    4    0    0  0.21335658372E-01 -0.44616691384E-04 -0.90499068966E-01  0.92981476185E-01  0.51100000000E-03 0. -1.
         11    1    4    4    0    0 -0.23100701918E-02  0.28056514414E-01 -0.36950864346E-01  0.46455698491E-01  0.51100000000E-03 0.  1.
</event>
<event>
 8    1  0.2183582E+004  0.1043930E+01  0.7957747E-01            NaN
         13   -1    0    0    0    0  0.00000000000E+00  0.00000000000E+00  0.74505805969E-08  0.10566000000E+00  0.10566000000E+00 0. -1.
     999900   -1    0    0    0    0 -0.00000000000E+00 -0.00000000000E+00 -0.74505805969E-08  0.93827000000E+00  0.93827000000E+00 0. -1.
     999902    2    1    2    0    0 -0.21022896448E-02 -0.82738304853E-02 -0.10474727690E-01  0.10304171982E+01  0.10303285915E+01 0.  0.
     999903    2    3    3    0    0 -0.77058165875E-01 -0.26466564787E-01  0.10399447474E+00  0.13965765866E+00  0.45287645829E-01 0.  0.
         14    1    1    2    0    0  0.21022896448E-02  0.82738304853E-02  0.10474727690E-01  0.13512801813E-01  0.00000000000E+00 0. -1.
     999901    1    3    3    0    0  0.74955876230E-01  0.18192734302E-01 -0.11446920243E+00  0.89075953953E+00  0.88000000000E+00 0. -1.
        -11    1    4    4    0    0 -0.36858450145E-01 -0.22767554177E-01  0.84200435461E-01  0.94693618175E-01  0.51100000000E-03 0. -1.
         11    1    4    4    0    0 -0.40199715730E-01 -0.36990106106E-02  0.19794039280E-01  0.44964040480E-01  0.51100000000E-03 0.  1.
</event>
<event>
 8    1  0.2183582E+004  0.1043930E+01  0.7957747E-01            NaN
         13   -1    0    0    0    0  0.00000000000E+00  0.00000000000E+00  0.74505805969E-08  0.10566000000E+00  0.10566000000E+00 0. -1.
     999900   -1    0    0    0    0 -0.00000000000E+00 -0.00000000000E+00 -0.74505805969E-08  0.93827000000E+00  0.93827000000E+00 0. -1.
     999902    2    1    2    0    0 -0.10475461658E-01 -0.32975964259E-02  0.75504409433E-02  0.10306026373E+01  0.10305164615E+01 0.  0.
     999903    2    3    3    0    0 -0.10022930025E+00 -0.62348124351E-01 -0.63105813647E-01  0.14125735971E+00  0.45145284544E-01 0.  0.
         14    1    1    2    0    0  0.10475461658E-01  0.32975964259E-02 -0.75504409433E-02  0.13327362739E-01  0.00000000000E+00 0.  1.
     999901    1    3    3    0    0  0.89753838595E-01  0.59050527925E-01  0.70656254591E-01  0.88934527755E+00  0.88000000000E+00 0.  1.
        -11    1    4    4    0    0 -0.40338312323E-01 -0.42189359136E-01 -0.11108451952E-01  0.59420369329E-01  0.51100000000E-03 0. -1.
         11    1    4    4    0    0 -0.59890987930E-01 -0.20158765215E-01 -0.51997361695E-01  0.81836990380E-01  0.51100000000E-03 0.  1.
</event>
<event>
 8    1  0.2183582E+004  0.1043930E+01  0.7957747E-01            NaN
         13   -1    0    0    0    0  0.00000000000E+00  0.00000000000E+00  0.74505805969E-08  0.10566000000E+00  0.10566000000E+00 0. -1.
     999900   -1    0    0    0    0 -0.00000000000E+00 -0.00000000000E+00 -0.74505805969E-08  0.93827000000E+00  0.93827000000E+00 0. -1.
     999902    2    1    2    0    0 -0.52888810038E-02 -0.83615708771E-02  0.10008973951E-01  0.10298563477E+01  0.10297601804E+01 0.  0.
     999903    2    3    3    0    0  0.81039357834E-01  0.84672334623E-01 -0.57475311082E-01  0.13819385486E+00  0.45358002252E-01 0.  0.
         14    1    1    2    0    0  0.52888810038E-02  0.83615708771E-02 -0.10008973951E-01  0.14073652311E-01  0.00000000000E+00 0.  1.
     999901    1    3    3    0    0 -0.86328238837E-01 -0.93033905500E-01  0.67484285033E-01  0.89166249283E+00  0.88000000000E+00 0.  1.
        -11    1    4    4    0    0  0.67042973843E-01  0.60307201025E-01 -0.62399959277E-01  0.10966191169E+00  0.51100000000E-03 0. -1.
         11    1    4    4    0    0  0.13996383990E-01  0.24365133598E-01  0.49246481946E-02  0.28531943167E-01  0.51100000000E-03 0.  1.
</event>
<event>
 8    1  0.2183582E+004  0.1043930E+01  0.7957747E-01            NaN
         13   -1    0    0    0    0  0.00000000000E+00  0.00000000000E+00  0.74505805969E-08  0.10566000000E+00  0.10566000000E+00 0.  1.
     999900   -1    0    0    0    0 -0.00000000000E+00 -0.00000000000E+00 -0.74505805969E-08  0.93827000000E+00  0.93827000000E+00 0. -1.
     999902    2    1    2    0    0  0.11116926061E-01 -0.71711331009E-02 -0.45490284454E-03  0.10306930014E+01  0.10306079978E+01 0.  0.
     999903    2    3    3    0    0  0.60739023192E-01  0.11768245080E+00 -0.10074631312E-01  0.14044398619E+00  0.45657714520E-01 0.  0.
         14    1    1    2    0    0 -0.11116926061E-01  0.71711331009E-02  0.45490284454E-03  0.13236998587E-01  0.00000000000E+00 0.  1.
     999901    1    3    3    0    0 -0.49622097131E-01 -0.12485358390E+00  0.96197284679E-02  0.89024901523E+00  0.88000000000E+00 0. -1.
        -11    1    4    4    0    0  0.23539702409E-01  0.91344676715E-01 -0.10027053133E-01  0.94861849388E-01  0.51100000000E-03 0.  1.
         11    1    4    4    0    0  0.37199320782E-01  0.26337774085E-01 -0.47578179336E-04  0.45582136798E-01  0.51100000000E-03 0. -1.
</event>
<event>
 8    1  0.2183582E+004  0.1043930E+01  0.7957747E-01            NaN
         13   -1    0    0    0    0  0.00000000000E+00  0.00000000000E+00  0.74505805969E-08  0.10566000000E+00  0.10566000000E+00 0. -1.
     999900   -1    0    0    0    0 -0.00000000000E+00 -0.00000000000E+00 -0.74505805969E-08  0.93827000000E+00  0.93827000000E+00 0.  1.
     999902    2    1    2    0    0 -0.84654462917E-02  0.47383678134E-02  0.10059527883E-01  0.10299546642E+01  0.10298598449E+01 0.  0.
     999903    2    3    3    0    0 -0.79498571998E-01 -0.88388407700E-01 -0.58174124456E-01  0.13957601855E+00  0.44324966228E-01 0.  0.
         14    1    1    2    0    0  0.84654462917E-02 -0.47383678134E-02 -0.10059527883E-01  0.13975335834E-01  0.00000000000E+00 0.  1.
     999901    1    3    3    0    0  0.71033125707E-01  0.93126775514E-01  0.68233652340E-01  0.89037864562E+00  0.88000000000E+00 0. -1.
        -11    1    4    4    0    0 -0.87314751193E-02 -0.33563740516E-01 -0.29621355630E-01  0.45611941041E-01  0.51100000000E-03 0.  1.
         11    1    4    4    0    0 -0.70767096879E-01 -0.54824667184E-01 -0.28552768826E-01  0.93964077504E-01  0.51100000000E-03 0. -1.
</event>
<event>
 8    1  0.2183582E+004  0.1043930E+01  0.7957747E-01            NaN
         13   -1    0    0    0    0  0.00000000000E+00  0.00000000000E+00  0.74505805969E-08  0.10566000000E+00  0.10566000000E+00 0. -1.
     999900   -1    0    0    0    0 -0.00000000000E+00 -0.00000000000E+00 -0.74505805969E-08  0.93827000000E+00  0.93827000000E+00 0. -1.
     999902    2    1    2    0    0 -0.15188534509E-02 -0.11605277227E-01  0.84399259896E-02  0.10295001100E+01  0.10293989774E+01 0.  0.
     999903    2    3    3    0    0  0.44232305214E-01 -0.44560051549E-01  0.11795147170E+00  0.14092148976E+00  0.44768533392E-01 0.  0.
         14    1    1    2    0    0  0.15188534509E-02  0.11605277227E-01 -0.84399259896E-02  0.14429890021E-01  0.00000000000E+00 0. -1.
     999901    1    3    3    0    0 -0.45751158665E-01  0.32954774322E-01 -0.10951154571E+00  0.88857862022E+00  0.88000000000E+00 0. -1.
        -11    1    4    4    0    0  0.84672234880E-02 -0.39898383554E-01  0.68242748709E-01  0.79504143012E-01  0.51100000000E-03 0.  1.
         11    1    4    4    0    0  0.35765081726E-01 -0.46616679947E-02  0.49708722987E-01  0.61417346746E-01  0.51100000000E-03 0. -1.
</event>
<event>
 8    1  0.2183582E+004  0.1043930E+01  0.7957747E-01            NaN
         13   -1    0    0    0    0  0.00000000000E+00  0.00000000000E+00  0.74505805969E-08  0.10566000000E+00  0.10566000000E+00 0.  1.
     999900   -1    0    0    0    0 -0.00000000000E+00 -0.00000000000E+00 -0.74505805969E-08  0.93827000000E+00  0.93827000000E+00 0.  1.
     999902    2    1    2    0    0  0.11012346668E-01  0.44067487087E-02  0.48427204282E-02  0.10311181635E+01  0.10310385657E+01 0.  0.
     999903    2    3    3    0    0 -0.13168976737E-01  0.11663601576E+00  0.65787410706E-01  0.14157086287E+00  0.44010722400E-01 0.  0.
         14    1    1    2    0    0 -0.11012346668E-01 -0.44067487087E-02 -0.48427204282E-02  0.12811836498E-01  0.00000000000E+00 0. -1.
     999901    1    3    3    0    0  0.24181323404E-01 -0.11222926705E+00 -0.60944690278E-01  0.88954730063E+00  0.88000000000E+00 0.  1.
        -11    1    4    4    0    0 -0.28463400501E-01  0.77036094892E-01  0.35784756641E-01  0.89585350439E-01  0.51100000000E-03 0.  1.
         11    1    4    4    0    0  0.15294423764E-01  0.39599920868E-01  0.30002654065E-01  0.51985512434E-01  0.51100000000E-03 0. -1.
</event>
<event>
 8    1  0.2183582E+004  0.1043930E+01  0.7957747E-01            NaN
         13   -1    0    0    0    0  0.00000000000E+00  0.00000000000E+00  0.74505805969E-08  0.10566000000E+00  0.10566000000E+00 0. -1.
     999900   -1    0    0    0    0 -0.00000000000E+00 -0.00000000000E+00 -0.74505805969E-08  0.93827000000E+00  0.93827000000E+00 0.  1.
     999902    2    1    2    0    0  0.82299586915E-02  0.39282096204E-02  0.10231338871E-01  0.10302244046E+01  0.10301332343E+01 0.  0.
     999903    2    3    3    0    0  0.52704226007E-01 -0.10545964172E+00  0.61677692433E-01  0.14084799958E+00  0.46201187980E-01 0.  0.
         14    1    1    2    0    0 -0.82299586915E-02 -0.39282096204E-02 -0.10231338871E-01  0.13705595426E-01  0.00000000000E+00 0. -1.
     999901    1    3    3    0    0 -0.44474267316E-01  0.10938785134E+00 -0.51446353562E-01  0.88937640500E+00  0.88000000000E+00 0. -1.
        -11    1    4    4    0    0  0.76870810760E-02 -0.62383346501E-01  0.41632698362E-01  0.75394401848E-01  0.51100000000E-03 0. -1.
         11    1    4    4    0    0  0.45017144931E-01 -0.43076295214E-01  0.20044994071E-01  0.65453597727E-01  0.51100000000E-03 0.  1.
</event>
<event>
 8    1  0.2183582E+004  0.1043930E+01  0.7957747E-01            NaN
         13   -1    0    0    0    0  0.00000000000E+00  0.00000000000E+00  0.74505805969E-08  0.10566000000E+00  0.10566000000E+00 0. -1.
     999900   -1    0    0    0    0 -0.00000000000E+00 -0.00000000000E+00 -0.74505805969E-08  0.93827000000E+00  0.93827000000E+00 0.  1.
     999902    2    1    2    0    0  0.11520711960E-01  0.29464749599E-02 -0.63868313842E-02  0.10304318470E+01  0.10303434336E+01 0.  0.
     999903    2    3    3    0    0  0.90175205153E-01 -0.94079887181E-01 -0.29189948763E-01  0.14131957829E+00  0.46223125185E-01 0.  0.
         14    1    1    2    0    0 -0.11520711960E-01 -0.29464749599E-02  0.63868313842E-02  0.13498152980E-01  0.00000000000E+00 0. -1.
     999901    1    3    3    0    0 -0.78654493193E-01  0.97026362141E-01  0.22803117379E-01  0.88911226873E+00  0.88000000000E+00 0. -1.
        -11    1    4    4    0    0  0.27248187450E-01 -0.13330538889E-01 -0.24226940330E-01  0.38824898520E-01  0.51100000000E-03 0. -1.
         11    1    4    4    0    0  0.62927017703E-01 -0.80749348293E-01 -0.49630084336E-02  0.10249467977E+00  0.51100000000E-03 0.  1.
</event>
<event>
 8    1  0.2183582E+004  0.1043930E+01  0.7957747E-01            NaN
         13   -1    0    0    0    0  0.00000000000E+00  0.00000000000E+00  0.74505805969E-08  0.10566000000E+00  0.10566000000E+00 0.  1.
     999900   -1    0    0    0    0 -0.00000000000E+00 -0.00000000000E+00 -0.74505805969E-08  0.93827000000E+00  0.93827000000E+00 0.  1.
     999902    2    1    2    0    0  0.75577473491E-02 -0.75525858949E-02 -0.77131012904E-03  0.10332175765E+01  0.10331620416E+01 0.  0.
     999903    2    3    3    0    0 -0.99347281149E-01  0.58142704682E-01 -0.68540035768E-01  0.14173725896E+00  0.46273725754E-01 0.  0.
         14    1    1    2    0    0 -0.75577473491E-02  0.75525858949E-02  0.77131012904E-03  0.10712423536E-01  0.00000000000E+00 0. -1.
     999901    1    3    3    0    0  0.10690502850E+00 -0.65695290577E-01  0.67768725639E-01  0.89148031750E+00  0.88000000000E+00 0.  1.
        -11    1    4    4    0    0 -0.29438816075E-01  0.28549831982E-01 -0.47914074533E-01  0.63069457405E-01  0.51100000000E-03 0.  1.
         11    1    4    4    0    0 -0.69908465074E-01  0.29592872700E-01 -0.20625961235E-01  0.78667801555E-01  0.51100000000E-03 0. -1.
</event>
<event>
 7    1  0.2183582E+004  0.1043930E+01  0.7957747E-01            NaN
         13   -1    0    0    0    0  0.00000000000E+00  0.00000000000E+00  0.74505805969E-08  0.10566000000E+00  0.10566000000E+00 0.  1.
     999900   -1    0    0    0    0 -0.00000000000E+00 -0.00000000000E+00 -0.74505805969E-08  0.93827000000E+00  0.93827000000E+00 0.  1.
     999903    2    1    2    0    0 -0.10416212824E+00  0.27024521303E-01 -0.48453850184E-01  0.12652962184E+00  0.45627797396E-01 0.  0.
         14    1    1    2    0    0  0.23710964010E-02  0.28418407120E-01  0.11868098281E-02  0.28541837344E-01  0.00000000000E+00 0. -1.
     999901    1    1    2    0    0  0.10179103184E+00 -0.55442928423E-01  0.47267040356E-01  0.88885854081E+00  0.88000000000E+00 0. -1.
        -11    1    3    3    0    0 -0.71438705881E-01 -0.12060707803E-02 -0.41856568273E-01  0.82808071668E-01  0.51100000000E-03 0. -1.
         11    1    3    3    0    0 -0.32723422356E-01  0.28230592083E-01 -0.65972819113E-02  0.43721550174E-01  0.51100000000E-03 0.  1.
</event>
<event>
 8    1  0.2183582E+004  0.1043930E+01  0.7957747E-01            NaN
         13   -1    0    0    0    0  0.00000000000E+00  0.00000000000E+00  0.74505805969E-08  0.10566000000E+00  0.10566000000E+00 0. -1.
     999900   -1    0    0    0    0 -0.00000000000E+00 -0.00000000000E+00 -0.74505805969E-08  0.93827000000E+00  0.93827000000E+00 0. -1.
     999902    2    1    2    0    0  0.10523751705E-01  0.38201633570E-02 -0.15805961063E-01  0.10245606582E+01  0.10243775529E+01 0.  0.
     999903    2    3    3    0    0 -0.78691928433E-01 -0.31052178009E-01 -0.95937322005E-01  0.13574315565E+00  0.45448621452E-01 0.  0.
         14    1    1    2    0    0 -0.10523751705E-01 -0.38201633570E-02  0.15805961063E-01  0.19369341836E-01  0.00000000000E+00 0.  1.
     999901    1    3    3    0    0  0.89215680138E-01  0.34872341366E-01  0.80131360941E-01  0.88881750252E+00  0.88000000000E+00 0.  1.
        -11    1    4    4    0    0 -0.28556534094E-01  0.97742025124E-02 -0.40895053451E-01  0.50829884832E-01  0.51100000000E-03 0.  1.
         11    1    4    4    0    0 -0.50135394339E-01 -0.40826380522E-01 -0.55042268553E-01  0.84913270815E-01  0.51100000000E-03 0. -1.
</event>
<event>
 8    1  0.2183582E+004  0.1043930E+01  0.7957747E-01            NaN
         13   -1    0    0    0    0  0.00000000000E+00  0.00000000000E+00  0.74505805969E-08  0.10566000000E+00  0.10566000000E+00 0.  1.
     999900   -1    0    0    0    0 -0.00000000000E+00 -0.00000000000E+00 -0.74505805969E-08  0.93827000000E+00  0.93827000000E+00 0. -1.
     999902    2    1    2    0    0 -0.12517296628E-01 -0.49164952827E-02  0.43220594774E-02  0.10298043199E+01  0.10297074353E+01 0.  0.
     999903    2    3    3    0    0  0.60914628526E-02 -0.32536953654E-01 -0.12788388782E+00  0.13930581446E+00  0.44227388641E-01 0.  0.
         14    1    1    2    0    0  0.12517296628E-01  0.49164952827E-02 -0.43220594774E-02  0.14125680120E-01  0.00000000000E+00 0. -1.
     999901    1    3    3    0    0 -0.18608759480E-01  0.27620458372E-01  0.13220594730E+00  0.89049850542E+00  0.88000000000E+00 0.  1.
        -11    1    4    4    0    0  0.20480633852E-01 -0.15566859426E-01 -0.10187894181E+00  0.10507789197E+00  0.51100000000E-03 0. -1.
         11    1    4    4    0    0 -0.14389170999E-01 -0.16970094228E-01 -0.26004946012E-01  0.34227922494E-01  0.51100000000E-03 0.  1.
</event>
<event>
 8    1  0.2183582E+004  0.1043930E+01  0.7957747E-01            NaN
         13   -1    0    0    0    0  0.00000000000E+00  0.00000000000E+00  0.74505805969E-08  0.10566000000E+00  0.10566000000E+00 0.  1.
     999900   -1    0    0    0    0 -0.00000000000E+00 -0.00000000000E+00 -0.74505805969E-08  0.93827000000E+00  0.93827000000E+00 0.  1.
     999902    2    1    2    0    0  0.89086499476E-02  0.66415797433E-02 -0.70530218734E-02  0.10307687028E+01  0.10306846749E+01 0.  0.
     999903    2    3    3    0    0  0.31812343245E-01  0.16309313516E-01 -0.12969612007E+00  0.14191586138E+00  0.45177530455E-01 0.  0.
         14    1    1    2    0    0 -0.89086499476E-02 -0.66415797433E-02  0.70530218734E-02  0.13161297160E-01  0.00000000000E+00 0.  1.
     999901    1    3    3    0    0 -0.22903693297E-01 -0.96677337730E-02  0.12264309820E+00  0.88885284146E+00  0.88000000000E+00 0. -1.
        -11    1    4    4    0    0  0.54833028999E-02 -0.11628390488E-01 -0.68319635776E-01  0.69520643190E-01  0.51100000000E-03 0.  1.
         11    1    4    4    0    0  0.26329040345E-01  0.27937704004E-01 -0.61376484298E-01  0.72395218186E-01  0.51100000000E-03 0. -1.
</event>
<event>
 8    1  0.2183582E+004  0.1043930E+01  0.7957747E-01            NaN
         13   -1    0    0    0    0  0.00000000000E+00  0.00000000000E+00  0.74505805969E-08  0.10566000000E+00  0.10566000000E+00 0.  1.
     999900   -1    0    0    0    0 -0.00000000000E+00 -0.00000000000E+00 -0.74505805969E-08  0.93827000000E+00  0.93827000000E+00 0.  1.
     999902    2    1    2    0    0 -0.10058165829E-01 -0.74466563087E-02 -0.11097034271E-02  0.10313661299E+01  0.10312896019E+01 0.  0.
     999903    2    3    3    0    0  0.16950313211E-01 -0.11288812428E+00  0.71184828689E-01  0.14171796322E+00  0.44560739931E-01 0.  0.
         14    1    1    2    0    0  0.10058165829E-01  0.74466563087E-02  0.11097034271E-02  0.12563870093E-01  0.00000000000E+00 0. -1.
     999901    1    3    3    0    0 -0.27008479039E-01  0.10544146797E+00 -0.72294532117E-01  0.88964816668E+00  0.88000000000E+00 0.  1.
        -11    1    4    4    0    0  0.15432912252E-01 -0.15563230412E-01  0.14375606585E-02  0.21970812982E-01  0.51100000000E-03 0. -1.
         11    1    4    4    0    0  0.15174009585E-02 -0.97324893869E-01  0.69747268031E-01  0.11974715024E+00  0.51100000000E-03 0.  1.
</event>
<event>
 8    1  0.2183582E+004  0.1043930E+01  0.7957747E-01            NaN
         13   -1    0    0    0    0  0.00000000000E+00  0.00000000000E+00  0.74505805969E-08  0.10566000000E+00  0.10566000000E+00 0. -1.
     999900   -1    0    0    0    0 -0.00000000000E+00 -0.00000000000E+00 -0.74505805969E-08  0.93827000000E+00  0.93827000000E+00 0.  1.
     999902    2    1    2    0    0 -0.28174214412E-02  0.10724340645E-01  0.85530215688E-02  0.10299263032E+01  0.10298310961E+01 0.  0.
     999903    2    3    3    0    0 -0.10330385872E+00  0.42698945019E-01 -0.71576524839E-01  0.14001583377E+00  0.44568460444E-01 0.  0.
         14    1    1    2    0    0  0.28174214412E-02 -0.10724340645E-01 -0.85530215688E-02  0.14003696791E-01  0.00000000000E+00 0.  1.
     999901    1    3    3    0    0  0.10048643728E+00 -0.31974604374E-01  0.80129546407E-01  0.88991046944E+00  0.88000000000E+00 0. -1.
        -11    1    4    4    0    0 -0.97709420997E-01  0.49125935301E-01 -0.57516322037E-01  0.12356729702E+00  0.51100000000E-03 0.  1.
         11    1    4    4    0    0 -0.55944377276E-02 -0.64269902826E-02 -0.14060202801E-01  0.16448536755E-01  0.51100000000E-03 0. -1.
</event>
<event>
 8    1  0.2183582E+004  0.1043930E+01  0.7957747E-01            NaN
         13   -1    0    0    0    0  0.00000000000E+00  0.00000000000E+00  0.74505805969E-08  0.10566000000E+00  0.10566000000E+00 0. -1.
     999900   -1    0    0    0    0 -0.00000000000E+00 -0.00000000000E+00 -0.74505805969E-08  0.93827000000E+00  0.93827000000E+00 0. -1.
     999902    2    1    2    0    0  0.12492016174E-01 -0.37383950021E-02 -0.42518905439E-02  0.10302148756E+01  0.10301235776E+01 0.  0.
     999903    2    3    3    0    0  0.12481353158E+00  0.49745934490E-01 -0.70865171650E-02  0.14146027983E+00  0.43677412694E-01 0.  0.
         14    1    1    2    0    0 -0.12492016174E-01  0.37383950021E-02  0.42518905439E-02  0.13715124443E-01  0.00000000000E+00 0. -1.
     999901    1    3    3    0    0 -0.11232151541E+00 -0.53484329492E-01  0.28346266212E-02  0.88875459573E+00  0.88000000000E+00 0. -1.
        -11    1    4    4    0    0  0.38245996248E-01 -0.33942120429E-02 -0.10552386800E-01  0.39823245631E-01  0.51100000000E-03 0. -1.
         11    1    4    4    0    0  0.86567535331E-01  0.53140146533E-01  0.34658696350E-02  0.10163703420E+00  0.51100000000E-03 0.  1.
</event>
<event>
 8    1  0.2183582E+004  0.1043930E+01  0.7957747E-01            NaN
         13   -1    0    0    0    0  0.00000000000E+00  0.00000000000E+00  0.74505805969E-08  0.10566000000E+00  0.10566000000E+00 0. -1.
     999900   -1    0    0    0    0 -0.00000000000E+00 -0.00000000000E+00 -0.74505805969E-08  0.93827000000E+00  0.93827000000E+00 0.  1.
     999902    2    1    2    0    0  0.12632841802E-01  0.37308280275E-02 -0.40390743663E-02  0.10301524134E+01  0.10300602764E+01 0.  0.
     999903    2    3    3    0    0  0.11288844587E+00 -0.55786308692E-01  0.44454039796E-01  0.14113888270E+00  0.45695832503E-01 0.  0.
         14    1    1    2    0    0 -0.12632841802E-01 -0.37308280275E-02  0.40390743663E-02  0.13777586563E-01  0.00000000000E+00 0. -1.
     999901    1    3    3    0    0 -0.10025560406E+00  0.59517136719E-01 -0.48493114162E-01  0.88901353074E+00  0.88000000000E+00 0. -1.
        -11    1    4    4    0    0  0.67811167018E-01 -0.94233197656E-02  0.15040443505E-01  0.70097285180E-01  0.51100000000E-03 0.  1.
         11    1    4    4    0    0  0.45077278849E-01 -0.46362988926E-01  0.29413596291E-01  0.71041597521E-01  0.51100000000E-03 0. -1.
</event>
<event>
 8    1  0.2183582E+004  0.1043930E+01  0.7957747E-01            NaN
         13   -1    0    0    0    0  0.00000000000E+00  0.00000000000E+00  0.74505805969E-08  0.10566000000E+00  0.10566000000E+00 0. -1.
     999900   -1    0    0    0    0 -0.00000000000E+00 -0.00000000000E+00 -0.74505805969E-08  0.93827000000E+00  0.93827000000E+00 0.  1.
     999902    2    1    2    0    0  0.44185798087E-02 -0.10625104302E-01 -0.11745712120E-01  0.10274868117E+01  0.10273552305E+01 0.  0.
     999903    2    3    3    0    0 -0.12633608504E+00 -0.24258349299E-01 -0.18837531069E-01  0.13769304813E+00  0.45334854510E-01 0.  0.
         14    1    1    2    0    0 -0.44185798087E-02  0.10625104302E-01  0.11745712120E-01  0.16443188321E-01  0.00000000000E+00 0. -1.
     999901    1    3    3    0    0  0.13075466485E+00  0.13633244997E-01  0.70918189495E-02  0.88979376355E+00  0.88000000000E+00 0.  1.
        -11    1    4    4    0    0 -0.85764882685E-01 -0.17558988099E-01  0.90399328209E-02  0.88010878143E-01  0.51100000000E-03 0. -1.
         11    1    4    4    0    0 -0.40571202355E-01 -0.66993612005E-02 -0.27877463890E-01  0.49682169991E-01  0.51100000000E-03 0.  1.
</event>
<event>
 8    1  0.2183582E+004  0.1043930E+01  0.7957747E-01            NaN
         13   -1    0    0    0    0  0.00000000000E+00  0.00000000000E+00  0.74505805969E-08  0.10566000000E+00  0.10566000000E+00 0.  1.
     999900   -1    0    0    0    0 -0.00000000000E+00 -0.00000000000E+00 -0.74505805969E-08  0.93827000000E+00  0.93827000000E+00 0. -1.
     999902    2    1    2    0    0 -0.96864785632E-02 -0.62581813869E-02  0.71813660216E-02  0.10303445402E+01  0.10302549717E+01 0.  0.
     999903    2    3    3    0    0 -0.55167926598E-02 -0.34463928795E-01 -0.12747098799E+00  0.13964582178E+00  0.45098840032E-01 0.  0.
         14    1    1    2    0    0  0.96864785632E-02  0.62581813869E-02 -0.71813660216E-02  0.13585459844E-01  0.00000000000E+00 0.  1.
     999901    1    3    3    0    0 -0.41696859034E-02  0.28205747408E-01  0.13465235402E+00  0.89069871837E+00  0.88000000000E+00 0.  1.
        -11    1    4    4    0    0 -0.22019038135E-01 -0.41049362004E-02 -0.53423807245E-01  0.57931449517E-01  0.51100000000E-03 0. -1.
         11    1    4    4    0    0  0.16502245475E-01 -0.30358992594E-01 -0.74047180750E-01  0.81714372267E-01  0.51100000000E-03 0.  1.
</event>
<event>
 8    1  0.2183582E+004  0.1043930E+01  0.7957747E-01            NaN
         13   -1    0    0    0    0  0.00000000000E+00  0.00000000000E+00  0.74505805969E-08  0.10566000000E+00  0.10566000000E+00 0. -1.
     999900   -1    0    0    0    0 -0.00000000000E+00 -0.00000000000E+00 -0.74505805969E-08  0.93827000000E+00  0.93827000000E+00 0.  1.
     999902    2    1    2    0    0 -0.94778175198E-02 -0.90570822020E-02 -0.33342092897E-02  0.10304031114E+01  0.10303143187E+01 0.  0.
     999903    2    3    3    0    0  0.62693096723E-01 -0.30637458735E-02  0.11526581481E+00  0.13949878061E+00  0.47264054130E-01 0.  0.
         14    1    1    2    0    0  0.94778175198E-02  0.90570822020E-02  0.33342092897E-02  0.13526888576E-01  0.00000000000E+00 0. -1.
     999901    1    3    3    0    0 -0.72170914243E-01 -0.59933363285E-02 -0.11860002410E+00  0.89090433081E+00  0.88000000000E+00 0.  1.
        -11    1    4    4    0    0  0.17259862261E-01  0.17824303290E-01  0.60200489900E-01  0.65115042335E-01  0.51100000000E-03 0. -1.
         11    1    4    4    0    0  0.45433234463E-01 -0.20888049164E-01  0.55065324910E-01  0.74383738277E-01  0.51100000000E-03 0.  1.
</event>
<event>
 8    1  0.2183582E+004  0.1043930E+01  0.7957747E-01            NaN
         13   -1    0    0    0    0  0.00000000000E+00  0.00000000000E+00  0.74505805969E-08  0.10566000000E+00  0.10566000000E+00 0. -1.
     999900   -1    0    0    0    0 -0.00000000000E+00 -0.00000000000E+00 -0.74505805969E-08  0.93827000000E+00  0.93827000000E+00 0.  1.
     999902    2    1    2    0    0 -0.12050166361E-01 -0.69538900853E-02 -0.39610697760E-02  0.10294644143E+01  0.10293627772E+01 0.  0.
     999903    2    3    3    0    0  0.12200103358E+00  0.84014679252E-02  0.45279069774E-01  0.13781980874E+00  0.44601218185E-01 0.  0.
         14    1    1    2    0    0  0.12050166361E-01  0.69538900853E-02  0.39610697760E-02  0.14465585727E-01  0.00000000000E+00 0. -1.
     999901    1    3    3    0    0 -0.13405119995E+00 -0.15355358011E-01 -0.49240139550E-01  0.89164460553E+00  0.88000000000E+00 0.  1.
        -11    1    4    4    0    0  0.34213091926E-01  0.55269430663E-02 -0.73389758776E-02  0.35428864598E-01  0.51100000000E-03 0.  1.
         11    1    4    4    0    0  0.87787941659E-01  0.28745248589E-02  0.52618045652E-01  0.10239094415E+00  0.51100000000E-03 0. -1.
</event>
<event>
 8    1  0.2183582E+004  0.1043930E+01  0.7957747E-01            NaN
         13   -1    0    0    0    0  0.00000000000E+00  0.00000000000E+00  0.74505805969E-08  0.10566000000E+00  0.10566000000E+00 0. -1.
     999900   -1    0    0    0    0 -0.00000000000E+00 -0.00000000000E+00 -0.74505805969E-08  0.93827000000E+00  0.93827000000E+00 0.  1.
     999902    2    1    2    0    0  0.50032959555E-02  0.11660808328E-01  0.35803036075E-02  0.10307456913E+01  0.10306613674E+01 0.  0.
     999903    2    3    3    0    0 -0.35732518478E-01  0.12765666666E+00  0.23324386205E-01  0.14198010101E+00  0.45180578495E-01 0.  0.
         14    1    1    2    0    0 -0.50032959555E-02 -0.11660808328E-01 -0.35803036075E-02  0.13184308674E-01  0.00000000000E+00 0.  1.
     999901    1    3    3    0    0  0.40735814434E-01 -0.11599585833E+00 -0.19744082597E-01  0.88876559031E+00  0.88000000000E+00 0.  1.
        -11    1    4    4    0    0 -0.16830414587E-01  0.58531594620E-01  0.33637816703E-01  0.69577110155E-01  0.51100000000E-03 0.  1.
         11    1    4    4    0    0 -0.18902103891E-01  0.69125072036E-01 -0.10313430498E-01  0.72402990858E-01  0.51100000000E-03 0. -1.
</event>
<event>
 8    1  0.2183582E+004  0.1043930E+01  0.7957747E-01            NaN
         13   -1    0    0    0    0  0.00000000000E+00  0.00000000000E+00  0.74505805969E-08  0.10566000000E+00  0.10566000000E+00 0. -1.
     999900   -1    0    0    0    0 -0.00000000000E+00 -0.00000000000E+00 -0.74505805969E-08  0.93827000000E+00  0.93827000000E+00 0.  1.
     999902    2    1    2    0    0  0.12572968050E-02 -0.12400239797E-01  0.62646075979E-02  0.10299803745E+01  0.10298859062E+01 0.  0.
     999903    2    3    3    0    0 -0.12688689055E+00  0.34397604437E-01  0.39092905802E-02  0.13946562536E+00  0.46388575305E-01 0.  0.
         14    1    1    2    0    0 -0.12572968050E-02  0.12400239797E-01 -0.62646075979E-02  0.13949625466E-01  0.00000000000E+00 0.  1.
     999901    1    3    3    0    0  0.12814418736E+00 -0.46797844235E-01  0.23553170176E-02  0.89051474917E+00  0.88000000000E+00 0.  1.
        -11    1    4    4    0    0 -0.86656398053E-01  0.28016163105E-03  0.26376119072E-02  0.86698488635E-01  0.51100000000E-03 0. -1.
         11    1    4    4    0    0 -0.40230492500E-01  0.34117442806E-01  0.12716786731E-02  0.52767136724E-01  0.51100000000E-03 0.  1.
</event>
<event>
 8    1  0.2183582E+004  0.1043930E+01  0.7957747E-01            NaN
         13   -1    0    0    0    0  0.00000000000E+00  0.00000000000E+00  0.74505805969E-08  0.10566000000E+00  0.10566000000E+00 0.  1.
     999900   -1    0    0    0    0 -0.00000000000E+00 -0.00000000000E+00 -0.74505805969E-08  0.93827000000E+00  0.93827000000E+00 0. -1.
     999902    2    1    2    0    0  0.41156189653E-02  0.12005781217E-01  0.60310379446E-02  0.10298782912E+01  0.10297824256E+01 0.  0.
     999903    2    3    3    0    0  0.93993142070E-01 -0.87638022961E-01  0.14073763883E-01  0.13966958401E+00  0.52861971627E-01 0.  0.
         14    1    1    2    0    0 -0.41156189653E-02 -0.12005781217E-01 -0.60310379446E-02  0.14051708821E-01  0.00000000000E+00 0. -1.
     999901    1    3    3    0    0 -0.89877523105E-01  0.99643804178E-01 -0.80427259380E-02  0.89020870716E+00  0.88000000000E+00 0.  1.
        -11    1    4    4    0    0  0.87045628081E-01 -0.79342827650E-01  0.28931033086E-01  0.12128269235E+00  0.51100000000E-03 0.  1.
         11    1    4    4    0    0  0.69475139895E-02 -0.82951953103E-02 -0.14857269203E-01  0.18386891663E-01  0.51100000000E-03 0. -1.
</event>
<event>
 8    1  0.2183582E+004  0.1043930E+01  0.7957747E-01            NaN
         13   -1    0    0    0    0  0.00000000000E+00  0.00000000000E+00  0.74505805969E-08  0.10566000000E+00  0.10566000000E+00 0. -1.
     999900   -1    0    0    0    0 -0.00000000000E+00 -0.00000000000E+00 -0.74505805969E-08  0.93827000000E+00  0.93827000000E+00 0.  1.
     999902    2    1    2    0    0 -0.70791368886E-02  0.86036234570E-02 -0.14243105195E-01  0.10258467879E+01  0.10256873937E+01 0.  0.
     999903    2    3    3    0    0 -0.52161259953E-01 -0.10249856034E+00  0.54810637196E-01  0.13503563369E+00  0.44762311181E-01 0.  0.
         14    1    1    2    0    0  0.70791368886E-02 -0.86036234570E-02  0.14243105195E-01  0.18083212139E-01  0.00000000000E+00 0.  1.
     999901    1    3    3    0    0  0.45082123064E-01  0.11110218380E+00 -0.69053742391E-01  0.89081115418E+00  0.88000000000E+00 0.  1.
        -11    1    4    4    0    0 -0.28087423974E-01 -0.81048512284E-01  0.56548335904E-01  0.10274113170E+00  0.51100000000E-03 0. -1.
         11    1    4    4    0    0 -0.24073835978E-01 -0.21450048061E-01 -0.17376987076E-02  0.32294501983E-01  0.51100000000E-03 0.  1.
</event>
<event>
 8    1  0.2183582E+004  0.1043930E+01  0.7957747E-01            NaN
         13   -1    0    0    0    0  0.00000000000E+00  0.00000000000E+00  0.74505805969E-08  0.10566000000E+00  0.10566000000E+00 0.  1.
     999900   -1    0    0    0    0 -0.00000000000E+00 -0.00000000000E+00 -0.74505805969E-08  0.93827000000E+00  0.93827000000E+00 0. -1.
     999902    2    1    2    0    0  0.45267357231E-02  0.98253712667E-02  0.98209430528E-02  0.10293190391E+01  0.10292153341E+01 0.  0.
     999903    2    3    3    0    0 -0.43259195826E-01 -0.10571683481E+00 -0.58984880795E-01  0.13782156962E+00  0.49680596851E-01 0.  0.
         14    1    1    2    0    0 -0.45267357231E-02 -0.98253712667E-02 -0.98209430528E-02  0.14610960929E-01  0.00000000000E+00 0. -1.
     999901    1    3    3    0    0  0.47785931549E-01  0.11554220608E+00  0.68805823848E-01  0.89149746945E+00  0.88000000000E+00 0. -1.
        -11    1    4    4    0    0  0.71592189185E-02 -0.44488880088E-01 -0.17827094985E-01  0.48462163629E-01  0.51100000000E-03 0. -1.
         11    1    4    4    0    0 -0.50418414744E-01 -0.61227954727E-01 -0.41157785811E-01  0.89359405991E-01  0.51100000000E-03 0.  1.
</event>
<event>
 8    1  0.2183582E+004  0.1043930E+01  0.7957747E-01            NaN
         13   -1    0    0    0    0  0.00000000000E+00  0.00000000000E+00  0.74505805969E-08  0.10566000000E+00  0.10566000000E+00 0.  1.
     999900   -1    0    0    0    0 -0.00000000000E+00 -0.00000000000E+00 -0.74505805969E-08  0.93827000000E+00  0.93827000000E+00 0. -1.
     999902    2    1    2    0    0 -0.77988883475E-02  0.10599891616E-01 -0.40612197714E-02  0.10301577864E+01  0.10300657217E+01 0.  0.
     999903    2    3    3    0    0 -0.34093252102E-01  0.52126151067E-01  0.11736735879E+00  0.14046080231E+00  0.45548376600E-01 0.  0.
         14    1    1    2    0    0  0.77988883475E-02 -0.10599891616E-01  0.40612197714E-02  0.13772213611E-01  0.00000000000E+00 0.  1.
     999901    1    3    3    0    0  0.26294363754E-01 -0.41526259452E-01 -0.12142857857E+00  0.88969698408E+00  0.88000000000E+00 0. -1.
        -11    1    4    4    0    0 -0.21039343094E-01  0.44447770426E-01  0.45449969692E-01  0.66964312284E-01  0.51100000000E-03 0.  1.
         11    1    4    4    0    0 -0.13053909008E-01  0.76783806411E-02  0.71917389102E-01  0.73496490025E-01  0.51100000000E-03 0. -1.
</event>
<event>
 8    1  0.2183582E+004  0.1043930E+01  0.7957747E-01            NaN
         13   -1    0    0    0    0  0.00000000000E+00  0.00000000000E+00  0.74505805969E-08  0.10566000000E+00  0.10566000000E+00 0. -1.
     999900   -1    0    0    0    0 -0.00000000000E+00 -0.00000000000E+00 -0.74505805969E-08  0.93827000000E+00  0.93827000000E+00 0.  1.
     999902    2    1    2    0    0 -0.11829269463E-01 -0.54741876187E-02  0.36143571250E-02  0.10304036582E+01  0.10303148727E+01 0.  0.
     999903    2    3    3    0    0  0.10252442144E+00  0.52715862895E-01 -0.62597233038E-01  0.13863753228E+00  0.44852341964E-01 0.  0.
         14    1    1    2    0    0  0.11829269463E-01  0.54741876187E-02 -0.36143571250E-02  0.13526341838E-01  0.00000000000E+00 0.  1.
     999901    1    3    3    0    0 -0.11435369090E+00 -0.58190050513E-01  0.66211590163E-01  0.89176612588E+00  0.88000000000E+00 0. -1.
        -11    1    4    4    0    0  0.55310855890E-01  0.24856953707E-01 -0.57517251331E-01  0.83580226421E-01  0.51100000000E-03 0. -1.
         11    1    4    4    0    0  0.47213565550E-01  0.27858909188E-01 -0.50799817073E-02  0.55057305857E-01  0.51100000000E-03 0.  1.
</event>
<event>
 8    1  0.2183582E+004  0.1043930E+01  0.7957747E-01            NaN
         13   -1    0    0    0    0  0.00000000000E+00  0.00000000000E+00  0.74505805969E-08  0.10566000000E+00  0.10566000000E+00 0. -1.
     999900   -1    0    0    0    0 -0.00000000000E+00 -0.00000000000E+00 -0.74505805969E-08  0.93827000000E+00  0.93827000000E+00 0. -1.
     999902    2    1    2    0    0  0.45820828649E-02  0.12662977334E-01 -0.12397076535E-02  0.10304065628E+01  0.10303178157E+01 0.  0.
     999903    2    3    3    0    0  0.39563754335E-02  0.43833260427E-01  0.12588139371E+00  0.14072586027E+00  0.44951472065E-01 0.  0.
         14    1    1    2    0    0 -0.45820828649E-02 -0.12662977334E-01  0.12397076535E-02  0.13523437189E-01  0.00000000000E+00 0. -1.
     999901    1    3    3    0    0  0.62570743141E-03 -0.31170283093E-01 -0.12712110136E+00  0.88968070254E+00  0.88000000000E+00 0. -1.
        -11    1    4    4    0    0 -0.13694925366E-01  0.17417123720E-01  0.18904920991E-01  0.29130127671E-01  0.51100000000E-03 0.  1.
         11    1    4    4    0    0  0.17651300800E-01  0.26416136707E-01  0.10697647272E+00  0.11159573260E+00  0.51100000000E-03 0. -1.
</event>
<event>
 8    1  0.2183582E+004  0.1043930E+01  0.7957747E-01            NaN
         13   -1    0    0    0    0  0.00000000000E+00  0.00000000000E+00  0.74505805969E-08  0.10566000000E+00  0.10566000000E+00 0.  1.
     999900   -1    0    0    0    0 -0.00000000000E+00 -0.00000000000E+00 -0.74505805969E-08  0.93827000000E+00  0.93827000000E+00 0. -1.
     999902    2    1    2    0    0  0.89674899111E-02 -0.67578882352E-02  0.75453121564E-02  0.10304016348E+01  0.10303128226E+01 0.  0.
     999903    2    3    3    0    0  0.73561846758E-01  0.10152404167E-01 -0.10983430805E+00  0.14010035764E+00  0.45278232919E-01 0.  0.
         14    1    1    2    0    0 -0.89674899111E-02  0.67578882352E-02 -0.75453121564E-02  0.13528365173E-01  0.00000000000E+00 0. -1.
     999901    1    3    3    0    0 -0.64594356847E-01 -0.16910292402E-01  0.11737962021E+00  0.89030127719E+00  0.88000000000E+00 0.  1.
        -11    1    4    4    0    0  0.57303207262E-01  0.21491077707E-01 -0.10164220199E+00  0.11864620656E+00  0.51100000000E-03 0. -1.
         11    1    4    4    0    0  0.16258639496E-01 -0.11338673540E-01 -0.81921060595E-02  0.21454151081E-01  0.51100000000E-03 0.  1.
</event>
<event>
 8    1  0.2183582E+004  0.1043930E+01  0.7957747E-01            NaN
         13   -1    0    0    0    0  0.00000000000E+00  0.00000000000E+00  0.74505805969E-08  0.10566000000E+00  0.10566000000E+00 0. -1.
     999900   -1    0    0    0    0 -0.00000000000E+00 -0.00000000000E+00 -0.74505805969E-08  0.93827000000E+00  0.93827000000E+00 0.  1.
     999902    2    1    2    0    0  0.54497940659E-02  0.12912607768E-01 -0.33263139879E-02  0.10295251376E+01  0.10294243581E+01 0.  0.
     999903    2    3    3    0    0  0.28182377271E-01  0.12508748879E+00  0.38019863905E-01  0.14115050907E+00  0.45131252125E-01 0.  0.
         14    1    1    2    0    0 -0.54497940659E-02 -0.12912607768E-01  0.33263139879E-02  0.14404862356E-01  0.00000000000E+00 0.  1.
     999901    1    3    3    0    0 -0.22732583205E-01 -0.11217488102E+00 -0.41346177893E-01  0.88837462858E+00  0.88000000000E+00 0.  1.
        -11    1    4    4    0    0  0.28556141302E-01  0.10765830667E+00  0.47742101022E-01  0.12118305794E+00  0.51100000000E-03 0. -1.
         11    1    4    4    0    0 -0.37376403070E-03  0.17429182119E-01 -0.97222371171E-02  0.19967451125E-01  0.51100000000E-03 0.  1.
</event>
<event>
 8    1  0.2183582E+004  0.1043930E+01  0.7957747E-01            NaN
         13   -1    0    0    0    0  0.00000000000E+00  0.00000000000E+00  0.74505805969E-08  0.10566000000E+00  0.10566000000E+00 0. -1.
     999900   -1    0    0    0    0 -0.00000000000E+00 -0.00000000000E+00 -0.74505805969E-08  0.93827000000E+00  0.93827000000E+00 0.  1.
     999902    2    1    2    0    0 -0.10137835159E-01 -0.59392009341E-02  0.58899525334E-02  0.10307868896E+01  0.10307030952E+01 0.  0.
     999903    2    3    3    0    0  0.87604743573E-01  0.92214401962E-01  0.35049687741E-01  0.13947435655E+00  0.45238573133E-01 0.  0.
         14    1    1    2    0    0  0.10137835159E-01  0.59392009341E-02 -0.58899525334E-02  0.13143110373E-01  0.00000000000E+00 0.  1.
     999901    1    3    3    0    0 -0.97742578732E-01 -0.98153602896E-01 -0.29159735207E-01  0.89131253307E+00  0.88000000000E+00 0. -1.
        -11    1    4    4    0    0  0.69491599940E-01  0.45355579935E-01  0.32649791304E-01  0.89176684658E-01  0.51100000000E-03 0.  1.
         11    1    4    4    0    0  0.18113143634E-01  0.46858822026E-01  0.23998964365E-02  0.50297671894E-01  0.51100000000E-03 0. -1.
</event>
<event>
 7    1  0.2234114E+004  0.1043930E+01  0.7957747E-01            NaN
         13   -1    0    0    0    0  0.00000000000E+00  0.00000000000E+00  0.74505805969E-08  0.10566000000E+00  0.10566000000E+00 0.  1.
     999900   -1    0    0    0    0 -0.00000000000E+00 -0.00000000000E+00 -0.74505805969E-08  0.93827000000E+00  0.93827000000E+00 0.  1.
     999903    2    1    2    0    0 -0.77599434098E-01 -0.62800921717E-01 -0.27290274067E-01  0.11298141994E+00  0.45325646737E-01 0.  0.
         14    1    1    2    0    0 -0.34177714453E-01 -0.18936410864E-01  0.81536056372E-02  0.39914722929E-01  0.00000000000E+00 0.  1.
     999901    1    1    2    0    0  0.11177714855E+00  0.81737332581E-01  0.19136668429E-01  0.89103385713E+00  0.88000000000E+00 0.  1.
        -11    1    3    3    0    0 -0.49850169645E-01 -0.21812218423E-01  0.37640080628E-02  0.54545771274E-01  0.51100000000E-03 0.  1.
         11    1    3    3    0    0 -0.27749264453E-01 -0.40988703294E-01 -0.31054282129E-01  0.58435648666E-01  0.51100000000E-03 0. -1.
</event>
<event>
 8    1  0.2183582E+004  0.1043930E+01  0.7957747E-01            NaN
         13   -1    0    0    0    0  0.00000000000E+00  0.00000000000E+00  0.74505805969E-08  0.10566000000E+00  0.10566000000E+00 0.  1.
     999900   -1    0    0    0    0 -0.00000000000E+00 -0.00000000000E+00 -0.74505805969E-08  0.93827000000E+00  0.93827000000E+00 0.  1.
     999902    2    1    2    0    0  0.13266543899E-01 -0.31374169063E-02  0.30257291271E-02  0.10299657740E+01  0.10298711065E+01 0.  0.
     999903    2    3    3    0    0  0.11142950364E+00 -0.52573252471E-01 -0.53338783877E-01  0.14133940320E+00  0.44173746446E-01 0.  0.
         14    1    1    2    0    0 -0.13266543899E-01  0.31374169063E-02 -0.30257291271E-02  0.13964226030E-01  0.00000000000E+00 0. -1.
     999901    1    3    3    0    0 -0.98162959739E-01  0.49435835565E-01  0.56364513004E-01  0.88862637077E+00  0.88000000000E+00 0. -1.
        -11    1    4    4    0    0  0.49388189140E-01 -0.23054206224E-01 -0.47647381423E-01  0.72396296374E-01  0.51100000000E-03 0. -1.
         11    1    4    4    0    0  0.62041314497E-01 -0.29519046247E-01 -0.56914024534E-02  0.68943106826E-01  0.51100000000E-03 0.  1.
</event>
<event>
 8    1  0.2183582E+004  0.1043930E+01  0.7957747E-01            NaN
         13   -1    0    0    0    0  0.00000000000E+00  0.00000000000E+00  0.74505805969E-08  0.10566000000E+00  0.10566000000E+00 0. -1.
     999900   -1    0    0    0    0 -0.00000000000E+00 -0.00000000000E+00 -0.74505805969E-08  0.93827000000E+00  0.93827000000E+00 0. -1.
     999902    2    1    2    0    0  0.55810985781E-02 -0.73752093474E-02  0.96317770416E-02  0.10305765921E+01  0.10304900769E+01 0.  0.
     999903    2    3    3    0    0 -0.11217443456E+00  0.77280079860E-02  0.72017300686E-01  0.14041569296E+00  0.43442483283E-01 0.  0.
         14    1    1    2    0    0 -0.55810985781E-02  0.73752093474E-02 -0.96317770416E-02  0.13353407926E-01  0.00000000000E+00 0.  1.
     999901    1    3    3    0    0  0.11775553314E+00 -0.15103217333E-01 -0.62385523645E-01  0.89016089912E+00  0.88000000000E+00 0. -1.
        -11    1    4    4    0    0 -0.21411200953E-01 -0.12359724103E-02 -0.38308102141E-02  0.21792278035E-01  0.51100000000E-03 0.  1.
         11    1    4    4    0    0 -0.90763233607E-01  0.89639803962E-02  0.75848110900E-01  0.11862341492E+00  0.51100000000E-03 0. -1.
</event>
<event>
 8    1  0.2183582E+004  0.1043930E+01  0.7957747E-01            NaN
         13   -1    0    0    0    0  0.00000000000E+00  0.00000000000E+00  0.74505805969E-08  0.10566000000E+00  0.10566000000E+00 0.  1.
     999900   -1    0    0    0    0 -0.00000000000E+00 -0.00000000000E+00 -0.74505805969E-08  0.93827000000E+00  0.93827000000E+00 0.  1.
     999902    2    1    2    0    0 -0.51347139750E-02  0.23239773551E-02 -0.12982601226E-01  0.10297767639E+01  0.10296794983E+01 0.  0.
     999903    2    3    3    0    0  0.45613102266E-01  0.29344896516E-01  0.11903696816E+00  0.13807354103E+00  0.44190778372E-01 0.  0.
         14    1    1    2    0    0  0.51347139750E-02 -0.23239773551E-02  0.12982601226E-01  0.14153236129E-01  0.00000000000E+00 0.  1.
     999901    1    3    3    0    0 -0.50747816241E-01 -0.27020919161E-01 -0.13201956939E+00  0.89170322284E+00  0.88000000000E+00 0.  1.
        -11    1    4    4    0    0  0.32788383710E-01  0.16000713512E-01  0.30308235355E-01  0.47433650403E-01  0.51100000000E-03 0.  1.
         11    1    4    4    0    0  0.12824718556E-01  0.13344183004E-01  0.88728732807E-01  0.90639890626E-01  0.51100000000E-03 0. -1.
</event>
<event>
 8    1  0.2183582E+004  0.1043930E+01  0.7957747E-01            NaN
         13   -1    0    0    0    0  0.00000000000E+00  0.00000000000E+00  0.74505805969E-08  0.10566000000E+00  0.10566000000E+00 0.  1.
     999900   -1    0    0    0    0 -0.00000000000E+00 -0.00000000000E+00 -0.74505805969E-08  0.93827000000E+00  0.93827000000E+00 0. -1.
     999902    2    1    2    0    0  0.13147862217E-01 -0.32107147354E-02 -0.65439800658E-02  0.10288967487E+01  0.10287869171E+01 0.  0.
     999903    2    3    3    0    0  0.15380598378E-01  0.69178454349E-01  0.10985711183E+00  0.13828213444E+00  0.45068196479E-01 0.  0.
         14    1    1    2    0    0 -0.13147862217E-01  0.32107147354E-02  0.65439800658E-02  0.15033251315E-01  0.00000000000E+00 0. -1.
     999901    1    3    3    0    0 -0.22327361608E-02 -0.72389169084E-01 -0.11640109189E+00  0.89061461424E+00  0.88000000000E+00 0. -1.
        -11    1    4    4    0    0 -0.14027920327E-02  0.52638424343E-01  0.44974721861E-01  0.69251413489E-01  0.51100000000E-03 0.  1.
         11    1    4    4    0    0  0.16783390411E-01  0.16540030006E-01  0.64882389967E-01  0.69030720951E-01  0.51100000000E-03 0. -1.
</event>
<event>
 8    1  0.2183582E+004  0.1043930E+01  0.7957747E-01            NaN
         13   -1    0    0    0    0  0.00000000000E+00  0.00000000000E+00  0.74505805969E-08  0.10566000000E+00  0.10566000000E+00 0. -1.
     999900   -1    0    0    0    0 -0.00000000000E+00 -0.00000000000E+00 -0.74505805969E-08  0.93827000000E+00  0.93827000000E+00 0. -1.
     999902    2    1    2    0    0  0.11631817050E-01 -0.51629821366E-02 -0.45949818465E-02  0.10303996855E+01  0.10303108475E+01 0.  0.
     999903    2    3    3    0    0  0.11516418503E+00  0.45964258562E-01  0.50116953865E-01  0.14117173841E+00  0.45191238999E-01 0.  0.
         14    1    1    2    0    0 -0.11631817050E-01  0.51629821366E-02  0.45949818465E-02  0.13530314504E-01  0.00000000000E+00 0. -1.
     999901    1    3    3    0    0 -0.10353236798E+00 -0.51127240698E-01 -0.54711935712E-01  0.88922794708E+00  0.88000000000E+00 0.  1.
        -11    1    4    4    0    0  0.15837826277E-01 -0.53578637177E-02 -0.36360581330E-02  0.17117987164E-01  0.51100000000E-03 0.  1.
         11    1    4    4    0    0  0.99326358757E-01  0.51322122279E-01  0.53753011998E-01  0.12405375125E+00  0.51100000000E-03 0. -1.
</event>
<event>
 8    1  0.2183582E+004  0.1043930E+01  0.7957747E-01            NaN
         13   -1    0    0    0    0  0.00000000000E+00  0.00000000000E+00  0.74505805969E-08  0.10566000000E+00  0.10566000000E+00 0.  1.
     999900   -1    0    0    0    0 -0.00000000000E+00 -0.00000000000E+00 -0.74505805969E-08  0.93827000000E+00  0.93827000000E+00 0.  1.
     999902    2    1    2    0    0  0.11721467233E-01  0.85566750203E-02 -0.72999826883E-03  0.10293992609E+01  0.10292966997E+01 0.  0.
     999903    2    3    3    0    0 -0.28093377375E-02 -0.83093811643E-01 -0.10190051072E+00  0.13875543276E+00  0.44236660418E-01 0.  0.
         14    1    1    2    0    0 -0.11721467233E-01 -0.85566750203E-02  0.72999826883E-03  0.14530739106E-01  0.00000000000E+00 0.  1.
     999901    1    3    3    0    0  0.14530804971E-01  0.91650486663E-01  0.10117051245E+00  0.89064382813E+00  0.88000000000E+00 0. -1.
        -11    1    4    4    0    0 -0.47606776728E-02 -0.63710854668E-01 -0.43770441401E-01  0.77445785656E-01  0.51100000000E-03 0.  1.
         11    1    4    4    0    0  0.19513399352E-02 -0.19382956974E-01 -0.58130069316E-01  0.61309647107E-01  0.51100000000E-03 0. -1.
</event>
<event>
 8    1  0.2183582E+004  0.1043930E+01  0.7957747E-01            NaN
         13   -1    0    0    0    0  0.00000000000E+00  0.00000000000E+00  0.74505805969E-08  0.10566000000E+00  0.10566000000E+00 0. -1.
     999900   -1    0    0    0    0 -0.00000000000E+00 -0.00000000000E+00 -0.74505805969E-08  0.93827000000E+00  0.93827000000E+00 0. -1.
     999902    2    1    2    0    0 -0.92125812748E-02 -0.49599384781E-02 -0.79903881844E-02  0.10307649346E+01  0.10306808582E+01 0.  0.
     999903    2    3    3    0    0 -0.81357206115E-01  0.10494546917E+00  0.50689056118E-03  0.14095807395E+00  0.47290328697E-01 0.  0.
         14    1    1    2    0    0  0.92125812748E-02  0.49599384781E-02  0.79903881844E-02  0.13165065392E-01  0.00000000000E+00 0. -1.
     999901    1    3    3    0    0  0.72144624841E-01 -0.10990540765E+00 -0.84972787455E-02  0.88980686066E+00  0.88000000000E+00 0.  1.
        -11    1    4    4    0    0 -0.50212055498E-01  0.95011089828E-01  0.67336488513E-02  0.10767525647E+00  0.51100000000E-03 0.  1.
         11    1    4    4    0    0 -0.31145150617E-01  0.99343793407E-02 -0.62267582902E-02  0.33282817484E-01  0.51100000000E-03 0. -1.
</event>
<event>
 8    1  0.2183582E+004  0.1043930E+01  0.7957747E-01            NaN
         13   -1    0    0    0    0  0.00000000000E+00  0.00000000000E+00  0.74505805969E-08  0.10566000000E+00  0.10566000000E+00 0. -1.
     999900   -1    0    0    0    0 -0.00000000000E+00 -0.00000000000E+00 -0.74505805969E-08  0.93827000000E+00  0.93827000000E+00 0.  1.
     999902    2    1    2    0    0  0.11073211864E-02 -0.47337327815E-03  0.27408861245E-01  0.10164946958E+01  0.10161243874E+01 0.  0.
     999903    2    3    3    0    0  0.19397063484E-01  0.83222544993E-01  0.87129874070E-01  0.13031970134E+00  0.45709643788E-01 0.  0.
         14    1    1    2    0    0 -0.11073211864E-02  0.47337327815E-03 -0.27408861245E-01  0.27435304213E-01  0.00000000000E+00 0.  1.
     999901    1    3    3    0    0 -0.18289742298E-01 -0.83695918271E-01 -0.59721012825E-01  0.88617499445E+00  0.88000000000E+00 0.  1.
        -11    1    4    4    0    0 -0.89016922150E-02  0.47883592450E-01  0.60945538762E-01  0.78017295302E-01  0.51100000000E-03 0.  1.
         11    1    4    4    0    0  0.28298755700E-01  0.35338952544E-01  0.26184335308E-01  0.52302406040E-01  0.51100000000E-03 0. -1.
</event>
<event>
 8    1  0.2183582E+004  0.1043930E+01  0.7957747E-01            NaN
         13   -1    0    0    0    0  0.00000000000E+00  0.00000000000E+00  0.74505805969E-08  0.10566000000E+00  0.10566000000E+00 0. -1.
     999900   -1    0    0    0    0 -0.00000000000E+00 -0.00000000000E+00 -0.74505805969E-08  0.93827000000E+00  0.93827000000E+00 0. -1.
     999902    2    1    2    0    0  0.13198603475E-01 -0.93901169878E-02 -0.65056002878E-03  0.10277188724E+01  0.10275910081E+01 0.  0.
     999903    2    3    3    0    0  0.11134907404E+00 -0.48121668641E-02  0.70313533642E-01  0.13941128201E+00  0.45494387550E-01 0.  0.
         14    1    1    2    0    0 -0.13198603475E-01  0.93901169878E-02  0.65056002878E-03  0.16211127632E-01  0.00000000000E+00 0. -1.
     999901    1    3    3    0    0 -0.98150470565E-01 -0.45779501237E-02 -0.70964093671E-01  0.88830759036E+00  0.88000000000E+00 0. -1.
        -11    1    4    4    0    0  0.42128098891E-01  0.19221286899E-01  0.35131131502E-01  0.58126518112E-01  0.51100000000E-03 0.  1.
         11    1    4    4    0    0  0.69220975149E-01 -0.24033453763E-01  0.35182402140E-01  0.81284763897E-01  0.51100000000E-03 0. -1.
</event>
<event>
 8    1  0.2183582E+004  0.1043930E+01  0.7957747E-01            NaN
         13   -1    0    0    0    0  0.00000000000E+00  0.00000000000E+00  0.74505805969E-08  0.10566000000E+00  0.10566000000E+00 0.  1.
     999900   -1    0    0    0    0 -0.00000000000E+00 -0.00000000000E+00 -0.74505805969E-08  0.93827000000E+00  0.93827000000E+00 0. -1.
     999902    2    1    2    0    0  0.13056609631E-01  0.33718042380E-02  0.11739413105E-02  0.10303940384E+01  0.10303051257E+01 0.  0.
     999903    2    3    3    0    0  0.76840754931E-01 -0.97439002520E-01 -0.49804735066E-01  0.14088290219E+00  0.44369129637E-01 0.  0.
         14    1    1    2    0    0 -0.13056609631E-01 -0.33718042380E-02 -0.11739413105E-02  0.13535961623E-01  0.00000000000E+00 0. -1.
     999901    1    3    3    0    0 -0.63784145300E-01  0.10081080676E+00  0.50978676377E-01  0.88951113618E+00  0.88000000000E+00 0.  1.
        -11    1    4    4    0    0  0.52106927823E-01 -0.76252243619E-01 -0.15625616275E-01  0.93669405833E-01  0.51100000000E-03 0.  1.
         11    1    4    4    0    0  0.24733827108E-01 -0.21186758901E-01 -0.34179118792E-01  0.47213496360E-01  0.51100000000E-03 0. -1.
</event>
<event>
 8    1  0.2183582E+004  0.1043930E+01  0.7957747E-01            NaN
         13   -1    0    0    0    0  0.00000000000E+00  0.00000000000E+00  0.74505805969E-08  0.10566000000E+00  0.10566000000E+00 0.  1.
     999900   -1    0    0    0    0 -0.00000000000E+00 -0.00000000000E+00 -0.74505805969E-08  0.93827000000E+00  0.93827000000E+00 0.  1.
     999902    2    1    2    0    0  0.13971509759E-01 -0.11603567456E-01  0.21225713000E-01  0.10159947757E+01  0.10156106575E+01 0.  0.
     999903    2    3    3    0    0 -0.91168339257E-01 -0.36566794963E-02 -0.72325923782E-01  0.12477681719E+00  0.44868446255E-01 0.  0.
         14    1    1    2    0    0 -0.13971509759E-01  0.11603567456E-01 -0.21225713000E-01  0.27935224270E-01  0.00000000000E+00 0. -1.
     999901    1    3    3    0    0  0.10513984902E+00 -0.79468879600E-02  0.93551636782E-01  0.89121795854E+00  0.88000000000E+00 0. -1.
        -11    1    4    4    0    0 -0.20141828281E-01  0.10964877504E-01 -0.38367828220E-01  0.44702048594E-01  0.51100000000E-03 0. -1.
         11    1    4    4    0    0 -0.71026510976E-01 -0.14621557000E-01 -0.33958095563E-01  0.80074768597E-01  0.51100000000E-03 0.  1.
</event>
<event>
 8    1  0.2183582E+004  0.1043930E+01  0.7957747E-01            NaN
         13   -1    0    0    0    0  0.00000000000E+00  0.00000000000E+00  0.74505805969E-08  0.10566000000E+00  0.10566000000E+00 0. -1.
     999900   -1    0    0    0    0 -0.00000000000E+00 -0.00000000000E+00 -0.74505805969E-08  0.93827000000E+00  0.93827000000E+00 0. -1.
     999902    2    1    2    0    0  0.87221412426E-02  0.10172347593E-01  0.11246237455E-02  0.10304831720E+01  0.10303954341E+01 0.  0.
     999903    2    3    3    0    0  0.10290690670E+00 -0.56643320507E-01 -0.63093416401E-01  0.14061854177E+00  0.44659801724E-01 0.  0.
         14    1    1    2    0    0 -0.87221412426E-02 -0.10172347593E-01 -0.11246237455E-02  0.13446827952E-01  0.00000000000E+00 0.  1.
     999901    1    3    3    0    0 -0.94184765459E-01  0.66815668100E-01  0.64218040147E-01  0.88986463028E+00  0.88000000000E+00 0.  1.
        -11    1    4    4    0    0  0.36108735028E-01 -0.38629864785E-01 -0.10998376746E-01  0.54012337579E-01  0.51100000000E-03 0.  1.
         11    1    4    4    0    0  0.66798171674E-01 -0.18013455722E-01 -0.52095039655E-01  0.86606204187E-01  0.51100000000E-03 0. -1.
</event>
<event>
 8    1  0.2183582E+004  0.1043930E+01  0.7957747E-01            NaN
         13   -1    0    0    0    0  0.00000000000E+00  0.00000000000E+00  0.74505805969E-08  0.10566000000E+00  0.10566000000E+00 0. -1.
     999900   -1    0    0    0    0 -0.00000000000E+00 -0.00000000000E+00 -0.74505805969E-08  0.93827000000E+00  0.93827000000E+00 0. -1.
     999902    2    1    2    0    0  0.67735566310E-02 -0.51121219513E-02  0.10802800424E-01  0.10301926292E+01  0.10301010328E+01 0.  0.
     999903    2    3    3    0    0 -0.12232487087E-01  0.13121970029E+00 -0.58806716848E-03  0.13941917463E+00  0.45487547153E-01 0.  0.
         14    1    1    2    0    0 -0.67735566310E-02  0.51121219513E-02 -0.10802800424E-01  0.13737370828E-01  0.00000000000E+00 0.  1.
     999901    1    3    3    0    0  0.19006043718E-01 -0.13633182224E+00  0.11390867592E-01  0.89077345454E+00  0.88000000000E+00 0. -1.
        -11    1    4    4    0    0 -0.15005955756E-01  0.70702683368E-01  0.20732972647E-01  0.75194184744E-01  0.51100000000E-03 0.  1.
         11    1    4    4    0    0  0.27734686681E-02  0.60517016924E-01 -0.21321039815E-01  0.64224989884E-01  0.51100000000E-03 0. -1.
</event>
<event>
 8    1  0.2183582E+004  0.1043930E+01  0.7957747E-01            NaN
         13   -1    0    0    0    0  0.00000000000E+00  0.00000000000E+00  0.74505805969E-08  0.10566000000E+00  0.10566000000E+00 0.  1.
     999900   -1    0    0    0    0 -0.00000000000E+00 -0.00000000000E+00 -0.74505805969E-08  0.93827000000E+00  0.93827000000E+00 0. -1.
     999902    2    1    2    0    0 -0.97342097563E-03  0.70628356667E-02 -0.14870052506E-01  0.10274391038E+01  0.10273067518E+01 0.  0.
     999903    2    3    3    0    0  0.11848903005E+00  0.34408190509E-01  0.40036907629E-01  0.13725158428E+00  0.44849410240E-01 0.  0.
         14    1    1    2    0    0  0.97342097563E-03 -0.70628356667E-02  0.14870052506E-01  0.16490896203E-01  0.00000000000E+00 0.  1.
     999901    1    3    3    0    0 -0.11946245102E+00 -0.27345354842E-01 -0.54906960136E-01  0.89018751952E+00  0.88000000000E+00 0. -1.
        -11    1    4    4    0    0  0.11035139129E+00  0.18930509002E-01  0.26308180907E-01  0.11501380454E+00  0.51100000000E-03 0. -1.
         11    1    4    4    0    0  0.81376387575E-02  0.15477681507E-01  0.13728726722E-01  0.22237779741E-01  0.51100000000E-03 0.  1.
</event>
<event>
 8    1  0.2183582E+004  0.1043930E+01  0.7957747E-01            NaN
         13   -1    0    0    0    0  0.00000000000E+00  0.00000000000E+00  0.74505805969E-08  0.10566000000E+00  0.10566000000E+00 0.  1.
     999900   -1    0    0    0    0 -0.00000000000E+00 -0.00000000000E+00 -0.74505805969E-08  0.93827000000E+00  0.93827000000E+00 0. -1.
     999902    2    1    2    0    0  0.40927452797E-02 -0.10680940397E-01  0.73479086780E-02  0.10303349710E+01  0.10302452755E+01 0.  0.
     999903    2    3    3    0    0  0.12978477811E+00 -0.11376133075E-01  0.30685900218E-01  0.14109730183E+00  0.44646602106E-01 0.  0.
         14    1    1    2    0    0 -0.40927452797E-02  0.10680940397E-01 -0.73479086780E-02  0.13595029004E-01  0.00000000000E+00 0. -1.
     999901    1    3    3    0    0 -0.12569203283E+00  0.69519267768E-03 -0.23337991540E-01  0.88923766916E+00  0.88000000000E+00 0.  1.
        -11    1    4    4    0    0  0.16389789152E-01  0.12578447371E-01  0.11408635823E-01  0.23606368188E-01  0.51100000000E-03 0. -1.
         11    1    4    4    0    0  0.11339498896E+00 -0.23954580446E-01  0.19277264395E-01  0.11749093364E+00  0.51100000000E-03 0.  1.
</event>
<event>
 8    1  0.2183582E+004  0.1043930E+01  0.7957747E-01            NaN
         13   -1    0    0    0    0  0.00000000000E+00  0.00000000000E+00  0.74505805969E-08  0.10566000000E+00  0.10566000000E+00 0.  1.
     999900   -1    0    0    0    0 -0.00000000000E+00 -0.00000000000E+00 -0.74505805969E-08  0.93827000000E+00  0.93827000000E+00 0.  1.
     999902    2    1    2    0    0  0.10394507109E-01 -0.35445937196E-02 -0.43154353849E-02  0.10321303006E+01  0.10320628491E+01 0.  0.
     999903    2    3    3    0    0 -0.55188059452E-01 -0.12200551281E+00 -0.12559121408E-01  0.14173599430E+00  0.44724640710E-01 0.  0.
         14    1    1    2    0    0 -0.10394507109E-01  0.35445937196E-02  0.43154353849E-02  0.11799699371E-01  0.00000000000E+00 0. -1.
     999901    1    3    3    0    0  0.65582566561E-01  0.11846091909E+00  0.82436860232E-02  0.89039430633E+00  0.88000000000E+00 0.  1.
        -11    1    4    4    0    0 -0.33833394113E-02 -0.23289348120E-01  0.13651462053E-01  0.27211472922E-01  0.51100000000E-03 0. -1.
         11    1    4    4    0    0 -0.51804720041E-01 -0.98716164692E-01 -0.26210583461E-01  0.11452452138E+00  0.51100000000E-03 0.  1.
</event>
<event>
 8    1  0.2183582E+004  0.1043930E+01  0.7957747E-01            NaN
         13   -1    0    0    0    0  0.00000000000E+00  0.00000000000E+00  0.74505805969E-08  0.10566000000E+00  0.10566000000E+00 0.  1.
     999900   -1    0    0    0    0 -0.00000000000E+00 -0.00000000000E+00 -0.74505805969E-08  0.93827000000E+00  0.93827000000E+00 0.  1.
     999902    2    1    2    0    0 -0.93799700363E-02  0.38087519486E-02  0.89567297358E-02  0.10304128466E+01  0.10303241824E+01 0.  0.
     999903    2    3    3    0    0 -0.98406657485E-01 -0.62499999288E-01 -0.63722460007E-01  0.14046629414E+00  0.45608198061E-01 0.  0.
         14    1    1    2    0    0  0.93799700363E-02 -0.38087519486E-02 -0.89567297358E-02  0.13517153430E-01  0.00000000000E+00 0. -1.
     999901    1    3    3    0    0  0.89026687449E-01  0.66308751237E-01  0.72679189743E-01  0.88994655243E+00  0.88000000000E+00 0. -1.
        -11    1    4    4    0    0 -0.35055923254E-01 -0.36895037874E-01 -0.64421857882E-02  0.51302285072E-01  0.51100000000E-03 0.  1.
         11    1    4    4    0    0 -0.63350734231E-01 -0.25604961414E-01 -0.57280274219E-01  0.89164009063E-01  0.51100000000E-03 0. -1.
</event>
<event>
 8    1  0.2183582E+004  0.1043930E+01  0.7957747E-01            NaN
         13   -1    0    0    0    0  0.00000000000E+00  0.00000000000E+00  0.74505805969E-08  0.10566000000E+00  0.10566000000E+00 0.  1.
     999900   -1    0    0    0    0 -0.00000000000E+00 -0.00000000000E+00 -0.74505805969E-08  0.93827000000E+00  0.93827000000E+00 0.  1.
     999902    2    1    2    0    0 -0.15271332227E-02 -0.11060139281E-01 -0.84788837772E-02  0.10299103607E+01  0.10298149352E+01 0.  0.
     999903    2    3    3    0    0 -0.54058660177E-01  0.10584478955E+00 -0.57125591041E-01  0.13929662519E+00  0.44886060431E-01 0.  0.
         14    1    1    2    0    0  0.15271332227E-02  0.11060139281E-01  0.84788837772E-02  0.14019639328E-01  0.00000000000E+00 0. -1.
     999901    1    3    3    0    0  0.52531526955E-01 -0.11690492883E+00  0.48646707264E-01  0.89061373549E+00  0.88000000000E+00 0. -1.
        -11    1    4    4    0    0 -0.39422791160E-01  0.82235489368E-01 -0.63073627502E-01  0.11088451552E+00  0.51100000000E-03 0. -1.
         11    1    4    4    0    0 -0.14635869018E-01  0.23609300182E-01  0.59480364607E-02  0.28412109667E-01  0.51100000000E-03 0.  1.
</event>
<event>
 8    1  0.2183582E+004  0.1043930E+01  0.7957747E-01            NaN
         13   -1    0    0    0    0  0.00000000000E+00  0.00000000000E+00  0.74505805969E-08  0.10566000000E+00  0.10566000000E+00 0. -1.
     999900   -1    0    0    0    0 -0.00000000000E+00 -0.00000000000E+00 -0.74505805969E-08  0.93827000000E+00  0.93827000000E+00 0.  1.
     999902    2    1    2    0    0  0.69710040822E-02 -0.12114833306E-01  0.19426493277E-02  0.10298183746E+01  0.10297216841E+01 0.  0.
     999903    2    3    3    0    0  0.52983996888E-01 -0.38758258689E-01  0.11609971820E+00  0.14085329996E+00  0.45287978542E-01 0.  0.
         14    1    1    2    0    0 -0.69710040822E-02  0.12114833306E-01 -0.19426493277E-02  0.14111625362E-01  0.00000000000E+00 0.  1.
     999901    1    3    3    0    0 -0.46012992806E-01  0.26643425383E-01 -0.11415706887E+00  0.88896507468E+00  0.88000000000E+00 0.  1.
        -11    1    4    4    0    0  0.45368963016E-01 -0.61573196920E-02  0.74596151668E-01  0.87527723354E-01  0.51100000000E-03 0. -1.
         11    1    4    4    0    0  0.76150338725E-02 -0.32600938997E-01  0.41503566534E-01  0.53325576606E-01  0.51100000000E-03 0.  1.
</event>
<event>
 8    1  0.2183582E+004  0.1043930E+01  0.7957747E-01            NaN
         13   -1    0    0    0    0  0.00000000000E+00  0.00000000000E+00  0.74505805969E-08  0.10566000000E+00  0.10566000000E+00 0.  1.
     999900   -1    0    0    0    0 -0.00000000000E+00 -0.00000000000E+00 -0.74505805969E-08  0.93827000000E+00  0.93827000000E+00 0. -1.
     999902    2    1    2    0    0 -0.67394562960E-02 -0.10373727400E-01  0.65250865859E-02  0.10299438910E+01  0.10298489245E+01 0.  0.
     999903    2    3    3    0    0 -0.12612691162E+00  0.41633408854E-01 -0.57850621518E-02  0.14027561206E+00  0.44748651670E-01 0.  0.
         14    1    1    2    0    0  0.67394562960E-02  0.10373727400E-01 -0.65250865859E-02  0.13986109048E-01  0.00000000000E+00 0. -1.
     999901    1    3    3    0    0  0.11938745532E+00 -0.52007136254E-01  0.12310148738E-01  0.88966827890E+00  0.88000000000E+00 0. -1.
        -11    1    4    4    0    0 -0.98367351804E-01  0.14664669078E-01  0.64964017465E-02  0.99667711806E-01  0.51100000000E-03 0.  1.
         11    1    4    4    0    0 -0.27759559817E-01  0.26968739776E-01 -0.12281463898E-01  0.40607900251E-01  0.51100000000E-03 0. -1.
</event>
<event>
 8    1  0.2183582E+004  0.1043930E+01  0.7957747E-01            NaN
         13   -1    0    0    0    0  0.00000000000E+00  0.00000000000E+00  0.74505805969E-08  0.10566000000E+00  0.10566000000E+00 0.  1.
     999900   -1    0    0    0    0 -0.00000000000E+00 -0.00000000000E+00 -0.74505805969E-08  0.93827000000E+00  0.93827000000E+00 0.  1.
     999902    2    1    2    0    0 -0.89309877238E-02  0.88315746500E-03  0.13889219837E-01  0.10273935876E+01  0.10272604980E+01 0.  0.
     999903    2    3    3    0    0 -0.55307339406E-02 -0.11931240097E+00  0.53574863932E-01  0.13833032527E+00  0.44709896019E-01 0.  0.
         14    1    1    2    0    0  0.89309877238E-02 -0.88315746500E-03 -0.13889219837E-01  0.16536412444E-01  0.00000000000E+00 0.  1.
     999901    1    3    3    0    0 -0.34002537831E-02  0.12019555843E+00 -0.39685644095E-01  0.88906326228E+00  0.88000000000E+00 0.  1.
        -11    1    4    4    0    0 -0.18254900886E-01 -0.24561026013E-01  0.21832208585E-01  0.37595104174E-01  0.51100000000E-03 0.  1.
         11    1    4    4    0    0  0.12724166945E-01 -0.94751374956E-01  0.31742655347E-01  0.10073522110E+00  0.51100000000E-03 0. -1.
</event>
<event>
 8    1  0.2183582E+004  0.1043930E+01  0.7957747E-01            NaN
         13   -1    0    0    0    0  0.00000000000E+00  0.00000000000E+00  0.74505805969E-08  0.10566000000E+00  0.10566000000E+00 0. -1.
     999900   -1    0    0    0    0 -0.00000000000E+00 -0.00000000000E+00 -0.74505805969E-08  0.93827000000E+00  0.93827000000E+00 0. -1.
     999902    2    1    2    0    0  0.91626619038E-02 -0.79531254002E-04  0.11216161526E-01  0.10294468036E+01  0.10293449172E+01 0.  0.
     999903    2    3    3    0    0  0.12646633448E+00 -0.37738832830E-01  0.14517090704E-01  0.14085844518E+00  0.47036181767E-01 0.  0.
         14    1    1    2    0    0 -0.91626619038E-02  0.79531254002E-04 -0.11216161526E-01  0.14483196393E-01  0.00000000000E+00 0.  1.
     999901    1    3    3    0    0 -0.11730367258E+00  0.37659301576E-01 -0.33009291778E-02  0.88858835843E+00  0.88000000000E+00 0. -1.
        -11    1    4    4    0    0  0.34453634328E-01  0.11538943460E-03  0.22322497160E-01  0.41056317828E-01  0.51100000000E-03 0.  1.
         11    1    4    4    0    0  0.92012700156E-01 -0.37854222265E-01 -0.78054064566E-02  0.99802127353E-01  0.51100000000E-03 0. -1.
</event>
<event>
 8    1  0.2183582E+004  0.1043930E+01  0.7957747E-01            NaN
         13   -1    0    0    0    0  0.00000000000E+00  0.00000000000E+00  0.74505805969E-08  0.10566000000E+00  0.10566000000E+00 0.  1.
     999900   -1    0    0    0    0 -0.00000000000E+00 -0.00000000000E+00 -0.74505805969E-08  0.93827000000E+00  0.93827000000E+00 0. -1.
     999902    2    1    2    0    0 -0.46934648676E-02  0.10950032729E-01 -0.10415074066E-01  0.10281057908E+01  0.10279840035E+01 0.  0.
     999903    2    3    3    0    0 -0.78445893145E-01  0.70934366873E-01 -0.80378342809E-01  0.14022494293E+00  0.44910066502E-01 0.  0.
         14    1    1    2    0    0  0.46934648676E-02 -0.10950032729E-01  0.10415074066E-01  0.15824209208E-01  0.00000000000E+00 0.  1.
     999901    1    3    3    0    0  0.73752428278E-01 -0.59984334143E-01  0.69963268743E-01  0.88788084786E+00  0.88000000000E+00 0.  1.
        -11    1    4    4    0    0 -0.56920493281E-01  0.27820425860E-01 -0.28673324487E-01  0.69543794177E-01  0.51100000000E-03 0. -1.
         11    1    4    4    0    0 -0.21525399864E-01  0.43113941012E-01 -0.51705018323E-01  0.70681148757E-01  0.51100000000E-03 0.  1.
</event>
<event>
 8    1  0.2183582E+004  0.1043930E+01  0.7957747E-01            NaN
         13   -1    0    0    0    0  0.00000000000E+00  0.00000000000E+00  0.74505805969E-08  0.10566000000E+00  0.10566000000E+00 0. -1.
     999900   -1    0    0    0    0 -0.00000000000E+00 -0.00000000000E+00 -0.74505805969E-08  0.93827000000E+00  0.93827000000E+00 0. -1.
     999902    2    1    2    0    0 -0.10184050406E-01  0.76332960622E-02  0.27169681281E-02  0.10309160073E+01  0.10308338615E+01 0.  0.
     999903    2    3    3    0    0  0.32716979406E-01  0.92456798517E-01 -0.90074949290E-01  0.14094642077E+00  0.46192387948E-01 0.  0.
         14    1    1    2    0    0  0.10184050406E-01 -0.76332960622E-02 -0.27169681281E-02  0.13013992748E-01  0.00000000000E+00 0.  1.
     999901    1    3    3    0    0 -0.42901029811E-01 -0.84823502455E-01  0.92791917418E-01  0.88996958648E+00  0.88000000000E+00 0.  1.
        -11    1    4    4    0    0  0.21476895704E-01  0.78482432247E-01 -0.92094672205E-01  0.12289198098E+00  0.51100000000E-03 0. -1.
         11    1    4    4    0    0  0.11240083702E-01  0.13974366270E-01  0.20197229156E-02  0.18054439785E-01  0.51100000000E-03 0.  1.
</event>
<event>
 8    1  0.2183582E+004  0.1043930E+01  0.7957747E-01            NaN
         13   -1    0    0    0    0  0.00000000000E+00  0.00000000000E+00  0.74505805969E-08  0.10566000000E+00  0.10566000000E+00 0.  1.
     999900   -1    0    0    0    0 -0.00000000000E+00 -0.00000000000E+00 -0.74505805969E-08  0.93827000000E+00  0.93827000000E+00 0. -1.
     999902    2    1    2    0    0 -0.36284231248E-02  0.28228090080E-02 -0.12890182304E-01  0.10302445879E+01  0.10301536877E+01 0.  0.
     999903    2    3    3    0    0 -0.23672573007E-01  0.12023359254E+00  0.47097716634E-01  0.14019649477E+00  0.49197100986E-01 0.  0.
         14    1    1    2    0    0  0.36284231248E-02 -0.28228090080E-02  0.12890182304E-01  0.13685412120E-01  0.00000000000E+00 0.  1.
     999901    1    3    3    0    0  0.20044149882E-01 -0.11741078353E+00 -0.59987898938E-01  0.89004809311E+00  0.88000000000E+00 0.  1.
        -11    1    4    4    0    0 -0.23804812697E-02  0.32685927475E-01  0.37159075039E-01  0.49548910429E-01  0.51100000000E-03 0. -1.
         11    1    4    4    0    0 -0.21292091737E-01  0.87547665063E-01  0.99386415954E-02  0.90647584338E-01  0.51100000000E-03 0.  1.
</event>
<event>
 8    1  0.2183582E+004  0.1043930E+01  0.7957747E-01            NaN
         13   -1    0    0    0    0  0.00000000000E+00  0.00000000000E+00  0.74505805969E-08  0.10566000000E+00  0.10566000000E+00 0. -1.
     999900   -1    0    0    0    0 -0.00000000000E+00 -0.00000000000E+00 -0.74505805969E-08  0.93827000000E+00  0.93827000000E+00 0. -1.
     999902    2    1    2    0    0 -0.95843063657E-02  0.45889612934E-02 -0.87144932840E-02  0.10301873697E+01  0.10300957027E+01 0.  0.
     999903    2    3    3    0    0  0.23307384271E-02  0.12842189674E+00 -0.36858686552E-01  0.14099185700E+00  0.44972492279E-01 0.  0.
         14    1    1    2    0    0  0.95843063657E-02 -0.45889612934E-02  0.87144932840E-02  0.13742630296E-01  0.00000000000E+00 0. -1.
     999901    1    3    3    0    0 -0.11915044793E-01 -0.12383293545E+00  0.28144193268E-01  0.88919551270E+00  0.88000000000E+00 0. -1.
        -11    1    4    4    0    0  0.63446758475E-02  0.11428085233E+00 -0.46350169013E-01  0.12348670944E+00  0.51100000000E-03 0. -1.
         11    1    4    4    0    0 -0.40139374203E-02  0.14141044413E-01  0.94914824609E-02  0.17505147558E-01  0.51100000000E-03 0.  1.
</event>
<event>
 8    1  0.2183582E+004  0.1043930E+01  0.7957747E-01            NaN
         13   -1    0    0    0    0  0.00000000000E+00  0.00000000000E+00  0.74505805969E-08  0.10566000000E+00  0.10566000000E+00 0. -1.
     999900   -1    0    0    0    0 -0.00000000000E+00 -0.00000000000E+00 -0.74505805969E-08  0.93827000000E+00  0.93827000000E+00 0. -1.
     999902    2    1    2    0    0 -0.12052672713E-02 -0.14001129599E-01 -0.83158248421E-03  0.10298525063E+01  0.10297562862E+01 0.  0.
     999903    2    3    3    0    0 -0.31920052907E-01  0.62945658506E-01  0.11052447543E+00  0.13897407583E+00  0.46011828716E-01 0.  0.
         14    1    1    2    0    0  0.12052672713E-02  0.14001129599E-01  0.83158248421E-03  0.14077493693E-01  0.00000000000E+00 0.  1.
     999901    1    3    3    0    0  0.30714785635E-01 -0.76946788105E-01 -0.11135605791E+00  0.89087843048E+00  0.88000000000E+00 0. -1.
        -11    1    4    4    0    0 -0.33011193196E-01  0.36833176789E-01  0.39526803506E-01  0.63317068039E-01  0.51100000000E-03 0.  1.
         11    1    4    4    0    0  0.10911402893E-02  0.26112481716E-01  0.70997671922E-01  0.75657007791E-01  0.51100000000E-03 0. -1.
</event>
<event>
 8    1  0.2183582E+004  0.1043930E+01  0.7957747E-01            NaN
         13   -1    0    0    0    0  0.00000000000E+00  0.00000000000E+00  0.74505805969E-08  0.10566000000E+00  0.10566000000E+00 0. -1.
     999900   -1    0    0    0    0 -0.00000000000E+00 -0.00000000000E+00 -0.74505805969E-08  0.93827000000E+00  0.93827000000E+00 0.  1.
     999902    2    1    2    0    0  0.89046861499E-02  0.11995280873E-01 -0.37589738121E-02  0.10285251280E+01  0.10284097572E+01 0.  0.
     999903    2    3    3    0    0  0.98710668344E-02 -0.34158545102E-01  0.12490546539E+00  0.13797156558E+00  0.46588984315E-01 0.  0.
         14    1    1    2    0    0 -0.89046861499E-02 -0.11995280873E-01  0.37589738121E-02  0.15404872046E-01  0.00000000000E+00 0. -1.
     999901    1    3    3    0    0 -0.96638068456E-03  0.46153825974E-01 -0.12866443920E+00  0.89055356238E+00  0.88000000000E+00 0.  1.
        -11    1    4    4    0    0 -0.58842485458E-02  0.91946275954E-02  0.38527432942E-01  0.40047344077E-01  0.51100000000E-03 0. -1.
         11    1    4    4    0    0  0.15755315380E-01 -0.43353172697E-01  0.86378032450E-01  0.97924221501E-01  0.51100000000E-03 0.  1.
</event>
<event>
 8    1  0.2183582E+004  0.1043930E+01  0.7957747E-01            NaN
         13   -1    0    0    0    0  0.00000000000E+00  0.00000000000E+00  0.74505805969E-08  0.10566000000E+00  0.10566000000E+00 0. -1.
     999900   -1    0    0    0    0 -0.00000000000E+00 -0.00000000000E+00 -0.74505805969E-08  0.93827000000E+00  0.93827000000E+00 0. -1.
     999902    2    1    2    0    0 -0.11877187455E-01  0.61974304663E-02 -0.53214972003E-02  0.10295149364E+01  0.10294140130E+01 0.  0.
     999903    2    3    3    0    0  0.92104442781E-02 -0.80076838917E-01  0.10311432600E+00  0.13842219963E+00  0.45066713980E-01 0.  0.
         14    1    1    2    0    0  0.11877187455E-01 -0.61974304663E-02  0.53214972003E-02  0.14415063603E-01  0.00000000000E+00 0. -1.
     999901    1    3    3    0    0 -0.21087631733E-01  0.86274269384E-01 -0.10843582320E+00  0.89109273677E+00  0.88000000000E+00 0. -1.
        -11    1    4    4    0    0  0.13805539860E-01 -0.76863929533E-01  0.70135443482E-01  0.10496617621E+00  0.51100000000E-03 0. -1.
         11    1    4    4    0    0 -0.45950955821E-02 -0.32129093844E-02  0.32978882516E-01  0.33456023421E-01  0.51100000000E-03 0.  1.
</event>
<event>
 8    1  0.2183582E+004  0.1043930E+01  0.7957747E-01            NaN
         13   -1    0    0    0    0  0.00000000000E+00  0.00000000000E+00  0.74505805969E-08  0.10566000000E+00  0.10566000000E+00 0.  1.
     999900   -1    0    0    0    0 -0.00000000000E+00 -0.00000000000E+00 -0.74505805969E-08  0.93827000000E+00  0.93827000000E+00 0.  1.
     999902    2    1    2    0    0  0.70972605906E-02  0.25734220065E-02  0.12413115457E-01  0.10294014404E+01  0.10292989102E+01 0.  0.
     999903    2    3    3    0    0  0.54889712839E-01 -0.11934367051E+00 -0.11331832197E-01  0.13939485701E+00  0.45240728021E-01 0.  0.
         14    1    1    2    0    0 -0.70972605906E-02 -0.25734220065E-02 -0.12413115457E-01  0.14528559601E-01  0.00000000000E+00 0. -1.
     999901    1    3    3    0    0 -0.47792452249E-01  0.12191709252E+00  0.23744947654E-01  0.89000658339E+00  0.88000000000E+00 0.  1.
        -11    1    4    4    0    0  0.20043280473E-01 -0.11096892465E-01  0.75329986237E-02  0.24122215980E-01  0.51100000000E-03 0.  1.
         11    1    4    4    0    0  0.34846432366E-01 -0.10824677805E+00 -0.18864830821E-01  0.11527264103E+00  0.51100000000E-03 0. -1.
</event>
<event>
 8    1  0.2183582E+004  0.1043930E+01  0.7957747E-01            NaN
         13   -1    0    0    0    0  0.00000000000E+00  0.00000000000E+00  0.74505805969E-08  0.10566000000E+00  0.10566000000E+00 0. -1.
     999900   -1    0    0    0    0 -0.00000000000E+00 -0.00000000000E+00 -0.74505805969E-08  0.93827000000E+00  0.93827000000E+00 0. -1.
     999902    2    1    2    0    0 -0.55825325707E-02 -0.52358903496E-02  0.37677858252E-02  0.10353991485E+01  0.10353640042E+01 0.  0.
     999903    2    3    3    0    0 -0.89011676156E-01  0.63411740495E-01  0.84279670869E-01  0.14514352067E+00  0.44938305982E-01 0.  0.
         14    1    1    2    0    0  0.55825325707E-02  0.52358903496E-02 -0.37677858252E-02  0.85308515215E-02  0.00000000000E+00 0. -1.
     999901    1    3    3    0    0  0.83429143585E-01 -0.68647630845E-01 -0.80511885044E-01  0.89025562781E+00  0.88000000000E+00 0. -1.
        -11    1    4    4    0    0 -0.70086848110E-01  0.58368544011E-01  0.46027124497E-01  0.10216560340E+00  0.51100000000E-03 0. -1.
         11    1    4    4    0    0 -0.18924828046E-01  0.50431964842E-02  0.38252546372E-01  0.42977917264E-01  0.51100000000E-03 0.  1.
</event>
<event>
 7    1  0.2896718E+004  0.1043930E+01  0.7957747E-01            NaN
         13   -1    0    0    0    0  0.00000000000E+00  0.00000000000E+00  0.74505805969E-08  0.10566000000E+00  0.10566000000E+00 0.  1.
     999900   -1    0    0    0    0 -0.00000000000E+00 -0.00000000000E+00 -0.74505805969E-08  0.93827000000E+00  0.93827000000E+00 0. -1.
     999903    2    1    2    0    0  0.39658210341E-01  0.63476280909E-01  0.76531653942E-01  0.11604867619E+00  0.44812825235E-01 0.  0.
         14    1    1    2    0    0 -0.17769643901E-01 -0.38487313357E-01  0.82361788809E-02  0.43184119493E-01  0.00000000000E+00 0. -1.
     999901    1    1    2    0    0 -0.21888566441E-01 -0.24988967552E-01 -0.84767832822E-01  0.88469720431E+00  0.88000000000E+00 0. -1.
        -11    1    3    3    0    0  0.39717830169E-02  0.20444423292E-01  0.49999199943E-01  0.54165769818E-01  0.51100000000E-03 0.  1.
         11    1    3    3    0    0  0.35686427325E-01  0.43031857617E-01  0.26532453999E-01  0.61882906375E-01  0.51100000000E-03 0. -1.
</event>
<event>
 8    1  0.2183582E+004  0.1043930E+01  0.7957747E-01            NaN
         13   -1    0    0    0    0  0.00000000000E+00  0.00000000000E+00  0.74505805969E-08  0.10566000000E+00  0.10566000000E+00 0.  1.
     999900   -1    0    0    0    0 -0.00000000000E+00 -0.00000000000E+00 -0.74505805969E-08  0.93827000000E+00  0.93827000000E+00 0.  1.
     999902    2    1    2    0    0 -0.10354895352E-01 -0.44414143507E-02 -0.80987416105E-02  0.10300541348E+01  0.10299606696E+01 0.  0.
     999903    2    3    3    0    0  0.41897005634E-01  0.12413938046E+00 -0.10533784415E-01  0.13917299156E+00  0.45740748839E-01 0.  0.
         14    1    1    2    0    0  0.10354895352E-01  0.44414143507E-02  0.80987416105E-02  0.13875865193E-01  0.00000000000E+00 0.  1.
     999901    1    3    3    0    0 -0.52251900985E-01 -0.12858079481E+00  0.24350428046E-02  0.89088114324E+00  0.88000000000E+00 0.  1.
        -11    1    4    4    0    0 -0.89547221657E-02  0.33469727898E-01 -0.55844620856E-02  0.35097821476E-01  0.51100000000E-03 0.  1.
         11    1    4    4    0    0  0.50851727800E-01  0.90669652565E-01 -0.49493223294E-02  0.10407517009E+00  0.51100000000E-03 0. -1.
</event>
<event>
 7    1  0.2183582E+004  0.1043930E+01  0.7957747E-01            NaN
         13   -1    0    0    0    0  0.00000000000E+00  0.00000000000E+00  0.74505805969E-08  0.10566000000E+00  0.10566000000E+00 0.  1.
     999900   -1    0    0    0    0 -0.00000000000E+00 -0.00000000000E+00 -0.74505805969E-08  0.93827000000E+00  0.93827000000E+00 0.  1.
     999903    2    1    2    0    0 -0.83056296917E-02 -0.10659415869E+00  0.43603699479E-01  0.12360819195E+00  0.44118072906E-01 0.  0.
         14    1    1    2    0    0  0.14122731825E-01 -0.15720650773E-01 -0.23515336863E-01  0.31615842274E-01  0.00000000000E+00 0.  1.
     999901    1    1    2    0    0 -0.58171021331E-02  0.12231480947E+00 -0.20088362616E-01  0.88870596578E+00  0.88000000000E+00 0.  1.
        -11    1    3    3    0    0 -0.66759122489E-02 -0.81956687877E-01  0.11386666540E-01  0.83014358927E-01  0.51100000000E-03 0.  1.
         11    1    3    3    0    0 -0.16297174429E-02 -0.24637470816E-01  0.32217032939E-01  0.40593833024E-01  0.51100000000E-03 0. -1.
</event>
<event>
 8    1  0.2183582E+004  0.1043930E+01  0.7957747E-01            NaN
         13   -1    0    0    0    0  0.00000000000E+00  0.00000000000E+00  0.74505805969E-08  0.10566000000E+00  0.10566000000E+00 0.  1.
     999900   -1    0    0    0    0 -0.00000000000E+00 -0.00000000000E+00 -0.74505805969E-08  0.93827000000E+00  0.93827000000E+00 0. -1.
     999902    2    1    2    0    0 -0.35402267725E-02 -0.27749275079E-02 -0.13068976305E-01  0.10301085829E+01  0.10300158548E+01 0.  0.
     999903    2    3    3    0    0 -0.12955863821E+00  0.29948190001E-01 -0.79586343673E-02  0.14051454178E+00  0.44706395202E-01 0.  0.
         14    1    1    2    0    0  0.35402267725E-02  0.27749275079E-02  0.13068976305E-01  0.13821417074E-01  0.00000000000E+00 0.  1.
     999901    1    3    3    0    0  0.12601841144E+00 -0.32723117509E-01 -0.51103419378E-02  0.88959404114E+00  0.88000000000E+00 0.  1.
        -11    1    4    4    0    0 -0.70521548049E-01  0.98703456587E-02  0.17220186851E-01  0.73263281518E-01  0.51100000000E-03 0.  1.
         11    1    4    4    0    0 -0.59037090163E-01  0.20077844342E-01 -0.25178821218E-01  0.67251260265E-01  0.51100000000E-03 0. -1.
</event>
<event>
 8    1  0.2183582E+004  0.1043930E+01  0.7957747E-01            NaN
         13   -1    0    0    0    0  0.00000000000E+00  0.00000000000E+00  0.74505805969E-08  0.10566000000E+00  0.10566000000E+00 0.  1.
     999900   -1    0    0    0    0 -0.00000000000E+00 -0.00000000000E+00 -0.74505805969E-08  0.93827000000E+00  0.93827000000E+00 0. -1.
     999902    2    1    2    0    0 -0.42345294894E-02 -0.82532931946E-02  0.10547674142E-01  0.10298835941E+01  0.10297878014E+01 0.  0.
     999903    2    3    3    0    0 -0.48596624784E-01  0.64251759878E-01  0.10606946514E+00  0.14064268706E+00  0.45163186345E-01 0.  0.
         14    1    1    2    0    0  0.42345294894E-02  0.82532931946E-02 -0.10547674142E-01  0.14046405888E-01  0.00000000000E+00 0. -1.
     999901    1    3    3    0    0  0.44362095295E-01 -0.72505053073E-01 -0.95521790996E-01  0.88924090705E+00  0.88000000000E+00 0. -1.
        -11    1    4    4    0    0  0.42289957340E-02  0.27513683015E-01  0.36002826689E-01  0.45512106176E-01  0.51100000000E-03 0. -1.
         11    1    4    4    0    0 -0.52825620518E-01  0.36738076864E-01  0.70066638449E-01  0.95130580884E-01  0.51100000000E-03 0.  1.
</event>
<event>
 8    1  0.2183582E+004  0.1043930E+01  0.7957747E-01            NaN
         13   -1    0    0    0    0  0.00000000000E+00  0.00000000000E+00  0.74505805969E-08  0.10566000000E+00  0.10566000000E+00 0.  1.
     999900   -1    0    0    0    0 -0.00000000000E+00 -0.00000000000E+00 -0.74505805969E-08  0.93827000000E+00  0.93827000000E+00 0. -1.
     999902    2    1    2    0    0 -0.10530705576E-01 -0.30441829376E-02  0.79777444503E-02  0.10303724480E+01  0.10302832496E+01 0.  0.
     999903    2    3    3    0    0  0.51591502103E-01  0.11453329963E+00 -0.40485763412E-01  0.13906310513E+00  0.43816553450E-01 0.  0.
         14    1    1    2    0    0  0.10530705576E-01  0.30441829376E-02 -0.79777444503E-02  0.13557551999E-01  0.00000000000E+00 0. -1.
     999901    1    3    3    0    0 -0.62122207679E-01 -0.11757748257E+00  0.48463507863E-01  0.89130934287E+00  0.88000000000E+00 0. -1.
        -11    1    4    4    0    0  0.74931258427E-02  0.29609803801E-01 -0.29971577414E-01  0.42795373461E-01  0.51100000000E-03 0.  1.
         11    1    4    4    0    0  0.44098376260E-01  0.84923495829E-01 -0.10514185999E-01  0.96267731670E-01  0.51100000000E-03 0. -1.
</event>
<event>
 8    1  0.2183582E+004  0.1043930E+01  0.7957747E-01            NaN
         13   -1    0    0    0    0  0.00000000000E+00  0.00000000000E+00  0.74505805969E-08  0.10566000000E+00  0.10566000000E+00 0. -1.
     999900   -1    0    0    0    0 -0.00000000000E+00 -0.00000000000E+00 -0.74505805969E-08  0.93827000000E+00  0.93827000000E+00 0.  1.
     999902    2    1    2    0    0  0.56750629234E-02  0.59849165567E-02  0.11286278607E-01  0.10299512429E+01  0.10298563769E+01 0.  0.
     999903    2    3    3    0    0  0.68453707718E-01 -0.86958272011E-01 -0.71135061718E-01  0.13901192292E+00  0.44905083633E-01 0.  0.
         14    1    1    2    0    0 -0.56750629234E-02 -0.59849165567E-02 -0.11286278607E-01  0.13978757104E-01  0.00000000000E+00 0.  1.
     999901    1    3    3    0    0 -0.62778644794E-01  0.92943188567E-01  0.82421340326E-01  0.89093931998E+00  0.88000000000E+00 0. -1.
        -11    1    4    4    0    0  0.12958328985E-01 -0.41567137013E-01 -0.45218923658E-01  0.62775451789E-01  0.51100000000E-03 0.  1.
         11    1    4    4    0    0  0.55495378733E-01 -0.45391134997E-01 -0.25916138060E-01  0.76236471128E-01  0.51100000000E-03 0. -1.
</event>
<event>
 8    1  0.2183582E+004  0.1043930E+01  0.7957747E-01            NaN
         13   -1    0    0    0    0  0.00000000000E+00  0.00000000000E+00  0.74505805969E-08  0.10566000000E+00  0.10566000000E+00 0. -1.
     999900   -1    0    0    0    0 -0.00000000000E+00 -0.00000000000E+00 -0.74505805969E-08  0.93827000000E+00  0.93827000000E+00 0.  1.
     999902    2    1    2    0    0 -0.14636015281E-01  0.31500849368E-03  0.17505120614E-02  0.10291863076E+01  0.10290806962E+01 0.  0.
     999903    2    3    3    0    0  0.48169848650E-01  0.11812853959E+00  0.31258599492E-01  0.13862730792E+00  0.44336714738E-01 0.  0.
         14    1    1    2    0    0  0.14636015281E-01 -0.31500849368E-03 -0.17505120614E-02  0.14743692418E-01  0.00000000000E+00 0.  1.
     999901    1    3    3    0    0 -0.62805863930E-01 -0.11781353110E+00 -0.29508087431E-01  0.89055899966E+00  0.88000000000E+00 0.  1.
        -11    1    4    4    0    0  0.29429305737E-01  0.10138950223E+00  0.10623656270E-01  0.10610861602E+00  0.51100000000E-03 0.  1.
         11    1    4    4    0    0  0.18740542912E-01  0.16739037360E-01  0.20634943222E-01  0.32518691904E-01  0.51100000000E-03 0. -1.
</event>
<event>
 8    1  0.2183582E+004  0.1043930E+01  0.7957747E-01            NaN
         13   -1    0    0    0    0  0.00000000000E+00  0.00000000000E+00  0.74505805969E-08  0.10566000000E+00  0.10566000000E+00 0.  1.
     999900   -1    0    0    0    0 -0.00000000000E+00 -0.00000000000E+00 -0.74505805969E-08  0.93827000000E+00  0.93827000000E+00 0. -1.
     999902    2    1    2    0    0  0.80461551389E-02  0.72864525943E-02 -0.91114187918E-02  0.10297578105E+01  0.10296602824E+01 0.  0.
     999903    2    3    3    0    0 -0.58215225231E-01 -0.11743586767E+00  0.31089923798E-02  0.13841300280E+00  0.44365505128E-01 0.  0.
         14    1    1    2    0    0 -0.80461551389E-02 -0.72864525943E-02  0.91114187918E-02  0.14172189539E-01  0.00000000000E+00 0.  1.
     999901    1    3    3    0    0  0.66261380370E-01  0.12472232027E+00 -0.12220411172E-01  0.89134480766E+00  0.88000000000E+00 0.  1.
        -11    1    4    4    0    0 -0.26688354937E-01 -0.34824626139E-01 -0.18126444092E-01  0.47474750883E-01  0.51100000000E-03 0. -1.
         11    1    4    4    0    0 -0.31526870295E-01 -0.82611241532E-01  0.21235436472E-01  0.90938251914E-01  0.51100000000E-03 0.  1.
</event>
<event>
 8    1  0.2183582E+004  0.1043930E+01  0.7957747E-01            NaN
         13   -1    0    0    0    0  0.00000000000E+00  0.00000000000E+00  0.74505805969E-08  0.10566000000E+00  0.10566000000E+00 0. -1.
     999900   -1    0    0    0    0 -0.00000000000E+00 -0.00000000000E+00 -0.74505805969E-08  0.93827000000E+00  0.93827000000E+00 0. -1.
     999902    2    1    2    0    0  0.37761670217E-02 -0.43202092373E-02 -0.16120756082E-01  0.10268185295E+01  0.10266759421E+01 0.  0.
     999903    2    3    3    0    0 -0.25622127614E-02 -0.12756787629E-01  0.12680560473E+00  0.13522484654E+00  0.45130889263E-01 0.  0.
         14    1    1    2    0    0 -0.37761670217E-02  0.43202092373E-02  0.16120756082E-01  0.17111470477E-01  0.00000000000E+00 0. -1.
     999901    1    3    3    0    0  0.63383797831E-02  0.84365783917E-02 -0.14292636082E+00  0.89159368298E+00  0.88000000000E+00 0. -1.
        -11    1    4    4    0    0 -0.24843073964E-03 -0.29487090971E-01  0.69996906482E-01  0.75956423624E-01  0.51100000000E-03 0. -1.
         11    1    4    4    0    0 -0.23137820217E-02  0.16730303342E-01  0.56808698252E-01  0.59268422919E-01  0.51100000000E-03 0.  1.
</event>
<event>
 8    1  0.2183582E+004  0.1043930E+01  0.7957747E-01            NaN
         13   -1    0    0    0    0  0.00000000000E+00  0.00000000000E+00  0.74505805969E-08  0.10566000000E+00  0.10566000000E+00 0.  1.
     999900   -1    0    0    0    0 -0.00000000000E+00 -0.00000000000E+00 -0.74505805969E-08  0.93827000000E+00  0.93827000000E+00 0.  1.
     999902    2    1    2    0    0 -0.10846038788E-01  0.78034160432E-02 -0.76935665952E-02  0.10285118021E+01  0.10283962302E+01 0.  0.
     999903    2    3    3    0    0 -0.38593562702E-01 -0.33401538334E-02 -0.12726246420E+00  0.13992256882E+00  0.43381686940E-01 0.  0.
         14    1    1    2    0    0  0.10846038788E-01 -0.78034160432E-02  0.76935665952E-02  0.15418197894E-01  0.00000000000E+00 0.  1.
     999901    1    3    3    0    0  0.27747523914E-01  0.11143569877E-01  0.11956889761E+00  0.88858923328E+00  0.88000000000E+00 0. -1.
        -11    1    4    4    0    0  0.75386175308E-02 -0.79081526575E-02 -0.34967272742E-01  0.36637970969E-01  0.51100000000E-03 0.  1.
         11    1    4    4    0    0 -0.46132180233E-01  0.45679988241E-02 -0.92295191459E-01  0.10328459785E+00  0.51100000000E-03 0. -1.
</event>
<event>
 8    1  0.2442129E+004  0.1043930E+01  0.7957747E-01            NaN
         13   -1    0    0    0    0  0.00000000000E+00  0.00000000000E+00  0.74505805969E-08  0.10566000000E+00  0.10566000000E+00 0. -1.
     999900   -1    0    0    0    0 -0.00000000000E+00 -0.00000000000E+00 -0.74505805969E-08  0.93827000000E+00  0.93827000000E+00 0. -1.
     999902    2    1    2    0    0  0.34566190514E-02  0.92449640244E-02  0.94065134925E-02  0.10302954824E+01  0.10302052615E+01 0.  0.
     999903    2    3    3    0    0  0.40387126457E-01  0.23992389286E-01 -0.12333427399E+00  0.13945236172E+00  0.45042905347E-01 0.  0.
         14    1    1    2    0    0 -0.34566190514E-02 -0.92449640244E-02 -0.94065134925E-02  0.13634517636E-01  0.00000000000E+00 0.  1.
     999901    1    3    3    0    0 -0.36930507405E-01 -0.14747425262E-01  0.13274078749E+00  0.89084312064E+00  0.88000000000E+00 0.  1.
        -11    1    4    4    0    0  0.11443550319E-01  0.32736185791E-01 -0.61001453546E-01  0.70171583706E-01  0.51100000000E-03 0.  1.
         11    1    4    4    0    0  0.28943576138E-01 -0.87437965052E-02 -0.62332820447E-01  0.69280778019E-01  0.51100000000E-03 0. -1.
</event>
<event>
 8    1  0.2183582E+004  0.1043930E+01  0.7957747E-01            NaN
         13   -1    0    0    0    0  0.00000000000E+00  0.00000000000E+00  0.74505805969E-08  0.10566000000E+00  0.10566000000E+00 0. -1.
     999900   -1    0    0    0    0 -0.00000000000E+00 -0.00000000000E+00 -0.74505805969E-08  0.93827000000E+00  0.93827000000E+00 0. -1.
     999902    2    1    2    0    0 -0.79099221577E-02  0.14476279461E-02  0.11279451575E-01  0.10300776167E+01  0.10299844697E+01 0.  0.
     999903    2    3    3    0    0 -0.41591071030E-01  0.93762985256E-01  0.85470192553E-01  0.14150527241E+00  0.46875086266E-01 0.  0.
         14    1    1    2    0    0  0.79099221577E-02 -0.14476279461E-02 -0.11279451575E-01  0.13852383299E-01  0.00000000000E+00 0.  1.
     999901    1    3    3    0    0  0.33681148873E-01 -0.92315357310E-01 -0.74190740978E-01  0.88857234429E+00  0.88000000000E+00 0. -1.
        -11    1    4    4    0    0 -0.37932250874E-01  0.88846370845E-01  0.91378749053E-01  0.13297695352E+00  0.51100000000E-03 0.  1.
         11    1    4    4    0    0 -0.36588201564E-02  0.49166144112E-02 -0.59085565000E-02  0.85283188918E-02  0.51100000000E-03 0. -1.
</event>
<event>
 7    1  0.2862228E+004  0.1043930E+01  0.7957747E-01            NaN
         13   -1    0    0    0    0  0.00000000000E+00  0.00000000000E+00  0.74505805969E-08  0.10566000000E+00  0.10566000000E+00 0.  1.
     999900   -1    0    0    0    0 -0.00000000000E+00 -0.00000000000E+00 -0.74505805969E-08  0.93827000000E+00  0.93827000000E+00 0. -1.
     999903    2    1    2    0    0 -0.89183221431E-01  0.57176692348E-01 -0.35299738514E-01  0.12105264359E+00  0.46742377431E-01 0.  0.
         14    1    1    2    0    0  0.35441116579E-01 -0.90240312961E-02 -0.12451741168E-01  0.38633557218E-01  0.00000000000E+00 0. -1.
     999901    1    1    2    0    0  0.53742104853E-01 -0.48152661051E-01  0.47751479682E-01  0.88424379919E+00  0.88000000000E+00 0.  1.
        -11    1    3    3    0    0 -0.45306085767E-01  0.55215850334E-01 -0.26955137829E-01  0.76343120922E-01  0.51100000000E-03 0. -1.
         11    1    3    3    0    0 -0.43877135665E-01  0.19608420133E-02 -0.83446006848E-02  0.44709522667E-01  0.51100000000E-03 0.  1.
</event>
<event>
 8    1  0.2183582E+004  0.1043930E+01  0.7957747E-01            NaN
         13   -1    0    0    0    0  0.00000000000E+00  0.00000000000E+00  0.74505805969E-08  0.10566000000E+00  0.10566000000E+00 0. -1.
     999900   -1    0    0    0    0 -0.00000000000E+00 -0.00000000000E+00 -0.74505805969E-08  0.93827000000E+00  0.93827000000E+00 0. -1.
     999902    2    1    2    0    0 -0.49829970006E-02 -0.93135456499E-03  0.13634949281E-01  0.10293831955E+01  0.10292804057E+01 0.  0.
     999903    2    3    3    0    0 -0.11497325258E+00 -0.66878301415E-01  0.14389029099E-01  0.14008716783E+00  0.41542922657E-01 0.  0.
         14    1    1    2    0    0  0.49829970006E-02  0.93135456499E-03 -0.13634949281E-01  0.14546804540E-01  0.00000000000E+00 0. -1.
     999901    1    3    3    0    0  0.10999025558E+00  0.65946946850E-01 -0.75407981788E-03  0.88929602763E+00  0.88000000000E+00 0. -1.
        -11    1    4    4    0    0 -0.42264560490E-01 -0.27829758183E-01 -0.14502634745E-01  0.52643860511E-01  0.51100000000E-03 0. -1.
         11    1    4    4    0    0 -0.72708692092E-01 -0.39048543232E-01  0.28891663844E-01  0.87443307320E-01  0.51100000000E-03 0.  1.
</event>
<event>
 8    1  0.2183582E+004  0.1043930E+01  0.7957747E-01            NaN
         13   -1    0    0    0    0  0.00000000000E+00  0.00000000000E+00  0.74505805969E-08  0.10566000000E+00  0.10566000000E+00 0.  1.
     999900   -1    0    0    0    0 -0.00000000000E+00 -0.00000000000E+00 -0.74505805969E-08  0.93827000000E+00  0.93827000000E+00 0. -1.
     999902    2    1    2    0    0  0.11966282273E-01 -0.52974307862E-02  0.95694330495E-03  0.10308086272E+01  0.10307251115E+01 0.  0.
     999903    2    3    3    0    0  0.10704045920E-01  0.10893924589E+00 -0.74718290120E-01  0.14020301721E+00  0.45735404926E-01 0.  0.
         14    1    1    2    0    0 -0.11966282273E-01  0.52974307862E-02 -0.95694330495E-03  0.13121372826E-01  0.00000000000E+00 0. -1.
     999901    1    3    3    0    0  0.12622363522E-02 -0.11423667667E+00  0.75675233425E-01  0.89060560996E+00  0.88000000000E+00 0.  1.
        -11    1    4    4    0    0  0.76400418366E-02  0.27078903301E-01 -0.44971045893E-01  0.53049913600E-01  0.51100000000E-03 0. -1.
         11    1    4    4    0    0  0.30640040839E-02  0.81860342586E-01 -0.29747244227E-01  0.87153103613E-01  0.51100000000E-03 0.  1.
</event>
<event>
 8    1  0.2183582E+004  0.1043930E+01  0.7957747E-01            NaN
         13   -1    0    0    0    0  0.00000000000E+00  0.00000000000E+00  0.74505805969E-08  0.10566000000E+00  0.10566000000E+00 0.  1.
     999900   -1    0    0    0    0 -0.00000000000E+00 -0.00000000000E+00 -0.74505805969E-08  0.93827000000E+00  0.93827000000E+00 0.  1.
     999902    2    1    2    0    0 -0.98974749067E-02 -0.83040390362E-02 -0.35846235544E-02  0.10305222933E+01  0.10304350685E+01 0.  0.
     999903    2    3    3    0    0  0.96057324229E-01 -0.78464340401E-01 -0.47861184770E-01  0.14029237846E+00  0.44806207079E-01 0.  0.
         14    1    1    2    0    0  0.98974749067E-02  0.83040390362E-02  0.35846235544E-02  0.13407706734E-01  0.00000000000E+00 0. -1.
     999901    1    3    3    0    0 -0.10595479914E+00  0.70160301365E-01  0.44276561216E-01  0.89022991481E+00  0.88000000000E+00 0. -1.
        -11    1    4    4    0    0  0.41753625217E-01 -0.10094668155E-01 -0.57104274229E-02  0.43337485463E-01  0.51100000000E-03 0. -1.
         11    1    4    4    0    0  0.54303699012E-01 -0.68369672246E-01 -0.42150757348E-01  0.96954892994E-01  0.51100000000E-03 0.  1.
</event>
<event>
 8    1  0.2183582E+004  0.1043930E+01  0.7957747E-01            NaN
         13   -1    0    0    0    0  0.00000000000E+00  0.00000000000E+00  0.74505805969E-08  0.10566000000E+00  0.10566000000E+00 0. -1.
     999900   -1    0    0    0    0 -0.00000000000E+00 -0.00000000000E+00 -0.74505805969E-08  0.93827000000E+00  0.93827000000E+00 0.  1.
     999902    2    1    2    0    0 -0.41285804450E-02 -0.63565418845E-02 -0.11528298014E-01  0.10301331722E+01  0.10300407759E+01 0.  0.
     999903    2    3    3    0    0  0.94189785631E-01  0.52107093096E-01 -0.77824297450E-01  0.14025696890E+00  0.45039218281E-01 0.  0.
         14    1    1    2    0    0  0.41285804450E-02  0.63565418845E-02  0.11528298014E-01  0.13796827763E-01  0.00000000000E+00 0. -1.
     999901    1    3    3    0    0 -0.98318366076E-01 -0.58463634980E-01  0.66295999436E-01  0.88987620334E+00  0.88000000000E+00 0. -1.
        -11    1    4    4    0    0  0.54402573905E-01  0.49007367663E-01 -0.33228712452E-01  0.80410015452E-01  0.51100000000E-03 0.  1.
         11    1    4    4    0    0  0.39787211726E-01  0.30997254328E-02 -0.44595584999E-01  0.59846953449E-01  0.51100000000E-03 0. -1.
</event>
<event>
 8    1  0.2183582E+004  0.1043930E+01  0.7957747E-01            NaN
         13   -1    0    0    0    0  0.00000000000E+00  0.00000000000E+00  0.74505805969E-08  0.10566000000E+00  0.10566000000E+00 0. -1.
     999900   -1    0    0    0    0 -0.00000000000E+00 -0.00000000000E+00 -0.74505805969E-08  0.93827000000E+00  0.93827000000E+00 0. -1.
     999902    2    1    2    0    0 -0.64971146719E-02 -0.79509904737E-02  0.92881273702E-02  0.10300844210E+01  0.10299913661E+01 0.  0.
     999903    2    3    3    0    0 -0.80703409380E-01  0.62529686474E-02 -0.10451833793E+00  0.13954512472E+00  0.44683542453E-01 0.  0.
         14    1    1    2    0    0  0.64971146719E-02  0.79509904737E-02 -0.92881273702E-02  0.13845579028E-01  0.00000000000E+00 0.  1.
     999901    1    3    3    0    0  0.74206294708E-01 -0.14203959121E-01  0.11380646530E+00  0.89053929625E+00  0.88000000000E+00 0.  1.
        -11    1    4    4    0    0 -0.24769530717E-01 -0.18110355559E-01 -0.26830283031E-01  0.40763216740E-01  0.51100000000E-03 0. -1.
         11    1    4    4    0    0 -0.55933878662E-01  0.24363324207E-01 -0.77688054900E-01  0.98781907978E-01  0.51100000000E-03 0.  1.
</event>
<event>
 8    1  0.2183582E+004  0.1043930E+01  0.7957747E-01            NaN
         13   -1    0    0    0    0  0.00000000000E+00  0.00000000000E+00  0.74505805969E-08  0.10566000000E+00  0.10566000000E+00 0. -1.
     999900   -1    0    0    0    0 -0.00000000000E+00 -0.00000000000E+00 -0.74505805969E-08  0.93827000000E+00  0.93827000000E+00 0.  1.
     999902    2    1    2    0    0  0.19039695049E-02 -0.30327036068E-02 -0.12597237345E-01  0.10308337112E+01  0.10307505166E+01 0.  0.
     999903    2    3    3    0    0 -0.12719289666E+00 -0.36625009401E-01 -0.10833928830E-01  0.14077890779E+00  0.46710840165E-01 0.  0.
         14    1    1    2    0    0 -0.19039695049E-02  0.30327036068E-02  0.12597237345E-01  0.13096288778E-01  0.00000000000E+00 0. -1.
     999901    1    3    3    0    0  0.12909686617E+00  0.33592305794E-01 -0.17633085147E-02  0.89005480344E+00  0.88000000000E+00 0.  1.
        -11    1    4    4    0    0 -0.47350468072E-01 -0.18233311545E-01 -0.26675198918E-01  0.57326676468E-01  0.51100000000E-03 0.  1.
         11    1    4    4    0    0 -0.79842428588E-01 -0.18391697856E-01  0.15841270088E-01  0.83452231318E-01  0.51100000000E-03 0. -1.
</event>
<event>
 8    1  0.2183582E+004  0.1043930E+01  0.7957747E-01            NaN
         13   -1    0    0    0    0  0.00000000000E+00  0.00000000000E+00  0.74505805969E-08  0.10566000000E+00  0.10566000000E+00 0. -1.
     999900   -1    0    0    0    0 -0.00000000000E+00 -0.00000000000E+00 -0.74505805969E-08  0.93827000000E+00  0.93827000000E+00 0. -1.
     999902    2    1    2    0    0 -0.58747546119E-02  0.11011406402E-01 -0.69007359746E-02  0.10296687248E+01  0.10295699582E+01 0.  0.
     999903    2    3    3    0    0  0.93142267814E-01  0.65510843808E-01 -0.69254696598E-01  0.14025173836E+00  0.43671322413E-01 0.  0.
         14    1    1    2    0    0  0.58747546119E-02 -0.11011406402E-01  0.69007359746E-02  0.14261275178E-01  0.00000000000E+00 0. -1.
     999901    1    3    3    0    0 -0.99017022426E-01 -0.54499437406E-01  0.62353960624E-01  0.88941698647E+00  0.88000000000E+00 0.  1.
        -11    1    4    4    0    0  0.52470173227E-01  0.22330284675E-01 -0.55030241333E-01  0.79248654716E-01  0.51100000000E-03 0.  1.
         11    1    4    4    0    0  0.40672094587E-01  0.43180559133E-01 -0.14224455265E-01  0.61003083641E-01  0.51100000000E-03 0. -1.
</event>
<event>
 8    1  0.2183582E+004  0.1043930E+01  0.7957747E-01            NaN
         13   -1    0    0    0    0  0.00000000000E+00  0.00000000000E+00  0.74505805969E-08  0.10566000000E+00  0.10566000000E+00 0. -1.
     999900   -1    0    0    0    0 -0.00000000000E+00 -0.00000000000E+00 -0.74505805969E-08  0.93827000000E+00  0.93827000000E+00 0.  1.
     999902    2    1    2    0    0 -0.88765460699E-02  0.93356796428E-02  0.50849947576E-02  0.10300806261E+01  0.10299875199E+01 0.  0.
     999903    2    3    3    0    0  0.48274987510E-01 -0.94478936597E-01 -0.76708850460E-01  0.13837775778E+00  0.44804154151E-01 0.  0.
         14    1    1    2    0    0  0.88765460699E-02 -0.93356796428E-02 -0.50849947576E-02  0.13849373856E-01  0.00000000000E+00 0.  1.
     999901    1    3    3    0    0 -0.57151533580E-01  0.10381461624E+00  0.81793845218E-01  0.89170286837E+00  0.88000000000E+00 0. -1.
        -11    1    4    4    0    0  0.21674541872E-02 -0.23160274105E-01 -0.39094120970E-01  0.45494038836E-01  0.51100000000E-03 0. -1.
         11    1    4    4    0    0  0.46107533323E-01 -0.71318662492E-01 -0.37614729491E-01  0.92883718942E-01  0.51100000000E-03 0.  1.
</event>
<event>
 8    1  0.2183582E+004  0.1043930E+01  0.7957747E-01            NaN
         13   -1    0    0    0    0  0.00000000000E+00  0.00000000000E+00  0.74505805969E-08  0.10566000000E+00  0.10566000000E+00 0. -1.
     999900   -1    0    0    0    0 -0.00000000000E+00 -0.00000000000E+00 -0.74505805969E-08  0.93827000000E+00  0.93827000000E+00 0.  1.
     999902    2    1    2    0    0 -0.51518266675E-02 -0.48949558063E-03 -0.12521680971E-01  0.10303810732E+01  0.10302919890E+01 0.  0.
     999903    2    3    3    0    0  0.12902029593E+00  0.24867048844E-01 -0.24820155011E-01  0.13976535060E+00  0.40665787256E-01 0.  0.
         14    1    1    2    0    0  0.51518266675E-02  0.48949558063E-03  0.12521680971E-01  0.13548926831E-01  0.00000000000E+00 0. -1.
     999901    1    3    3    0    0 -0.13417212260E+00 -0.25356544425E-01  0.12298474039E-01  0.89061572257E+00  0.88000000000E+00 0. -1.
        -11    1    4    4    0    0  0.78808209078E-01  0.31026392244E-01 -0.27647041268E-01  0.89095403056E-01  0.51100000000E-03 0.  1.
         11    1    4    4    0    0  0.50212086850E-01 -0.61593433994E-02  0.28268862573E-02  0.50669947542E-01  0.51100000000E-03 0. -1.
</event>
<event>
 8    1  0.2183582E+004  0.1043930E+01  0.7957747E-01            NaN
         13   -1    0    0    0    0  0.00000000000E+00  0.00000000000E+00  0.74505805969E-08  0.10566000000E+00  0.10566000000E+00 0.  1.
     999900   -1    0    0    0    0 -0.00000000000E+00 -0.00000000000E+00 -0.74505805969E-08  0.93827000000E+00  0.93827000000E+00 0.  1.
     999902    2    1    2    0    0  0.12575306119E-01  0.63476864543E-02 -0.95061624909E-02  0.10269359254E+01  0.10267953040E+01 0.  0.
     999903    2    3    3    0    0 -0.10086728822E+00  0.42522010258E-02 -0.80238597464E-01  0.13683666651E+00  0.45757510114E-01 0.  0.
         14    1    1    2    0    0 -0.12575306119E-01 -0.63476864543E-02  0.95061624909E-02  0.16994074632E-01  0.00000000000E+00 0.  1.
     999901    1    3    3    0    0  0.11344259434E+00  0.20954854285E-02  0.70732434973E-01  0.89009925886E+00  0.88000000000E+00 0. -1.
        -11    1    4    4    0    0 -0.74778679414E-01  0.23370844447E-01 -0.59951048235E-01  0.98653112320E-01  0.51100000000E-03 0. -1.
         11    1    4    4    0    0 -0.26088608803E-01 -0.19118643421E-01 -0.20287549229E-01  0.38183554186E-01  0.51100000000E-03 0.  1.
</event>
<event>
 8    1  0.2183582E+004  0.1043930E+01  0.7957747E-01            NaN
         13   -1    0    0    0    0  0.00000000000E+00  0.00000000000E+00  0.74505805969E-08  0.10566000000E+00  0.10566000000E+00 0.  1.
     999900   -1    0    0    0    0 -0.00000000000E+00 -0.00000000000E+00 -0.74505805969E-08  0.93827000000E+00  0.93827000000E+00 0.  1.
     999902    2    1    2    0    0  0.17424265842E-02  0.50190632310E-02 -0.13011086359E-01  0.10298759823E+01  0.10297800850E+01 0.  0.
     999903    2    3    3    0    0  0.12974138919E+00 -0.24787060654E-01 -0.71871010808E-02  0.14009732538E+00  0.46134365845E-01 0.  0.
         14    1    1    2    0    0 -0.17424265842E-02 -0.50190632310E-02  0.13011086359E-01  0.14054017730E-01  0.00000000000E+00 0.  1.
     999901    1    3    3    0    0 -0.12799896261E+00  0.29806123885E-01 -0.58239852782E-02  0.88977865689E+00  0.88000000000E+00 0.  1.
        -11    1    4    4    0    0  0.53863769705E-01 -0.32263664241E-01  0.45427880094E-02  0.62953536524E-01  0.51100000000E-03 0. -1.
         11    1    4    4    0    0  0.75877619487E-01  0.74766035868E-02 -0.11729889090E-01  0.77143788857E-01  0.51100000000E-03 0.  1.
</event>
<event>
 8    1  0.2183582E+004  0.1043930E+01  0.7957747E-01            NaN
         13   -1    0    0    0    0  0.00000000000E+00  0.00000000000E+00  0.74505805969E-08  0.10566000000E+00  0.10566000000E+00 0. -1.
     999900   -1    0    0    0    0 -0.00000000000E+00 -0.00000000000E+00 -0.74505805969E-08  0.93827000000E+00  0.93827000000E+00 0. -1.
     999902    2    1    2    0    0 -0.15718457027E-01 -0.11364468930E-01  0.16900076243E-01  0.10182038728E+01  0.10178788203E+01 0.  0.
     999903    2    3    3    0    0 -0.96480942634E-01  0.74498323610E-01  0.82941557620E-02  0.13030238043E+00  0.45291774243E-01 0.  0.
         14    1    1    2    0    0  0.15718457027E-01  0.11364468930E-01 -0.16900076243E-01  0.25726127233E-01  0.00000000000E+00 0.  1.
     999901    1    3    3    0    0  0.80762485607E-01 -0.85862792540E-01  0.86059204810E-02  0.88790149234E+00  0.88000000000E+00 0.  1.
        -11    1    4    4    0    0 -0.41934466530E-01  0.54836784392E-01 -0.94154395329E-02  0.69674127395E-01  0.51100000000E-03 0. -1.
         11    1    4    4    0    0 -0.54546476104E-01  0.19661539218E-01  0.17709595295E-01  0.60628253037E-01  0.51100000000E-03 0.  1.
</event>
<event>
 8    1  0.2183582E+004  0.1043930E+01  0.7957747E-01            NaN
         13   -1    0    0    0    0  0.00000000000E+00  0.00000000000E+00  0.74505805969E-08  0.10566000000E+00  0.10566000000E+00 0.  1.
     999900   -1    0    0    0    0 -0.00000000000E+00 -0.00000000000E+00 -0.74505805969E-08  0.93827000000E+00  0.93827000000E+00 0. -1.
     999902    2    1    2    0    0  0.14675389710E-01 -0.69081365982E-02  0.31080936980E-02  0.10274148657E+01  0.10272821212E+01 0.  0.
     999903    2    3    3    0    0 -0.13348267631E-01 -0.12226051802E+00 -0.44168998551E-01  0.13818676183E+00  0.44931839438E-01 0.  0.
         14    1    1    2    0    0 -0.14675389710E-01  0.69081365982E-02 -0.31080936980E-02  0.16515134297E-01  0.00000000000E+00 0. -1.
     999901    1    3    3    0    0  0.28023657342E-01  0.11535238142E+00  0.47277092249E-01  0.88922810388E+00  0.88000000000E+00 0.  1.
        -11    1    4    4    0    0 -0.12336852685E-01 -0.10385923329E+00 -0.53548681528E-01  0.11750174759E+00  0.51100000000E-03 0. -1.
         11    1    4    4    0    0 -0.10114149460E-02 -0.18401284735E-01  0.93796829762E-02  0.20685014234E-01  0.51100000000E-03 0.  1.
</event>
<event>
 8    1  0.2183582E+004  0.1043930E+01  0.7957747E-01            NaN
         13   -1    0    0    0    0  0.00000000000E+00  0.00000000000E+00  0.74505805969E-08  0.10566000000E+00  0.10566000000E+00 0. -1.
     999900   -1    0    0    0    0 -0.00000000000E+00 -0.00000000000E+00 -0.74505805969E-08  0.93827000000E+00  0.93827000000E+00 0.  1.
     999902    2    1    2    0    0  0.60084156919E-03  0.13379207238E-01  0.86400164717E-02  0.10279921808E+01  0.10278686247E+01 0.  0.
     999903    2    3    3    0    0  0.59998194809E-01 -0.43282047573E-01  0.10802444367E+00  0.13860148612E+00  0.45474965662E-01 0.  0.
         14    1    1    2    0    0 -0.60084156919E-03 -0.13379207238E-01 -0.86400164717E-02  0.15937819222E-01  0.00000000000E+00 0.  1.
     999901    1    3    3    0    0 -0.59397353240E-01  0.56661254811E-01 -0.99384427202E-01  0.88939069466E+00  0.88000000000E+00 0.  1.
        -11    1    4    4    0    0  0.36950315574E-01 -0.22076196499E-01  0.24802856984E-01  0.49680248675E-01  0.51100000000E-03 0. -1.
         11    1    4    4    0    0  0.23047879235E-01 -0.21205851074E-01  0.83221586690E-01  0.88921237448E-01  0.51100000000E-03 0.  1.
</event>
<event>
 7    1  0.2183582E+004  0.1043930E+01  0.7957747E-01            NaN
         13   -1    0    0    0    0  0.00000000000E+00  0.00000000000E+00  0.74505805969E-08  0.10566000000E+00  0.10566000000E+00 0.  1.
     999900   -1    0    0    0    0 -0.00000000000E+00 -0.00000000000E+00 -0.74505805969E-08  0.93827000000E+00  0.93827000000E+00 0. -1.
     999903    2    1    2    0    0 -0.15072419961E-01  0.47864495934E-01  0.48031469108E-01  0.82787256780E-01  0.45039094640E-01 0.  0.
         14    1    1    2    0    0  0.37505440995E-01 -0.60662035950E-01  0.29873214842E-01  0.77323668270E-01  0.00000000000E+00 0. -1.
     999901    1    1    2    0    0 -0.22433021034E-01  0.12797540016E-01 -0.77904683950E-01  0.88381907495E+00  0.88000000000E+00 0. -1.
        -11    1    3    3    0    0  0.13768759210E-01  0.16983965190E-01  0.29305953941E-01  0.36566841006E-01  0.51100000000E-03 0. -1.
         11    1    3    3    0    0 -0.28841179172E-01  0.30880530744E-01  0.18725515167E-01  0.46220415774E-01  0.51100000000E-03 0.  1.
</event>
<event>
 8    1  0.2183582E+004  0.1043930E+01  0.7957747E-01            NaN
         13   -1    0    0    0    0  0.00000000000E+00  0.00000000000E+00  0.74505805969E-08  0.10566000000E+00  0.10566000000E+00 0. -1.
     999900   -1    0    0    0    0 -0.00000000000E+00 -0.00000000000E+00 -0.74505805969E-08  0.93827000000E+00  0.93827000000E+00 0.  1.
     999902    2    1    2    0    0 -0.67135379649E-03  0.15502467131E-01 -0.49652154646E-02  0.10276379600E+01  0.10275088059E+01 0.  0.
     999903    2    3    3    0    0 -0.78029303411E-01 -0.40926028728E-01 -0.94534721465E-01  0.13792389136E+00  0.48194130629E-01 0.  0.
         14    1    1    2    0    0  0.67135379649E-03 -0.15502467131E-01  0.49652154646E-02  0.16292040010E-01  0.00000000000E+00 0. -1.
     999901    1    3    3    0    0  0.77357949614E-01  0.56428495859E-01  0.89569506001E-01  0.88971406863E+00  0.88000000000E+00 0. -1.
        -11    1    4    4    0    0 -0.52236401153E-01 -0.32850451591E-03 -0.52117115834E-01  0.73791628282E-01  0.51100000000E-03 0. -1.
         11    1    4    4    0    0 -0.25792902258E-01 -0.40597524212E-01 -0.42417605632E-01  0.64132263079E-01  0.51100000000E-03 0.  1.
</event>
<event>
 8    1  0.2183582E+004  0.1043930E+01  0.7957747E-01            NaN
         13   -1    0    0    0    0  0.00000000000E+00  0.00000000000E+00  0.74505805969E-08  0.10566000000E+00  0.10566000000E+00 0. -1.
     999900   -1    0    0    0    0 -0.00000000000E+00 -0.00000000000E+00 -0.74505805969E-08  0.93827000000E+00  0.93827000000E+00 0. -1.
     999902    2    1    2    0    0 -0.34027697636E-02  0.18974324378E-01 -0.15583951897E-02  0.10245900821E+01  0.10244075380E+01 0.  0.
     999903    2    3    3    0    0 -0.88531194342E-01 -0.47006941948E-01  0.77490033831E-01  0.13450636118E+00  0.45164487052E-01 0.  0.
         14    1    1    2    0    0  0.34027697636E-02 -0.18974324378E-01  0.15583951897E-02  0.19339917870E-01  0.00000000000E+00 0.  1.
     999901    1    3    3    0    0  0.85128424578E-01  0.65981266325E-01 -0.79048429021E-01  0.89008372095E+00  0.88000000000E+00 0. -1.
        -11    1    4    4    0    0 -0.72995617447E-01 -0.48276693521E-01  0.44868707630E-01  0.98348672331E-01  0.51100000000E-03 0. -1.
         11    1    4    4    0    0 -0.15535576895E-01  0.12697515733E-02  0.32621326201E-01  0.36157688845E-01  0.51100000000E-03 0.  1.
</event>
<event>
 8    1  0.2183582E+004  0.1043930E+01  0.7957747E-01            NaN
         13   -1    0    0    0    0  0.00000000000E+00  0.00000000000E+00  0.74505805969E-08  0.10566000000E+00  0.10566000000E+00 0. -1.
     999900   -1    0    0    0    0 -0.00000000000E+00 -0.00000000000E+00 -0.74505805969E-08  0.93827000000E+00  0.93827000000E+00 0. -1.
     999902    2    1    2    0    0  0.89577638963E-02  0.10582838551E-01  0.21607476614E-02  0.10298976504E+01  0.10298020506E+01 0.  0.
     999903    2    3    3    0    0 -0.10978953495E+00  0.28020508591E-01 -0.66591642821E-01  0.13909358408E+00  0.45537757411E-01 0.  0.
         14    1    1    2    0    0 -0.89577638963E-02 -0.10582838551E-01 -0.21607476614E-02  0.14032349635E-01  0.00000000000E+00 0.  1.
     999901    1    3    3    0    0  0.11874729885E+00 -0.17437670039E-01  0.68752390483E-01  0.89080406629E+00  0.88000000000E+00 0.  1.
        -11    1    4    4    0    0 -0.50034134397E-02  0.15729488275E-01 -0.10952186996E-01  0.19815712665E-01  0.51100000000E-03 0. -1.
         11    1    4    4    0    0 -0.10478612152E+00  0.12291020316E-01 -0.55639455825E-01  0.11927787141E+00  0.51100000000E-03 0.  1.
</event>
<event>
 8    1  0.2183582E+004  0.1043930E+01  0.7957747E-01            NaN
         13   -1    0    0    0    0  0.00000000000E+00  0.00000000000E+00  0.74505805969E-08  0.10566000000E+00  0.10566000000E+00 0.  1.
     999900   -1    0    0    0    0 -0.00000000000E+00 -0.00000000000E+00 -0.74505805969E-08  0.93827000000E+00  0.93827000000E+00 0. -1.
     999902    2    1    2    0    0  0.55653075184E-02  0.64618578013E-02 -0.11083361740E-01  0.10299453956E+01  0.10298504497E+01 0.  0.
     999903    2    3    3    0    0  0.74528841075E-01 -0.12027431259E-01  0.10794655502E+00  0.13906608619E+00  0.44583745162E-01 0.  0.
         14    1    1    2    0    0 -0.55653075184E-02 -0.64618578013E-02  0.11083361740E-01  0.13984604445E-01  0.00000000000E+00 0.  1.
     999901    1    3    3    0    0 -0.68963533557E-01  0.18489289060E-01 -0.11902991676E+00  0.89087930937E+00  0.88000000000E+00 0. -1.
        -11    1    4    4    0    0  0.41759504713E-01 -0.28924278904E-01  0.62948638326E-01  0.80890434120E-01  0.51100000000E-03 0.  1.
         11    1    4    4    0    0  0.32769336362E-01  0.16896847645E-01  0.44997916695E-01  0.58175652071E-01  0.51100000000E-03 0. -1.
</event>
<event>
 7    1  0.2183582E+004  0.1043930E+01  0.7957747E-01            NaN
         13   -1    0    0    0    0  0.00000000000E+00  0.00000000000E+00  0.74505805969E-08  0.10566000000E+00  0.10566000000E+00 0. -1.
     999900   -1    0    0    0    0 -0.00000000000E+00 -0.00000000000E+00 -0.74505805969E-08  0.93827000000E+00  0.93827000000E+00 0. -1.
     999903    2    1    2    0    0  0.92415039273E-01 -0.33954406425E-01 -0.69480868985E-01  0.12853357517E+00  0.44719655538E-01 0.  0.
         14    1    1    2    0    0 -0.20793616168E-01  0.17232299114E-01  0.14416755317E-01  0.30613223287E-01  0.00000000000E+00 0. -1.
     999901    1    1    2    0    0 -0.71621423105E-01  0.16722107311E-01  0.55064113667E-01  0.88478320154E+00  0.88000000000E+00 0.  1.
        -11    1    3    3    0    0  0.70653575780E-01 -0.31958486125E-01 -0.72871616716E-01  0.10641337439E+00  0.51100000000E-03 0.  1.
         11    1    3    3    0    0  0.21761463493E-01 -0.19959203003E-02  0.33907477316E-02  0.22120200777E-01  0.51100000000E-03 0. -1.
</event>
<event>
 8    1  0.2183582E+004  0.1043930E+01  0.7957747E-01            NaN
         13   -1    0    0    0    0  0.00000000000E+00  0.00000000000E+00  0.74505805969E-08  0.10566000000E+00  0.10566000000E+00 0. -1.
     999900   -1    0    0    0    0 -0.00000000000E+00 -0.00000000000E+00 -0.74505805969E-08  0.93827000000E+00  0.93827000000E+00 0.  1.
     999902    2    1    2    0    0  0.34444593219E-02  0.68235620685E-02 -0.12188409956E-01  0.10295431089E+01  0.10294425824E+01 0.  0.
     999903    2    3    3    0    0  0.46044311885E-02 -0.90202527034E-01 -0.96934827718E-01  0.14016278368E+00  0.45733449838E-01 0.  0.
         14    1    1    2    0    0 -0.34444593219E-02 -0.68235620685E-02  0.12188409956E-01  0.14386891137E-01  0.00000000000E+00 0. -1.
     999901    1    3    3    0    0 -0.11599718666E-02  0.97026089103E-01  0.84746417762E-01  0.88938032518E+00  0.88000000000E+00 0. -1.
        -11    1    4    4    0    0 -0.58962053416E-02 -0.59734710543E-01 -0.32846480272E-01  0.68426261540E-01  0.51100000000E-03 0. -1.
         11    1    4    4    0    0  0.10500636530E-01 -0.30467816491E-01 -0.64088347446E-01  0.71736522139E-01  0.51100000000E-03 0.  1.
</event>
<event>
 8    1  0.2183582E+004  0.1043930E+01  0.7957747E-01            NaN
         13   -1    0    0    0    0  0.00000000000E+00  0.00000000000E+00  0.74505805969E-08  0.10566000000E+00  0.10566000000E+00 0.  1.
     999900   -1    0    0    0    0 -0.00000000000E+00 -0.00000000000E+00 -0.74505805969E-08  0.93827000000E+00  0.93827000000E+00 0.  1.
     999902    2    1    2    0    0  0.11780919130E-01  0.21635231015E-02  0.45979722493E-02  0.10310998700E+01  0.10310200433E+01 0.  0.
     999903    2    3    3    0    0  0.14808098492E-01  0.23007489898E-01 -0.13036624045E+00  0.14056128379E+00  0.44871967647E-01 0.  0.
         14    1    1    2    0    0 -0.11780919130E-01 -0.21635231015E-02 -0.45979722493E-02  0.12830130029E-01  0.00000000000E+00 0.  1.
     999901    1    3    3    0    0 -0.30271793617E-02 -0.20843966797E-01  0.13496421270E+00  0.89053858618E+00  0.88000000000E+00 0. -1.
        -11    1    4    4    0    0  0.15231311151E-01 -0.76898052342E-02 -0.21525037506E-01  0.27472064075E-01  0.51100000000E-03 0.  1.
         11    1    4    4    0    0 -0.42321265966E-03  0.30697295132E-01 -0.10884120294E+00  0.11308921972E+00  0.51100000000E-03 0. -1.
</event>
<event>
 8    1  0.2183582E+004  0.1043930E+01  0.7957747E-01            NaN
         13   -1    0    0    0    0  0.00000000000E+00  0.00000000000E+00  0.74505805969E-08  0.10566000000E+00  0.10566000000E+00 0.  1.
     999900   -1    0    0    0    0 -0.00000000000E+00 -0.00000000000E+00 -0.74505805969E-08  0.93827000000E+00  0.93827000000E+00 0. -1.
     999902    2    1    2    0    0  0.10467585916E-02 -0.87499720828E-02  0.74733835840E-02  0.10323753829E+01  0.10323107197E+01 0.  0.
     999903    2    3    3    0    0 -0.15106108336E-01 -0.69487063640E-01 -0.11436167334E+00  0.14176116195E+00  0.44283046248E-01 0.  0.
         14    1    1    2    0    0 -0.10467585916E-02  0.87499720828E-02 -0.74733835840E-02  0.11554617137E-01  0.00000000000E+00 0. -1.
     999901    1    3    3    0    0  0.16152866928E-01  0.60737091557E-01  0.12183505692E+00  0.89061422092E+00  0.88000000000E+00 0.  1.
        -11    1    4    4    0    0 -0.23224048638E-01 -0.28526528251E-01 -0.29406419032E-01  0.47096898523E-01  0.51100000000E-03 0.  1.
         11    1    4    4    0    0  0.81179403016E-02 -0.40960535390E-01 -0.84955254308E-01  0.94664263424E-01  0.51100000000E-03 0. -1.
</event>
<event>
 8    1  0.2183582E+004  0.1043930E+01  0.7957747E-01            NaN
         13   -1    0    0    0    0  0.00000000000E+00  0.00000000000E+00  0.74505805969E-08  0.10566000000E+00  0.10566000000E+00 0. -1.
     999900   -1    0    0    0    0 -0.00000000000E+00 -0.00000000000E+00 -0.74505805969E-08  0.93827000000E+00  0.93827000000E+00 0. -1.
     999902    2    1    2    0    0  0.10712553699E-01 -0.20049134844E-02 -0.88630749100E-02  0.10298824884E+01  0.10297866805E+01 0.  0.
     999903    2    3    3    0    0  0.23842575535E-01 -0.88926705381E-01  0.94731952945E-01  0.13945577881E+00  0.44691654672E-01 0.  0.
         14    1    1    2    0    0 -0.10712553699E-01  0.20049134844E-02  0.88630749100E-02  0.14047511583E-01  0.00000000000E+00 0. -1.
     999901    1    3    3    0    0 -0.13130021837E-01  0.86921791897E-01 -0.10359502785E+00  0.89042670960E+00  0.88000000000E+00 0. -1.
        -11    1    4    4    0    0  0.19809365007E-01 -0.89776943507E-02  0.14676784885E-01  0.26242695620E-01  0.51100000000E-03 0.  1.
         11    1    4    4    0    0  0.40332105285E-02 -0.79949011031E-01  0.80055168059E-01  0.11321308319E+00  0.51100000000E-03 0. -1.
</event>
<event>
 8    1  0.2183582E+004  0.1043930E+01  0.7957747E-01            NaN
         13   -1    0    0    0    0  0.00000000000E+00  0.00000000000E+00  0.74505805969E-08  0.10566000000E+00  0.10566000000E+00 0.  1.
     999900   -1    0    0    0    0 -0.00000000000E+00 -0.00000000000E+00 -0.74505805969E-08  0.93827000000E+00  0.93827000000E+00 0.  1.
     999902    2    1    2    0    0 -0.72526153033E-02  0.50072039366E-02  0.11393834839E-01  0.10295254177E+01  0.10294246420E+01 0.  0.
     999903    2    3    3    0    0  0.10858868532E+00 -0.61832256899E-01  0.41048314347E-01  0.13892668164E+00  0.44731735794E-01 0.  0.
         14    1    1    2    0    0  0.72526153033E-02 -0.50072039366E-02 -0.11393834839E-01  0.14404582338E-01  0.00000000000E+00 0. -1.
     999901    1    3    3    0    0 -0.11584130062E+00  0.66839460836E-01 -0.29654479508E-01  0.89059873603E+00  0.88000000000E+00 0.  1.
        -11    1    4    4    0    0  0.49232078709E-01 -0.59199680557E-02  0.52396768104E-02  0.49865408149E-01  0.51100000000E-03 0. -1.
         11    1    4    4    0    0  0.59356606611E-01 -0.55912288844E-01  0.35808637536E-01  0.89061273488E-01  0.51100000000E-03 0.  1.
</event>
<event>
 8    1  0.2183582E+004  0.1043930E+01  0.7957747E-01            NaN
         13   -1    0    0    0    0  0.00000000000E+00  0.00000000000E+00  0.74505805969E-08  0.10566000000E+00  0.10566000000E+00 0. -1.
     999900   -1    0    0    0    0 -0.00000000000E+00 -0.00000000000E+00 -0.74505805969E-08  0.93827000000E+00  0.93827000000E+00 0. -1.
     999902    2    1    2    0    0  0.28187164000E-02 -0.85116644431E-02 -0.75524651809E-02  0.10322068040E+01  0.10321402293E+01 0.  0.
     999903    2    3    3    0    0  0.67854683429E-01  0.11367177754E+00  0.16974009085E-01  0.14105024177E+00  0.45623707051E-01 0.  0.
         14    1    1    2    0    0 -0.28187164000E-02  0.85116644431E-02  0.75524651809E-02  0.11723195983E-01  0.00000000000E+00 0. -1.
     999901    1    3    3    0    0 -0.65035967029E-01 -0.12218344199E+00 -0.24526474266E-01  0.89115656225E+00  0.88000000000E+00 0. -1.
        -11    1    4    4    0    0  0.59598070563E-01  0.59008597449E-01  0.25271121242E-02  0.83908235617E-01  0.51100000000E-03 0.  1.
         11    1    4    4    0    0  0.82566128660E-02  0.54663180094E-01  0.14446896961E-01  0.57142006149E-01  0.51100000000E-03 0. -1.
</event>
<event>
 8    1  0.2183582E+004  0.1043930E+01  0.7957747E-01            NaN
         13   -1    0    0    0    0  0.00000000000E+00  0.00000000000E+00  0.74505805969E-08  0.10566000000E+00  0.10566000000E+00 0.  1.
     999900   -1    0    0    0    0 -0.00000000000E+00 -0.00000000000E+00 -0.74505805969E-08  0.93827000000E+00  0.93827000000E+00 0. -1.
     999902    2    1    2    0    0 -0.55675307993E-02 -0.23082084443E-01  0.12236429060E-01  0.10172183880E+01  0.10168676111E+01 0.  0.
     999903    2    3    3    0    0  0.11778605138E+00  0.20394223816E-01  0.19796290190E-03  0.12747054712E+00  0.44263110262E-01 0.  0.
         14    1    1    2    0    0  0.55675307993E-02  0.23082084443E-01 -0.12236429060E-01  0.26711612037E-01  0.00000000000E+00 0.  1.
     999901    1    3    3    0    0 -0.12335358218E+00 -0.43476308260E-01  0.12038466158E-01  0.88974784084E+00  0.88000000000E+00 0.  1.
        -11    1    4    4    0    0  0.71288775897E-01  0.33693088692E-01  0.40302439540E-02  0.78954529837E-01  0.51100000000E-03 0.  1.
         11    1    4    4    0    0  0.46497275480E-01 -0.13298864876E-01 -0.38322810521E-02  0.48516017284E-01  0.51100000000E-03 0. -1.
</event>
<event>
 8    1  0.2183582E+004  0.1043930E+01  0.7957747E-01            NaN
         13   -1    0    0    0    0  0.00000000000E+00  0.00000000000E+00  0.74505805969E-08  0.10566000000E+00  0.10566000000E+00 0. -1.
     999900   -1    0    0    0    0 -0.00000000000E+00 -0.00000000000E+00 -0.74505805969E-08  0.93827000000E+00  0.93827000000E+00 0. -1.
     999902    2    1    2    0    0  0.59329880488E-02 -0.24826035863E-03 -0.10395305129E-01  0.10319581852E+01  0.10318887400E+01 0.  0.
     999903    2    3    3    0    0  0.11266650202E+00 -0.15294707348E-01  0.71114830448E-01  0.14164231949E+00  0.45580245844E-01 0.  0.
         14    1    1    2    0    0 -0.59329880488E-02  0.24826035863E-03  0.10395305129E-01  0.11971814779E-01  0.00000000000E+00 0. -1.
     999901    1    3    3    0    0 -0.10673351397E+00  0.15046446989E-01 -0.81510135577E-01  0.89031586573E+00  0.88000000000E+00 0. -1.
        -11    1    4    4    0    0  0.44204660083E-01 -0.11354096511E-01  0.42121313887E-02  0.45836346413E-01  0.51100000000E-03 0. -1.
         11    1    4    4    0    0  0.68461841933E-01 -0.39406108363E-02  0.66902699060E-01  0.95805973076E-01  0.51100000000E-03 0.  1.
</event>
<event>
 8    1  0.2183582E+004  0.1043930E+01  0.7957747E-01            NaN
         13   -1    0    0    0    0  0.00000000000E+00  0.00000000000E+00  0.74505805969E-08  0.10566000000E+00  0.10566000000E+00 0.  1.
     999900   -1    0    0    0    0 -0.00000000000E+00 -0.00000000000E+00 -0.74505805969E-08  0.93827000000E+00  0.93827000000E+00 0. -1.
     999902    2    1    2    0    0 -0.17272720692E-02 -0.11360098069E-01  0.73171522853E-02  0.10303073712E+01  0.10302173087E+01 0.  0.
     999903    2    3    3    0    0  0.11972724314E+00 -0.27571228453E-01 -0.48720872115E-01  0.14005220546E+00  0.46326142585E-01 0.  0.
         14    1    1    2    0    0  0.17272720692E-02  0.11360098069E-01 -0.73171522853E-02  0.13622628766E-01  0.00000000000E+00 0. -1.
     999901    1    3    3    0    0 -0.12145451520E+00  0.16211130384E-01  0.56038024400E-01  0.89025516578E+00  0.88000000000E+00 0. -1.
        -11    1    4    4    0    0  0.44121451103E-01 -0.25773492152E-01 -0.19662577214E-02  0.51138074226E-01  0.51100000000E-03 0.  1.
         11    1    4    4    0    0  0.75605792032E-01 -0.17977363010E-02 -0.46754614394E-01  0.88914131232E-01  0.51100000000E-03 0. -1.
</event>
<event>
 8    1  0.2183582E+004  0.1043930E+01  0.7957747E-01            NaN
         13   -1    0    0    0    0  0.00000000000E+00  0.00000000000E+00  0.74505805969E-08  0.10566000000E+00  0.10566000000E+00 0. -1.
     999900   -1    0    0    0    0 -0.00000000000E+00 -0.00000000000E+00 -0.74505805969E-08  0.93827000000E+00  0.93827000000E+00 0.  1.
     999902    2    1    2    0    0  0.83520848608E-02 -0.14775091329E-02  0.10457429702E-01  0.10304652983E+01  0.10303773255E+01 0.  0.
     999903    2    3    3    0    0  0.85857613007E-01 -0.36864748920E-01  0.97179334283E-01  0.14210723294E+00  0.44945558375E-01 0.  0.
         14    1    1    2    0    0 -0.83520848608E-02  0.14775091329E-02 -0.10457429702E-01  0.13464701658E-01  0.00000000000E+00 0.  1.
     999901    1    3    3    0    0 -0.77505528146E-01  0.35387239787E-01 -0.86721904581E-01  0.88835806540E+00  0.88000000000E+00 0.  1.
        -11    1    4    4    0    0  0.31787177921E-01 -0.15042089362E-01  0.68776132222E-01  0.77247049244E-01  0.51100000000E-03 0.  1.
         11    1    4    4    0    0  0.54070435085E-01 -0.21822659558E-01  0.28403202061E-01  0.64860183694E-01  0.51100000000E-03 0. -1.
</event>
<event>
 8    1  0.2183582E+004  0.1043930E+01  0.7957747E-01            NaN
         13   -1    0    0    0    0  0.00000000000E+00  0.00000000000E+00  0.74505805969E-08  0.10566000000E+00  0.10566000000E+00 0.  1.
     999900   -1    0    0    0    0 -0.00000000000E+00 -0.00000000000E+00 -0.74505805969E-08  0.93827000000E+00  0.93827000000E+00 0. -1.
     999902    2    1    2    0    0  0.12657298533E-01  0.62217028780E-02 -0.75948125117E-03  0.10298057795E+01  0.10297089151E+01 0.  0.
     999903    2    3    3    0    0  0.61824341771E-01 -0.11146725808E+00  0.35832117142E-01  0.13985800871E+00  0.45045789165E-01 0.  0.
         14    1    1    2    0    0 -0.12657298533E-01 -0.62217028780E-02  0.75948125117E-03  0.14124220496E-01  0.00000000000E+00 0. -1.
     999901    1    3    3    0    0 -0.49167043239E-01  0.11768896096E+00 -0.36591598393E-01  0.88994777080E+00  0.88000000000E+00 0. -1.
        -11    1    4    4    0    0  0.44135046311E-01 -0.63220409464E-01  0.42493712593E-01  0.88038055503E-01  0.51100000000E-03 0.  1.
         11    1    4    4    0    0  0.17689295460E-01 -0.48246848616E-01 -0.66615954513E-02  0.51819953205E-01  0.51100000000E-03 0. -1.
</event>
<event>
 7    1  0.2183582E+004  0.1043930E+01  0.7957747E-01            NaN
         13   -1    0    0    0    0  0.00000000000E+00  0.00000000000E+00  0.74505805969E-08  0.10566000000E+00  0.10566000000E+00 0.  1.
     999900   -1    0    0    0    0 -0.00000000000E+00 -0.00000000000E+00 -0.74505805969E-08  0.93827000000E+00  0.93827000000E+00 0.  1.
     999902    2    1    2    0    0 -0.40744592198E-02 -0.38370415962E-02  0.12312113989E-01  0.10304054942E+01  0.10303167330E+01 0.  0.
         14    1    1    2    0    0  0.40744592198E-02  0.38370415962E-02 -0.12312113989E-01  0.13524505796E-01  0.00000000000E+00 0. -1.
     999901    1    3    3    0    0 -0.12577164162E+00  0.57423487520E-01  0.18692795545E-01  0.89099123641E+00  0.88000000000E+00 0.  1.
        -11    1    3    3    0    0  0.63567624371E-01 -0.29198028046E-01  0.10939070995E-01  0.70804605113E-01  0.51100000000E-03 0. -1.
         11    1    3    3    0    0  0.58129558029E-01 -0.32062501070E-01 -0.17319752550E-01  0.68609652681E-01  0.51100000000E-03 0.  1.
</event>
<event>
 8    1  0.2183582E+004  0.1043930E+01  0.7957747E-01            NaN
         13   -1    0    0    0    0  0.00000000000E+00  0.00000000000E+00  0.74505805969E-08  0.10566000000E+00  0.10566000000E+00 0. -1.
     999900   -1    0    0    0    0 -0.00000000000E+00 -0.00000000000E+00 -0.74505805969E-08  0.93827000000E+00  0.93827000000E+00 0.  1.
     999902    2    1    2    0    0  0.81311590380E-02 -0.78862768633E-02  0.82392428867E-02  0.10299230648E+01  0.10298278134E+01 0.  0.
     999903    2    3    3    0    0 -0.27288670781E-01  0.48123015531E-01  0.12075727636E+00  0.14028723312E+00  0.45140799775E-01 0.  0.
         14    1    1    2    0    0 -0.81311590380E-02  0.78862768633E-02 -0.82392428867E-02  0.14006935190E-01  0.00000000000E+00 0.  1.
     999901    1    3    3    0    0  0.35419829819E-01 -0.56009292394E-01 -0.11251803347E+00  0.88963583170E+00  0.88000000000E+00 0.  1.
        -11    1    4    4    0    0 -0.19163302975E-01  0.53813207984E-01  0.79780745404E-01  0.98124013333E-01  0.51100000000E-03 0. -1.
         11    1    4    4    0    0 -0.81253678065E-02 -0.56901924531E-02  0.40976530956E-01  0.42163219782E-01  0.51100000000E-03 0.  1.
</event>
<event>
 8    1  0.2183582E+004  0.1043930E+01  0.7957747E-01            NaN
         13   -1    0    0    0    0  0.00000000000E+00  0.00000000000E+00  0.74505805969E-08  0.10566000000E+00  0.10566000000E+00 0. -1.
     999900   -1    0    0    0    0 -0.00000000000E+00 -0.00000000000E+00 -0.74505805969E-08  0.93827000000E+00  0.93827000000E+00 0. -1.
     999902    2    1    2    0    0 -0.13585885309E-01  0.24010795674E-02  0.31570420773E-02  0.10297769658E+01  0.10296797031E+01 0.  0.
     999903    2    3    3    0    0  0.10796790355E+00  0.64731886226E-01  0.36279366383E-01  0.13862179332E+00  0.45304788568E-01 0.  0.
         14    1    1    2    0    0  0.13585885309E-01 -0.24010795674E-02 -0.31570420773E-02  0.14153034212E-01  0.00000000000E+00 0.  1.
     999901    1    3    3    0    0 -0.12155378886E+00 -0.62330806658E-01 -0.33122324306E-01  0.89115517247E+00  0.88000000000E+00 0.  1.
        -11    1    4    4    0    0  0.26056063200E-01 -0.39629431415E-02  0.12155233907E-01  0.29028161846E-01  0.51100000000E-03 0. -1.
         11    1    4    4    0    0  0.81911840352E-01  0.68694829367E-01  0.24124132476E-01  0.10959363148E+00  0.51100000000E-03 0.  1.
</event>
<event>
 8    1  0.2183582E+004  0.1043930E+01  0.7957747E-01            NaN
         13   -1    0    0    0    0  0.00000000000E+00  0.00000000000E+00  0.74505805969E-08  0.10566000000E+00  0.10566000000E+00 0.  1.
     999900   -1    0    0    0    0 -0.00000000000E+00 -0.00000000000E+00 -0.74505805969E-08  0.93827000000E+00  0.93827000000E+00 0. -1.
     999902    2    1    2    0    0 -0.58599568604E-02 -0.91267475096E-02 -0.33486152890E-03  0.10330787905E+01  0.10330217997E+01 0.  0.
     999903    2    3    3    0    0 -0.87502625841E-01 -0.10496681551E+00  0.52770028843E-02  0.14410053599E+00  0.45413388184E-01 0.  0.
         14    1    1    2    0    0  0.58599568604E-02  0.91267475096E-02  0.33486152890E-03  0.10851209460E-01  0.00000000000E+00 0.  1.
     999901    1    3    3    0    0  0.81642668981E-01  0.95840068003E-01 -0.56118644132E-02  0.88897825455E+00  0.88000000000E+00 0.  1.
        -11    1    4    4    0    0 -0.44069840970E-01 -0.65377867000E-01 -0.18023624722E-01  0.80879716529E-01  0.51100000000E-03 0.  1.
         11    1    4    4    0    0 -0.43432784871E-01 -0.39588948512E-01  0.23300627607E-01  0.63220819465E-01  0.51100000000E-03 0. -1.
</event>
<event>
 8    1  0.2183582E+004  0.1043930E+01  0.7957747E-01            NaN
         13   -1    0    0    0    0  0.00000000000E+00  0.00000000000E+00  0.74505805969E-08  0.10566000000E+00  0.10566000000E+00 0. -1.
     999900   -1    0    0    0    0 -0.00000000000E+00 -0.00000000000E+00 -0.74505805969E-08  0.93827000000E+00  0.93827000000E+00 0.  1.
     999902    2    1    2    0    0 -0.11385318154E-01  0.22564241559E-02 -0.63141871080E-02  0.10307169050E+01  0.10306322101E+01 0.  0.
     999903    2    3    3    0    0 -0.60127365591E-01 -0.42669143532E-02  0.11861393050E+00  0.14053412848E+00  0.45244558866E-01 0.  0.
         14    1    1    2    0    0  0.11385318154E-01 -0.22564241559E-02  0.63141871080E-02  0.13213094954E-01  0.00000000000E+00 0. -1.
     999901    1    3    3    0    0  0.48742047437E-01  0.65233385091E-02 -0.12492811761E+00  0.89018277657E+00  0.88000000000E+00 0.  1.
        -11    1    4    4    0    0 -0.53888673705E-01 -0.20659894615E-01  0.87707905257E-01  0.10499408633E+00  0.51100000000E-03 0. -1.
         11    1    4    4    0    0 -0.62386918865E-02  0.16392980261E-01  0.30906025242E-01  0.35540042143E-01  0.51100000000E-03 0.  1.
</event>
<event>
 8    1  0.2183582E+004  0.1043930E+01  0.7957747E-01            NaN
         13   -1    0    0    0    0  0.00000000000E+00  0.00000000000E+00  0.74505805969E-08  0.10566000000E+00  0.10566000000E+00 0.  1.
     999900   -1    0    0    0    0 -0.00000000000E+00 -0.00000000000E+00 -0.74505805969E-08  0.93827000000E+00  0.93827000000E+00 0.  1.
     999902    2    1    2    0    0 -0.56171652984E-02  0.66077159249E-02 -0.11203918829E-01  0.10297616461E+01  0.10296641712E+01 0.  0.
     999903    2    3    3    0    0 -0.65072624876E-01  0.29997722083E-01  0.10832523479E+00  0.13938573523E+00  0.50593644401E-01 0.  0.
         14    1    1    2    0    0  0.56171652984E-02 -0.66077159249E-02  0.11203918829E-01  0.14168353922E-01  0.00000000000E+00 0.  1.
     999901    1    3    3    0    0  0.59455459577E-01 -0.23390006158E-01 -0.11952915362E+00  0.89037591085E+00  0.88000000000E+00 0.  1.
        -11    1    4    4    0    0 -0.11480731821E-01  0.23588211973E-01  0.65251289327E-01  0.70329245887E-01  0.51100000000E-03 0. -1.
         11    1    4    4    0    0 -0.53591893055E-01  0.64095101098E-02  0.43073945463E-01  0.69056489338E-01  0.51100000000E-03 0.  1.
</event>
<event>
 8    1  0.2183582E+004  0.1043930E+01  0.7957747E-01            NaN
         13   -1    0    0    0    0  0.00000000000E+00  0.00000000000E+00  0.74505805969E-08  0.10566000000E+00  0.10566000000E+00 0. -1.
     999900   -1    0    0    0    0 -0.00000000000E+00 -0.00000000000E+00 -0.74505805969E-08  0.93827000000E+00  0.93827000000E+00 0. -1.
     999902    2    1    2    0    0  0.35673519240E-02  0.12472176843E-01  0.54758904876E-02  0.10298492837E+01  0.10297530192E+01 0.  0.
     999903    2    3    3    0    0  0.94198058770E-01  0.55946746833E-01 -0.75652827313E-01  0.14041922343E+00  0.44619449462E-01 0.  0.
         14    1    1    2    0    0 -0.35673519240E-02 -0.12472176843E-01 -0.54758904876E-02  0.14080716302E-01  0.00000000000E+00 0. -1.
     999901    1    3    3    0    0 -0.90630706846E-01 -0.43474569990E-01  0.81128717800E-01  0.88943006027E+00  0.88000000000E+00 0.  1.
        -11    1    4    4    0    0  0.78864464003E-01  0.63232085828E-01 -0.61601092514E-01  0.11837591005E+00  0.51100000000E-03 0.  1.
         11    1    4    4    0    0  0.15333594767E-01 -0.72853389944E-02 -0.14051734799E-01  0.22043313376E-01  0.51100000000E-03 0. -1.
</event>
<event>
 8    1  0.2183582E+004  0.1043930E+01  0.7957747E-01            NaN
         13   -1    0    0    0    0  0.00000000000E+00  0.00000000000E+00  0.74505805969E-08  0.10566000000E+00  0.10566000000E+00 0.  1.
     999900   -1    0    0    0    0 -0.00000000000E+00 -0.00000000000E+00 -0.74505805969E-08  0.93827000000E+00  0.93827000000E+00 0. -1.
     999902    2    1    2    0    0 -0.67234627748E-02 -0.11443403860E-01 -0.69563836205E-02  0.10289450837E+01  0.10288359624E+01 0.  0.
     999903    2    3    3    0    0  0.42916282835E-01  0.67416958674E-01 -0.10351511761E+00  0.13877282495E+00  0.46429125795E-01 0.  0.
         14    1    1    2    0    0  0.67234627748E-02  0.11443403860E-01  0.69563836205E-02  0.14984916305E-01  0.00000000000E+00 0.  1.
     999901    1    3    3    0    0 -0.49639745609E-01 -0.78860362534E-01  0.96558733992E-01  0.89017225874E+00  0.88000000000E+00 0.  1.
        -11    1    4    4    0    0  0.22632888697E-01  0.11851102869E-01 -0.60371372655E-01  0.65556540843E-01  0.51100000000E-03 0.  1.
         11    1    4    4    0    0  0.20283394137E-01  0.55565855805E-01 -0.43143744957E-01  0.73216284111E-01  0.51100000000E-03 0. -1.
</event>
<event>
 8    1  0.2183582E+004  0.1043930E+01  0.7957747E-01            NaN
         13   -1    0    0    0    0  0.00000000000E+00  0.00000000000E+00  0.74505805969E-08  0.10566000000E+00  0.10566000000E+00 0.  1.
     999900   -1    0    0    0    0 -0.00000000000E+00 -0.00000000000E+00 -0.74505805969E-08  0.93827000000E+00  0.93827000000E+00 0. -1.
     999902    2    1    2    0    0  0.64504785483E-02 -0.71010918249E-02 -0.10210205222E-01  0.10299199154E+01  0.10298246209E+01 0.  0.
     999903    2    3    3    0    0  0.58638538837E-01  0.93260102285E-01 -0.74707815119E-01  0.14033804479E+00  0.44470037770E-01 0.  0.
         14    1    1    2    0    0 -0.64504785483E-02  0.71010918249E-02  0.10210205222E-01  0.14010084557E-01  0.00000000000E+00 0.  1.
     999901    1    3    3    0    0 -0.52188060289E-01 -0.10036119411E+00  0.64497609897E-01  0.88958187066E+00  0.88000000000E+00 0. -1.
        -11    1    4    4    0    0  0.53812318225E-01  0.59792705772E-01 -0.33784798847E-01  0.87250255073E-01  0.51100000000E-03 0.  1.
         11    1    4    4    0    0  0.48262206125E-02  0.33467396514E-01 -0.40923016272E-01  0.53087789713E-01  0.51100000000E-03 0. -1.
</event>
<event>
 8    1  0.2183582E+004  0.1043930E+01  0.7957747E-01            NaN
         13   -1    0    0    0    0  0.00000000000E+00  0.00000000000E+00  0.74505805969E-08  0.10566000000E+00  0.10566000000E+00 0. -1.
     999900   -1    0    0    0    0 -0.00000000000E+00 -0.00000000000E+00 -0.74505805969E-08  0.93827000000E+00  0.93827000000E+00 0.  1.
     999902    2    1    2    0    0 -0.86423527345E-02 -0.91521367160E-02 -0.52418872642E-02  0.10302944124E+01  0.10302041773E+01 0.  0.
     999903    2    3    3    0    0  0.99688756520E-01  0.80569998054E-01  0.26892109018E-01  0.13854428797E+00  0.45188067428E-01 0.  0.
         14    1    1    2    0    0  0.86423527345E-02  0.91521367160E-02  0.52418872642E-02  0.13635587605E-01  0.00000000000E+00 0.  1.
     999901    1    3    3    0    0 -0.10833110925E+00 -0.89722134770E-01 -0.32133996282E-01  0.89175012443E+00  0.88000000000E+00 0. -1.
        -11    1    4    4    0    0  0.19499749131E-01  0.24666780352E-01  0.25973079176E-01  0.40786667331E-01  0.51100000000E-03 0. -1.
         11    1    4    4    0    0  0.80189007389E-01  0.55903217702E-01  0.91902984196E-03  0.97757620636E-01  0.51100000000E-03 0.  1.
</event>
<event>
 8    1  0.2183582E+004  0.1043930E+01  0.7957747E-01            NaN
         13   -1    0    0    0    0  0.00000000000E+00  0.00000000000E+00  0.74505805969E-08  0.10566000000E+00  0.10566000000E+00 0.  1.
     999900   -1    0    0    0    0 -0.00000000000E+00 -0.00000000000E+00 -0.74505805969E-08  0.93827000000E+00  0.93827000000E+00 0. -1.
     999902    2    1    2    0    0  0.68376505225E-02  0.16183615372E-02  0.10627557185E-01  0.10311896103E+01  0.10311109032E+01 0.  0.
     999903    2    3    3    0    0  0.11686780287E-01 -0.13052721833E+00  0.11124340680E-01  0.14130972223E+00  0.51679310008E-01 0.  0.
         14    1    1    2    0    0 -0.68376505225E-02 -0.16183615372E-02 -0.10627557185E-01  0.12740389729E-01  0.00000000000E+00 0. -1.
     999901    1    3    3    0    0 -0.48491297650E-02  0.13214557987E+00 -0.49678349504E-03  0.88987988804E+00  0.88000000000E+00 0.  1.
        -11    1    4    4    0    0 -0.17427715925E-01 -0.19816439202E-01  0.19603403465E-02  0.26467349702E-01  0.51100000000E-03 0. -1.
         11    1    4    4    0    0  0.29114496212E-01 -0.11071077913E+00  0.91640003336E-02  0.11484237253E+00  0.51100000000E-03 0.  1.
</event>
<event>
 8    1  0.2183582E+004  0.1043930E+01  0.7957747E-01            NaN
         13   -1    0    0    0    0  0.00000000000E+00  0.00000000000E+00  0.74505805969E-08  0.10566000000E+00  0.10566000000E+00 0.  1.
     999900   -1    0    0    0    0 -0.00000000000E+00 -0.00000000000E+00 -0.74505805969E-08  0.93827000000E+00  0.93827000000E+00 0. -1.
     999902    2    1    2    0    0  0.10983182285E-02 -0.12048644717E-01 -0.53737259000E-02  0.10306916817E+01  0.10306066609E+01 0.  0.
     999903    2    3    3    0    0  0.73614702136E-01  0.42101339959E-01  0.10139827855E+00  0.13962989496E+00  0.44980545548E-01 0.  0.
         14    1    1    2    0    0 -0.10983182285E-02  0.12048644717E-01  0.53737259000E-02  0.13238318341E-01  0.00000000000E+00 0.  1.
     999901    1    3    3    0    0 -0.72516383908E-01 -0.54149984676E-01 -0.10677200445E+00  0.89106178670E+00  0.88000000000E+00 0. -1.
        -11    1    4    4    0    0  0.46958253792E-01  0.49276573098E-01  0.66878937818E-01  0.95426996705E-01  0.51100000000E-03 0.  1.
         11    1    4    4    0    0  0.26656448344E-01 -0.71752331387E-02  0.34519340731E-01  0.44202898258E-01  0.51100000000E-03 0. -1.
</event>
<event>
 8    1  0.2183582E+004  0.1043930E+01  0.7957747E-01            NaN
         13   -1    0    0    0    0  0.00000000000E+00  0.00000000000E+00  0.74505805969E-08  0.10566000000E+00  0.10566000000E+00 0. -1.
     999900   -1    0    0    0    0 -0.00000000000E+00 -0.00000000000E+00 -0.74505805969E-08  0.93827000000E+00  0.93827000000E+00 0.  1.
     999902    2    1    2    0    0  0.72182362324E-02  0.70176519524E-02  0.94626940456E-02  0.10301135984E+01  0.10300209380E+01 0.  0.
     999903    2    3    3    0    0  0.12296492519E+00 -0.41964696949E-01  0.34450022756E-01  0.14083246568E+00  0.42018694687E-01 0.  0.
         14    1    1    2    0    0 -0.72182362324E-02 -0.70176519524E-02 -0.94626940456E-02  0.13816401551E-01  0.00000000000E+00 0.  1.
     999901    1    3    3    0    0 -0.11574668896E+00  0.48982348901E-01 -0.24987328710E-01  0.88928113277E+00  0.88000000000E+00 0.  1.
        -11    1    4    4    0    0  0.80400624508E-01 -0.11968006352E-01  0.35607442735E-01  0.88744829125E-01  0.51100000000E-03 0.  1.
         11    1    4    4    0    0  0.42564300683E-01 -0.29996690597E-01 -0.11574199794E-02  0.52087636551E-01  0.51100000000E-03 0. -1.
</event>
<event>
 8    1  0.2183582E+004  0.1043930E+01  0.7957747E-01            NaN
         13   -1    0    0    0    0  0.00000000000E+00  0.00000000000E+00  0.74505805969E-08  0.10566000000E+00  0.10566000000E+00 0.  1.
     999900   -1    0    0    0    0 -0.00000000000E+00 -0.00000000000E+00 -0.74505805969E-08  0.93827000000E+00  0.93827000000E+00 0.  1.
     999902    2    1    2    0    0  0.11827302561E-01 -0.53942911465E-02  0.18040771683E-02  0.10308060464E+01  0.10307224977E+01 0.  0.
     999903    2    3    3    0    0 -0.97886513773E-01 -0.25411241402E-01 -0.85470855283E-01  0.13948415529E+00  0.43852727463E-01 0.  0.
         14    1    1    2    0    0 -0.11827302561E-01  0.53942911465E-02 -0.18040771683E-02  0.13123953569E-01  0.00000000000E+00 0.  1.
     999901    1    3    3    0    0  0.10971381633E+00  0.20016950255E-01  0.87274932452E-01  0.89132189114E+00  0.88000000000E+00 0. -1.
        -11    1    4    4    0    0 -0.59564335678E-01 -0.36949498330E-01 -0.51400366682E-01  0.86922001402E-01  0.51100000000E-03 0.  1.
         11    1    4    4    0    0 -0.38322178095E-01  0.11538256928E-01 -0.34070488601E-01  0.52562153889E-01  0.51100000000E-03 0. -1.
</event>
<event>
 8    1  0.2183582E+004  0.1043930E+01  0.7957747E-01            NaN
         13   -1    0    0    0    0  0.00000000000E+00  0.00000000000E+00  0.74505805969E-08  0.10566000000E+00  0.10566000000E+00 0.  1.
     999900   -1    0    0    0    0 -0.00000000000E+00 -0.00000000000E+00 -0.74505805969E-08  0.93827000000E+00  0.93827000000E+00 0.  1.
     999902    2    1    2    0    0  0.27457876862E-02 -0.16259509161E-02 -0.16307608337E-01  0.10273131063E+01  0.10271787075E+01 0.  0.
     999903    2    3    3    0    0 -0.11094771439E+00 -0.43232618760E-01 -0.54597914056E-01  0.13819923579E+00  0.44041365800E-01 0.  0.
         14    1    1    2    0    0 -0.27457876862E-02  0.16259509161E-02  0.16307608337E-01  0.16616893695E-01  0.00000000000E+00 0.  1.
     999901    1    3    3    0    0  0.11369350208E+00  0.41606667843E-01  0.38290305719E-01  0.88911387051E+00  0.88000000000E+00 0.  1.
        -11    1    4    4    0    0 -0.25811742516E-02 -0.91714476114E-02 -0.15238234603E-01  0.17978955104E-01  0.51100000000E-03 0.  1.
         11    1    4    4    0    0 -0.10836654014E+00 -0.34061171148E-01 -0.39359679453E-01  0.12022028069E+00  0.51100000000E-03 0. -1.
</event>
<event>
 8    1  0.2183582E+004  0.1043930E+01  0.7957747E-01            NaN
         13   -1    0    0    0    0  0.00000000000E+00  0.00000000000E+00  0.74505805969E-08  0.10566000000E+00  0.10566000000E+00 0. -1.
     999900   -1    0    0    0    0 -0.00000000000E+00 -0.00000000000E+00 -0.74505805969E-08  0.93827000000E+00  0.93827000000E+00 0.  1.
     999902    2    1    2    0    0 -0.59310793529E-02  0.10217915664E-01 -0.70142137033E-02  0.10301901784E+01  0.10300985492E+01 0.  0.
     999903    2    3    3    0    0 -0.62483241172E-01 -0.11027861292E+00  0.36187246989E-01  0.13913242126E+00  0.44528484206E-01 0.  0.
         14    1    1    2    0    0  0.59310793529E-02 -0.10217915664E-01  0.70142137033E-02  0.13739821567E-01  0.00000000000E+00 0. -1.
     999901    1    3    3    0    0  0.56552161819E-01  0.12049652859E+00 -0.43201460693E-01  0.89105775717E+00  0.88000000000E+00 0.  1.
        -11    1    4    4    0    0 -0.63583545662E-02 -0.47111483468E-01  0.25529505607E-01  0.53962369527E-01  0.51100000000E-03 0. -1.
         11    1    4    4    0    0 -0.56124886606E-01 -0.63167129456E-01  0.10657741382E-01  0.85170051736E-01  0.51100000000E-03 0.  1.
</event>
<event>
 8    1  0.2183582E+004  0.1043930E+01  0.7957747E-01            NaN
         13   -1    0    0    0    0  0.00000000000E+00  0.00000000000E+00  0.74505805969E-08  0.10566000000E+00  0.10566000000E+00 0. -1.
     999900   -1    0    0    0    0 -0.00000000000E+00 -0.00000000000E+00 -0.74505805969E-08  0.93827000000E+00  0.93827000000E+00 0. -1.
     999902    2    1    2    0    0  0.20434448694E-01  0.16740228995E-01  0.43513601019E-02  0.10171580689E+01  0.10168056849E+01 0.  0.
     999903    2    3    3    0    0 -0.12832836602E-01 -0.11593340787E+00 -0.18127165543E-01  0.12630775021E+00  0.44942372859E-01 0.  0.
         14    1    1    2    0    0 -0.20434448694E-01 -0.16740228995E-01 -0.43513601019E-02  0.26771931103E-01  0.00000000000E+00 0.  1.
     999901    1    3    3    0    0  0.33267285296E-01  0.13267363686E+00  0.22478525645E-01  0.89085031869E+00  0.88000000000E+00 0.  1.
        -11    1    4    4    0    0 -0.10409226190E-01 -0.70489816004E-01 -0.32864925595E-01  0.78469934405E-01  0.51100000000E-03 0.  1.
         11    1    4    4    0    0 -0.24236104121E-02 -0.45443591861E-01  0.14737760053E-01  0.47837815806E-01  0.51100000000E-03 0. -1.
</event>
<event>
 8    1  0.2183582E+004  0.1043930E+01  0.7957747E-01            NaN
         13   -1    0    0    0    0  0.00000000000E+00  0.00000000000E+00  0.74505805969E-08  0.10566000000E+00  0.10566000000E+00 0. -1.
     999900   -1    0    0    0    0 -0.00000000000E+00 -0.00000000000E+00 -0.74505805969E-08  0.93827000000E+00  0.93827000000E+00 0.  1.
     999902    2    1    2    0    0  0.39605842207E-02 -0.14560241751E-01 -0.49499447983E-02  0.10280495460E+01  0.10279268846E+01 0.  0.
     999903    2    3    3    0    0 -0.28991039878E-01  0.10145672869E+00  0.73722424791E-01  0.13634607019E+00  0.44958945140E-01 0.  0.
         14    1    1    2    0    0 -0.39605842207E-02  0.14560241751E-01  0.49499447983E-02  0.15880454046E-01  0.00000000000E+00 0. -1.
     999901    1    3    3    0    0  0.32951624099E-01 -0.11601697044E+00 -0.78672369590E-01  0.89170347577E+00  0.88000000000E+00 0.  1.
        -11    1    4    4    0    0 -0.72696069569E-02  0.88920784652E-01  0.62076685063E-01  0.10869005970E+00  0.51100000000E-03 0. -1.
         11    1    4    4    0    0 -0.21721432921E-01  0.12535944038E-01  0.11645739729E-01  0.27656010484E-01  0.51100000000E-03 0.  1.
</event>
<event>
 8    1  0.2183582E+004  0.1043930E+01  0.7957747E-01            NaN
         13   -1    0    0    0    0  0.00000000000E+00  0.00000000000E+00  0.74505805969E-08  0.10566000000E+00  0.10566000000E+00 0.  1.
     999900   -1    0    0    0    0 -0.00000000000E+00 -0.00000000000E+00 -0.74505805969E-08  0.93827000000E+00  0.93827000000E+00 0.  1.
     999902    2    1    2    0    0 -0.24465548073E-02  0.87867444876E-02 -0.11525438868E-01  0.10292321005E+01  0.10291271488E+01 0.  0.
     999903    2    3    3    0    0 -0.87671833506E-01  0.17553146406E-01  0.95737239165E-01  0.13858880486E+00  0.45241292330E-01 0.  0.
         14    1    1    2    0    0  0.24465548073E-02 -0.87867444876E-02  0.11525438868E-01  0.14697899517E-01  0.00000000000E+00 0.  1.
     999901    1    3    3    0    0  0.85225278698E-01 -0.87664019187E-02 -0.10726267803E+00  0.89064329562E+00  0.88000000000E+00 0.  1.
        -11    1    4    4    0    0 -0.38694651378E-01 -0.77883038365E-03  0.13232990032E-01  0.40905449126E-01  0.51100000000E-03 0. -1.
         11    1    4    4    0    0 -0.48977182128E-01  0.18331976790E-01  0.82504249133E-01  0.97683355738E-01  0.51100000000E-03 0.  1.
</event>
<event>
 8    1  0.2183582E+004  0.1043930E+01  0.7957747E-01            NaN
         13   -1    0    0    0    0  0.00000000000E+00  0.00000000000E+00  0.74505805969E-08  0.10566000000E+00  0.10566000000E+00 0. -1.
     999900   -1    0    0    0    0 -0.00000000000E+00 -0.00000000000E+00 -0.74505805969E-08  0.93827000000E+00  0.93827000000E+00 0. -1.
     999902    2    1    2    0    0 -0.84585317318E-03 -0.27902216859E-02 -0.13107763887E-01  0.10305018848E+01  0.10304143925E+01 0.  0.
     999903    2    3    3    0    0  0.12808843823E+00  0.11577261526E-01  0.32198041842E-01  0.13983747428E+00  0.44464866158E-01 0.  0.
         14    1    1    2    0    0  0.84585317318E-03  0.27902216859E-02  0.13107763887E-01  0.13428115235E-01  0.00000000000E+00 0. -1.
     999901    1    3    3    0    0 -0.12893429140E+00 -0.14367483212E-01 -0.45305805728E-01  0.89066441049E+00  0.88000000000E+00 0. -1.
        -11    1    4    4    0    0  0.23050618286E-01 -0.11725145247E-01  0.17535868949E-01  0.31250245682E-01  0.51100000000E-03 0.  1.
         11    1    4    4    0    0  0.10503781994E+00  0.23302406773E-01  0.14662172893E-01  0.10858722860E+00  0.51100000000E-03 0. -1.
</event>
<event>
 8    1  0.2183582E+004  0.1043930E+01  0.7957747E-01            NaN
         13   -1    0    0    0    0  0.00000000000E+00  0.00000000000E+00  0.74505805969E-08  0.10566000000E+00  0.10566000000E+00 0. -1.
     999900   -1    0    0    0    0 -0.00000000000E+00 -0.00000000000E+00 -0.74505805969E-08  0.93827000000E+00  0.93827000000E+00 0. -1.
     999902    2    1    2    0    0 -0.10748857219E-01  0.15547448345E-01 -0.13040795563E-01  0.10209664761E+01  0.10207081962E+01 0.  0.
     999903    2    3    3    0    0  0.66349906666E-01  0.75600528148E-01  0.71227713127E-01  0.13155556242E+00  0.45997053350E-01 0.  0.
         14    1    1    2    0    0  0.10748857219E-01 -0.15547448345E-01  0.13040795563E-01  0.22963523912E-01  0.00000000000E+00 0. -1.
     999901    1    3    3    0    0 -0.77098763885E-01 -0.60053079803E-01 -0.84268508690E-01  0.88941091366E+00  0.88000000000E+00 0.  1.
        -11    1    4    4    0    0  0.53393480702E-01  0.55198379850E-01  0.27468107873E-01  0.81562754923E-01  0.51100000000E-03 0.  1.
         11    1    4    4    0    0  0.12956425964E-01  0.20402148297E-01  0.43759605254E-01  0.49992807502E-01  0.51100000000E-03 0. -1.
</event>
<event>
 8    1  0.2183582E+004  0.1043930E+01  0.7957747E-01            NaN
         13   -1    0    0    0    0  0.00000000000E+00  0.00000000000E+00  0.74505805969E-08  0.10566000000E+00  0.10566000000E+00 0.  1.
     999900   -1    0    0    0    0 -0.00000000000E+00 -0.00000000000E+00 -0.74505805969E-08  0.93827000000E+00  0.93827000000E+00 0.  1.
     999902    2    1    2    0    0  0.22705924448E-01 -0.29611743897E-02  0.14464514763E-01  0.10168458765E+01  0.10164851139E+01 0.  0.
     999903    2    3    3    0    0  0.75500482031E-01  0.80233003281E-01 -0.49770976476E-01  0.12902002936E+00  0.45070614300E-01 0.  0.
         14    1    1    2    0    0 -0.22705924448E-01  0.29611743897E-02 -0.14464514763E-01  0.27084123507E-01  0.00000000000E+00 0. -1.
     999901    1    3    3    0    0 -0.52794557583E-01 -0.83194177671E-01  0.64235491240E-01  0.88782584714E+00  0.88000000000E+00 0. -1.
        -11    1    4    4    0    0  0.44868701146E-01  0.52762645637E-01 -0.69143145615E-02  0.69607226521E-01  0.51100000000E-03 0. -1.
         11    1    4    4    0    0  0.30631780885E-01  0.27470357644E-01 -0.42856661915E-01  0.59412802836E-01  0.51100000000E-03 0.  1.
</event>
<event>
 8    1  0.2183582E+004  0.1043930E+01  0.7957747E-01            NaN
         13   -1    0    0    0    0  0.00000000000E+00  0.00000000000E+00  0.74505805969E-08  0.10566000000E+00  0.10566000000E+00 0.  1.
     999900   -1    0    0    0    0 -0.00000000000E+00 -0.00000000000E+00 -0.74505805969E-08  0.93827000000E+00  0.93827000000E+00 0.  1.
     999902    2    1    2    0    0 -0.12178791452E-01  0.39896207242E-02  0.75275742723E-02  0.10290671467E+01  0.10289598087E+01 0.  0.
     999903    2    3    3    0    0 -0.46936600366E-01  0.55712484028E-01  0.11197396545E+00  0.14070212681E+00  0.44181378662E-01 0.  0.
         14    1    1    2    0    0  0.12178791452E-01 -0.39896207242E-02 -0.75275742723E-02  0.14862853332E-01  0.00000000000E+00 0. -1.
     999901    1    3    3    0    0  0.34757808914E-01 -0.51722863304E-01 -0.10444639118E+00  0.88836501985E+00  0.88000000000E+00 0.  1.
        -11    1    4    4    0    0 -0.43513633431E-01  0.21766878340E-01  0.81674104693E-01  0.95069205242E-01  0.51100000000E-03 0. -1.
         11    1    4    4    0    0 -0.34229669352E-02  0.33945605688E-01  0.30299860759E-01  0.45632921572E-01  0.51100000000E-03 0.  1.
</event>
<event>
 8    1  0.2183582E+004  0.1043930E+01  0.7957747E-01            NaN
         13   -1    0    0    0    0  0.00000000000E+00  0.00000000000E+00  0.74505805969E-08  0.10566000000E+00  0.10566000000E+00 0.  1.
     999900   -1    0    0    0    0 -0.00000000000E+00 -0.00000000000E+00 -0.74505805969E-08  0.93827000000E+00  0.93827000000E+00 0. -1.
     999902    2    1    2    0    0  0.12832537566E-02 -0.96626195878E-02  0.10300253264E-01  0.10297487386E+01  0.10296510848E+01 0.  0.
     999903    2    3    3    0    0  0.89908209464E-01  0.36401018758E-01 -0.87863023129E-01  0.13867507701E+00  0.45851345181E-01 0.  0.
         14    1    1    2    0    0 -0.12832537566E-02  0.96626195878E-02 -0.10300253264E-01  0.14181261397E-01  0.00000000000E+00 0. -1.
     999901    1    3    3    0    0 -0.88624955707E-01 -0.46063638346E-01  0.98163276393E-01  0.89107366159E+00  0.88000000000E+00 0.  1.
        -11    1    4    4    0    0  0.81908393390E-01  0.13496437295E-01 -0.67301992809E-01  0.10686888268E+00  0.51100000000E-03 0.  1.
         11    1    4    4    0    0  0.79998160740E-02  0.22904581463E-01 -0.20561030320E-01  0.31806194335E-01  0.51100000000E-03 0. -1.
</event>
<event>
 8    1  0.2183582E+004  0.1043930E+01  0.7957747E-01            NaN
         13   -1    0    0    0    0  0.00000000000E+00  0.00000000000E+00  0.74505805969E-08  0.10566000000E+00  0.10566000000E+00 0.  1.
     999900   -1    0    0    0    0 -0.00000000000E+00 -0.00000000000E+00 -0.74505805969E-08  0.93827000000E+00  0.93827000000E+00 0. -1.
     999902    2    1    2    0    0 -0.98247386200E-04  0.23208626171E-02  0.12995446466E-01  0.10307285726E+01  0.10306440281E+01 0.  0.
     999903    2    3    3    0    0  0.65903654718E-01  0.18612104117E-01  0.11597355186E+00  0.14211946519E+00  0.45369323659E-01 0.  0.
         14    1    1    2    0    0  0.98247386200E-04 -0.23208626171E-02 -0.12995446466E-01  0.13201427373E-01  0.00000000000E+00 0. -1.
     999901    1    3    3    0    0 -0.66001902104E-01 -0.16291241500E-01 -0.10297810540E+00  0.88860910744E+00  0.88000000000E+00 0. -1.
        -11    1    4    4    0    0  0.59918201995E-01  0.55547844701E-02  0.62555130675E-01  0.86801221510E-01  0.51100000000E-03 0. -1.
         11    1    4    4    0    0  0.59854527231E-02  0.13057319647E-01  0.53418421187E-01  0.55318243680E-01  0.51100000000E-03 0.  1.
</event>
<event>
 8    1  0.2335777E+004  0.1043930E+01  0.7957747E-01            NaN
         13   -1    0    0    0    0  0.00000000000E+00  0.00000000000E+00  0.74505805969E-08  0.10566000000E+00  0.10566000000E+00 0.  1.
     999900   -1    0    0    0    0 -0.00000000000E+00 -0.00000000000E+00 -0.74505805969E-08  0.93827000000E+00  0.93827000000E+00 0. -1.
     999902    2    1    2    0    0 -0.46404739532E-03 -0.13064020730E-01  0.14809389380E-02  0.10307741208E+01  0.10306901624E+01 0.  0.
     999903    2    3    3    0    0 -0.28126778863E-01  0.12377611441E+00  0.41849391140E-02  0.13976471517E+00  0.58352546667E-01 0.  0.
         14    1    1    2    0    0  0.46404739532E-03  0.13064020730E-01 -0.14809389380E-02  0.13155879209E-01  0.00000000000E+00 0. -1.
     999901    1    3    3    0    0  0.27662731468E-01 -0.13684013514E+00 -0.27040001760E-02  0.89100940563E+00  0.88000000000E+00 0. -1.
        -11    1    4    4    0    0 -0.22296226895E-01  0.64298220943E-01  0.30357510494E-01  0.74519947091E-01  0.51100000000E-03 0. -1.
         11    1    4    4    0    0 -0.58305519686E-02  0.59477893466E-01 -0.26172571380E-01  0.65244768074E-01  0.51100000000E-03 0.  1.
</event>
<event>
 8    1  0.2183582E+004  0.1043930E+01  0.7957747E-01            NaN
         13   -1    0    0    0    0  0.00000000000E+00  0.00000000000E+00  0.74505805969E-08  0.10566000000E+00  0.10566000000E+00 0.  1.
     999900   -1    0    0    0    0 -0.00000000000E+00 -0.00000000000E+00 -0.74505805969E-08  0.93827000000E+00  0.93827000000E+00 0. -1.
     999902    2    1    2    0    0 -0.54902603388E-02 -0.12070119965E-01 -0.57429825951E-02  0.10294796504E+01  0.10293782288E+01 0.  0.
     999903    2    3    3    0    0 -0.80580410420E-01  0.11618374564E-01  0.10395212806E+00  0.13918043513E+00  0.44010901178E-01 0.  0.
         14    1    1    2    0    0  0.54902603388E-02  0.12070119965E-01  0.57429825951E-02  0.14450349603E-01  0.00000000000E+00 0.  1.
     999901    1    3    3    0    0  0.75090150082E-01 -0.23688494529E-01 -0.10969511065E+00  0.89029921527E+00  0.88000000000E+00 0. -1.
        -11    1    4    4    0    0 -0.75344884441E-01  0.21220109044E-01  0.10110933238E+00  0.12786908483E+00  0.51100000000E-03 0. -1.
         11    1    4    4    0    0 -0.52355259791E-02 -0.96017344794E-02  0.28427956802E-02  0.11311350298E-01  0.51100000000E-03 0.  1.
</event>
<event>
 8    1  0.2183582E+004  0.1043930E+01  0.7957747E-01            NaN
         13   -1    0    0    0    0  0.00000000000E+00  0.00000000000E+00  0.74505805969E-08  0.10566000000E+00  0.10566000000E+00 0.  1.
     999900   -1    0    0    0    0 -0.00000000000E+00 -0.00000000000E+00 -0.74505805969E-08  0.93827000000E+00  0.93827000000E+00 0. -1.
     999902    2    1    2    0    0  0.12523029416E-01  0.16717749885E-01  0.15458590051E-02  0.10229848548E+01  0.10227704112E+01 0.  0.
     999903    2    3    3    0    0 -0.86702175834E-01  0.48391052693E-02  0.89953264973E-01  0.13292720893E+00  0.45137221461E-01 0.  0.
         14    1    1    2    0    0 -0.12523029416E-01 -0.16717749885E-01 -0.15458590051E-02  0.20945145190E-01  0.00000000000E+00 0. -1.
     999901    1    3    3    0    0  0.99225205250E-01  0.11878644615E-01 -0.88407405968E-01  0.89005764588E+00  0.88000000000E+00 0. -1.
        -11    1    4    4    0    0 -0.54751070621E-02  0.15016418246E-01  0.15483320800E-01  0.22259019706E-01  0.51100000000E-03 0. -1.
         11    1    4    4    0    0 -0.81227068772E-01 -0.10177312976E-01  0.74469944173E-01  0.11066818923E+00  0.51100000000E-03 0.  1.
</event>
<event>
 8    1  0.2183582E+004  0.1043930E+01  0.7957747E-01            NaN
         13   -1    0    0    0    0  0.00000000000E+00  0.00000000000E+00  0.74505805969E-08  0.10566000000E+00  0.10566000000E+00 0.  1.
     999900   -1    0    0    0    0 -0.00000000000E+00 -0.00000000000E+00 -0.74505805969E-08  0.93827000000E+00  0.93827000000E+00 0.  1.
     999902    2    1    2    0    0 -0.93426038406E-02 -0.74500687854E-02 -0.84962129320E-03  0.10319504496E+01  0.10318809141E+01 0.  0.
     999903    2    3    3    0    0 -0.35450621347E-01  0.12447319131E+00 -0.33981963428E-01  0.14111762172E+00  0.44822844783E-01 0.  0.
         14    1    1    2    0    0  0.93426038406E-02  0.74500687854E-02  0.84962129320E-03  0.11979550399E-01  0.00000000000E+00 0.  1.
     999901    1    3    3    0    0  0.26108017506E-01 -0.13192326009E+00  0.33132342134E-01  0.89083282788E+00  0.88000000000E+00 0.  1.
        -11    1    4    4    0    0 -0.36770362716E-01  0.98097906344E-01 -0.96541457387E-02  0.10520799615E+00  0.51100000000E-03 0. -1.
         11    1    4    4    0    0  0.13197413689E-02  0.26375284961E-01 -0.24327817689E-01  0.35909625570E-01  0.51100000000E-03 0.  1.
</event>
<event>
 8    1  0.2183582E+004  0.1043930E+01  0.7957747E-01            NaN
         13   -1    0    0    0    0  0.00000000000E+00  0.00000000000E+00  0.74505805969E-08  0.10566000000E+00  0.10566000000E+00 0.  1.
     999900   -1    0    0    0    0 -0.00000000000E+00 -0.00000000000E+00 -0.74505805969E-08  0.93827000000E+00  0.93827000000E+00 0. -1.
     999902    2    1    2    0    0  0.82233172717E-02 -0.24874427015E-02 -0.11080149641E-01  0.10299092998E+01  0.10298138598E+01 0.  0.
     999903    2    3    3    0    0  0.61775977931E-01 -0.10839172399E+00  0.45292797545E-01  0.14015567466E+00  0.45023753200E-01 0.  0.
         14    1    1    2    0    0 -0.82233172717E-02  0.24874427015E-02  0.11080149641E-01  0.14020700204E-01  0.00000000000E+00 0.  1.
     999901    1    3    3    0    0 -0.53552660659E-01  0.10590428129E+00 -0.56372947186E-01  0.88975362513E+00  0.88000000000E+00 0. -1.
        -11    1    4    4    0    0  0.10601958741E-01 -0.61251702409E-02  0.19332131701E-01  0.22889116993E-01  0.51100000000E-03 0.  1.
         11    1    4    4    0    0  0.51174019190E-01 -0.10226655375E+00  0.25960665843E-01  0.11726655767E+00  0.51100000000E-03 0. -1.
</event>
<event>
 8    1  0.2183582E+004  0.1043930E+01  0.7957747E-01            NaN
         13   -1    0    0    0    0  0.00000000000E+00  0.00000000000E+00  0.74505805969E-08  0.10566000000E+00  0.10566000000E+00 0. -1.
     999900   -1    0    0    0    0 -0.00000000000E+00 -0.00000000000E+00 -0.74505805969E-08  0.93827000000E+00  0.93827000000E+00 0.  1.
     999902    2    1    2    0    0 -0.11596440432E-01  0.77153532305E-02 -0.44817170685E-02  0.10292981890E+01  0.10291941857E+01 0.  0.
     999903    2    3    3    0    0 -0.74050887654E-01  0.76273751627E-01 -0.81139518204E-01  0.14111057903E+00  0.45026158522E-01 0.  0.
         14    1    1    2    0    0  0.11596440432E-01 -0.77153532305E-02  0.44817170685E-02  0.14631811031E-01  0.00000000000E+00 0.  1.
     999901    1    3    3    0    0  0.62454447222E-01 -0.68558398396E-01  0.76657801136E-01  0.88818760994E+00  0.88000000000E+00 0. -1.
        -11    1    4    4    0    0 -0.11637549676E-01 -0.49922479238E-02 -0.58659528632E-02  0.13965157564E-01  0.51100000000E-03 0.  1.
         11    1    4    4    0    0 -0.62413337977E-01  0.81265999551E-01 -0.75273565341E-01  0.12714542147E+00  0.51100000000E-03 0. -1.
</event>
<event>
 8    1  0.2183582E+004  0.1043930E+01  0.7957747E-01            NaN
         13   -1    0    0    0    0  0.00000000000E+00  0.00000000000E+00  0.74505805969E-08  0.10566000000E+00  0.10566000000E+00 0. -1.
     999900   -1    0    0    0    0 -0.00000000000E+00 -0.00000000000E+00 -0.74505805969E-08  0.93827000000E+00  0.93827000000E+00 0. -1.
     999902    2    1    2    0    0 -0.15537426992E-02  0.12246867762E-01 -0.55238519938E-02  0.10304054731E+01  0.10303167116E+01 0.  0.
     999903    2    3    3    0    0 -0.33821178244E-01 -0.44087007774E-01 -0.12110188010E+00  0.14047683918E+00  0.44503265385E-01 0.  0.
         14    1    1    2    0    0  0.15537426992E-02 -0.12246867762E-01  0.55238519938E-02  0.13524526876E-01  0.00000000000E+00 0. -1.
     999901    1    3    3    0    0  0.32267435545E-01  0.56333875536E-01  0.11557802811E+00  0.88992863394E+00  0.88000000000E+00 0.  1.
        -11    1    4    4    0    0 -0.45330030424E-02 -0.41537280418E-01 -0.71132542349E-01  0.82498445338E-01  0.51100000000E-03 0.  1.
         11    1    4    4    0    0 -0.29288175202E-01 -0.25497273563E-02 -0.49969337753E-01  0.57978393844E-01  0.51100000000E-03 0. -1.
</event>
<event>
 8    1  0.2183582E+004  0.1043930E+01  0.7957747E-01            NaN
         13   -1    0    0    0    0  0.00000000000E+00  0.00000000000E+00  0.74505805969E-08  0.10566000000E+00  0.10566000000E+00 0.  1.
     999900   -1    0    0    0    0 -0.00000000000E+00 -0.00000000000E+00 -0.74505805969E-08  0.93827000000E+00  0.93827000000E+00 0.  1.
     999902    2    1    2    0    0 -0.11944716605E-01 -0.70505857779E-02 -0.42849841794E-04  0.10300595692E+01  0.10299661777E+01 0.  0.
     999903    2    3    3    0    0 -0.60853319525E-01 -0.68309557357E-01  0.97648370095E-01  0.14119046326E+00  0.45057969432E-01 0.  0.
         14    1    1    2    0    0  0.11944716605E-01  0.70505857779E-02  0.42849841794E-04  0.13870430804E-01  0.00000000000E+00 0. -1.
     999901    1    3    3    0    0  0.48908602920E-01  0.61258971579E-01 -0.97691219936E-01  0.88886910594E+00  0.88000000000E+00 0.  1.
        -11    1    4    4    0    0 -0.10404016293E-01  0.96901489745E-03  0.30714904022E-01  0.32447634659E-01  0.51100000000E-03 0.  1.
         11    1    4    4    0    0 -0.50449303232E-01 -0.69278572254E-01  0.66933466073E-01  0.10874282860E+00  0.51100000000E-03 0. -1.
</event>
<event>
 8    1  0.2183582E+004  0.1043930E+01  0.7957747E-01            NaN
         13   -1    0    0    0    0  0.00000000000E+00  0.00000000000E+00  0.74505805969E-08  0.10566000000E+00  0.10566000000E+00 0.  1.
     999900   -1    0    0    0    0 -0.00000000000E+00 -0.00000000000E+00 -0.74505805969E-08  0.93827000000E+00  0.93827000000E+00 0.  1.
     999902    2    1    2    0    0  0.22357202794E-02 -0.29356515764E-03  0.13500969392E-01  0.10302420199E+01  0.10301510854E+01 0.  0.
     999903    2    3    3    0    0 -0.22980858319E-01 -0.65010573032E-01  0.11391964043E+00  0.14181190081E+00  0.48769214492E-01 0.  0.
         14    1    1    2    0    0 -0.22357202794E-02  0.29356515764E-03 -0.13500969392E-01  0.13687980136E-01  0.00000000000E+00 0. -1.
     999901    1    3    3    0    0  0.25216578598E-01  0.64717007874E-01 -0.10041867103E+00  0.88843011905E+00  0.88000000000E+00 0.  1.
        -11    1    4    4    0    0  0.62192714076E-02 -0.12164149123E-01  0.93200668617E-03  0.13703124395E-01  0.51100000000E-03 0.  1.
         11    1    4    4    0    0 -0.29200129726E-01 -0.52846423909E-01  0.11298763374E+00  0.12810877642E+00  0.51100000000E-03 0. -1.
</event>
<event>
 8    1  0.2183582E+004  0.1043930E+01  0.7957747E-01            NaN
         13   -1    0    0    0    0  0.00000000000E+00  0.00000000000E+00  0.74505805969E-08  0.10566000000E+00  0.10566000000E+00 0.  1.
     999900   -1    0    0    0    0 -0.00000000000E+00 -0.00000000000E+00 -0.74505805969E-08  0.93827000000E+00  0.93827000000E+00 0.  1.
     999902    2    1    2    0    0  0.92243005719E-02 -0.85120173721E-02 -0.51292064094E-02  0.10303708363E+01  0.10302816166E+01 0.  0.
     999903    2    3    3    0    0 -0.18436291196E-02 -0.11655699234E+00 -0.66960175919E-01  0.14154054631E+00  0.44284643603E-01 0.  0.
         14    1    1    2    0    0 -0.92243005719E-02  0.85120173721E-02  0.51292064094E-02  0.13559163661E-01  0.00000000000E+00 0. -1.
     999901    1    3    3    0    0  0.11067929691E-01  0.10804497497E+00  0.61830969509E-01  0.88883029003E+00  0.88000000000E+00 0. -1.
        -11    1    4    4    0    0 -0.18502190932E-01 -0.23926830724E-01 -0.20810440711E-01  0.36717296488E-01  0.51100000000E-03 0.  1.
         11    1    4    4    0    0  0.16658561812E-01 -0.92630161615E-01 -0.46149735207E-01  0.10482324982E+00  0.51100000000E-03 0. -1.
</event>
<event>
 8    1  0.2183582E+004  0.1043930E+01  0.7957747E-01            NaN
         13   -1    0    0    0    0  0.00000000000E+00  0.00000000000E+00  0.74505805969E-08  0.10566000000E+00  0.10566000000E+00 0. -1.
     999900   -1    0    0    0    0 -0.00000000000E+00 -0.00000000000E+00 -0.74505805969E-08  0.93827000000E+00  0.93827000000E+00 0.  1.
     999902    2    1    2    0    0 -0.63089297678E-02  0.12115644371E-01 -0.47821136918E-02  0.10294572655E+01  0.10293555272E+01 0.  0.
     999903    2    3    3    0    0 -0.12547734748E+00  0.28323639705E-01 -0.33631494100E-01  0.14080879862E+00  0.46359972790E-01 0.  0.
         14    1    1    2    0    0  0.63089297678E-02 -0.12115644371E-01  0.47821136918E-02  0.14472734527E-01  0.00000000000E+00 0. -1.
     999901    1    3    3    0    0  0.11916841771E+00 -0.16207995334E-01  0.28849380408E-01  0.88864846685E+00  0.88000000000E+00 0.  1.
        -11    1    4    4    0    0 -0.48769821056E-01 -0.10737612289E-01 -0.54781608046E-02  0.50240055039E-01  0.51100000000E-03 0.  1.
         11    1    4    4    0    0 -0.76707526421E-01  0.39061251994E-01 -0.28153333295E-01  0.90568743579E-01  0.51100000000E-03 0. -1.
</event>
<event>
 8    1  0.2183582E+004  0.1043930E+01  0.7957747E-01            NaN
         13   -1    0    0    0    0  0.00000000000E+00  0.00000000000E+00  0.74505805969E-08  0.10566000000E+00  0.10566000000E+00 0. -1.
     999900   -1    0    0    0    0 -0.00000000000E+00 -0.00000000000E+00 -0.74505805969E-08  0.93827000000E+00  0.93827000000E+00 0.  1.
     999902    2    1    2    0    0  0.96355970805E-02  0.56433876401E-02  0.83234546463E-02  0.10300026007E+01  0.10299084352E+01 0.  0.
     999903    2    3    3    0    0 -0.10140899219E+00  0.51304981995E-01 -0.65363147978E-01  0.13879802403E+00  0.45569348089E-01 0.  0.
         14    1    1    2    0    0 -0.96355970805E-02 -0.56433876401E-02 -0.83234546463E-02  0.13927399341E-01  0.00000000000E+00 0.  1.
     999901    1    3    3    0    0  0.11104458927E+00 -0.45661594355E-01  0.73686602624E-01  0.89120457663E+00  0.88000000000E+00 0.  1.
        -11    1    4    4    0    0 -0.38157598187E-01  0.18729547988E-01 -0.50683806163E-01  0.66150643197E-01  0.51100000000E-03 0.  1.
         11    1    4    4    0    0 -0.63251394004E-01  0.32575434007E-01 -0.14679341815E-01  0.72647380829E-01  0.51100000000E-03 0. -1.
</event>
<event>
 8    1  0.2183582E+004  0.1043930E+01  0.7957747E-01            NaN
         13   -1    0    0    0    0  0.00000000000E+00  0.00000000000E+00  0.74505805969E-08  0.10566000000E+00  0.10566000000E+00 0. -1.
     999900   -1    0    0    0    0 -0.00000000000E+00 -0.00000000000E+00 -0.74505805969E-08  0.93827000000E+00  0.93827000000E+00 0.  1.
     999902    2    1    2    0    0  0.11394739634E-02 -0.34728949751E-02 -0.14114376737E-01  0.10293500469E+01  0.10292467848E+01 0.  0.
     999903    2    3    3    0    0 -0.80678849022E-02  0.94677342157E-01  0.89229327715E-01  0.13783551215E+00  0.44809213331E-01 0.  0.
         14    1    1    2    0    0 -0.11394739634E-02  0.34728949751E-02  0.14114376737E-01  0.14579953055E-01  0.00000000000E+00 0. -1.
     999901    1    3    3    0    0  0.92073588656E-02 -0.98150237133E-01 -0.10334370445E+00  0.89151453480E+00  0.88000000000E+00 0.  1.
        -11    1    4    4    0    0 -0.75344132049E-02  0.39505004399E-01  0.67417569566E-01  0.78503519425E-01  0.51100000000E-03 0.  1.
         11    1    4    4    0    0 -0.53347169726E-03  0.55172337758E-01  0.21811758150E-01  0.59331992722E-01  0.51100000000E-03 0. -1.
</event>
<event>
 8    1  0.2183582E+004  0.1043930E+01  0.7957747E-01            NaN
         13   -1    0    0    0    0  0.00000000000E+00  0.00000000000E+00  0.74505805969E-08  0.10566000000E+00  0.10566000000E+00 0.  1.
     999900   -1    0    0    0    0 -0.00000000000E+00 -0.00000000000E+00 -0.74505805969E-08  0.93827000000E+00  0.93827000000E+00 0. -1.
     999902    2    1    2    0    0  0.95790579653E-02 -0.69767879036E-03 -0.10521240737E-01  0.10296842423E+01  0.10295856920E+01 0.  0.
     999903    2    3    3    0    0 -0.44527002437E-01  0.32899752250E-01  0.11810006085E+00  0.13805668976E+00  0.45243536228E-01 0.  0.
         14    1    1    2    0    0 -0.95790579653E-02  0.69767879036E-03  0.10521240737E-01  0.14245757749E-01  0.00000000000E+00 0.  1.
     999901    1    3    3    0    0  0.54106060402E-01 -0.33597431040E-01 -0.12862130158E+00  0.89162755249E+00  0.88000000000E+00 0. -1.
        -11    1    4    4    0    0 -0.34237329883E-01  0.15095277620E-01  0.31098297241E-01  0.48656216214E-01  0.51100000000E-03 0. -1.
         11    1    4    4    0    0 -0.10289672554E-01  0.17804474630E-01  0.87001763607E-01  0.89400473543E-01  0.51100000000E-03 0.  1.
</event>
<event>
 8    1  0.2183582E+004  0.1043930E+01  0.7957747E-01            NaN
         13   -1    0    0    0    0  0.00000000000E+00  0.00000000000E+00  0.74505805969E-08  0.10566000000E+00  0.10566000000E+00 0.  1.
     999900   -1    0    0    0    0 -0.00000000000E+00 -0.00000000000E+00 -0.74505805969E-08  0.93827000000E+00  0.93827000000E+00 0. -1.
     999902    2    1    2    0    0  0.63476977769E-02  0.14570702631E-01  0.31085043114E-02  0.10277355120E+01  0.10276079122E+01 0.  0.
     999903    2    3    3    0    0  0.12704950531E-02 -0.12185508257E+00  0.41633682825E-01  0.13637589758E+00  0.44885928629E-01 0.  0.
         14    1    1    2    0    0 -0.63476977769E-02 -0.14570702631E-01 -0.31085043114E-02  0.16194487991E-01  0.00000000000E+00 0. -1.
     999901    1    3    3    0    0  0.50772027237E-02  0.13642578520E+00 -0.38525178514E-01  0.89135961443E+00  0.88000000000E+00 0. -1.
        -11    1    4    4    0    0 -0.18380466044E-01 -0.49309577734E-01  0.29225596955E-01  0.60196948649E-01  0.51100000000E-03 0.  1.
         11    1    4    4    0    0  0.19650961097E-01 -0.72545504838E-01  0.12408085871E-01  0.76178948931E-01  0.51100000000E-03 0. -1.
</event>
<event>
 8    1  0.2183582E+004  0.1043930E+01  0.7957747E-01            NaN
         13   -1    0    0    0    0  0.00000000000E+00  0.00000000000E+00  0.74505805969E-08  0.10566000000E+00  0.10566000000E+00 0. -1.
     999900   -1    0    0    0    0 -0.00000000000E+00 -0.00000000000E+00 -0.74505805969E-08  0.93827000000E+00  0.93827000000E+00 0. -1.
     999902    2    1    2    0    0  0.12239477959E-01  0.27802194460E-02 -0.11364785747E-03  0.10313782130E+01  0.10313018331E+01 0.  0.
     999903    2    3    3    0    0 -0.11191510000E+00  0.21116231198E-01 -0.67118162984E-01  0.13995229146E+00  0.45944654256E-01 0.  0.
         14    1    1    2    0    0 -0.12239477959E-01 -0.27802194460E-02  0.11364785747E-03  0.12551786992E-01  0.00000000000E+00 0. -1.
     999901    1    3    3    0    0  0.12415457796E+00 -0.18336011752E-01  0.67004515127E-01  0.89142592155E+00  0.88000000000E+00 0.  1.
        -11    1    4    4    0    0 -0.79918884235E-01  0.13324346286E-01 -0.69751864963E-01  0.10691187983E+00  0.51100000000E-03 0.  1.
         11    1    4    4    0    0 -0.31996215768E-01  0.77918849118E-02  0.26337019791E-02  0.33040411636E-01  0.51100000000E-03 0. -1.
</event>
<event>
 8    1  0.2183582E+004  0.1043930E+01  0.7957747E-01            NaN
         13   -1    0    0    0    0  0.00000000000E+00  0.00000000000E+00  0.74505805969E-08  0.10566000000E+00  0.10566000000E+00 0.  1.
     999900   -1    0    0    0    0 -0.00000000000E+00 -0.00000000000E+00 -0.74505805969E-08  0.93827000000E+00  0.93827000000E+00 0.  1.
     999902    2    1    2    0    0  0.95725419707E-02 -0.50793370365E-02 -0.83006222747E-02  0.10302795951E+01  0.10301891625E+01 0.  0.
     999903    2    3    3    0    0  0.13189465486E-01  0.13069424170E+00 -0.18127297532E-01  0.13980550204E+00  0.44294837982E-01 0.  0.
         14    1    1    2    0    0 -0.95725419707E-02  0.50793370365E-02  0.83006222747E-02  0.13650404927E-01  0.00000000000E+00 0. -1.
     999901    1    3    3    0    0 -0.36169235154E-02 -0.13577357873E+00  0.98266752575E-02  0.89047409303E+00  0.88000000000E+00 0.  1.
        -11    1    4    4    0    0  0.30357885878E-02  0.10955907574E+00 -0.29837795482E-01  0.11359120674E+00  0.51100000000E-03 0.  1.
         11    1    4    4    0    0  0.10153676898E-01  0.21135165961E-01  0.11710497950E-01  0.26214295299E-01  0.51100000000E-03 0. -1.
</event>
<event>
 8    1  0.2183582E+004  0.1043930E+01  0.7957747E-01            NaN
         13   -1    0    0    0    0  0.00000000000E+00  0.00000000000E+00  0.74505805969E-08  0.10566000000E+00  0.10566000000E+00 0. -1.
     999900   -1    0    0    0    0 -0.00000000000E+00 -0.00000000000E+00 -0.74505805969E-08  0.93827000000E+00  0.93827000000E+00 0.  1.
     999902    2    1    2    0    0 -0.10066972263E-01  0.74712249400E-02 -0.36861538223E-02  0.10308628326E+01  0.10307800099E+01 0.  0.
     999903    2    3    3    0    0  0.12107288825E+00  0.15776121109E-02 -0.52406578743E-01  0.13979264602E+00  0.46199580706E-01 0.  0.
         14    1    1    2    0    0  0.10066972263E-01 -0.74712249400E-02  0.36861538223E-02  0.13067167354E-01  0.00000000000E+00 0.  1.
     999901    1    3    3    0    0 -0.13113986051E+00  0.58936128292E-02  0.48720424920E-01  0.89107018662E+00  0.88000000000E+00 0. -1.
        -11    1    4    4    0    0  0.27803060941E-01 -0.16740189554E-01 -0.24690092441E-01  0.40781195786E-01  0.51100000000E-03 0.  1.
         11    1    4    4    0    0  0.93269827307E-01  0.18317801665E-01 -0.27716486301E-01  0.99011450235E-01  0.51100000000E-03 0. -1.
</event>
<event>
 8    1  0.2183582E+004  0.1043930E+01  0.7957747E-01            NaN
         13   -1    0    0    0    0  0.00000000000E+00  0.00000000000E+00  0.74505805969E-08  0.10566000000E+00  0.10566000000E+00 0. -1.
     999900   -1    0    0    0    0 -0.00000000000E+00 -0.00000000000E+00 -0.74505805969E-08  0.93827000000E+00  0.93827000000E+00 0.  1.
     999902    2    1    2    0    0 -0.99016139890E-02 -0.79048614925E-02 -0.69542754830E-02  0.10294769470E+01  0.10293754872E+01 0.  0.
     999903    2    3    3    0    0 -0.82262645780E-01  0.81916263115E-01  0.62340813590E-01  0.13924901956E+00  0.45016611997E-01 0.  0.
         14    1    1    2    0    0  0.99016139890E-02  0.79048614925E-02  0.69542754830E-02  0.14453053044E-01  0.00000000000E+00 0. -1.
     999901    1    3    3    0    0  0.72361031791E-01 -0.89821124607E-01 -0.69295089072E-01  0.89022792740E+00  0.88000000000E+00 0. -1.
        -11    1    4    4    0    0 -0.57671420692E-01  0.77473827184E-01  0.60967496058E-01  0.11421682608E+00  0.51100000000E-03 0. -1.
         11    1    4    4    0    0 -0.24591225088E-01  0.44424359308E-02  0.13733175310E-02  0.25032193479E-01  0.51100000000E-03 0.  1.
</event>
<event>
 8    1  0.2183582E+004  0.1043930E+01  0.7957747E-01            NaN
         13   -1    0    0    0    0  0.00000000000E+00  0.00000000000E+00  0.74505805969E-08  0.10566000000E+00  0.10566000000E+00 0. -1.
     999900   -1    0    0    0    0 -0.00000000000E+00 -0.00000000000E+00 -0.74505805969E-08  0.93827000000E+00  0.93827000000E+00 0.  1.
     999902    2    1    2    0    0 -0.10213244686E-01  0.62405840131E-02 -0.12517623433E-02  0.10318957919E+01  0.10318256166E+01 0.  0.
     999903    2    3    3    0    0 -0.10168802431E+00  0.88639879927E-01 -0.18554571072E-01  0.14315698523E+00  0.44183342019E-01 0.  0.
         14    1    1    2    0    0  0.10213244686E-01 -0.62405840131E-02  0.12517623433E-02  0.12034208109E-01  0.00000000000E+00 0. -1.
     999901    1    3    3    0    0  0.91474779620E-01 -0.82399295914E-01  0.17302808728E-01  0.88873880666E+00  0.88000000000E+00 0.  1.
        -11    1    4    4    0    0 -0.36241229809E-01  0.42065252826E-01 -0.28154708727E-01  0.62256413147E-01  0.51100000000E-03 0.  1.
         11    1    4    4    0    0 -0.65446794497E-01  0.46574627101E-01  0.96001376553E-02  0.80900572084E-01  0.51100000000E-03 0. -1.
</event>
<event>
 8    1  0.2183582E+004  0.1043930E+01  0.7957747E-01            NaN
         13   -1    0    0    0    0  0.00000000000E+00  0.00000000000E+00  0.74505805969E-08  0.10566000000E+00  0.10566000000E+00 0. -1.
     999900   -1    0    0    0    0 -0.00000000000E+00 -0.00000000000E+00 -0.74505805969E-08  0.93827000000E+00  0.93827000000E+00 0.  1.
     999902    2    1    2    0    0  0.31550515050E-02 -0.16981589684E-01 -0.42288817783E-02  0.10261476442E+01  0.10259935553E+01 0.  0.
     999903    2    3    3    0    0 -0.71720887560E-01 -0.43813776302E-01  0.98175292098E-01  0.13664610548E+00  0.44387356950E-01 0.  0.
         14    1    1    2    0    0 -0.31550515050E-02  0.16981589684E-01  0.42288817783E-02  0.17782355842E-01  0.00000000000E+00 0.  1.
     999901    1    3    3    0    0  0.74875939065E-01  0.26832186617E-01 -0.10240417388E+00  0.88950153868E+00  0.88000000000E+00 0.  1.
        -11    1    4    4    0    0 -0.34320768793E-01 -0.25443345490E-01  0.18150940832E-01  0.46421942811E-01  0.51100000000E-03 0. -1.
         11    1    4    4    0    0 -0.37400118767E-01 -0.18370430812E-01  0.80024351266E-01  0.90224162665E-01  0.51100000000E-03 0.  1.
</event>
<event>
 8    1  0.2183582E+004  0.1043930E+01  0.7957747E-01            NaN
         13   -1    0    0    0    0  0.00000000000E+00  0.00000000000E+00  0.74505805969E-08  0.10566000000E+00  0.10566000000E+00 0.  1.
     999900   -1    0    0    0    0 -0.00000000000E+00 -0.00000000000E+00 -0.74505805969E-08  0.93827000000E+00  0.93827000000E+00 0. -1.
     999902    2    1    2    0    0 -0.12540600784E-01 -0.46019466350E-02  0.40916758331E-03  0.10305654200E+01  0.10304787591E+01 0.  0.
     999903    2    3    3    0    0  0.57358295902E-01 -0.61361454145E-01 -0.10170787356E+00  0.14009622482E+00  0.47193839641E-01 0.  0.
         14    1    1    2    0    0  0.12540600784E-01  0.46019466350E-02 -0.40916758330E-03  0.13364580015E-01  0.00000000000E+00 0.  1.
     999901    1    3    3    0    0 -0.69898896686E-01  0.56759507510E-01  0.10211704114E+00  0.89046919517E+00  0.88000000000E+00 0.  1.
        -11    1    4    4    0    0  0.27187924789E-01 -0.61919387820E-02 -0.55329641567E-01  0.61960904747E-01  0.51100000000E-03 0.  1.
         11    1    4    4    0    0  0.30170371113E-01 -0.55169515363E-01 -0.46378231995E-01  0.78135320070E-01  0.51100000000E-03 0. -1.
</event>
<event>
 8    1  0.2183582E+004  0.1043930E+01  0.7957747E-01            NaN
         13   -1    0    0    0    0  0.00000000000E+00  0.00000000000E+00  0.74505805969E-08  0.10566000000E+00  0.10566000000E+00 0. -1.
     999900   -1    0    0    0    0 -0.00000000000E+00 -0.00000000000E+00 -0.74505805969E-08  0.93827000000E+00  0.93827000000E+00 0. -1.
     999902    2    1    2    0    0  0.45354898193E-02  0.11325050476E-01  0.53880108083E-02  0.10305936550E+01  0.10305073623E+01 0.  0.
     999903    2    3    3    0    0  0.73887339392E-01 -0.32611792309E-01 -0.10287157576E+00  0.14016664329E+00  0.50410900325E-01 0.  0.
         14    1    1    2    0    0 -0.45354898193E-02 -0.11325050476E-01 -0.53880108083E-02  0.13336344951E-01  0.00000000000E+00 0. -1.
     999901    1    3    3    0    0 -0.69351849572E-01  0.43936842785E-01  0.10825958657E+00  0.89042701176E+00  0.88000000000E+00 0.  1.
        -11    1    4    4    0    0 -0.30967415001E-02 -0.12537544805E-01 -0.28346655334E-01  0.31154033884E-01  0.51100000000E-03 0. -1.
         11    1    4    4    0    0  0.76984080892E-01 -0.20074247504E-01 -0.74524920423E-01  0.10901260940E+00  0.51100000000E-03 0.  1.
</event>
<event>
 8    1  0.2183582E+004  0.1043930E+01  0.7957747E-01            NaN
         13   -1    0    0    0    0  0.00000000000E+00  0.00000000000E+00  0.74505805969E-08  0.10566000000E+00  0.10566000000E+00 0. -1.
     999900   -1    0    0    0    0 -0.00000000000E+00 -0.00000000000E+00 -0.74505805969E-08  0.93827000000E+00  0.93827000000E+00 0. -1.
     999902    2    1    2    0    0 -0.26950553622E-02  0.10190482529E-01 -0.93833718745E-02  0.10298177030E+01  0.10297210033E+01 0.  0.
     999903    2    3    3    0    0 -0.76635594022E-01  0.31232372582E-01  0.10267953125E+00  0.13938631397E+00  0.45132948245E-01 0.  0.
         14    1    1    2    0    0  0.26950553622E-02 -0.10190482529E-01  0.93833718745E-02  0.14112296954E-01  0.00000000000E+00 0. -1.
     999901    1    3    3    0    0  0.73940538660E-01 -0.21041890053E-01 -0.11206290312E+00  0.89043138908E+00  0.88000000000E+00 0. -1.
        -11    1    4    4    0    0 -0.29278652098E-01  0.31506111401E-01  0.68860660947E-01  0.81190678476E-01  0.51100000000E-03 0. -1.
         11    1    4    4    0    0 -0.47356941925E-01 -0.27373881907E-03  0.33818870299E-01  0.58195635495E-01  0.51100000000E-03 0.  1.
</event>
<event>
 8    1  0.2183582E+004  0.1043930E+01  0.7957747E-01            NaN
         13   -1    0    0    0    0  0.00000000000E+00  0.00000000000E+00  0.74505805969E-08  0.10566000000E+00  0.10566000000E+00 0.  1.
     999900   -1    0    0    0    0 -0.00000000000E+00 -0.00000000000E+00 -0.74505805969E-08  0.93827000000E+00  0.93827000000E+00 0. -1.
     999902    2    1    2    0    0 -0.73352669939E-02 -0.28018700479E-02 -0.11044518647E-01  0.10303786897E+01  0.10302895740E+01 0.  0.
     999903    2    3    3    0    0 -0.76324441334E-01  0.89024924239E-01  0.61459592996E-01  0.13995827638E+00  0.45389206590E-01 0.  0.
         14    1    1    2    0    0  0.73352669939E-02  0.28018700479E-02  0.11044518647E-01  0.13551310261E-01  0.00000000000E+00 0.  1.
     999901    1    3    3    0    0  0.68989174340E-01 -0.91826794287E-01 -0.72504111643E-01  0.89042041336E+00  0.88000000000E+00 0. -1.
        -11    1    4    4    0    0 -0.21195316646E-01  0.57279187653E-01  0.21105290221E-01  0.64620748852E-01  0.51100000000E-03 0.  1.
         11    1    4    4    0    0 -0.55129124688E-01  0.31745736586E-01  0.40354302775E-01  0.75337527526E-01  0.51100000000E-03 0. -1.
</event>
<event>
 8    1  0.2183582E+004  0.1043930E+01  0.7957747E-01            NaN
         13   -1    0    0    0    0  0.00000000000E+00  0.00000000000E+00  0.74505805969E-08  0.10566000000E+00  0.10566000000E+00 0.  1.
     999900   -1    0    0    0    0 -0.00000000000E+00 -0.00000000000E+00 -0.74505805969E-08  0.93827000000E+00  0.93827000000E+00 0.  1.
     999902    2    1    2    0    0  0.98866552780E-02 -0.96333858074E-02 -0.10434060971E-02  0.10300867066E+01  0.10299936827E+01 0.  0.
     999903    2    3    3    0    0 -0.23209864228E-01 -0.12545417416E+00  0.39671272092E-01  0.14094806749E+00  0.44889868423E-01 0.  0.
         14    1    1    2    0    0 -0.98866552780E-02  0.96333858074E-02  0.10434060971E-02  0.13843293358E-01  0.00000000000E+00 0. -1.
     999901    1    3    3    0    0  0.33096519506E-01  0.11582078835E+00 -0.40714678189E-01  0.88913863915E+00  0.88000000000E+00 0.  1.
        -11    1    4    4    0    0  0.89166282268E-02 -0.72028186502E-01  0.26214419821E-01  0.77168794452E-01  0.51100000000E-03 0.  1.
         11    1    4    4    0    0 -0.32126492455E-01 -0.53425987660E-01  0.13456852271E-01  0.63779273035E-01  0.51100000000E-03 0. -1.
</event>
<event>
 8    1  0.2183582E+004  0.1043930E+01  0.7957747E-01            NaN
         13   -1    0    0    0    0  0.00000000000E+00  0.00000000000E+00  0.74505805969E-08  0.10566000000E+00  0.10566000000E+00 0. -1.
     999900   -1    0    0    0    0 -0.00000000000E+00 -0.00000000000E+00 -0.74505805969E-08  0.93827000000E+00  0.93827000000E+00 0. -1.
     999902    2    1    2    0    0 -0.83331658344E-03 -0.58993690255E-02 -0.12562156126E-01  0.10300265926E+01  0.10299327535E+01 0.  0.
     999903    2    3    3    0    0 -0.10068905261E+00  0.78649268677E-01 -0.36141073411E-01  0.14004029746E+00  0.44509717430E-01 0.  0.
         14    1    1    2    0    0  0.83331658344E-03  0.58993690255E-02  0.12562156126E-01  0.13903407422E-01  0.00000000000E+00 0. -1.
     999901    1    3    3    0    0  0.99855736031E-01 -0.84548637703E-01  0.23578917286E-01  0.88998629512E+00  0.88000000000E+00 0.  1.
        -11    1    4    4    0    0 -0.18554835185E-01  0.31850742122E-01 -0.25687150687E-01  0.44931531399E-01  0.51100000000E-03 0.  1.
         11    1    4    4    0    0 -0.82134217429E-01  0.46798526555E-01 -0.10453922725E-01  0.95108766061E-01  0.51100000000E-03 0. -1.
</event>
<event>
 8    1  0.2183582E+004  0.1043930E+01  0.7957747E-01            NaN
         13   -1    0    0    0    0  0.00000000000E+00  0.00000000000E+00  0.74505805969E-08  0.10566000000E+00  0.10566000000E+00 0. -1.
     999900   -1    0    0    0    0 -0.00000000000E+00 -0.00000000000E+00 -0.74505805969E-08  0.93827000000E+00  0.93827000000E+00 0.  1.
     999902    2    1    2    0    0 -0.99055012088E-02  0.50697686434E-02  0.62138222500E-02  0.10311850757E+01  0.10311063123E+01 0.  0.
     999903    2    3    3    0    0 -0.12257152795E-01 -0.40126996711E-01 -0.12591787692E+00  0.14017044968E+00  0.45078038740E-01 0.  0.
         14    1    1    2    0    0  0.99055012088E-02 -0.50697686434E-02 -0.62138222500E-02  0.12744924294E-01  0.00000000000E+00 0.  1.
     999901    1    3    3    0    0  0.23516515866E-02  0.45196765355E-01  0.13213169917E+00  0.89101462602E+00  0.88000000000E+00 0. -1.
        -11    1    4    4    0    0 -0.25384131178E-01 -0.76524362729E-02 -0.51943544247E-01  0.58320723645E-01  0.51100000000E-03 0.  1.
         11    1    4    4    0    0  0.13126978382E-01 -0.32474560438E-01 -0.73974332671E-01  0.81849726037E-01  0.51100000000E-03 0. -1.
</event>
<event>
 8    1  0.2183582E+004  0.1043930E+01  0.7957747E-01            NaN
         13   -1    0    0    0    0  0.00000000000E+00  0.00000000000E+00  0.74505805969E-08  0.10566000000E+00  0.10566000000E+00 0. -1.
     999900   -1    0    0    0    0 -0.00000000000E+00 -0.00000000000E+00 -0.74505805969E-08  0.93827000000E+00  0.93827000000E+00 0. -1.
     999902    2    1    2    0    0  0.10275554287E-01 -0.29126217078E-02 -0.85853635477E-02  0.10302267577E+01  0.10301356190E+01 0.  0.
     999903    2    3    3    0    0  0.11392843539E+00  0.31028837001E-01  0.61957398283E-01  0.14069192221E+00  0.44866698750E-01 0.  0.
         14    1    1    2    0    0 -0.10275554287E-01  0.29126217078E-02  0.85853635477E-02  0.13703242258E-01  0.00000000000E+00 0. -1.
     999901    1    3    3    0    0 -0.10365288110E+00 -0.33941458709E-01 -0.70542761831E-01  0.88953483553E+00  0.88000000000E+00 0. -1.
        -11    1    4    4    0    0  0.50195175714E-01  0.57447214155E-02  0.50012448480E-01  0.71091937750E-01  0.51100000000E-03 0. -1.
         11    1    4    4    0    0  0.63733259676E-01  0.25284115585E-01  0.11944949804E-01  0.69599984459E-01  0.51100000000E-03 0.  1.
</event>
<event>
 8    1  0.2183582E+004  0.1043930E+01  0.7957747E-01            NaN
         13   -1    0    0    0    0  0.00000000000E+00  0.00000000000E+00  0.74505805969E-08  0.10566000000E+00  0.10566000000E+00 0.  1.
     999900   -1    0    0    0    0 -0.00000000000E+00 -0.00000000000E+00 -0.74505805969E-08  0.93827000000E+00  0.93827000000E+00 0. -1.
     999902    2    1    2    0    0  0.11697767865E-01 -0.65201371655E-02 -0.14106272763E-02  0.10304637522E+01  0.10303757590E+01 0.  0.
     999903    2    3    3    0    0  0.20911189918E-01  0.84427128243E-01 -0.10063681263E+00  0.14018170241E+00  0.44248432601E-01 0.  0.
         14    1    1    2    0    0 -0.11697767865E-01  0.65201371655E-02  0.14106272763E-02  0.13466247844E-01  0.00000000000E+00 0. -1.
     999901    1    3    3    0    0 -0.92134220535E-02 -0.90947265409E-01  0.99226185357E-01  0.89028204974E+00  0.88000000000E+00 0.  1.
        -11    1    4    4    0    0 -0.45255715968E-03  0.56107428228E-01 -0.36658550741E-01  0.67025060789E-01  0.51100000000E-03 0. -1.
         11    1    4    4    0    0  0.21363747078E-01  0.28319700015E-01 -0.63978261892E-01  0.73156641626E-01  0.51100000000E-03 0.  1.
</event>
<event>
 8    1  0.2183582E+004  0.1043930E+01  0.7957747E-01            NaN
         13   -1    0    0    0    0  0.00000000000E+00  0.00000000000E+00  0.74505805969E-08  0.10566000000E+00  0.10566000000E+00 0. -1.
     999900   -1    0    0    0    0 -0.00000000000E+00 -0.00000000000E+00 -0.74505805969E-08  0.93827000000E+00  0.93827000000E+00 0. -1.
     999902    2    1    2    0    0  0.17046044688E-01 -0.18063802642E-01 -0.47458404259E-03  0.10190886265E+01  0.10187858140E+01 0.  0.
     999903    2    3    3    0    0 -0.19150182673E-01 -0.76829211205E-01  0.94402366909E-01  0.13130195400E+00  0.45375533662E-01 0.  0.
         14    1    1    2    0    0 -0.17046044688E-01  0.18063802642E-01  0.47458404259E-03  0.24841373460E-01  0.00000000000E+00 0. -1.
     999901    1    3    3    0    0  0.36196227361E-01  0.58765408563E-01 -0.94876950952E-01  0.88778667254E+00  0.88000000000E+00 0. -1.
        -11    1    4    4    0    0 -0.62831589901E-02 -0.77969210423E-01  0.78693310359E-01  0.11095753276E+00  0.51100000000E-03 0. -1.
         11    1    4    4    0    0 -0.12867023683E-01  0.11399992179E-02  0.15709056550E-01  0.20344421235E-01  0.51100000000E-03 0.  1.
</event>
<event>
 7    1  0.2183582E+004  0.1043930E+01  0.7957747E-01            NaN
         13   -1    0    0    0    0  0.00000000000E+00  0.00000000000E+00  0.74505805969E-08  0.10566000000E+00  0.10566000000E+00 0. -1.
     999900   -1    0    0    0    0 -0.00000000000E+00 -0.00000000000E+00 -0.74505805969E-08  0.93827000000E+00  0.93827000000E+00 0. -1.
     999902    2    1    2    0    0  0.77428272909E-02  0.54769865602E-02 -0.98321305177E-02  0.10302691235E+01  0.10301785512E+01 0.  0.
         14    1    1    2    0    0 -0.77428272909E-02 -0.54769865602E-02  0.98321305177E-02  0.13660876500E-01  0.00000000000E+00 0. -1.
     999901    1    3    3    0    0 -0.33306968031E-01  0.10282642519E+00  0.80115880383E-01  0.89022535469E+00  0.88000000000E+00 0. -1.
        -11    1    3    3    0    0  0.11031915271E-01 -0.39250656715E-01 -0.24747769523E-01  0.47697279005E-01  0.51100000000E-03 0. -1.
         11    1    3    3    0    0  0.30017880051E-01 -0.58098781918E-01 -0.65200241378E-01  0.92346489808E-01  0.51100000000E-03 0.  1.
</event>
<event>
 7    1  0.2183582E+004  0.1043930E+01  0.7957747E-01            NaN
         13   -1    0    0    0    0  0.00000000000E+00  0.00000000000E+00  0.74505805969E-08  0.10566000000E+00  0.10566000000E+00 0.  1.
     999900   -1    0    0    0    0 -0.00000000000E+00 -0.00000000000E+00 -0.74505805969E-08  0.93827000000E+00  0.93827000000E+00 0.  1.
     999902    2    1    2    0    0  0.13196953330E-01  0.55891045342E-02 -0.59392756195E-03  0.10295859972E+01  0.10294860733E+01 0.  0.
         14    1    1    2    0    0 -0.13196953330E-01 -0.55891045342E-02  0.59392756195E-03  0.14344002811E-01  0.00000000000E+00 0.  1.
     999901    1    3    3    0    0 -0.93921951403E-01  0.71098094916E-01  0.56118531995E-01  0.88962102138E+00  0.88000000000E+00 0.  1.
        -11    1    3    3    0    0  0.47147552061E-01 -0.32247382822E-01 -0.38898166359E-01  0.69109433736E-01  0.51100000000E-03 0.  1.
         11    1    3    3    0    0  0.59971352671E-01 -0.33261607561E-01 -0.17814293198E-01  0.70855542069E-01  0.51100000000E-03 0. -1.
</event>
<event>
 8    1  0.2183582E+004  0.1043930E+01  0.7957747E-01            NaN
         13   -1    0    0    0    0  0.00000000000E+00  0.00000000000E+00  0.74505805969E-08  0.10566000000E+00  0.10566000000E+00 0.  1.
     999900   -1    0    0    0    0 -0.00000000000E+00 -0.00000000000E+00 -0.74505805969E-08  0.93827000000E+00  0.93827000000E+00 0. -1.
     999902    2    1    2    0    0  0.33429046407E-02 -0.21332724950E-02 -0.13726111272E-01  0.10296425232E+01  0.10295433908E+01 0.  0.
     999903    2    3    3    0    0 -0.45044861148E-01  0.52498735293E-01  0.11053104456E+00  0.13792178611E+00  0.44946084924E-01 0.  0.
         14    1    1    2    0    0 -0.33429046407E-02  0.21332724950E-02  0.13726111272E-01  0.14287476811E-01  0.00000000000E+00 0.  1.
     999901    1    3    3    0    0  0.48387765788E-01 -0.54632007788E-01 -0.12425715583E+00  0.89172073707E+00  0.88000000000E+00 0. -1.
        -11    1    4    4    0    0 -0.34382025826E-01  0.32969202398E-01  0.34818703704E-01  0.59005891699E-01  0.51100000000E-03 0.  1.
         11    1    4    4    0    0 -0.10662835322E-01  0.19529532895E-01  0.75712340857E-01  0.78915894415E-01  0.51100000000E-03 0. -1.
</event>
<event>
 8    1  0.2183582E+004  0.1043930E+01  0.7957747E-01            NaN
         13   -1    0    0    0    0  0.00000000000E+00  0.00000000000E+00  0.74505805969E-08  0.10566000000E+00  0.10566000000E+00 0.  1.
     999900   -1    0    0    0    0 -0.00000000000E+00 -0.00000000000E+00 -0.74505805969E-08  0.93827000000E+00  0.93827000000E+00 0. -1.
     999902    2    1    2    0    0  0.66794222942E-02  0.41903106116E-02 -0.94402024148E-02  0.10316299672E+01  0.10315566385E+01 0.  0.
     999903    2    3    3    0    0  0.12085343009E-01  0.17108028906E-02  0.13269886206E+00  0.14020476810E+00  0.43582182637E-01 0.  0.
         14    1    1    2    0    0 -0.66794222942E-02 -0.41903106116E-02  0.94402024148E-02  0.12300032798E-01  0.00000000000E+00 0.  1.
     999901    1    3    3    0    0 -0.54059207148E-02  0.24795077210E-02 -0.14213906448E+00  0.89142519910E+00  0.88000000000E+00 0. -1.
        -11    1    4    4    0    0  0.21545958668E-01 -0.14685295782E-01  0.83926345483E-01  0.87885031913E-01  0.51100000000E-03 0. -1.
         11    1    4    4    0    0 -0.94606156590E-02  0.16396098673E-01  0.48772516581E-01  0.52319736190E-01  0.51100000000E-03 0.  1.
</event>
<event>
 8    1  0.2183582E+004  0.1043930E+01  0.7957747E-01            NaN
         13   -1    0    0    0    0  0.00000000000E+00  0.00000000000E+00  0.74505805969E-08  0.10566000000E+00  0.10566000000E+00 0.  1.
     999900   -1    0    0    0    0 -0.00000000000E+00 -0.00000000000E+00 -0.74505805969E-08  0.93827000000E+00  0.93827000000E+00 0.  1.
     999902    2    1    2    0    0  0.10430863048E-01  0.38897636150E-02 -0.88674847795E-02  0.10296974510E+01  0.10295990847E+01 0.  0.
     999903    2    3    3    0    0 -0.25176792365E-01  0.99138240200E-01  0.82437357979E-01  0.13914888313E+00  0.45871910158E-01 0.  0.
         14    1    1    2    0    0 -0.10430863048E-01 -0.38897636150E-02  0.88674847795E-02  0.14232549007E-01  0.00000000000E+00 0.  1.
     999901    1    3    3    0    0  0.35607655413E-01 -0.95248476585E-01 -0.91304842759E-01  0.89054856787E+00  0.88000000000E+00 0.  1.
        -11    1    4    4    0    0  0.66242486649E-02  0.23637961374E-01  0.39869937345E-01  0.46824212894E-01  0.51100000000E-03 0.  1.
         11    1    4    4    0    0 -0.31801041029E-01  0.75500278825E-01  0.42567420635E-01  0.92324670234E-01  0.51100000000E-03 0. -1.
</event>
<event>
 8    1  0.2183582E+004  0.1043930E+01  0.7957747E-01            NaN
         13   -1    0    0    0    0  0.00000000000E+00  0.00000000000E+00  0.74505805969E-08  0.10566000000E+00  0.10566000000E+00 0.  1.
     999900   -1    0    0    0    0 -0.00000000000E+00 -0.00000000000E+00 -0.74505805969E-08  0.93827000000E+00  0.93827000000E+00 0.  1.
     999902    2    1    2    0    0 -0.12318220640E-01  0.41379744430E-02 -0.15693982949E-02  0.10308409052E+01  0.10307578025E+01 0.  0.
     999903    2    3    3    0    0 -0.46194575131E-01 -0.11929965731E+00 -0.29086846241E-01  0.14115463111E+00  0.52079153726E-01 0.  0.
         14    1    1    2    0    0  0.12318220640E-01 -0.41379744430E-02  0.15693982949E-02  0.13089094821E-01  0.00000000000E+00 0. -1.
     999901    1    3    3    0    0  0.33876354491E-01  0.12343763176E+00  0.27517447946E-01  0.88968627407E+00  0.88000000000E+00 0. -1.
        -11    1    4    4    0    0 -0.38930656884E-01 -0.35702499450E-01 -0.15852550563E-02  0.52849206871E-01  0.51100000000E-03 0. -1.
         11    1    4    4    0    0 -0.72639182476E-02 -0.83597157863E-01 -0.27501591184E-01  0.88305424237E-01  0.51100000000E-03 0.  1.
</event>
<event>
 8    1  0.2183582E+004  0.1043930E+01  0.7957747E-01            NaN
         13   -1    0    0    0    0  0.00000000000E+00  0.00000000000E+00  0.74505805969E-08  0.10566000000E+00  0.10566000000E+00 0. -1.
     999900   -1    0    0    0    0 -0.00000000000E+00 -0.00000000000E+00 -0.74505805969E-08  0.93827000000E+00  0.93827000000E+00 0. -1.
     999902    2    1    2    0    0 -0.10403311981E-01 -0.19509756089E-02  0.85789029422E-02  0.10303052878E+01  0.10302151976E+01 0.  0.
     999903    2    3    3    0    0  0.72494530584E-01 -0.94592579779E-01 -0.58391978130E-01  0.13904796358E+00  0.41490962281E-01 0.  0.
         14    1    1    2    0    0  0.10403311981E-01  0.19509756089E-02 -0.85789029422E-02  0.13624712169E-01  0.00000000000E+00 0.  1.
     999901    1    3    3    0    0 -0.82897842565E-01  0.92641604170E-01  0.66970881072E-01  0.89125732425E+00  0.88000000000E+00 0.  1.
        -11    1    4    4    0    0  0.73649963277E-01 -0.75167423362E-01 -0.40990645009E-01  0.11293782681E+00  0.51100000000E-03 0. -1.
         11    1    4    4    0    0 -0.11554326927E-02 -0.19425156417E-01 -0.17401333121E-01  0.26110136766E-01  0.51100000000E-03 0.  1.
</event>
<event>
 8    1  0.2183582E+004  0.1043930E+01  0.7957747E-01            NaN
         13   -1    0    0    0    0  0.00000000000E+00  0.00000000000E+00  0.74505805969E-08  0.10566000000E+00  0.10566000000E+00 0.  1.
     999900   -1    0    0    0    0 -0.00000000000E+00 -0.00000000000E+00 -0.74505805969E-08  0.93827000000E+00  0.93827000000E+00 0. -1.
     999902    2    1    2    0    0  0.59266002653E-02 -0.12462767211E-01  0.11639213258E-02  0.10300808170E+01  0.10299877134E+01 0.  0.
     999903    2    3    3    0    0 -0.50897770046E-01  0.92216341921E-01 -0.78001063996E-01  0.13853506951E+00  0.44870511314E-01 0.  0.
         14    1    1    2    0    0 -0.59266002653E-02  0.12462767211E-01 -0.11639213258E-02  0.13849183013E-01  0.00000000000E+00 0.  1.
     999901    1    3    3    0    0  0.56824370312E-01 -0.10467910913E+00  0.79164985322E-01  0.89154574748E+00  0.88000000000E+00 0.  1.
        -11    1    4    4    0    0 -0.24263525727E-01  0.11316497913E-01 -0.70721454090E-02  0.27695814980E-01  0.51100000000E-03 0. -1.
         11    1    4    4    0    0 -0.26634244320E-01  0.80899844009E-01 -0.70928918587E-01  0.11083925453E+00  0.51100000000E-03 0.  1.
</event>
<event>
 8    1  0.2183582E+004  0.1043930E+01  0.7957747E-01            NaN
         13   -1    0    0    0    0  0.00000000000E+00  0.00000000000E+00  0.74505805969E-08  0.10566000000E+00  0.10566000000E+00 0. -1.
     999900   -1    0    0    0    0 -0.00000000000E+00 -0.00000000000E+00 -0.74505805969E-08  0.93827000000E+00  0.93827000000E+00 0.  1.
     999902    2    1    2    0    0 -0.53312346427E-02  0.11790417318E-01 -0.14391590566E-02  0.10309105076E+01  0.10308282920E+01 0.  0.
     999903    2    3    3    0    0 -0.66024951857E-01 -0.90633553065E-01 -0.70560529795E-01  0.14020732421E+00  0.45886492446E-01 0.  0.
         14    1    1    2    0    0  0.53312346427E-02 -0.11790417318E-01  0.14391590566E-02  0.13019492392E-01  0.00000000000E+00 0. -1.
     999901    1    3    3    0    0  0.60693717214E-01  0.10242397038E+00  0.69121370739E-01  0.89070318340E+00  0.88000000000E+00 0. -1.
        -11    1    4    4    0    0 -0.69721769718E-01 -0.86346042655E-01 -0.55450774948E-01  0.12406374901E+00  0.51100000000E-03 0.  1.
         11    1    4    4    0    0  0.36968178615E-02 -0.42875104105E-02 -0.15109754847E-01  0.16143575204E-01  0.51100000000E-03 0. -1.
</event>
<event>
 8    1  0.2183582E+004  0.1043930E+01  0.7957747E-01            NaN
         13   -1    0    0    0    0  0.00000000000E+00  0.00000000000E+00  0.74505805969E-08  0.10566000000E+00  0.10566000000E+00 0.  1.
     999900   -1    0    0    0    0 -0.00000000000E+00 -0.00000000000E+00 -0.74505805969E-08  0.93827000000E+00  0.93827000000E+00 0. -1.
     999902    2    1    2    0    0 -0.10988067378E-01  0.19479272250E-04 -0.82663299135E-02  0.10301797195E+01  0.10300879497E+01 0.  0.
     999903    2    3    3    0    0  0.14569692555E-01 -0.13172049129E+00  0.95353752971E-02  0.13982837330E+00  0.43571628752E-01 0.  0.
         14    1    1    2    0    0  0.10988067378E-01 -0.19479272250E-04  0.82663299135E-02  0.13750280520E-01  0.00000000000E+00 0.  1.
     999901    1    3    3    0    0 -0.25557759933E-01  0.13173997056E+00 -0.17801705211E-01  0.89035134618E+00  0.88000000000E+00 0.  1.
        -11    1    4    4    0    0  0.13550337310E-01 -0.12307308483E+00  0.20830168568E-01  0.12555776716E+00  0.51100000000E-03 0. -1.
         11    1    4    4    0    0  0.10193552449E-02 -0.86474064527E-02 -0.11294793271E-01  0.14270606137E-01  0.51100000000E-03 0.  1.
</event>
<event>
 8    1  0.2183582E+004  0.1043930E+01  0.7957747E-01            NaN
         13   -1    0    0    0    0  0.00000000000E+00  0.00000000000E+00  0.74505805969E-08  0.10566000000E+00  0.10566000000E+00 0.  1.
     999900   -1    0    0    0    0 -0.00000000000E+00 -0.00000000000E+00 -0.74505805969E-08  0.93827000000E+00  0.93827000000E+00 0.  1.
     999902    2    1    2    0    0  0.11870474721E-01 -0.52303433493E-02  0.24575461385E-02  0.10307275686E+01  0.10306430112E+01 0.  0.
     999903    2    3    3    0    0  0.13139757557E+00  0.30161154056E-01  0.10143022196E-01  0.14190905369E+00  0.43130969616E-01 0.  0.
         14    1    1    2    0    0 -0.11870474721E-01  0.52303433493E-02 -0.24575461385E-02  0.13202431393E-01  0.00000000000E+00 0.  1.
     999901    1    3    3    0    0 -0.11952710085E+00 -0.35391497405E-01 -0.76854760571E-02  0.88881851492E+00  0.88000000000E+00 0.  1.
        -11    1    4    4    0    0  0.92305794817E-01  0.26372866252E-01  0.26143437185E-01  0.99496875629E-01  0.51100000000E-03 0. -1.
         11    1    4    4    0    0  0.39091780750E-01  0.37882878034E-02 -0.16000414990E-01  0.42412178057E-01  0.51100000000E-03 0.  1.
</event>
<event>
 8    1  0.2183582E+004  0.1043930E+01  0.7957747E-01            NaN
         13   -1    0    0    0    0  0.00000000000E+00  0.00000000000E+00  0.74505805969E-08  0.10566000000E+00  0.10566000000E+00 0.  1.
     999900   -1    0    0    0    0 -0.00000000000E+00 -0.00000000000E+00 -0.74505805969E-08  0.93827000000E+00  0.93827000000E+00 0. -1.
     999902    2    1    2    0    0 -0.75562835672E-02 -0.68246207309E-02  0.54860615539E-02  0.10323641131E+01  0.10322993230E+01 0.  0.
     999903    2    3    3    0    0 -0.94233940324E-02  0.13459668851E+00 -0.77771428770E-02  0.14097228821E+00  0.40095301189E-01 0.  0.
         14    1    1    2    0    0  0.75562835672E-02  0.68246207309E-02 -0.54860615539E-02  0.11565886946E-01  0.00000000000E+00 0. -1.
     999901    1    3    3    0    0  0.18671104652E-02 -0.14142130924E+00  0.13263204431E-01  0.89139182485E+00  0.88000000000E+00 0.  1.
        -11    1    4    4    0    0 -0.11111890699E-01  0.75768949689E-02 -0.33182631820E-02  0.13862014421E-01  0.51100000000E-03 0. -1.
         11    1    4    4    0    0  0.16884966661E-02  0.12701979354E+00 -0.44588796951E-02  0.12711027379E+00  0.51100000000E-03 0.  1.
</event>
<event>
 8    1  0.2183582E+004  0.1043930E+01  0.7957747E-01            NaN
         13   -1    0    0    0    0  0.00000000000E+00  0.00000000000E+00  0.74505805969E-08  0.10566000000E+00  0.10566000000E+00 0. -1.
     999900   -1    0    0    0    0 -0.00000000000E+00 -0.00000000000E+00 -0.74505805969E-08  0.93827000000E+00  0.93827000000E+00 0.  1.
     999902    2    1    2    0    0 -0.10531799043E-01  0.41851519886E-02  0.56534165002E-02  0.10312652692E+01  0.10311874999E+01 0.  0.
     999903    2    3    3    0    0 -0.10664979908E+00 -0.22127486751E-01 -0.76549373767E-01  0.14183380831E+00  0.48920519642E-01 0.  0.
         14    1    1    2    0    0  0.10531799043E-01 -0.41851519886E-02 -0.56534165002E-02  0.12664730806E-01  0.00000000000E+00 0.  1.
     999901    1    3    3    0    0  0.96118000032E-01  0.26312638740E-01  0.82202790267E-01  0.88943146089E+00  0.88000000000E+00 0.  1.
        -11    1    4    4    0    0 -0.40737091466E-01 -0.32573207584E-01 -0.27159272022E-01  0.58808261760E-01  0.51100000000E-03 0. -1.
         11    1    4    4    0    0 -0.65912707610E-01  0.10445720833E-01 -0.49390101745E-01  0.83025546548E-01  0.51100000000E-03 0.  1.
</event>
<event>
 8    1  0.2183582E+004  0.1043930E+01  0.7957747E-01            NaN
         13   -1    0    0    0    0  0.00000000000E+00  0.00000000000E+00  0.74505805969E-08  0.10566000000E+00  0.10566000000E+00 0. -1.
     999900   -1    0    0    0    0 -0.00000000000E+00 -0.00000000000E+00 -0.74505805969E-08  0.93827000000E+00  0.93827000000E+00 0.  1.
     999902    2    1    2    0    0 -0.11402567390E-01  0.30235123214E-02  0.62853032267E-02  0.10305634295E+01  0.10304767426E+01 0.  0.
     999903    2    3    3    0    0  0.12218298051E+00  0.16033646551E-01 -0.46262756562E-01  0.13883720427E+00  0.44156178488E-01 0.  0.
         14    1    1    2    0    0  0.11402567390E-01 -0.30235123214E-02 -0.62853032267E-02  0.13366570484E-01  0.00000000000E+00 0. -1.
     999901    1    3    3    0    0 -0.13358554790E+00 -0.13010134230E-01  0.52548059788E-01  0.89172622524E+00  0.88000000000E+00 0.  1.
        -11    1    4    4    0    0  0.11605488096E+00  0.11778201076E-01 -0.53585248545E-01  0.12837095231E+00  0.51100000000E-03 0.  1.
         11    1    4    4    0    0  0.61280995438E-02  0.42554454755E-02  0.73224919828E-02  0.10466251958E-01  0.51100000000E-03 0. -1.
</event>
<event>
 7    1  0.2183582E+004  0.1043930E+01  0.7957747E-01            NaN
         13   -1    0    0    0    0  0.00000000000E+00  0.00000000000E+00  0.74505805969E-08  0.10566000000E+00  0.10566000000E+00 0. -1.
     999900   -1    0    0    0    0 -0.00000000000E+00 -0.00000000000E+00 -0.74505805969E-08  0.93827000000E+00  0.93827000000E+00 0. -1.
     999903    2    1    2    0    0  0.23216896048E-01  0.29352603279E-01  0.10387245106E+00  0.11930702378E+00  0.45211505756E-01 0.  0.
         14    1    1    2    0    0 -0.18108395801E-01 -0.16275582037E-01  0.25264918689E-01  0.35087386416E-01  0.00000000000E+00 0. -1.
     999901    1    1    2    0    0 -0.51085002471E-02 -0.13077021243E-01 -0.12913736975E+00  0.88953558980E+00  0.88000000000E+00 0. -1.
        -11    1    3    3    0    0  0.32614358581E-01  0.28460321434E-01  0.57460306002E-01  0.71941880491E-01  0.51100000000E-03 0. -1.
         11    1    3    3    0    0 -0.93974625320E-02  0.89228184525E-03  0.46412145059E-01  0.47365143290E-01  0.51100000000E-03 0.  1.
</event>
<event>
 8    1  0.2183582E+004  0.1043930E+01  0.7957747E-01            NaN
         13   -1    0    0    0    0  0.00000000000E+00  0.00000000000E+00  0.74505805969E-08  0.10566000000E+00  0.10566000000E+00 0.  1.
     999900   -1    0    0    0    0 -0.00000000000E+00 -0.00000000000E+00 -0.74505805969E-08  0.93827000000E+00  0.93827000000E+00 0.  1.
     999902    2    1    2    0    0  0.53817827238E-02  0.19510450914E-02 -0.12654356116E-01  0.10300410515E+01  0.10299474088E+01 0.  0.
     999903    2    3    3    0    0 -0.10898197840E+00  0.53450113752E-01  0.50508903275E-01  0.13890648181E+00  0.44831630590E-01 0.  0.
         14    1    1    2    0    0 -0.53817827238E-02 -0.19510450914E-02  0.12654356116E-01  0.13888948519E-01  0.00000000000E+00 0.  1.
     999901    1    3    3    0    0  0.11436376113E+00 -0.51499068661E-01 -0.63163259391E-01  0.89113456967E+00  0.88000000000E+00 0.  1.
        -11    1    4    4    0    0 -0.14615535735E-01  0.24120269921E-01  0.22813134138E-01  0.36278113459E-01  0.51100000000E-03 0. -1.
         11    1    4    4    0    0 -0.94366442667E-01  0.29329843831E-01  0.27695769136E-01  0.10262836835E+00  0.51100000000E-03 0.  1.
</event>
<event>
 8    1  0.2183582E+004  0.1043930E+01  0.7957747E-01            NaN
         13   -1    0    0    0    0  0.00000000000E+00  0.00000000000E+00  0.74505805969E-08  0.10566000000E+00  0.10566000000E+00 0.  1.
     999900   -1    0    0    0    0 -0.00000000000E+00 -0.00000000000E+00 -0.74505805969E-08  0.93827000000E+00  0.93827000000E+00 0.  1.
     999902    2    1    2    0    0 -0.31764863771E-02  0.57855764592E-02 -0.11953061036E-01  0.10302757469E+01  0.10301852629E+01 0.  0.
     999903    2    3    3    0    0 -0.12842648889E+00  0.34628076457E-01  0.71447097431E-03  0.14084901053E+00  0.46319181444E-01 0.  0.
         14    1    1    2    0    0  0.31764863771E-02 -0.57855764592E-02  0.11953061036E-01  0.13654253140E-01  0.00000000000E+00 0.  1.
     999901    1    3    3    0    0  0.12525000251E+00 -0.28842499998E-01 -0.12667532010E-01  0.88942673633E+00  0.88000000000E+00 0. -1.
        -11    1    4    4    0    0 -0.83108906935E-01  0.23076111591E-02 -0.11287303770E-01  0.83905183562E-01  0.51100000000E-03 0. -1.
         11    1    4    4    0    0 -0.45317581956E-01  0.32320465298E-01  0.12001774744E-01  0.56943826965E-01  0.51100000000E-03 0.  1.
</event>
<event>
 8    1  0.2183582E+004  0.1043930E+01  0.7957747E-01            NaN
         13   -1    0    0    0    0  0.00000000000E+00  0.00000000000E+00  0.74505805969E-08  0.10566000000E+00  0.10566000000E+00 0. -1.
     999900   -1    0    0    0    0 -0.00000000000E+00 -0.00000000000E+00 -0.74505805969E-08  0.93827000000E+00  0.93827000000E+00 0. -1.
     999902    2    1    2    0    0 -0.10635697694E-02  0.12514413210E-01  0.50824234219E-02  0.10303810980E+01  0.10302920141E+01 0.  0.
     999903    2    3    3    0    0  0.31770068068E-01  0.11892173159E+00  0.52122183265E-01  0.14211688941E+00  0.48257360044E-01 0.  0.
         14    1    1    2    0    0  0.10635697694E-02 -0.12514413210E-01 -0.50824234219E-02  0.13548902039E-01  0.00000000000E+00 0.  1.
     999901    1    3    3    0    0 -0.32833637838E-01 -0.10640731838E+00 -0.47039759843E-01  0.88826420855E+00  0.88000000000E+00 0. -1.
        -11    1    4    4    0    0 -0.12400361513E-01  0.18637915833E-01  0.12124344804E-01  0.25463733626E-01  0.51100000000E-03 0. -1.
         11    1    4    4    0    0  0.44170429582E-01  0.10028381576E+00  0.39997838461E-01  0.11665315579E+00  0.51100000000E-03 0.  1.
</event>
<event>
 8    1  0.2183582E+004  0.1043930E+01  0.7957747E-01            NaN
         13   -1    0    0    0    0  0.00000000000E+00  0.00000000000E+00  0.74505805969E-08  0.10566000000E+00  0.10566000000E+00 0.  1.
     999900   -1    0    0    0    0 -0.00000000000E+00 -0.00000000000E+00 -0.74505805969E-08  0.93827000000E+00  0.93827000000E+00 0.  1.
     999902    2    1    2    0    0 -0.66834271121E-02  0.11133449243E-01  0.38015965928E-02  0.10303995149E+01  0.10303106747E+01 0.  0.
     999903    2    3    3    0    0  0.12996994306E+00  0.21161678798E-01  0.11611561174E-01  0.13976170721E+00  0.45370736159E-01 0.  0.
         14    1    1    2    0    0  0.66834271121E-02 -0.11133449243E-01 -0.38015965928E-02  0.13530485086E-01  0.00000000000E+00 0.  1.
     999901    1    3    3    0    0 -0.13665337017E+00 -0.10028229555E-01 -0.78099645813E-02  0.89063780771E+00  0.88000000000E+00 0.  1.
        -11    1    4    4    0    0  0.21075735951E-01  0.12256731943E-01 -0.13188059534E-01  0.27723638994E-01  0.51100000000E-03 0. -1.
         11    1    4    4    0    0  0.10889420711E+00  0.89049468549E-02  0.24799620708E-01  0.11203806821E+00  0.51100000000E-03 0.  1.
</event>
<event>
 8    1  0.2183582E+004  0.1043930E+01  0.7957747E-01            NaN
         13   -1    0    0    0    0  0.00000000000E+00  0.00000000000E+00  0.74505805969E-08  0.10566000000E+00  0.10566000000E+00 0.  1.
     999900   -1    0    0    0    0 -0.00000000000E+00 -0.00000000000E+00 -0.74505805969E-08  0.93827000000E+00  0.93827000000E+00 0.  1.
     999902    2    1    2    0    0 -0.46016633298E-02  0.89119525571E-02  0.43575510618E-02  0.10329944408E+01  0.10329365558E+01 0.  0.
     999903    2    3    3    0    0 -0.29048282345E-01  0.13243020872E+00  0.18724675197E-01  0.14391581039E+00  0.44492517693E-01 0.  0.
         14    1    1    2    0    0  0.46016633298E-02 -0.89119525571E-02 -0.43575510618E-02  0.10935559201E-01  0.00000000000E+00 0. -1.
     999901    1    3    3    0    0  0.24446619015E-01 -0.12351825617E+00 -0.14367124135E-01  0.88907863041E+00  0.88000000000E+00 0. -1.
        -11    1    4    4    0    0 -0.71712733513E-02  0.23936900980E-01  0.21843907733E-01  0.33193671325E-01  0.51100000000E-03 0. -1.
         11    1    4    4    0    0 -0.21877008994E-01  0.10849330774E+00 -0.31192325360E-02  0.11072213907E+00  0.51100000000E-03 0.  1.
</event>
<event>
 8    1  0.2183582E+004  0.1043930E+01  0.7957747E-01            NaN
         13   -1    0    0    0    0  0.00000000000E+00  0.00000000000E+00  0.74505805969E-08  0.10566000000E+00  0.10566000000E+00 0. -1.
     999900   -1    0    0    0    0 -0.00000000000E+00 -0.00000000000E+00 -0.74505805969E-08  0.93827000000E+00  0.93827000000E+00 0.  1.
     999902    2    1    2    0    0 -0.18676718592E-03  0.12479567460E-01  0.55996825548E-02  0.10302504192E+01  0.10301595970E+01 0.  0.
     999903    2    3    3    0    0  0.10710186082E+00 -0.23813005908E-01  0.75365115224E-01  0.14025310675E+00  0.44194632245E-01 0.  0.
         14    1    1    2    0    0  0.18676718592E-03 -0.12479567460E-01 -0.55996825548E-02  0.13679580794E-01  0.00000000000E+00 0.  1.
     999901    1    3    3    0    0 -0.10728862801E+00  0.36292573368E-01 -0.69765432670E-01  0.88999731245E+00  0.88000000000E+00 0.  1.
        -11    1    4    4    0    0  0.60570929529E-01 -0.24110703279E-01  0.20567691195E-01  0.68362669336E-01  0.51100000000E-03 0.  1.
         11    1    4    4    0    0  0.46530931290E-01  0.29769737193E-03  0.54797424030E-01  0.71890437415E-01  0.51100000000E-03 0. -1.
</event>
<event>
 8    1  0.2183582E+004  0.1043930E+01  0.7957747E-01            NaN
         13   -1    0    0    0    0  0.00000000000E+00  0.00000000000E+00  0.74505805969E-08  0.10566000000E+00  0.10566000000E+00 0.  1.
     999900   -1    0    0    0    0 -0.00000000000E+00 -0.00000000000E+00 -0.74505805969E-08  0.93827000000E+00  0.93827000000E+00 0. -1.
     999902    2    1    2    0    0  0.46607576852E-02  0.12778652857E-02  0.12791731098E-01  0.10302557912E+01  0.10301650408E+01 0.  0.
     999903    2    3    3    0    0  0.69921639187E-01 -0.87853826930E-01  0.72893608415E-01  0.14131503003E+00  0.45267306426E-01 0.  0.
         14    1    1    2    0    0 -0.46607576852E-02 -0.12778652857E-02 -0.12791731098E-01  0.13674208803E-01  0.00000000000E+00 0. -1.
     999901    1    3    3    0    0 -0.65260881502E-01  0.89131692216E-01 -0.60101877317E-01  0.88894076117E+00  0.88000000000E+00 0.  1.
        -11    1    4    4    0    0  0.51783770228E-01 -0.76177210738E-01  0.36653446692E-01  0.99137594132E-01  0.51100000000E-03 0.  1.
         11    1    4    4    0    0  0.18137868959E-01 -0.11676616193E-01  0.36240161723E-01  0.42177435896E-01  0.51100000000E-03 0. -1.
</event>
<event>
 8    1  0.2183582E+004  0.1043930E+01  0.7957747E-01            NaN
         13   -1    0    0    0    0  0.00000000000E+00  0.00000000000E+00  0.74505805969E-08  0.10566000000E+00  0.10566000000E+00 0. -1.
     999900   -1    0    0    0    0 -0.00000000000E+00 -0.00000000000E+00 -0.74505805969E-08  0.93827000000E+00  0.93827000000E+00 0.  1.
     999902    2    1    2    0    0  0.91425856153E-03 -0.12075975692E-02  0.12572751116E-01  0.10312663421E+01  0.10311885861E+01 0.  0.
     999903    2    3    3    0    0  0.55355445573E-01  0.60681152714E-01  0.10666680365E+00  0.14242003876E+00  0.46467545547E-01 0.  0.
         14    1    1    2    0    0 -0.91425856153E-03  0.12075975692E-02 -0.12572751116E-01  0.12663657893E-01  0.00000000000E+00 0.  1.
     999901    1    3    3    0    0 -0.54441187012E-01 -0.61888750283E-01 -0.94094052535E-01  0.88884630335E+00  0.88000000000E+00 0.  1.
        -11    1    4    4    0    0  0.38064756544E-01  0.83734111523E-02  0.49823855708E-01  0.63259129173E-01  0.51100000000E-03 0. -1.
         11    1    4    4    0    0  0.17290689029E-01  0.52307741561E-01  0.56842947943E-01  0.79160909585E-01  0.51100000000E-03 0.  1.
</event>
<event>
 8    1  0.2183582E+004  0.1043930E+01  0.7957747E-01            NaN
         13   -1    0    0    0    0  0.00000000000E+00  0.00000000000E+00  0.74505805969E-08  0.10566000000E+00  0.10566000000E+00 0.  1.
     999900   -1    0    0    0    0 -0.00000000000E+00 -0.00000000000E+00 -0.74505805969E-08  0.93827000000E+00  0.93827000000E+00 0. -1.
     999902    2    1    2    0    0 -0.69263341900E-02 -0.13715909676E-01 -0.38652140109E-02  0.10280857530E+01  0.10279636547E+01 0.  0.
     999903    2    3    3    0    0 -0.12597378916E+00  0.39743533815E-01 -0.44820267658E-02  0.13846190604E+00  0.41263383581E-01 0.  0.
         14    1    1    2    0    0  0.69263341900E-02  0.13715909676E-01  0.38652140109E-02  0.15844246997E-01  0.00000000000E+00 0.  1.
     999901    1    3    3    0    0  0.11904745497E+00 -0.53459443491E-01  0.61681275488E-03  0.88962384697E+00  0.88000000000E+00 0. -1.
        -11    1    4    4    0    0 -0.64692738649E-01  0.35664039587E-01  0.12066484353E-01  0.74852757592E-01  0.51100000000E-03 0. -1.
         11    1    4    4    0    0 -0.61281050509E-01  0.40794942286E-02 -0.16548511118E-01  0.63609148445E-01  0.51100000000E-03 0.  1.
</event>
<event>
 8    1  0.2183582E+004  0.1043930E+01  0.7957747E-01            NaN
         13   -1    0    0    0    0  0.00000000000E+00  0.00000000000E+00  0.74505805969E-08  0.10566000000E+00  0.10566000000E+00 0.  1.
     999900   -1    0    0    0    0 -0.00000000000E+00 -0.00000000000E+00 -0.74505805969E-08  0.93827000000E+00  0.93827000000E+00 0.  1.
     999902    2    1    2    0    0 -0.12577337445E-01 -0.24722844009E-02 -0.39015202159E-02  0.10305313632E+01  0.10304442572E+01 0.  0.
     999903    2    3    3    0    0  0.12184050334E+00 -0.23037608884E-01  0.43813905769E-01  0.13880951738E+00  0.44413782744E-01 0.  0.
         14    1    1    2    0    0  0.12577337445E-01  0.24722844009E-02  0.39015202159E-02  0.13398636772E-01  0.00000000000E+00 0. -1.
     999901    1    3    3    0    0 -0.13441784079E+00  0.20565324483E-01 -0.47715425985E-01  0.89172184585E+00  0.88000000000E+00 0.  1.
        -11    1    4    4    0    0  0.11031266833E+00 -0.61259022675E-02  0.31369796015E-01  0.11485093250E+00  0.51100000000E-03 0.  1.
         11    1    4    4    0    0  0.11527835010E-01 -0.16911706616E-01  0.12444109754E-01  0.23958584876E-01  0.51100000000E-03 0. -1.
</event>
<event>
 8    1  0.2183582E+004  0.1043930E+01  0.7957747E-01            NaN
         13   -1    0    0    0    0  0.00000000000E+00  0.00000000000E+00  0.74505805969E-08  0.10566000000E+00  0.10566000000E+00 0.  1.
     999900   -1    0    0    0    0 -0.00000000000E+00 -0.00000000000E+00 -0.74505805969E-08  0.93827000000E+00  0.93827000000E+00 0. -1.
     999902    2    1    2    0    0 -0.68043102698E-02  0.12467139589E-01 -0.56942885742E-03  0.10297154843E+01  0.10296173688E+01 0.  0.
     999903    2    3    3    0    0  0.12246976544E+00  0.48062963621E-01 -0.10800784307E-01  0.13950004408E+00  0.45107797984E-01 0.  0.
         14    1    1    2    0    0  0.68043102698E-02 -0.12467139589E-01  0.56942885742E-03  0.14214515714E-01  0.00000000000E+00 0. -1.
     999901    1    3    3    0    0 -0.12927407571E+00 -0.35595824033E-01  0.10231355450E-01  0.89021544020E+00  0.88000000000E+00 0. -1.
        -11    1    4    4    0    0  0.91777705210E-01  0.42790838931E-01  0.10439656887E-01  0.10180103451E+00  0.51100000000E-03 0.  1.
         11    1    4    4    0    0  0.30692060230E-01  0.52721246904E-02 -0.21240441194E-01  0.37699009576E-01  0.51100000000E-03 0. -1.
</event>
<event>
 8    1  0.2183582E+004  0.1043930E+01  0.7957747E-01            NaN
         13   -1    0    0    0    0  0.00000000000E+00  0.00000000000E+00  0.74505805969E-08  0.10566000000E+00  0.10566000000E+00 0.  1.
     999900   -1    0    0    0    0 -0.00000000000E+00 -0.00000000000E+00 -0.74505805969E-08  0.93827000000E+00  0.93827000000E+00 0. -1.
     999902    2    1    2    0    0 -0.11296285959E-01  0.32434940396E-02 -0.58645831610E-02  0.10307953258E+01  0.10307116396E+01 0.  0.
     999903    2    3    3    0    0 -0.47442130081E-01 -0.92013941685E-01  0.75481650927E-01  0.14118995775E+00  0.59327930786E-01 0.  0.
         14    1    1    2    0    0  0.11296285959E-01 -0.32434940396E-02  0.58645831610E-02  0.13134674176E-01  0.00000000000E+00 0.  1.
     999901    1    3    3    0    0  0.36145844121E-01  0.95257435725E-01 -0.81346234088E-01  0.88960536808E+00  0.88000000000E+00 0. -1.
        -11    1    4    4    0    0 -0.56757514153E-01 -0.48939085649E-01  0.52322305538E-01  0.91402047542E-01  0.51100000000E-03 0.  1.
         11    1    4    4    0    0  0.93153840722E-02 -0.43074856036E-01  0.23159345389E-01  0.49787910207E-01  0.51100000000E-03 0. -1.
</event>
<event>
 8    1  0.2183582E+004  0.1043930E+01  0.7957747E-01            NaN
         13   -1    0    0    0    0  0.00000000000E+00  0.00000000000E+00  0.74505805969E-08  0.10566000000E+00  0.10566000000E+00 0.  1.
     999900   -1    0    0    0    0 -0.00000000000E+00 -0.00000000000E+00 -0.74505805969E-08  0.93827000000E+00  0.93827000000E+00 0. -1.
     999902    2    1    2    0    0 -0.11789091885E-01  0.40962909296E-02  0.58955089613E-02  0.10301271266E+01  0.10300346488E+01 0.  0.
     999903    2    3    3    0    0 -0.99420577116E-02 -0.95286003881E-02 -0.12941256228E+00  0.13967930485E+00  0.50725321017E-01 0.  0.
         14    1    1    2    0    0  0.11789091885E-01 -0.40962909296E-02 -0.58955089613E-02  0.13802873352E-01  0.00000000000E+00 0. -1.
     999901    1    3    3    0    0 -0.18470341731E-02  0.13624891318E-01  0.13530807124E+00  0.89044782180E+00  0.88000000000E+00 0.  1.
        -11    1    4    4    0    0 -0.15991265045E-01  0.10793689050E-01 -0.10736582650E+00  0.10908669076E+00  0.51100000000E-03 0.  1.
         11    1    4    4    0    0  0.60492073332E-02 -0.20322289438E-01 -0.22046735779E-01  0.30592614090E-01  0.51100000000E-03 0. -1.
</event>
<event>
 8    1  0.2183582E+004  0.1043930E+01  0.7957747E-01            NaN
         13   -1    0    0    0    0  0.00000000000E+00  0.00000000000E+00  0.74505805969E-08  0.10566000000E+00  0.10566000000E+00 0.  1.
     999900   -1    0    0    0    0 -0.00000000000E+00 -0.00000000000E+00 -0.74505805969E-08  0.93827000000E+00  0.93827000000E+00 0.  1.
     999902    2    1    2    0    0 -0.64115374190E-02 -0.85795241960E-02  0.96995084643E-02  0.10294802072E+01  0.10293787935E+01 0.  0.
     999903    2    3    3    0    0  0.56357657038E-01  0.86829846257E-01  0.81509982883E-01  0.13919954135E+00  0.44911327032E-01 0.  0.
         14    1    1    2    0    0  0.64115374190E-02  0.85795241960E-02 -0.96995084643E-02  0.14449792800E-01  0.00000000000E+00 0. -1.
     999901    1    3    3    0    0 -0.62769194457E-01 -0.95409370453E-01 -0.71810474418E-01  0.89028066585E+00  0.88000000000E+00 0.  1.
        -11    1    4    4    0    0  0.23904516623E-01  0.15513595317E-01  0.43764150064E-01  0.52226999784E-01  0.51100000000E-03 0.  1.
         11    1    4    4    0    0  0.32453140415E-01  0.71316250940E-01  0.37745832819E-01  0.86972541570E-01  0.51100000000E-03 0. -1.
</event>
<event>
 8    1  0.2183582E+004  0.1043930E+01  0.7957747E-01            NaN
         13   -1    0    0    0    0  0.00000000000E+00  0.00000000000E+00  0.74505805969E-08  0.10566000000E+00  0.10566000000E+00 0. -1.
     999900   -1    0    0    0    0 -0.00000000000E+00 -0.00000000000E+00 -0.74505805969E-08  0.93827000000E+00  0.93827000000E+00 0. -1.
     999902    2    1    2    0    0 -0.28689814953E-02 -0.19243543753E-01  0.32960301575E-02  0.10241965551E+01  0.10240064330E+01 0.  0.
     999903    2    3    3    0    0  0.21910124970E-01 -0.12484945741E-02  0.12565269352E+00  0.13520331615E+00  0.44829956449E-01 0.  0.
         14    1    1    2    0    0  0.28689814953E-02  0.19243543753E-01 -0.32960301575E-02  0.19733444853E-01  0.00000000000E+00 0.  1.
     999901    1    3    3    0    0 -0.24779106465E-01 -0.17995049179E-01 -0.12235666336E+00  0.88899323900E+00  0.88000000000E+00 0. -1.
        -11    1    4    4    0    0  0.25722228044E-01 -0.18299459351E-01  0.92260675095E-01  0.97513058193E-01  0.51100000000E-03 0. -1.
         11    1    4    4    0    0 -0.38121030740E-02  0.17050964777E-01  0.33392018421E-01  0.37690257958E-01  0.51100000000E-03 0.  1.
</event>
<event>
 8    1  0.2183582E+004  0.1043930E+01  0.7957747E-01            NaN
         13   -1    0    0    0    0  0.00000000000E+00  0.00000000000E+00  0.74505805969E-08  0.10566000000E+00  0.10566000000E+00 0. -1.
     999900   -1    0    0    0    0 -0.00000000000E+00 -0.00000000000E+00 -0.74505805969E-08  0.93827000000E+00  0.93827000000E+00 0.  1.
     999902    2    1    2    0    0 -0.79490749109E-02 -0.22117784343E-02 -0.11244116176E-01  0.10299833192E+01  0.10298888911E+01 0.  0.
     999903    2    3    3    0    0 -0.70046047373E-01  0.96490464206E-01 -0.61852429195E-01  0.14084926408E+00  0.42378458668E-01 0.  0.
         14    1    1    2    0    0  0.79490749109E-02  0.22117784343E-02  0.11244116176E-01  0.13946680765E-01  0.00000000000E+00 0. -1.
     999901    1    3    3    0    0  0.62096972462E-01 -0.98702242640E-01  0.50608313019E-01  0.88913405516E+00  0.88000000000E+00 0. -1.
        -11    1    4    4    0    0 -0.70936092423E-01  0.68788633516E-01 -0.47664058917E-01  0.10970838137E+00  0.51100000000E-03 0.  1.
         11    1    4    4    0    0  0.89004505061E-03  0.27701830690E-01 -0.14188370278E-01  0.31140882710E-01  0.51100000000E-03 0. -1.
</event>
<event>
 8    1  0.2183582E+004  0.1043930E+01  0.7957747E-01            NaN
         13   -1    0    0    0    0  0.00000000000E+00  0.00000000000E+00  0.74505805969E-08  0.10566000000E+00  0.10566000000E+00 0. -1.
     999900   -1    0    0    0    0 -0.00000000000E+00 -0.00000000000E+00 -0.74505805969E-08  0.93827000000E+00  0.93827000000E+00 0.  1.
     999902    2    1    2    0    0  0.14439434820E-01 -0.78133120997E-02  0.56776267412E-02  0.10265581674E+01  0.10264111702E+01 0.  0.
     999903    2    3    3    0    0 -0.12495435430E+00  0.17300381738E-01  0.18468242137E-01  0.13514079827E+00  0.44822600597E-01 0.  0.
         14    1    1    2    0    0 -0.14439434820E-01  0.78133120997E-02 -0.56776267412E-02  0.17371832641E-01  0.00000000000E+00 0. -1.
     999901    1    3    3    0    0  0.13939378912E+00 -0.25113693837E-01 -0.12790615396E-01  0.89141736908E+00  0.88000000000E+00 0. -1.
        -11    1    4    4    0    0 -0.65128609380E-01  0.12815194730E-01 -0.12620578965E-01  0.67568521592E-01  0.51100000000E-03 0. -1.
         11    1    4    4    0    0 -0.59825744919E-01  0.44851870073E-02  0.31088821102E-01  0.67572276683E-01  0.51100000000E-03 0.  1.
</event>
<event>
 8    1  0.2183582E+004  0.1043930E+01  0.7957747E-01            NaN
         13   -1    0    0    0    0  0.00000000000E+00  0.00000000000E+00  0.74505805969E-08  0.10566000000E+00  0.10566000000E+00 0.  1.
     999900   -1    0    0    0    0 -0.00000000000E+00 -0.00000000000E+00 -0.74505805969E-08  0.93827000000E+00  0.93827000000E+00 0.  1.
     999902    2    1    2    0    0 -0.82372850104E-02 -0.13928758311E-02 -0.11323249961E-01  0.10298584344E+01  0.10297622959E+01 0.  0.
     999903    2    3    3    0    0 -0.17814459205E-01  0.12501528689E+00 -0.40607505041E-01  0.14029207185E+00  0.45680620031E-01 0.  0.
         14    1    1    2    0    0  0.82372850104E-02  0.13928758311E-02  0.11323249961E-01  0.14071565552E-01  0.00000000000E+00 0. -1.
     999901    1    3    3    0    0  0.95771741949E-02 -0.12640816272E+00  0.29284255081E-01  0.88956636260E+00  0.88000000000E+00 0.  1.
        -11    1    4    4    0    0 -0.23354285800E-01  0.88667516559E-01 -0.46892172958E-01  0.10298780590E+00  0.51100000000E-03 0.  1.
         11    1    4    4    0    0  0.55398265943E-02  0.36347770328E-01  0.62846679163E-02  0.37304265953E-01  0.51100000000E-03 0. -1.
</event>
<event>
 8    1  0.2183582E+004  0.1043930E+01  0.7957747E-01            NaN
         13   -1    0    0    0    0  0.00000000000E+00  0.00000000000E+00  0.74505805969E-08  0.10566000000E+00  0.10566000000E+00 0.  1.
     999900   -1    0    0    0    0 -0.00000000000E+00 -0.00000000000E+00 -0.74505805969E-08  0.93827000000E+00  0.93827000000E+00 0.  1.
     999902    2    1    2    0    0  0.14181362898E-01  0.18140493901E-02 -0.37392443317E-02  0.10291521863E+01  0.10290460820E+01 0.  0.
     999903    2    3    3    0    0 -0.39721198038E-01 -0.91390404895E-01  0.84297593173E-01  0.13822960768E+00  0.45512202160E-01 0.  0.
         14    1    1    2    0    0 -0.14181362898E-01 -0.18140493901E-02  0.37392443317E-02  0.14777813675E-01  0.00000000000E+00 0.  1.
     999901    1    3    3    0    0  0.53902560935E-01  0.93204454285E-01 -0.88036837505E-01  0.89092257864E+00  0.88000000000E+00 0.  1.
        -11    1    4    4    0    0 -0.32718537544E-01 -0.65359405067E-01  0.83888810906E-01  0.11126521580E+00  0.51100000000E-03 0. -1.
         11    1    4    4    0    0 -0.70026604935E-02 -0.26030999828E-01  0.40878226739E-03  0.26964391890E-01  0.51100000000E-03 0.  1.
</event>
<event>
 8    1  0.2183582E+004  0.1043930E+01  0.7957747E-01            NaN
         13   -1    0    0    0    0  0.00000000000E+00  0.00000000000E+00  0.74505805969E-08  0.10566000000E+00  0.10566000000E+00 0. -1.
     999900   -1    0    0    0    0 -0.00000000000E+00 -0.00000000000E+00 -0.74505805969E-08  0.93827000000E+00  0.93827000000E+00 0.  1.
     999902    2    1    2    0    0 -0.54957238894E-02 -0.94180799001E-02  0.67005340982E-02  0.10311315482E+01  0.10310521177E+01 0.  0.
     999903    2    3    3    0    0  0.73928652796E-01  0.25847908611E-01  0.10832228543E+00  0.14103104724E+00  0.44971976614E-01 0.  0.
         14    1    1    2    0    0  0.54957238894E-02  0.94180799001E-02 -0.67005340982E-02  0.12798451753E-01  0.00000000000E+00 0.  1.
     999901    1    3    3    0    0 -0.79424376686E-01 -0.35265988511E-01 -0.10162175133E+00  0.89010050101E+00  0.88000000000E+00 0. -1.
        -11    1    4    4    0    0  0.29818450526E-01  0.85178884935E-03  0.74042546584E-01  0.79827472474E-01  0.51100000000E-03 0.  1.
         11    1    4    4    0    0  0.44110202270E-01  0.24996119762E-01  0.34279738843E-01  0.61203574762E-01  0.51100000000E-03 0. -1.
</event>
<event>
 8    1  0.2183582E+004  0.1043930E+01  0.7957747E-01            NaN
         13   -1    0    0    0    0  0.00000000000E+00  0.00000000000E+00  0.74505805969E-08  0.10566000000E+00  0.10566000000E+00 0.  1.
     999900   -1    0    0    0    0 -0.00000000000E+00 -0.00000000000E+00 -0.74505805969E-08  0.93827000000E+00  0.93827000000E+00 0.  1.
     999902    2    1    2    0    0  0.19580247033E-02  0.14656801406E-01  0.96344453148E-02  0.10262812543E+01  0.10261294922E+01 0.  0.
     999903    2    3    3    0    0  0.54773325075E-01  0.14386268072E-01 -0.11598414953E+00  0.13579287116E+00  0.42193590359E-01 0.  0.
         14    1    1    2    0    0 -0.19580247033E-02 -0.14656801406E-01 -0.96344453148E-02  0.17648745698E-01  0.00000000000E+00 0. -1.
     999901    1    3    3    0    0 -0.52815300372E-01  0.27053333425E-03  0.12561859484E+00  0.89048838314E+00  0.88000000000E+00 0. -1.
        -11    1    4    4    0    0 -0.64052526040E-02 -0.82231012133E-03 -0.19416032554E-01  0.20468192299E-01  0.51100000000E-03 0.  1.
         11    1    4    4    0    0  0.61178577679E-01  0.15208578193E-01 -0.96568116973E-01  0.11532467886E+00  0.51100000000E-03 0. -1.
</event>
<event>
 8    1  0.2183582E+004  0.1043930E+01  0.7957747E-01            NaN
         13   -1    0    0    0    0  0.00000000000E+00  0.00000000000E+00  0.74505805969E-08  0.10566000000E+00  0.10566000000E+00 0.  1.
     999900   -1    0    0    0    0 -0.00000000000E+00 -0.00000000000E+00 -0.74505805969E-08  0.93827000000E+00  0.93827000000E+00 0. -1.
     999902    2    1    2    0    0  0.12367261670E-01 -0.29637060453E-03 -0.56190567843E-02  0.10303428445E+01  0.10302532535E+01 0.  0.
     999903    2    3    3    0    0 -0.52370834339E-02  0.92987311707E-01 -0.95796654490E-01  0.14065539513E+00  0.43964462767E-01 0.  0.
         14    1    1    2    0    0 -0.12367261670E-01  0.29637060453E-03  0.56190567843E-02  0.13587155548E-01  0.00000000000E+00 0.  1.
     999901    1    3    3    0    0  0.17604345104E-01 -0.93283682311E-01  0.90177597706E-01  0.88968744932E+00  0.88000000000E+00 0.  1.
        -11    1    4    4    0    0  0.65546887403E-02  0.11329810395E-01 -0.37253534417E-01  0.39489435241E-01  0.51100000000E-03 0.  1.
         11    1    4    4    0    0 -0.11791772174E-01  0.81657501312E-01 -0.58543120073E-01  0.10116595989E+00  0.51100000000E-03 0. -1.
</event>
<event>
 7    1  0.2728696E+004  0.1043930E+01  0.7957747E-01            NaN
         13   -1    0    0    0    0  0.00000000000E+00  0.00000000000E+00  0.74505805969E-08  0.10566000000E+00  0.10566000000E+00 0. -1.
     999900   -1    0    0    0    0 -0.00000000000E+00 -0.00000000000E+00 -0.74505805969E-08  0.93827000000E+00  0.93827000000E+00 0. -1.
     999903    2    1    2    0    0  0.50635598790E-01 -0.77056439178E-01  0.60195572706E-01  0.11886232221E+00  0.44755848597E-01 0.  0.
         14    1    1    2    0    0 -0.11573429415E-01  0.38917791066E-01  0.52997209520E-02  0.40946621009E-01  0.00000000000E+00 0. -1.
     999901    1    1    2    0    0 -0.39062169375E-01  0.38138648112E-01 -0.65495293658E-01  0.88412105678E+00  0.88000000000E+00 0. -1.
        -11    1    3    3    0    0  0.68592966174E-02 -0.47018573866E-01  0.39805909495E-01  0.61988448845E-01  0.51100000000E-03 0.  1.
         11    1    3    3    0    0  0.43776302173E-01 -0.30037865312E-01  0.20389663211E-01  0.56873873362E-01  0.51100000000E-03 0. -1.
</event>
<event>
 8    1  0.2183582E+004  0.1043930E+01  0.7957747E-01            NaN
         13   -1    0    0    0    0  0.00000000000E+00  0.00000000000E+00  0.74505805969E-08  0.10566000000E+00  0.10566000000E+00 0.  1.
     999900   -1    0    0    0    0 -0.00000000000E+00 -0.00000000000E+00 -0.74505805969E-08  0.93827000000E+00  0.93827000000E+00 0. -1.
     999902    2    1    2    0    0  0.24830845612E-02 -0.65932615429E-02 -0.11468306886E-01  0.10304704729E+01  0.10303825681E+01 0.  0.
     999903    2    3    3    0    0 -0.10399917824E+00  0.26210394693E-02 -0.83834315283E-01  0.14105481372E+00  0.45227968471E-01 0.  0.
         14    1    1    2    0    0 -0.24830845612E-02  0.65932615429E-02  0.11468306886E-01  0.13459527092E-01  0.00000000000E+00 0.  1.
     999901    1    3    3    0    0  0.10648226280E+00 -0.92143010121E-02  0.72366008396E-01  0.88941565919E+00  0.88000000000E+00 0.  1.
        -11    1    4    4    0    0 -0.11734161794E-01  0.16329608336E-01 -0.16398012140E-01  0.25951928340E-01  0.51100000000E-03 0.  1.
         11    1    4    4    0    0 -0.92265016449E-01 -0.13708568866E-01 -0.67436303142E-01  0.11510288538E+00  0.51100000000E-03 0. -1.
</event>
<event>
 8    1  0.2183582E+004  0.1043930E+01  0.7957747E-01            NaN
         13   -1    0    0    0    0  0.00000000000E+00  0.00000000000E+00  0.74505805969E-08  0.10566000000E+00  0.10566000000E+00 0.  1.
     999900   -1    0    0    0    0 -0.00000000000E+00 -0.00000000000E+00 -0.74505805969E-08  0.93827000000E+00  0.93827000000E+00 0. -1.
     999902    2    1    2    0    0 -0.40083449293E-02 -0.11709461580E-01  0.65267763787E-02  0.10299379619E+01  0.10298429144E+01 0.  0.
     999903    2    3    3    0    0 -0.85240763798E-01  0.55394750613E-01 -0.83577443380E-01  0.13908418515E+00  0.44996169947E-01 0.  0.
         14    1    1    2    0    0  0.40083449293E-02  0.11709461580E-01 -0.65267763787E-02  0.13992038074E-01  0.00000000000E+00 0.  1.
     999901    1    3    3    0    0  0.81232418869E-01 -0.67104212193E-01  0.90104219758E-01  0.89085377677E+00  0.88000000000E+00 0. -1.
        -11    1    4    4    0    0 -0.69480464298E-01  0.51804184091E-01 -0.45878335799E-01  0.98062690281E-01  0.51100000000E-03 0.  1.
         11    1    4    4    0    0 -0.15760299500E-01  0.35905665215E-02 -0.37699107581E-01  0.41021494874E-01  0.51100000000E-03 0. -1.
</event>
<event>
 8    1  0.2183582E+004  0.1043930E+01  0.7957747E-01            NaN
         13   -1    0    0    0    0  0.00000000000E+00  0.00000000000E+00  0.74505805969E-08  0.10566000000E+00  0.10566000000E+00 0. -1.
     999900   -1    0    0    0    0 -0.00000000000E+00 -0.00000000000E+00 -0.74505805969E-08  0.93827000000E+00  0.93827000000E+00 0. -1.
     999902    2    1    2    0    0  0.35267470385E-02 -0.10735291449E-01  0.69804921319E-02  0.10306479935E+01  0.10305624070E+01 0.  0.
     999903    2    3    3    0    0 -0.39078089984E-01 -0.12175266997E+00  0.37851282048E-01  0.14211378695E+00  0.49120251697E-01 0.  0.
         14    1    1    2    0    0 -0.35267470385E-02  0.10735291449E-01 -0.69804921319E-02  0.13282006534E-01  0.00000000000E+00 0.  1.
     999901    1    3    3    0    0  0.42604837023E-01  0.11101737853E+00 -0.30870789916E-01  0.88853420651E+00  0.88000000000E+00 0.  1.
        -11    1    4    4    0    0 -0.43258521831E-01 -0.84947685523E-01  0.43242333550E-01  0.10467840999E+00  0.51100000000E-03 0.  1.
         11    1    4    4    0    0  0.41804318470E-02 -0.36804984452E-01 -0.53910515016E-02  0.37435376961E-01  0.51100000000E-03 0. -1.
</event>
<event>
 8    1  0.2183582E+004  0.1043930E+01  0.7957747E-01            NaN
         13   -1    0    0    0    0  0.00000000000E+00  0.00000000000E+00  0.74505805969E-08  0.10566000000E+00  0.10566000000E+00 0.  1.
     999900   -1    0    0    0    0 -0.00000000000E+00 -0.00000000000E+00 -0.74505805969E-08  0.93827000000E+00  0.93827000000E+00 0.  1.
     999902    2    1    2    0    0 -0.97028451237E-02 -0.20808582717E-02 -0.93115281910E-02  0.10303219240E+01  0.10302320551E+01 0.  0.
     999903    2    3    3    0    0 -0.11028412257E+00  0.75046329656E-01 -0.14708843393E-01  0.14122444483E+00  0.43971063874E-01 0.  0.
         14    1    1    2    0    0  0.97028451237E-02  0.20808582717E-02  0.93115281910E-02  0.13608075981E-01  0.00000000000E+00 0.  1.
     999901    1    3    3    0    0  0.10058127744E+00 -0.77127187928E-01  0.53973152024E-02  0.88909747919E+00  0.88000000000E+00 0. -1.
        -11    1    4    4    0    0 -0.52282792155E-01  0.28287065476E-01  0.14516450228E-01  0.61193438185E-01  0.51100000000E-03 0. -1.
         11    1    4    4    0    0 -0.58001330413E-01  0.46759264180E-01 -0.29225293621E-01  0.80031006645E-01  0.51100000000E-03 0.  1.
</event>
<event>
 8    1  0.2183582E+004  0.1043930E+01  0.7957747E-01            NaN
         13   -1    0    0    0    0  0.00000000000E+00  0.00000000000E+00  0.74505805969E-08  0.10566000000E+00  0.10566000000E+00 0.  1.
     999900   -1    0    0    0    0 -0.00000000000E+00 -0.00000000000E+00 -0.74505805969E-08  0.93827000000E+00  0.93827000000E+00 0. -1.
     999902    2    1    2    0    0  0.12539455181E-01 -0.32169808103E-02  0.46422020931E-02  0.10301772933E+01  0.10300854909E+01 0.  0.
     999903    2    3    3    0    0  0.11572593193E+00  0.52557201170E-01  0.43517459845E-01  0.14154379514E+00  0.44565972603E-01 0.  0.
         14    1    1    2    0    0 -0.12539455181E-01  0.32169808103E-02 -0.46422020931E-02  0.13752706717E-01  0.00000000000E+00 0. -1.
     999901    1    3    3    0    0 -0.10318647675E+00 -0.55774181980E-01 -0.38875257752E-01  0.88863349814E+00  0.88000000000E+00 0.  1.
        -11    1    4    4    0    0  0.34810210405E-01  0.10591604749E-01 -0.74002437288E-02  0.37134317926E-01  0.51100000000E-03 0. -1.
         11    1    4    4    0    0  0.80915721528E-01  0.41965596421E-01  0.50917703574E-01  0.10440947721E+00  0.51100000000E-03 0.  1.
</event>
<event>
 8    1  0.2183582E+004  0.1043930E+01  0.7957747E-01            NaN
         13   -1    0    0    0    0  0.00000000000E+00  0.00000000000E+00  0.74505805969E-08  0.10566000000E+00  0.10566000000E+00 0. -1.
     999900   -1    0    0    0    0 -0.00000000000E+00 -0.00000000000E+00 -0.74505805969E-08  0.93827000000E+00  0.93827000000E+00 0.  1.
     999902    2    1    2    0    0 -0.82997805654E-03 -0.57573278433E-02 -0.12917845545E-01  0.10297629106E+01  0.10296654533E+01 0.  0.
     999903    2    3    3    0    0 -0.12177705272E+00  0.34964213092E-01 -0.38722031423E-01  0.14018306893E+00  0.45823032753E-01 0.  0.
         14    1    1    2    0    0  0.82997805654E-03  0.57573278433E-02  0.12917845545E-01  0.14167089362E-01  0.00000000000E+00 0. -1.
     999901    1    3    3    0    0  0.12094707466E+00 -0.40721540935E-01  0.25804185878E-01  0.88957984171E+00  0.88000000000E+00 0.  1.
        -11    1    4    4    0    0 -0.63047668242E-02 -0.41887230740E-02 -0.13775856758E-01  0.15726755422E-01  0.51100000000E-03 0.  1.
         11    1    4    4    0    0 -0.11547228590E+00  0.39152936166E-01 -0.24946174665E-01  0.12445631351E+00  0.51100000000E-03 0. -1.
</event>
<event>
 8    1  0.2183582E+004  0.1043930E+01  0.7957747E-01            NaN
         13   -1    0    0    0    0  0.00000000000E+00  0.00000000000E+00  0.74505805969E-08  0.10566000000E+00  0.10566000000E+00 0. -1.
     999900   -1    0    0    0    0 -0.00000000000E+00 -0.00000000000E+00 -0.74505805969E-08  0.93827000000E+00  0.93827000000E+00 0. -1.
     999902    2    1    2    0    0 -0.10817401709E-01 -0.70052113355E-02  0.38049432793E-02  0.10304924869E+01  0.10304048713E+01 0.  0.
     999903    2    3    3    0    0  0.12065584307E-01  0.80987235488E-01  0.10422070039E+00  0.14012760323E+00  0.45489341198E-01 0.  0.
         14    1    1    2    0    0  0.10817401709E-01  0.70052113355E-02 -0.38049432793E-02  0.13437513123E-01  0.00000000000E+00 0.  1.
     999901    1    3    3    0    0 -0.22882986015E-01 -0.87992446823E-01 -0.10041575711E+00  0.89036488364E+00  0.88000000000E+00 0. -1.
        -11    1    4    4    0    0 -0.14035599754E-02  0.70538357085E-01  0.10029786357E+00  0.12262769817E+00  0.51100000000E-03 0.  1.
         11    1    4    4    0    0  0.13469144282E-01  0.10448878403E-01  0.39228368163E-02  0.17499905064E-01  0.51100000000E-03 0. -1.
</event>
<event>
 8    1  0.2183582E+004  0.1043930E+01  0.7957747E-01            NaN
         13   -1    0    0    0    0  0.00000000000E+00  0.00000000000E+00  0.74505805969E-08  0.10566000000E+00  0.10566000000E+00 0.  1.
     999900   -1    0    0    0    0 -0.00000000000E+00 -0.00000000000E+00 -0.74505805969E-08  0.93827000000E+00  0.93827000000E+00 0.  1.
     999902    2    1    2    0    0  0.32239345672E-02  0.92230332866E-02  0.97774349692E-02  0.10301076872E+01  0.10300149469E+01 0.  0.
     999903    2    3    3    0    0 -0.19417650171E-01  0.10069700779E+00 -0.83937116717E-01  0.14012872868E+00  0.45537770303E-01 0.  0.
         14    1    1    2    0    0 -0.32239345672E-02 -0.92230332866E-02 -0.97774349692E-02  0.13822312819E-01  0.00000000000E+00 0. -1.
     999901    1    3    3    0    0  0.22641584738E-01 -0.91473974501E-01  0.93714551686E-01  0.88997895850E+00  0.88000000000E+00 0. -1.
        -11    1    4    4    0    0 -0.15202575017E-01  0.55390116844E-01 -0.18348646066E-01  0.60300226074E-01  0.51100000000E-03 0. -1.
         11    1    4    4    0    0 -0.42150751540E-02  0.45306890944E-01 -0.65588470651E-01  0.79828502609E-01  0.51100000000E-03 0.  1.
</event>
<event>
 8    1  0.2183582E+004  0.1043930E+01  0.7957747E-01            NaN
         13   -1    0    0    0    0  0.00000000000E+00  0.00000000000E+00  0.74505805969E-08  0.10566000000E+00  0.10566000000E+00 0.  1.
     999900   -1    0    0    0    0 -0.00000000000E+00 -0.00000000000E+00 -0.74505805969E-08  0.93827000000E+00  0.93827000000E+00 0. -1.
     999902    2    1    2    0    0 -0.13227136757E-01  0.42570134579E-02 -0.28286416262E-02  0.10297497135E+01  0.10296520733E+01 0.  0.
     999903    2    3    3    0    0 -0.11629063694E-02 -0.40647408595E-01  0.12548718805E+00  0.13922913270E+00  0.44543830660E-01 0.  0.
         14    1    1    2    0    0  0.13227136757E-01 -0.42570134579E-02  0.28286416262E-02  0.14180286450E-01  0.00000000000E+00 0.  1.
     999901    1    3    3    0    0 -0.12064230387E-01  0.44904422053E-01 -0.12831582968E+00  0.89052058085E+00  0.88000000000E+00 0. -1.
        -11    1    4    4    0    0 -0.81474398424E-02 -0.57418800610E-02  0.13302191282E-02  0.10068791712E-01  0.51100000000E-03 0. -1.
         11    1    4    4    0    0  0.69845334730E-02 -0.34905528534E-01  0.12415696892E+00  0.12916034099E+00  0.51100000000E-03 0.  1.
</event>
<event>
 8    1  0.2183582E+004  0.1043930E+01  0.7957747E-01            NaN
         13   -1    0    0    0    0  0.00000000000E+00  0.00000000000E+00  0.74505805969E-08  0.10566000000E+00  0.10566000000E+00 0.  1.
     999900   -1    0    0    0    0 -0.00000000000E+00 -0.00000000000E+00 -0.74505805969E-08  0.93827000000E+00  0.93827000000E+00 0.  1.
     999902    2    1    2    0    0 -0.18017342886E-02  0.19097385900E-01  0.34686892234E-02  0.10244367140E+01  0.10242512352E+01 0.  0.
     999903    2    3    3    0    0  0.99936655077E-01  0.22454086535E-01 -0.74909289928E-01  0.13510827358E+00  0.46382354844E-01 0.  0.
         14    1    1    2    0    0  0.18017342886E-02 -0.19097385900E-01 -0.34686892234E-02  0.19493286013E-01  0.00000000000E+00 0.  1.
     999901    1    3    3    0    0 -0.10173838937E+00 -0.33567006359E-02  0.78377979152E-01  0.88932844041E+00  0.88000000000E+00 0. -1.
        -11    1    4    4    0    0  0.95006670920E-02  0.19788636851E-01 -0.14051062649E-01  0.26068108987E-01  0.51100000000E-03 0. -1.
         11    1    4    4    0    0  0.90435987985E-01  0.26654496846E-02 -0.60858227280E-01  0.10904016459E+00  0.51100000000E-03 0.  1.
</event>
<event>
 8    1  0.2183582E+004  0.1043930E+01  0.7957747E-01            NaN
         13   -1    0    0    0    0  0.00000000000E+00  0.00000000000E+00  0.74505805969E-08  0.10566000000E+00  0.10566000000E+00 0.  1.
     999900   -1    0    0    0    0 -0.00000000000E+00 -0.00000000000E+00 -0.74505805969E-08  0.93827000000E+00  0.93827000000E+00 0. -1.
     999902    2    1    2    0    0  0.10504136033E-01 -0.42704099969E-04  0.85350294920E-02  0.10303953989E+01  0.10303065043E+01 0.  0.
     999903    2    3    3    0    0 -0.77780847955E-01  0.44310414422E-01  0.96652833505E-01  0.14049305323E+00  0.48818589140E-01 0.  0.
         14    1    1    2    0    0 -0.10504136033E-01  0.42704099969E-04 -0.85350294920E-02  0.13534601060E-01  0.00000000000E+00 0. -1.
     999901    1    3    3    0    0  0.88284983988E-01 -0.44353118522E-01 -0.88117804013E-01  0.88990234571E+00  0.88000000000E+00 0. -1.
        -11    1    4    4    0    0 -0.18332971141E-01  0.37876426045E-01  0.42729887379E-01  0.59973543144E-01  0.51100000000E-03 0.  1.
         11    1    4    4    0    0 -0.59447876814E-01  0.64339883769E-02  0.53922946126E-01  0.80519510084E-01  0.51100000000E-03 0. -1.
</event>
<event>
 8    1  0.2183582E+004  0.1043930E+01  0.7957747E-01            NaN
         13   -1    0    0    0    0  0.00000000000E+00  0.00000000000E+00  0.74505805969E-08  0.10566000000E+00  0.10566000000E+00 0.  1.
     999900   -1    0    0    0    0 -0.00000000000E+00 -0.00000000000E+00 -0.74505805969E-08  0.93827000000E+00  0.93827000000E+00 0. -1.
     999902    2    1    2    0    0  0.50403041861E-02  0.16160687578E-01  0.68964836572E-02  0.10256506681E+01  0.10254877663E+01 0.  0.
     999903    2    3    3    0    0 -0.10538384663E+00 -0.11447453836E-02 -0.71552804809E-01  0.13511865743E+00  0.45057542527E-01 0.  0.
         14    1    1    2    0    0 -0.50403041861E-02 -0.16160687578E-01 -0.68964836572E-02  0.18279331938E-01  0.00000000000E+00 0.  1.
     999901    1    3    3    0    0  0.11042415081E+00  0.17305432962E-01  0.78449288467E-01  0.89053201063E+00  0.88000000000E+00 0.  1.
        -11    1    4    4    0    0 -0.31985126462E-01 -0.20342547842E-01 -0.31712420867E-01  0.49424754180E-01  0.51100000000E-03 0.  1.
         11    1    4    4    0    0 -0.73398720165E-01  0.19197802459E-01 -0.39840383943E-01  0.85693903254E-01  0.51100000000E-03 0. -1.
</event>
<event>
 8    1  0.2183582E+004  0.1043930E+01  0.7957747E-01            NaN
         13   -1    0    0    0    0  0.00000000000E+00  0.00000000000E+00  0.74505805969E-08  0.10566000000E+00  0.10566000000E+00 0.  1.
     999900   -1    0    0    0    0 -0.00000000000E+00 -0.00000000000E+00 -0.74505805969E-08  0.93827000000E+00  0.93827000000E+00 0. -1.
     999902    2    1    2    0    0  0.92273307462E-02 -0.92916778914E-02  0.53477630961E-02  0.10297851253E+01  0.10296879754E+01 0.  0.
     999903    2    3    3    0    0 -0.35206198916E-01  0.12019074164E+00  0.38370961639E-01  0.13858898123E+00  0.45269020358E-01 0.  0.
         14    1    1    2    0    0 -0.92273307462E-02  0.92916778914E-02 -0.53477630961E-02  0.14144874721E-01  0.00000000000E+00 0. -1.
     999901    1    3    3    0    0  0.44433529662E-01 -0.12948241953E+00 -0.33023198543E-01  0.89119614405E+00  0.88000000000E+00 0. -1.
        -11    1    4    4    0    0 -0.13882485696E-01  0.20329965214E-01  0.25867427124E-01  0.35712964057E-01  0.51100000000E-03 0. -1.
         11    1    4    4    0    0 -0.21323713220E-01  0.99860776422E-01  0.12503534515E-01  0.10287601717E+00  0.51100000000E-03 0.  1.
</event>
<event>
 8    1  0.2183582E+004  0.1043930E+01  0.7957747E-01            NaN
         13   -1    0    0    0    0  0.00000000000E+00  0.00000000000E+00  0.74505805969E-08  0.10566000000E+00  0.10566000000E+00 0.  1.
     999900   -1    0    0    0    0 -0.00000000000E+00 -0.00000000000E+00 -0.74505805969E-08  0.93827000000E+00  0.93827000000E+00 0.  1.
     999902    2    1    2    0    0  0.13023293313E-01 -0.31920622211E-02  0.40412202777E-02  0.10299254689E+01  0.10298302504E+01 0.  0.
     999903    2    3    3    0    0  0.72212684791E-01 -0.95179076755E-01  0.60174948940E-01  0.14137834556E+00  0.45750230781E-01 0.  0.
         14    1    1    2    0    0 -0.13023293313E-01  0.31920622211E-02 -0.40412202777E-02  0.14004531098E-01  0.00000000000E+00 0.  1.
     999901    1    3    3    0    0 -0.59189391478E-01  0.91987014534E-01 -0.56133728663E-01  0.88854712334E+00  0.88000000000E+00 0. -1.
        -11    1    4    4    0    0  0.47696151405E-01 -0.65686023424E-01  0.15759075221E-01  0.82693325637E-01  0.51100000000E-03 0.  1.
         11    1    4    4    0    0  0.24516533386E-01 -0.29493053331E-01  0.44415873719E-01  0.58685019922E-01  0.51100000000E-03 0. -1.
</event>
<event>
 8    1  0.2183582E+004  0.1043930E+01  0.7957747E-01            NaN
         13   -1    0    0    0    0  0.00000000000E+00  0.00000000000E+00  0.74505805969E-08  0.10566000000E+00  0.10566000000E+00 0.  1.
     999900   -1    0    0    0    0 -0.00000000000E+00 -0.00000000000E+00 -0.74505805969E-08  0.93827000000E+00  0.93827000000E+00 0.  1.
     999902    2    1    2    0    0 -0.85665899024E-02  0.10484203323E-01 -0.28554411037E-03  0.10303879722E+01  0.10302989793E+01 0.  0.
     999903    2    3    3    0    0  0.55192629594E-01  0.47383996046E-01 -0.11132441496E+00  0.14035625162E+00  0.44891898588E-01 0.  0.
         14    1    1    2    0    0  0.85665899024E-02 -0.10484203323E-01  0.28554411037E-03  0.13542027814E-01  0.00000000000E+00 0.  1.
     999901    1    3    3    0    0 -0.63759219496E-01 -0.36899792724E-01  0.11103887085E+00  0.89003172057E+00  0.88000000000E+00 0.  1.
        -11    1    4    4    0    0  0.26554438335E-01  0.17248089026E-01 -0.86069445332E-01  0.91710660837E-01  0.51100000000E-03 0. -1.
         11    1    4    4    0    0  0.28638191259E-01  0.30135907020E-01 -0.25254969633E-01  0.48645590783E-01  0.51100000000E-03 0.  1.
</event>
<event>
 8    1  0.2183582E+004  0.1043930E+01  0.7957747E-01            NaN
         13   -1    0    0    0    0  0.00000000000E+00  0.00000000000E+00  0.74505805969E-08  0.10566000000E+00  0.10566000000E+00 0. -1.
     999900   -1    0    0    0    0 -0.00000000000E+00 -0.00000000000E+00 -0.74505805969E-08  0.93827000000E+00  0.93827000000E+00 0.  1.
     999902    2    1    2    0    0  0.12523520529E-01  0.13332325467E-02  0.53585763074E-02  0.10302431298E+01  0.10301522102E+01 0.  0.
     999903    2    3    3    0    0  0.16489815036E-01  0.88653553485E-01 -0.97655767482E-01  0.13993277664E+00  0.43739758918E-01 0.  0.
         14    1    1    2    0    0 -0.12523520529E-01 -0.13332325467E-02 -0.53585763074E-02  0.13686870186E-01  0.00000000000E+00 0. -1.
     999901    1    3    3    0    0 -0.39662945071E-02 -0.87320320939E-01  0.10301434379E+00  0.89031035317E+00  0.88000000000E+00 0. -1.
        -11    1    4    4    0    0  0.43258206595E-02 -0.11896374209E-02 -0.20166417281E-01  0.20665755939E-01  0.51100000000E-03 0. -1.
         11    1    4    4    0    0  0.12163994376E-01  0.89843190906E-01 -0.77489350201E-01  0.11926702070E+00  0.51100000000E-03 0.  1.
</event>
<event>
 8    1  0.2183582E+004  0.1043930E+01  0.7957747E-01            NaN
         13   -1    0    0    0    0  0.00000000000E+00  0.00000000000E+00  0.74505805969E-08  0.10566000000E+00  0.10566000000E+00 0.  1.
     999900   -1    0    0    0    0 -0.00000000000E+00 -0.00000000000E+00 -0.74505805969E-08  0.93827000000E+00  0.93827000000E+00 0. -1.
     999902    2    1    2    0    0 -0.10227347210E-02 -0.57274293586E-02  0.13371850705E-01  0.10293472765E+01  0.10292439749E+01 0.  0.
     999903    2    3    3    0    0 -0.10576856140E+00  0.60861783941E-01 -0.49375375405E-01  0.13842470640E+00  0.42805680941E-01 0.  0.
         14    1    1    2    0    0  0.10227347210E-02  0.57274293586E-02 -0.13371850705E-01  0.14582723499E-01  0.00000000000E+00 0. -1.
     999901    1    3    3    0    0  0.10474582668E+00 -0.66589213300E-01  0.62747226110E-01  0.89092257010E+00  0.88000000000E+00 0. -1.
        -11    1    4    4    0    0 -0.94281768902E-01  0.35665934238E-01 -0.32136210390E-01  0.10580221147E+00  0.51100000000E-03 0.  1.
         11    1    4    4    0    0 -0.11486792495E-01  0.25195849703E-01 -0.17239165015E-01  0.32622494930E-01  0.51100000000E-03 0. -1.
</event>
<event>
 8    1  0.2183582E+004  0.1043930E+01  0.7957747E-01            NaN
         13   -1    0    0    0    0  0.00000000000E+00  0.00000000000E+00  0.74505805969E-08  0.10566000000E+00  0.10566000000E+00 0. -1.
     999900   -1    0    0    0    0 -0.00000000000E+00 -0.00000000000E+00 -0.74505805969E-08  0.93827000000E+00  0.93827000000E+00 0.  1.
     999902    2    1    2    0    0 -0.54308274415E-02 -0.12835222159E-01  0.34603199240E-02  0.10295699642E+01  0.10294698153E+01 0.  0.
     999903    2    3    3    0    0 -0.45146508772E-02  0.12358158890E+00  0.41861880581E-01  0.13823104684E+00  0.45416011244E-01 0.  0.
         14    1    1    2    0    0  0.54308274415E-02  0.12835222159E-01 -0.34603199240E-02  0.14360035813E-01  0.00000000000E+00 0.  1.
     999901    1    3    3    0    0 -0.91617656434E-03 -0.13641681106E+00 -0.38401560656E-01  0.89133891735E+00  0.88000000000E+00 0. -1.
        -11    1    4    4    0    0  0.14338810040E-01  0.55614466578E-01  0.35241986300E-01  0.67385674186E-01  0.51100000000E-03 0.  1.
         11    1    4    4    0    0 -0.18853460917E-01  0.67967122321E-01  0.66198942801E-02  0.70845372653E-01  0.51100000000E-03 0. -1.
</event>
<event>
 8    1  0.2183582E+004  0.1043930E+01  0.7957747E-01            NaN
         13   -1    0    0    0    0  0.00000000000E+00  0.00000000000E+00  0.74505805969E-08  0.10566000000E+00  0.10566000000E+00 0. -1.
     999900   -1    0    0    0    0 -0.00000000000E+00 -0.00000000000E+00 -0.74505805969E-08  0.93827000000E+00  0.93827000000E+00 0.  1.
     999902    2    1    2    0    0 -0.11691906847E-01  0.70374291612E-02  0.72957417622E-03  0.10302640433E+01  0.10301734031E+01 0.  0.
     999903    2    3    3    0    0  0.10590719405E+00 -0.55732342943E-02  0.77682900353E-01  0.13902311525E+00  0.45226086216E-01 0.  0.
         14    1    1    2    0    0  0.11691906847E-01 -0.70374291612E-02 -0.72957417622E-03  0.13665956732E-01  0.00000000000E+00 0. -1.
     999901    1    3    3    0    0 -0.11759910090E+00  0.12610663456E-01 -0.76953326177E-01  0.89124092802E+00  0.88000000000E+00 0.  1.
        -11    1    4    4    0    0  0.48761589586E-01 -0.50511943330E-02  0.92937507271E-02  0.49898317674E-01  0.51100000000E-03 0.  1.
         11    1    4    4    0    0  0.57145604464E-01 -0.52203996124E-03  0.68389149626E-01  0.89124797576E-01  0.51100000000E-03 0. -1.
</event>
<event>
 8    1  0.2183582E+004  0.1043930E+01  0.7957747E-01            NaN
         13   -1    0    0    0    0  0.00000000000E+00  0.00000000000E+00  0.74505805969E-08  0.10566000000E+00  0.10566000000E+00 0.  1.
     999900   -1    0    0    0    0 -0.00000000000E+00 -0.00000000000E+00 -0.74505805969E-08  0.93827000000E+00  0.93827000000E+00 0.  1.
     999902    2    1    2    0    0 -0.71132533095E-02  0.37260890772E-02 -0.10893654703E-01  0.10303965664E+01  0.10303076872E+01 0.  0.
     999903    2    3    3    0    0 -0.41757017881E-01 -0.10181787782E+00 -0.75545372670E-01  0.14105997994E+00  0.45610150420E-01 0.  0.
         14    1    1    2    0    0  0.71132533095E-02 -0.37260890772E-02  0.10893654703E-01  0.13533433609E-01  0.00000000000E+00 0.  1.
     999901    1    3    3    0    0  0.34643764572E-01  0.10554396690E+00  0.64651717968E-01  0.88933658646E+00  0.88000000000E+00 0. -1.
        -11    1    4    4    0    0 -0.15101666938E-01 -0.16930607924E-01 -0.38479887904E-01  0.44672908156E-01  0.51100000000E-03 0.  1.
         11    1    4    4    0    0 -0.26655350943E-01 -0.84887269896E-01 -0.37065484766E-01  0.96387071780E-01  0.51100000000E-03 0. -1.
</event>
<event>
 8    1  0.2183582E+004  0.1043930E+01  0.7957747E-01            NaN
         13   -1    0    0    0    0  0.00000000000E+00  0.00000000000E+00  0.74505805969E-08  0.10566000000E+00  0.10566000000E+00 0.  1.
     999900   -1    0    0    0    0 -0.00000000000E+00 -0.00000000000E+00 -0.74505805969E-08  0.93827000000E+00  0.93827000000E+00 0.  1.
     999902    2    1    2    0    0 -0.12927768726E-02  0.13747097899E-01  0.19410753096E-02  0.10299864801E+01  0.10298920951E+01 0.  0.
     999903    2    3    3    0    0 -0.89518768723E-01  0.98090785053E-01  0.20367651114E-01  0.14137114047E+00  0.43994841520E-01 0.  0.
         14    1    1    2    0    0  0.12927768726E-02 -0.13747097899E-01 -0.19410753096E-02  0.13943519858E-01  0.00000000000E+00 0.  1.
     999901    1    3    3    0    0  0.88225991850E-01 -0.84343687155E-01 -0.18426575804E-01  0.88861533967E+00  0.88000000000E+00 0. -1.
        -11    1    4    4    0    0 -0.75308728198E-01  0.69016194757E-01  0.31893905384E-01  0.10701458781E+00  0.51100000000E-03 0.  1.
         11    1    4    4    0    0 -0.14210040525E-01  0.29074590296E-01 -0.11526254270E-01  0.34356552666E-01  0.51100000000E-03 0. -1.
</event>
<event>
 8    1  0.2183582E+004  0.1043930E+01  0.7957747E-01            NaN
         13   -1    0    0    0    0  0.00000000000E+00  0.00000000000E+00  0.74505805969E-08  0.10566000000E+00  0.10566000000E+00 0. -1.
     999900   -1    0    0    0    0 -0.00000000000E+00 -0.00000000000E+00 -0.74505805969E-08  0.93827000000E+00  0.93827000000E+00 0.  1.
     999902    2    1    2    0    0 -0.13943061285E-01 -0.58323090063E-03  0.26443782012E-02  0.10297264141E+01  0.10296284505E+01 0.  0.
     999903    2    3    3    0    0 -0.10138699407E+00 -0.73966788197E-01  0.46156819076E-01  0.14128681549E+00  0.45619118380E-01 0.  0.
         14    1    1    2    0    0  0.13943061285E-01  0.58323090063E-03 -0.26443782012E-02  0.14203585898E-01  0.00000000000E+00 0. -1.
     999901    1    3    3    0    0  0.87443932789E-01  0.73383557296E-01 -0.43512440875E-01  0.88843959861E+00  0.88000000000E+00 0. -1.
        -11    1    4    4    0    0 -0.23583597452E-01 -0.38878554719E-01  0.29836430724E-01  0.54389353785E-01  0.51100000000E-03 0. -1.
         11    1    4    4    0    0 -0.77803396623E-01 -0.35088233478E-01  0.16320388352E-01  0.86897461710E-01  0.51100000000E-03 0.  1.
</event>
<event>
 8    1  0.2183582E+004  0.1043930E+01  0.7957747E-01            NaN
         13   -1    0    0    0    0  0.00000000000E+00  0.00000000000E+00  0.74505805969E-08  0.10566000000E+00  0.10566000000E+00 0. -1.
     999900   -1    0    0    0    0 -0.00000000000E+00 -0.00000000000E+00 -0.74505805969E-08  0.93827000000E+00  0.93827000000E+00 0.  1.
     999902    2    1    2    0    0  0.10661626589E-01 -0.74044315619E-02  0.87544939657E-03  0.10309199155E+01  0.10308378193E+01 0.  0.
     999903    2    3    3    0    0 -0.66763073328E-01 -0.37640271071E-01  0.10787081265E+00  0.14055100432E+00  0.47374831157E-01 0.  0.
         14    1    1    2    0    0 -0.10661626589E-01  0.74044315619E-02 -0.87544939657E-03  0.13010084547E-01  0.00000000000E+00 0.  1.
     999901    1    3    3    0    0  0.77424699917E-01  0.30235839509E-01 -0.10699536326E+00  0.89036891113E+00  0.88000000000E+00 0.  1.
        -11    1    4    4    0    0  0.49958482058E-02 -0.71427693513E-02  0.18170359826E-02  0.89185421490E-02  0.51100000000E-03 0.  1.
         11    1    4    4    0    0 -0.71758921534E-01 -0.30497501720E-01  0.10605377667E+00  0.13163246217E+00  0.51100000000E-03 0. -1.
</event>
<event>
 8    1  0.2183582E+004  0.1043930E+01  0.7957747E-01            NaN
         13   -1    0    0    0    0  0.00000000000E+00  0.00000000000E+00  0.74505805969E-08  0.10566000000E+00  0.10566000000E+00 0. -1.
     999900   -1    0    0    0    0 -0.00000000000E+00 -0.00000000000E+00 -0.74505805969E-08  0.93827000000E+00  0.93827000000E+00 0.  1.
     999902    2    1    2    0    0  0.85009596639E-02 -0.55113623520E-02 -0.10400776947E-01  0.10294104411E+01  0.10293080387E+01 0.  0.
     999903    2    3    3    0    0  0.88294169116E-01 -0.86030364613E-01  0.51019995768E-01  0.14001582825E+00  0.42477149836E-01 0.  0.
         14    1    1    2    0    0 -0.85009596639E-02  0.55113623520E-02  0.10400776947E-01  0.14519558922E-01  0.00000000000E+00 0. -1.
     999901    1    3    3    0    0 -0.79793209452E-01  0.80519002260E-01 -0.61420772715E-01  0.88939461282E+00  0.88000000000E+00 0. -1.
        -11    1    4    4    0    0  0.39547672626E-01 -0.24376041290E-01  0.27628827588E-03  0.46460168481E-01  0.51100000000E-03 0. -1.
         11    1    4    4    0    0  0.48746496490E-01 -0.61654323323E-01  0.50743707492E-01  0.93555659773E-01  0.51100000000E-03 0.  1.
</event>
<event>
 8    1  0.2183582E+004  0.1043930E+01  0.7957747E-01            NaN
         13   -1    0    0    0    0  0.00000000000E+00  0.00000000000E+00  0.74505805969E-08  0.10566000000E+00  0.10566000000E+00 0. -1.
     999900   -1    0    0    0    0 -0.00000000000E+00 -0.00000000000E+00 -0.74505805969E-08  0.93827000000E+00  0.93827000000E+00 0.  1.
     999902    2    1    2    0    0  0.23628377377E-02  0.24971398037E-02 -0.13661618958E-01  0.10298424686E+01  0.10297461102E+01 0.  0.
     999903    2    3    3    0    0  0.45809439331E-01 -0.12354762476E+00  0.72607162844E-02  0.13955451853E+00  0.45389705058E-01 0.  0.
         14    1    1    2    0    0 -0.23628377377E-02 -0.24971398037E-02  0.13661618958E-01  0.14087531435E-01  0.00000000000E+00 0. -1.
     999901    1    3    3    0    0 -0.43446601593E-01  0.12604476457E+00 -0.20922335242E-01  0.89028795003E+00  0.88000000000E+00 0.  1.
        -11    1    4    4    0    0  0.33525166059E-01 -0.83124546549E-01  0.26010327049E-01  0.93329658911E-01  0.51100000000E-03 0. -1.
         11    1    4    4    0    0  0.12284273272E-01 -0.40423078213E-01 -0.18749610765E-01  0.46224859620E-01  0.51100000000E-03 0.  1.
</event>
<event>
 8    1  0.2183582E+004  0.1043930E+01  0.7957747E-01            NaN
         13   -1    0    0    0    0  0.00000000000E+00  0.00000000000E+00  0.74505805969E-08  0.10566000000E+00  0.10566000000E+00 0. -1.
     999900   -1    0    0    0    0 -0.00000000000E+00 -0.00000000000E+00 -0.74505805969E-08  0.93827000000E+00  0.93827000000E+00 0. -1.
     999902    2    1    2    0    0  0.91327866922E-02 -0.10064120559E-01  0.50267453183E-02  0.10294399177E+01  0.10293379337E+01 0.  0.
     999903    2    3    3    0    0  0.10540074636E+00  0.90061895739E-02  0.81145578141E-01  0.14071877278E+00  0.45019322264E-01 0.  0.
         14    1    1    2    0    0 -0.91327866922E-02  0.10064120559E-01 -0.50267453183E-02  0.14490082259E-01  0.00000000000E+00 0. -1.
     999901    1    3    3    0    0 -0.96267959669E-01 -0.19070310133E-01 -0.76118832822E-01  0.88872114496E+00  0.88000000000E+00 0.  1.
        -11    1    4    4    0    0  0.23331547284E-01  0.37182361428E-02  0.45118903313E-01  0.50932925852E-01  0.51100000000E-03 0.  1.
         11    1    4    4    0    0  0.82069199078E-01  0.52879534311E-02  0.36026674828E-01  0.89785846930E-01  0.51100000000E-03 0. -1.
</event>
<event>
 8    1  0.2183582E+004  0.1043930E+01  0.7957747E-01            NaN
         13   -1    0    0    0    0  0.00000000000E+00  0.00000000000E+00  0.74505805969E-08  0.10566000000E+00  0.10566000000E+00 0.  1.
     999900   -1    0    0    0    0 -0.00000000000E+00 -0.00000000000E+00 -0.74505805969E-08  0.93827000000E+00  0.93827000000E+00 0. -1.
     999902    2    1    2    0    0  0.75310281196E-02 -0.62349775841E-02  0.97226896411E-02  0.10301415257E+01  0.10300492420E+01 0.  0.
     999903    2    3    3    0    0  0.64308345911E-01  0.79954799920E-01  0.85570885410E-01  0.14086918812E+00  0.44647713800E-01 0.  0.
         14    1    1    2    0    0 -0.75310281196E-02  0.62349775841E-02 -0.97226896411E-02  0.13788474313E-01  0.00000000000E+00 0. -1.
     999901    1    3    3    0    0 -0.56777317791E-01 -0.86189777504E-01 -0.75848195769E-01  0.88927233757E+00  0.88000000000E+00 0. -1.
        -11    1    4    4    0    0  0.30068085934E-01  0.42395164927E-01  0.15375206859E-01  0.54204224077E-01  0.51100000000E-03 0. -1.
         11    1    4    4    0    0  0.34240259977E-01  0.37559634993E-01  0.70195678552E-01  0.86664964042E-01  0.51100000000E-03 0.  1.
</event>
<event>
 8    1  0.2183582E+004  0.1043930E+01  0.7957747E-01            NaN
         13   -1    0    0    0    0  0.00000000000E+00  0.00000000000E+00  0.74505805969E-08  0.10566000000E+00  0.10566000000E+00 0. -1.
     999900   -1    0    0    0    0 -0.00000000000E+00 -0.00000000000E+00 -0.74505805969E-08  0.93827000000E+00  0.93827000000E+00 0.  1.
     999902    2    1    2    0    0  0.64893353119E-03 -0.14675725581E-01 -0.73919829713E-02  0.10274849567E+01  0.10273533457E+01 0.  0.
     999903    2    3    3    0    0 -0.13662899921E-01 -0.42851469784E-01  0.12025294898E+00  0.13771423919E+00  0.49814823500E-01 0.  0.
         14    1    1    2    0    0 -0.64893353119E-03  0.14675725581E-01  0.73919829713E-02  0.16445043275E-01  0.00000000000E+00 0. -1.
     999901    1    3    3    0    0  0.14311833452E-01  0.28175744203E-01 -0.12764493195E+00  0.88977071754E+00  0.88000000000E+00 0.  1.
        -11    1    4    4    0    0  0.27669356843E-03  0.56860904626E-02  0.54530975541E-01  0.54829705439E-01  0.51100000000E-03 0. -1.
         11    1    4    4    0    0 -0.13939593489E-01 -0.48537560247E-01  0.65721973435E-01  0.82884533747E-01  0.51100000000E-03 0.  1.
</event>
<event>
 8    1  0.2183582E+004  0.1043930E+01  0.7957747E-01            NaN
         13   -1    0    0    0    0  0.00000000000E+00  0.00000000000E+00  0.74505805969E-08  0.10566000000E+00  0.10566000000E+00 0.  1.
     999900   -1    0    0    0    0 -0.00000000000E+00 -0.00000000000E+00 -0.74505805969E-08  0.93827000000E+00  0.93827000000E+00 0. -1.
     999902    2    1    2    0    0 -0.17065145669E-02  0.82826348972E-02  0.94385555966E-02  0.10312571722E+01  0.10311793029E+01 0.  0.
     999903    2    3    3    0    0 -0.12816827263E+00 -0.81653590831E-02  0.40296648101E-01  0.14152949777E+00  0.43737851964E-01 0.  0.
         14    1    1    2    0    0  0.17065145669E-02 -0.82826348972E-02 -0.94385555966E-02  0.12672827804E-01  0.00000000000E+00 0. -1.
     999901    1    3    3    0    0  0.12646175806E+00  0.16447993980E-01 -0.30858092504E-01  0.88972767442E+00  0.88000000000E+00 0. -1.
        -11    1    4    4    0    0 -0.63389742816E-01  0.10112498202E-01  0.22975930728E-02  0.64234431336E-01  0.51100000000E-03 0. -1.
         11    1    4    4    0    0 -0.64778529813E-01 -0.18277857285E-01  0.37999055028E-01  0.77295066438E-01  0.51100000000E-03 0.  1.
</event>
<event>
 8    1  0.2183582E+004  0.1043930E+01  0.7957747E-01            NaN
         13   -1    0    0    0    0  0.00000000000E+00  0.00000000000E+00  0.74505805969E-08  0.10566000000E+00  0.10566000000E+00 0. -1.
     999900   -1    0    0    0    0 -0.00000000000E+00 -0.00000000000E+00 -0.74505805969E-08  0.93827000000E+00  0.93827000000E+00 0. -1.
     999902    2    1    2    0    0  0.15166521765E-01  0.22079587215E-02 -0.79852396975E-02  0.10266481449E+01  0.10265026794E+01 0.  0.
     999903    2    3    3    0    0 -0.73678538831E-01 -0.28031009984E-03  0.10390708494E+00  0.13512162894E+00  0.45083995466E-01 0.  0.
         14    1    1    2    0    0 -0.15166521765E-01 -0.22079587215E-02  0.79852396975E-02  0.17281855143E-01  0.00000000000E+00 0. -1.
     999901    1    3    3    0    0  0.88845060597E-01  0.24882688213E-02 -0.11189232464E+00  0.89152651592E+00  0.88000000000E+00 0. -1.
        -11    1    4    4    0    0 -0.64950192825E-01  0.11984547976E-01  0.61997627063E-01  0.90587658213E-01  0.51100000000E-03 0. -1.
         11    1    4    4    0    0 -0.87283460066E-02 -0.12264858076E-01  0.41909457880E-01  0.44533970724E-01  0.51100000000E-03 0.  1.
</event>
<event>
 8    1  0.2183582E+004  0.1043930E+01  0.7957747E-01            NaN
         13   -1    0    0    0    0  0.00000000000E+00  0.00000000000E+00  0.74505805969E-08  0.10566000000E+00  0.10566000000E+00 0. -1.
     999900   -1    0    0    0    0 -0.00000000000E+00 -0.00000000000E+00 -0.74505805969E-08  0.93827000000E+00  0.93827000000E+00 0. -1.
     999902    2    1    2    0    0  0.46731025569E-02 -0.96995657604E-02 -0.10021270059E-01  0.10292213183E+01  0.10291162115E+01 0.  0.
     999903    2    3    3    0    0 -0.12048681739E+00 -0.52007591406E-01  0.10347181474E-01  0.13912590297E+00  0.45023216052E-01 0.  0.
         14    1    1    2    0    0 -0.46731025569E-02  0.96995657604E-02  0.10021270059E-01  0.14708681690E-01  0.00000000000E+00 0. -1.
     999901    1    3    3    0    0  0.12515991995E+00  0.42308025646E-01 -0.20368451533E-01  0.89009541534E+00  0.88000000000E+00 0. -1.
        -11    1    4    4    0    0 -0.23520089602E-01 -0.46155691008E-02 -0.14973364327E-01  0.28265895587E-01  0.51100000000E-03 0.  1.
         11    1    4    4    0    0 -0.96966727787E-01 -0.47392022305E-01  0.25320545801E-01  0.11086000738E+00  0.51100000000E-03 0. -1.
</event>
<event>
 8    1  0.2183582E+004  0.1043930E+01  0.7957747E-01            NaN
         13   -1    0    0    0    0  0.00000000000E+00  0.00000000000E+00  0.74505805969E-08  0.10566000000E+00  0.10566000000E+00 0.  1.
     999900   -1    0    0    0    0 -0.00000000000E+00 -0.00000000000E+00 -0.74505805969E-08  0.93827000000E+00  0.93827000000E+00 0. -1.
     999902    2    1    2    0    0  0.92000709133E-02  0.54624917942E-02  0.79093255113E-02  0.10306244541E+01  0.10305385620E+01 0.  0.
     999903    2    3    3    0    0  0.12377110087E+00  0.41906385170E-01 -0.31567255354E-01  0.14157266782E+00  0.44394798504E-01 0.  0.
         14    1    1    2    0    0 -0.92000709133E-02 -0.54624917942E-02 -0.79093255113E-02  0.13305545891E-01  0.00000000000E+00 0. -1.
     999901    1    3    3    0    0 -0.11457102996E+00 -0.36443893376E-01  0.39476580866E-01  0.88905178629E+00  0.88000000000E+00 0.  1.
        -11    1    4    4    0    0  0.63948898826E-01  0.36257018309E-01 -0.34925265426E-01  0.81388379538E-01  0.51100000000E-03 0. -1.
         11    1    4    4    0    0  0.59822202043E-01  0.56493668612E-02  0.33580100713E-02  0.60184288280E-01  0.51100000000E-03 0.  1.
</event>
<event>
 8    1  0.2183582E+004  0.1043930E+01  0.7957747E-01            NaN
         13   -1    0    0    0    0  0.00000000000E+00  0.00000000000E+00  0.74505805969E-08  0.10566000000E+00  0.10566000000E+00 0.  1.
     999900   -1    0    0    0    0 -0.00000000000E+00 -0.00000000000E+00 -0.74505805969E-08  0.93827000000E+00  0.93827000000E+00 0.  1.
     999902    2    1    2    0    0 -0.68953923656E-03  0.43077680087E-02 -0.12730146765E-01  0.10304730700E+01  0.10303851993E+01 0.  0.
     999903    2    3    3    0    0  0.11928007296E+00  0.64853811316E-02  0.55529047870E-01  0.13971116714E+00  0.46539650771E-01 0.  0.
         14    1    1    2    0    0  0.68953923656E-03 -0.43077680087E-02  0.12730146765E-01  0.13456930045E-01  0.00000000000E+00 0.  1.
     999901    1    3    3    0    0 -0.11996961219E+00 -0.21776131229E-02 -0.68259194634E-01  0.89076190281E+00  0.88000000000E+00 0.  1.
        -11    1    4    4    0    0  0.45022395694E-01  0.99316969839E-02 -0.13193804086E-02  0.46126528210E-01  0.51100000000E-03 0.  1.
         11    1    4    4    0    0  0.74257677264E-01 -0.34463158523E-02  0.56848428278E-01  0.93584638934E-01  0.51100000000E-03 0. -1.
</event>
<event>
 8    1  0.2183582E+004  0.1043930E+01  0.7957747E-01            NaN
         13   -1    0    0    0    0  0.00000000000E+00  0.00000000000E+00  0.74505805969E-08  0.10566000000E+00  0.10566000000E+00 0.  1.
     999900   -1    0    0    0    0 -0.00000000000E+00 -0.00000000000E+00 -0.74505805969E-08  0.93827000000E+00  0.93827000000E+00 0.  1.
     999902    2    1    2    0    0  0.92609275772E-02 -0.40988825278E-02 -0.97700180505E-02  0.10298580822E+01  0.10297619388E+01 0.  0.
     999903    2    3    3    0    0 -0.60460413406E-01  0.32050844858E-01 -0.11433649311E+00  0.14019409177E+00  0.43575583357E-01 0.  0.
         14    1    1    2    0    0 -0.92609275772E-02  0.40988825278E-02  0.97700180505E-02  0.14071917789E-01  0.00000000000E+00 0.  1.
     999901    1    3    3    0    0  0.69721340983E-01 -0.36149727386E-01  0.10456647506E+00  0.88966399044E+00  0.88000000000E+00 0. -1.
        -11    1    4    4    0    0  0.14135006983E-02  0.43362417260E-02 -0.37260246732E-01  0.37541817805E-01  0.51100000000E-03 0.  1.
         11    1    4    4    0    0 -0.61873914105E-01  0.27714603132E-01 -0.77076246379E-01  0.10265227397E+00  0.51100000000E-03 0. -1.
</event>
<event>
 8    1  0.2183582E+004  0.1043930E+01  0.7957747E-01            NaN
         13   -1    0    0    0    0  0.00000000000E+00  0.00000000000E+00  0.74505805969E-08  0.10566000000E+00  0.10566000000E+00 0.  1.
     999900   -1    0    0    0    0 -0.00000000000E+00 -0.00000000000E+00 -0.74505805969E-08  0.93827000000E+00  0.93827000000E+00 0.  1.
     999902    2    1    2    0    0  0.13711176283E-01  0.18724552758E-02 -0.10238956514E-02  0.10300537323E+01  0.10299602616E+01 0.  0.
     999903    2    3    3    0    0  0.30030046372E-01  0.58178442324E-01 -0.11616396195E+00  0.14061913402E+00  0.44644596093E-01 0.  0.
         14    1    1    2    0    0 -0.13711176283E-01 -0.18724552758E-02  0.10238956514E-02  0.13876267730E-01  0.00000000000E+00 0. -1.
     999901    1    3    3    0    0 -0.16318870089E-01 -0.56305987049E-01  0.11514006630E+00  0.88943459825E+00  0.88000000000E+00 0. -1.
        -11    1    4    4    0    0  0.14707636636E-01 -0.37439578829E-02 -0.18020481329E-01  0.23565454894E-01  0.51100000000E-03 0.  1.
         11    1    4    4    0    0  0.15322409736E-01  0.61922400207E-01 -0.98143480620E-01  0.11705367912E+00  0.51100000000E-03 0. -1.
</event>
<event>
 8    1  0.2183582E+004  0.1043930E+01  0.7957747E-01            NaN
         13   -1    0    0    0    0  0.00000000000E+00  0.00000000000E+00  0.74505805969E-08  0.10566000000E+00  0.10566000000E+00 0. -1.
     999900   -1    0    0    0    0 -0.00000000000E+00 -0.00000000000E+00 -0.74505805969E-08  0.93827000000E+00  0.93827000000E+00 0. -1.
     999902    2    1    2    0    0  0.19714203672E-02 -0.30143135869E-02 -0.13866400093E-01  0.10296034639E+01  0.10295037850E+01 0.  0.
     999903    2    3    3    0    0 -0.28330493721E-01 -0.72275285815E-01  0.10523036097E+00  0.13836874356E+00  0.45234350991E-01 0.  0.
         14    1    1    2    0    0 -0.19714203672E-02  0.30143135869E-02  0.13866400093E-01  0.14326536085E-01  0.00000000000E+00 0. -1.
     999901    1    3    3    0    0  0.30301914088E-01  0.69260972228E-01 -0.11909676107E+00  0.89123472036E+00  0.88000000000E+00 0. -1.
        -11    1    4    4    0    0 -0.36720114639E-01 -0.32814514981E-01  0.62970928090E-01  0.79942217370E-01  0.51100000000E-03 0. -1.
         11    1    4    4    0    0  0.83896209177E-02 -0.39460770834E-01  0.42259432883E-01  0.58426526189E-01  0.51100000000E-03 0.  1.
</event>
<event>
 8    1  0.2183582E+004  0.1043930E+01  0.7957747E-01            NaN
         13   -1    0    0    0    0  0.00000000000E+00  0.00000000000E+00  0.74505805969E-08  0.10566000000E+00  0.10566000000E+00 0.  1.
     999900   -1    0    0    0    0 -0.00000000000E+00 -0.00000000000E+00 -0.74505805969E-08  0.93827000000E+00  0.93827000000E+00 0.  1.
     999902    2    1    2    0    0 -0.11498905931E-01 -0.67500454832E-02 -0.13564314703E-03  0.10305955952E+01  0.10305093277E+01 0.  0.
     999903    2    3    3    0    0  0.42867762255E-01 -0.10683935794E+00  0.67968029068E-01  0.14064519478E+00  0.43693528048E-01 0.  0.
         14    1    1    2    0    0  0.11498905931E-01  0.67500454832E-02  0.13564314703E-03  0.13334404775E-01  0.00000000000E+00 0. -1.
     999901    1    3    3    0    0 -0.54366668186E-01  0.10008931246E+00 -0.68103672215E-01  0.88995040044E+00  0.88000000000E+00 0.  1.
        -11    1    4    4    0    0  0.43346085560E-01 -0.49540777536E-01  0.36281388091E-01  0.75164965344E-01  0.51100000000E-03 0. -1.
         11    1    4    4    0    0 -0.47832330533E-03 -0.57298580408E-01  0.31686640977E-01  0.65480229438E-01  0.51100000000E-03 0.  1.
</event>
<event>
 8    1  0.2183582E+004  0.1043930E+01  0.7957747E-01            NaN
         13   -1    0    0    0    0  0.00000000000E+00  0.00000000000E+00  0.74505805969E-08  0.10566000000E+00  0.10566000000E+00 0. -1.
     999900   -1    0    0    0    0 -0.00000000000E+00 -0.00000000000E+00 -0.74505805969E-08  0.93827000000E+00  0.93827000000E+00 0. -1.
     999902    2    1    2    0    0 -0.10026359853E-01 -0.89604924570E-02  0.29416986275E-02  0.10301651205E+01  0.10300731545E+01 0.  0.
     999903    2    3    3    0    0  0.38714713748E-01  0.10864514290E+00 -0.63473566418E-01  0.13852743334E+00  0.43108700010E-01 0.  0.
         14    1    1    2    0    0  0.10026359853E-01  0.89604924570E-02 -0.29416986275E-02  0.13764879505E-01  0.00000000000E+00 0.  1.
     999901    1    3    3    0    0 -0.48741073601E-01 -0.11760563536E+00  0.66415265045E-01  0.89163768716E+00  0.88000000000E+00 0. -1.
        -11    1    4    4    0    0  0.22057117108E-01  0.86851383534E-01 -0.28409353069E-01  0.94005487605E-01  0.51100000000E-03 0.  1.
         11    1    4    4    0    0  0.16657596640E-01  0.21793759370E-01 -0.35064213348E-01  0.44521945735E-01  0.51100000000E-03 0. -1.
</event>
<event>
 8    1  0.2183582E+004  0.1043930E+01  0.7957747E-01            NaN
         13   -1    0    0    0    0  0.00000000000E+00  0.00000000000E+00  0.74505805969E-08  0.10566000000E+00  0.10566000000E+00 0. -1.
     999900   -1    0    0    0    0 -0.00000000000E+00 -0.00000000000E+00 -0.74505805969E-08  0.93827000000E+00  0.93827000000E+00 0.  1.
     999902    2    1    2    0    0  0.11952887575E-01 -0.70106374725E-02 -0.96603649098E-02  0.10270378951E+01  0.10268989700E+01 0.  0.
     999903    2    3    3    0    0  0.68427087648E-01 -0.76993450121E-01 -0.82741563713E-01  0.13944125753E+00  0.44580716116E-01 0.  0.
         14    1    1    2    0    0 -0.11952887575E-01  0.70106374725E-02  0.96603649098E-02  0.16892104941E-01  0.00000000000E+00 0. -1.
     999901    1    3    3    0    0 -0.56474200073E-01  0.69982812648E-01  0.73081198803E-01  0.88759663753E+00  0.88000000000E+00 0. -1.
        -11    1    4    4    0    0  0.40274459431E-01 -0.20085900744E-01 -0.52386003651E-01  0.69065403718E-01  0.51100000000E-03 0.  1.
         11    1    4    4    0    0  0.28152628217E-01 -0.56907549377E-01 -0.30355560062E-01  0.70375853809E-01  0.51100000000E-03 0. -1.
</event>
<event>
 8    1  0.2183582E+004  0.1043930E+01  0.7957747E-01            NaN
         13   -1    0    0    0    0  0.00000000000E+00  0.00000000000E+00  0.74505805969E-08  0.10566000000E+00  0.10566000000E+00 0.  1.
     999900   -1    0    0    0    0 -0.00000000000E+00 -0.00000000000E+00 -0.74505805969E-08  0.93827000000E+00  0.93827000000E+00 0. -1.
     999902    2    1    2    0    0 -0.20338067476E-02  0.11902323011E-01  0.60248254113E-02  0.10304355499E+01  0.10303471853E+01 0.  0.
     999903    2    3    3    0    0 -0.72542283484E-01  0.54277447473E-01  0.99479382113E-01  0.14167188577E+00  0.44343562722E-01 0.  0.
         14    1    1    2    0    0  0.20338067476E-02 -0.11902323011E-01 -0.60248254113E-02  0.13494450125E-01  0.00000000000E+00 0. -1.
     999901    1    3    3    0    0  0.70508476736E-01 -0.42375124463E-01 -0.93454556701E-01  0.88876366410E+00  0.88000000000E+00 0. -1.
        -11    1    4    4    0    0 -0.51823879410E-01  0.15996571580E-01  0.37529148673E-01  0.65956826035E-01  0.51100000000E-03 0. -1.
         11    1    4    4    0    0 -0.20718404073E-01  0.38280875894E-01  0.61950233440E-01  0.75715059736E-01  0.51100000000E-03 0.  1.
</event>
<event>
 8    1  0.2183582E+004  0.1043930E+01  0.7957747E-01            NaN
         13   -1    0    0    0    0  0.00000000000E+00  0.00000000000E+00  0.74505805969E-08  0.10566000000E+00  0.10566000000E+00 0. -1.
     999900   -1    0    0    0    0 -0.00000000000E+00 -0.00000000000E+00 -0.74505805969E-08  0.93827000000E+00  0.93827000000E+00 0.  1.
     999902    2    1    2    0    0 -0.25726440262E-02 -0.12872859522E-01  0.35760559738E-02  0.10303242223E+01  0.10302343840E+01 0.  0.
     999903    2    3    3    0    0  0.11103093544E-01  0.22717062175E-01  0.13087841919E+00  0.14034694172E+00  0.43917648416E-01 0.  0.
         14    1    1    2    0    0  0.25726440262E-02  0.12872859522E-01 -0.35760559738E-02  0.13605777665E-01  0.00000000000E+00 0.  1.
     999901    1    3    3    0    0 -0.13675737570E-01 -0.35589921696E-01 -0.12730236321E+00  0.88997728061E+00  0.88000000000E+00 0.  1.
        -11    1    4    4    0    0 -0.11614586699E-01  0.24949775137E-01  0.79277884048E-01  0.83920402309E-01  0.51100000000E-03 0.  1.
         11    1    4    4    0    0  0.22717680242E-01 -0.22327129624E-02  0.51600535138E-01  0.56426539415E-01  0.51100000000E-03 0. -1.
</event>
<event>
 8    1  0.2183582E+004  0.1043930E+01  0.7957747E-01            NaN
         13   -1    0    0    0    0  0.00000000000E+00  0.00000000000E+00  0.74505805969E-08  0.10566000000E+00  0.10566000000E+00 0.  1.
     999900   -1    0    0    0    0 -0.00000000000E+00 -0.00000000000E+00 -0.74505805969E-08  0.93827000000E+00  0.93827000000E+00 0.  1.
     999902    2    1    2    0    0  0.12407593755E-01  0.44005249493E-02  0.30207766620E-02  0.10304230353E+01  0.10303345057E+01 0.  0.
     999903    2    3    3    0    0  0.69397781426E-01 -0.71337629884E-01  0.89610340523E-01  0.14110762327E+00  0.44454906487E-01 0.  0.
         14    1    1    2    0    0 -0.12407593755E-01 -0.44005249493E-02 -0.30207766620E-02  0.13506964657E-01  0.00000000000E+00 0. -1.
     999901    1    3    3    0    0 -0.56990187671E-01  0.75738154833E-01 -0.86589563861E-01  0.88931541208E+00  0.88000000000E+00 0.  1.
        -11    1    4    4    0    0  0.50486520445E-01 -0.36039617145E-01  0.77499935701E-01  0.99268544390E-01  0.51100000000E-03 0.  1.
         11    1    4    4    0    0  0.18911260981E-01 -0.35298012739E-01  0.12110404821E-01  0.41839078875E-01  0.51100000000E-03 0. -1.
</event>
<event>
 8    1  0.2183582E+004  0.1043930E+01  0.7957747E-01            NaN
         13   -1    0    0    0    0  0.00000000000E+00  0.00000000000E+00  0.74505805969E-08  0.10566000000E+00  0.10566000000E+00 0. -1.
     999900   -1    0    0    0    0 -0.00000000000E+00 -0.00000000000E+00 -0.74505805969E-08  0.93827000000E+00  0.93827000000E+00 0.  1.
     999902    2    1    2    0    0 -0.33348773770E-02 -0.78613823746E-02  0.91717107392E-02  0.10313983194E+01  0.10313221855E+01 0.  0.
     999903    2    3    3    0    0 -0.13129960711E+00  0.23492030698E-01  0.14400951190E-01  0.14157510467E+00  0.45217922710E-01 0.  0.
         14    1    1    2    0    0  0.33348773770E-02  0.78613823746E-02 -0.91717107392E-02  0.12531680567E-01  0.00000000000E+00 0.  1.
     999901    1    3    3    0    0  0.12796472974E+00 -0.31353413073E-01 -0.52292404511E-02  0.88982321476E+00  0.88000000000E+00 0.  1.
        -11    1    4    4    0    0 -0.61963445380E-01  0.13647516161E-01 -0.15672723218E-01  0.65357621092E-01  0.51100000000E-03 0.  1.
         11    1    4    4    0    0 -0.69336161732E-01  0.98445145378E-02  0.30073674408E-01  0.76217483582E-01  0.51100000000E-03 0. -1.
</event>
<event>
 8    1  0.2183582E+004  0.1043930E+01  0.7957747E-01            NaN
         13   -1    0    0    0    0  0.00000000000E+00  0.00000000000E+00  0.74505805969E-08  0.10566000000E+00  0.10566000000E+00 0. -1.
     999900   -1    0    0    0    0 -0.00000000000E+00 -0.00000000000E+00 -0.74505805969E-08  0.93827000000E+00  0.93827000000E+00 0.  1.
     999902    2    1    2    0    0 -0.47781317235E-02  0.84761830495E-02  0.93084649150E-02  0.10304643496E+01  0.10303763643E+01 0.  0.
     999903    2    3    3    0    0  0.20207772978E-01 -0.44172471798E-01 -0.12207167541E+00  0.13880470737E+00  0.44784947229E-01 0.  0.
         14    1    1    2    0    0  0.47781317235E-02 -0.84761830495E-02 -0.93084649150E-02  0.13465650409E-01  0.00000000000E+00 0.  1.
     999901    1    3    3    0    0 -0.24985904702E-01  0.52648654847E-01  0.13138014032E+00  0.89165964222E+00  0.88000000000E+00 0. -1.
        -11    1    4    4    0    0 -0.62935425879E-02 -0.14769352086E-01 -0.77690559088E-01  0.79333640606E-01  0.51100000000E-03 0.  1.
         11    1    4    4    0    0  0.26501315566E-01 -0.29403119712E-01 -0.44381116320E-01  0.59471066767E-01  0.51100000000E-03 0. -1.
</event>
<event>
 8    1  0.2183582E+004  0.1043930E+01  0.7957747E-01            NaN
         13   -1    0    0    0    0  0.00000000000E+00  0.00000000000E+00  0.74505805969E-08  0.10566000000E+00  0.10566000000E+00 0. -1.
     999900   -1    0    0    0    0 -0.00000000000E+00 -0.00000000000E+00 -0.74505805969E-08  0.93827000000E+00  0.93827000000E+00 0. -1.
     999902    2    1    2    0    0  0.10718957393E-01  0.46438834743E-02  0.44571705009E-02  0.10314268776E+01  0.10313510924E+01 0.  0.
     999903    2    3    3    0    0  0.12066856955E-01 -0.11208658651E+00  0.71821387364E-01  0.14116525470E+00  0.45390588664E-01 0.  0.
         14    1    1    2    0    0 -0.10718957393E-01 -0.46438834743E-02 -0.44571705009E-02  0.12503122418E-01  0.00000000000E+00 0. -1.
     999901    1    3    3    0    0 -0.13478995612E-02  0.11673046999E+00 -0.67364216864E-01  0.89026162288E+00  0.88000000000E+00 0. -1.
        -11    1    4    4    0    0  0.95831056946E-02 -0.10521882303E+00  0.47638971498E-01  0.11589896187E+00  0.51100000000E-03 0. -1.
         11    1    4    4    0    0  0.24837512601E-02 -0.68677634800E-02  0.24182415867E-01  0.25266292836E-01  0.51100000000E-03 0.  1.
</event>
<event>
 8    1  0.2183582E+004  0.1043930E+01  0.7957747E-01            NaN
         13   -1    0    0    0    0  0.00000000000E+00  0.00000000000E+00  0.74505805969E-08  0.10566000000E+00  0.10566000000E+00 0. -1.
     999900   -1    0    0    0    0 -0.00000000000E+00 -0.00000000000E+00 -0.74505805969E-08  0.93827000000E+00  0.93827000000E+00 0.  1.
     999902    2    1    2    0    0  0.25921863496E-02  0.11858954171E-01 -0.73615680825E-02  0.10297332782E+01  0.10296354099E+01 0.  0.
     999903    2    3    3    0    0 -0.83075748817E-01  0.10438500713E+00  0.10661463650E-01  0.14056237495E+00  0.42968647741E-01 0.  0.
         14    1    1    2    0    0 -0.25921863496E-02 -0.11858954171E-01  0.73615680825E-02  0.14196721760E-01  0.00000000000E+00 0. -1.
     999901    1    3    3    0    0  0.85667935167E-01 -0.92526052957E-01 -0.18023031733E-01  0.88917090329E+00  0.88000000000E+00 0. -1.
        -11    1    4    4    0    0 -0.71848110938E-01  0.71678656453E-01 -0.69976546513E-02  0.10173106275E+00  0.51100000000E-03 0. -1.
         11    1    4    4    0    0 -0.11227637880E-01  0.32706350675E-01  0.17659118302E-01  0.38831312198E-01  0.51100000000E-03 0.  1.
</event>
<event>
 8    1  0.2183582E+004  0.1043930E+01  0.7957747E-01            NaN
         13   -1    0    0    0    0  0.00000000000E+00  0.00000000000E+00  0.74505805969E-08  0.10566000000E+00  0.10566000000E+00 0. -1.
     999900   -1    0    0    0    0 -0.00000000000E+00 -0.00000000000E+00 -0.74505805969E-08  0.93827000000E+00  0.93827000000E+00 0.  1.
     999902    2    1    2    0    0 -0.12854942120E-01  0.98957348555E-03 -0.88073321598E-02  0.10283159713E+01  0.10281974222E+01 0.  0.
     999903    2    3    3    0    0  0.12524993320E+00 -0.26464730946E-01 -0.13158247377E-01  0.13711137869E+00  0.47312397337E-01 0.  0.
         14    1    1    2    0    0  0.12854942120E-01 -0.98957348555E-03  0.88073321598E-02  0.15614028704E-01  0.00000000000E+00 0. -1.
     999901    1    3    3    0    0 -0.13810487532E+00  0.27454304431E-01  0.43509152171E-02  0.89120459261E+00  0.88000000000E+00 0.  1.
        -11    1    4    4    0    0  0.80025946496E-01  0.60331090710E-02 -0.13707328491E-01  0.81416844037E-01  0.51100000000E-03 0. -1.
         11    1    4    4    0    0  0.45223986704E-01 -0.32497840017E-01  0.54908111450E-03  0.55694534653E-01  0.51100000000E-03 0.  1.
</event>
<event>
 8    1  0.2183582E+004  0.1043930E+01  0.7957747E-01            NaN
         13   -1    0    0    0    0  0.00000000000E+00  0.00000000000E+00  0.74505805969E-08  0.10566000000E+00  0.10566000000E+00 0. -1.
     999900   -1    0    0    0    0 -0.00000000000E+00 -0.00000000000E+00 -0.74505805969E-08  0.93827000000E+00  0.93827000000E+00 0.  1.
     999902    2    1    2    0    0 -0.25477974245E-02 -0.11259487267E-01 -0.78474470174E-02  0.10299711408E+01  0.10298765466E+01 0.  0.
     999903    2    3    3    0    0  0.84580024784E-01 -0.10317998289E+00 -0.10369524291E-01  0.14090027986E+00  0.44107509219E-01 0.  0.
         14    1    1    2    0    0  0.25477974245E-02  0.11259487267E-01  0.78474470174E-02  0.13958859192E-01  0.00000000000E+00 0.  1.
     999901    1    3    3    0    0 -0.87127822208E-01  0.91920495618E-01  0.25220772732E-02  0.88907086095E+00  0.88000000000E+00 0. -1.
        -11    1    4    4    0    0  0.26333148228E-01 -0.30563822459E-01 -0.23802407325E-01  0.46844398325E-01  0.51100000000E-03 0.  1.
         11    1    4    4    0    0  0.58246876556E-01 -0.72616160426E-01  0.13432883034E-01  0.94055881533E-01  0.51100000000E-03 0. -1.
</event>
<event>
 8    1  0.2183582E+004  0.1043930E+01  0.7957747E-01            NaN
         13   -1    0    0    0    0  0.00000000000E+00  0.00000000000E+00  0.74505805969E-08  0.10566000000E+00  0.10566000000E+00 0. -1.
     999900   -1    0    0    0    0 -0.00000000000E+00 -0.00000000000E+00 -0.74505805969E-08  0.93827000000E+00  0.93827000000E+00 0. -1.
     999902    2    1    2    0    0 -0.13381192556E-01 -0.36098495424E-02 -0.65729665832E-02  0.10285907948E+01  0.10284764129E+01 0.  0.
     999903    2    3    3    0    0  0.65656388826E-01  0.80082198912E-01 -0.79572522694E-01  0.13809641889E+00  0.44887799754E-01 0.  0.
         14    1    1    2    0    0  0.13381192556E-01  0.36098495424E-02  0.65729665832E-02  0.15339205248E-01  0.00000000000E+00 0. -1.
     999901    1    3    3    0    0 -0.79037581381E-01 -0.83692048455E-01  0.72999556111E-01  0.89049437586E+00  0.88000000000E+00 0.  1.
        -11    1    4    4    0    0  0.38775820363E-01  0.28366297242E-01 -0.13330200917E-01  0.49861472517E-01  0.51100000000E-03 0. -1.
         11    1    4    4    0    0  0.26880568462E-01  0.51715901670E-01 -0.66242321778E-01  0.88234946376E-01  0.51100000000E-03 0.  1.
</event>
<event>
 8    1  0.2183582E+004  0.1043930E+01  0.7957747E-01            NaN
         13   -1    0    0    0    0  0.00000000000E+00  0.00000000000E+00  0.74505805969E-08  0.10566000000E+00  0.10566000000E+00 0.  1.
     999900   -1    0    0    0    0 -0.00000000000E+00 -0.00000000000E+00 -0.74505805969E-08  0.93827000000E+00  0.93827000000E+00 0.  1.
     999902    2    1    2    0    0 -0.47193471597E-02 -0.10529050216E-01  0.16648453278E-02  0.10322721766E+01  0.10322063465E+01 0.  0.
     999903    2    3    3    0    0 -0.89068228020E-01 -0.76421925396E-01  0.69459789230E-01  0.14319807446E+00  0.43675694456E-01 0.  0.
         14    1    1    2    0    0  0.47193471597E-02  0.10529050216E-01 -0.16648453278E-02  0.11657823383E-01  0.00000000000E+00 0. -1.
     999901    1    3    3    0    0  0.84348880861E-01  0.65892875180E-01 -0.67794943902E-01  0.88907410215E+00  0.88000000000E+00 0.  1.
        -11    1    4    4    0    0 -0.53527766649E-01 -0.58727488781E-01  0.66081490348E-01  0.10334971809E+00  0.51100000000E-03 0. -1.
         11    1    4    4    0    0 -0.35540461371E-01 -0.17694436615E-01  0.33782988819E-02  0.39848356377E-01  0.51100000000E-03 0.  1.
</event>
<event>
 8    1  0.2183582E+004  0.1043930E+01  0.7957747E-01            NaN
         13   -1    0    0    0    0  0.00000000000E+00  0.00000000000E+00  0.74505805969E-08  0.10566000000E+00  0.10566000000E+00 0.  1.
     999900   -1    0    0    0    0 -0.00000000000E+00 -0.00000000000E+00 -0.74505805969E-08  0.93827000000E+00  0.93827000000E+00 0. -1.
     999902    2    1    2    0    0  0.59088669439E-02  0.12036354315E-01 -0.11291959959E-01  0.10264001143E+01  0.10262504069E+01 0.  0.
     999903    2    3    3    0    0 -0.38698028999E-01  0.90410678542E-01 -0.86672097840E-01  0.13858567699E+00  0.44970090955E-01 0.  0.
         14    1    1    2    0    0 -0.59088669439E-02 -0.12036354315E-01  0.11291959959E-01  0.17529885723E-01  0.00000000000E+00 0.  1.
     999901    1    3    3    0    0  0.44606895943E-01 -0.78374324227E-01  0.75380137881E-01  0.88781443728E+00  0.88000000000E+00 0.  1.
        -11    1    4    4    0    0 -0.38232483314E-01  0.84578939795E-01 -0.58296317397E-01  0.10960858352E+00  0.51100000000E-03 0. -1.
         11    1    4    4    0    0 -0.46554568490E-03  0.58317387476E-02 -0.28375780443E-01  0.28977093477E-01  0.51100000000E-03 0.  1.
</event>
<event>
 8    1  0.2183582E+004  0.1043930E+01  0.7957747E-01            NaN
         13   -1    0    0    0    0  0.00000000000E+00  0.00000000000E+00  0.74505805969E-08  0.10566000000E+00  0.10566000000E+00 0.  1.
     999900   -1    0    0    0    0 -0.00000000000E+00 -0.00000000000E+00 -0.74505805969E-08  0.93827000000E+00  0.93827000000E+00 0.  1.
     999902    2    1    2    0    0 -0.42504999830E-02  0.92529872783E-02  0.95718972817E-02  0.10299548170E+01  0.10298599998E+01 0.  0.
     999903    2    3    3    0    0 -0.13506195685E-01  0.88233131419E-01  0.10146254674E+00  0.14160386011E+00  0.42302505882E-01 0.  0.
         14    1    1    2    0    0  0.42504999830E-02 -0.92529872783E-02 -0.95718972817E-02  0.13975183049E-01  0.00000000000E+00 0. -1.
     999901    1    3    3    0    0  0.92556957018E-02 -0.78980144140E-01 -0.91890649458E-01  0.88835095685E+00  0.88000000000E+00 0.  1.
        -11    1    4    4    0    0 -0.21649836265E-01  0.36381157945E-01  0.26012126698E-01  0.49691004418E-01  0.51100000000E-03 0. -1.
         11    1    4    4    0    0  0.81436405805E-02  0.51851973473E-01  0.75450420042E-01  0.91912855687E-01  0.51100000000E-03 0.  1.
</event>
<event>
 8    1  0.2183582E+004  0.1043930E+01  0.7957747E-01            NaN
         13   -1    0    0    0    0  0.00000000000E+00  0.00000000000E+00  0.74505805969E-08  0.10566000000E+00  0.10566000000E+00 0. -1.
     999900   -1    0    0    0    0 -0.00000000000E+00 -0.00000000000E+00 -0.74505805969E-08  0.93827000000E+00  0.93827000000E+00 0.  1.
     999902    2    1    2    0    0  0.11713367205E-01  0.67681856963E-02  0.29402399683E-02  0.10300860006E+01  0.10299929671E+01 0.  0.
     999903    2    3    3    0    0 -0.36802704885E-01  0.35723161506E-01  0.12215255180E+00  0.14025243459E+00  0.46031686265E-01 0.  0.
         14    1    1    2    0    0 -0.11713367205E-01 -0.67681856963E-02 -0.29402399683E-02  0.13843999421E-01  0.00000000000E+00 0.  1.
     999901    1    3    3    0    0  0.48516072090E-01 -0.28954975810E-01 -0.11921231183E+00  0.88983356599E+00  0.88000000000E+00 0.  1.
        -11    1    4    4    0    0 -0.72831406154E-03 -0.84830816385E-02  0.35427686743E-01  0.36440022289E-01  0.51100000000E-03 0. -1.
         11    1    4    4    0    0 -0.36074390823E-01  0.44206243145E-01  0.86724865061E-01  0.10381241230E+00  0.51100000000E-03 0.  1.
</event>
<event>
 8    1  0.2183582E+004  0.1043930E+01  0.7957747E-01            NaN
         13   -1    0    0    0    0  0.00000000000E+00  0.00000000000E+00  0.74505805969E-08  0.10566000000E+00  0.10566000000E+00 0.  1.
     999900   -1    0    0    0    0 -0.00000000000E+00 -0.00000000000E+00 -0.74505805969E-08  0.93827000000E+00  0.93827000000E+00 0. -1.
     999902    2    1    2    0    0 -0.10376093658E-01 -0.82218261581E-02 -0.72262108035E-02  0.10288475643E+01  0.10287370075E+01 0.  0.
     999903    2    3    3    0    0  0.20801920908E-01 -0.11243945229E+00  0.62292631056E-01  0.13942851143E+00  0.49845637413E-01 0.  0.
         14    1    1    2    0    0  0.10376093658E-01  0.82218261581E-02  0.72262108035E-02  0.15082435730E-01  0.00000000000E+00 0.  1.
     999901    1    3    3    0    0 -0.31178014566E-01  0.10421762613E+00 -0.69518841859E-01  0.88941905284E+00  0.88000000000E+00 0. -1.
        -11    1    4    4    0    0 -0.38624142637E-03 -0.47474208512E-01  0.77887523932E-03  0.47484917857E-01  0.51100000000E-03 0.  1.
         11    1    4    4    0    0  0.21188162335E-01 -0.64965243782E-01  0.61513755816E-01  0.91943593569E-01  0.51100000000E-03 0. -1.
</event>
<event>
 8    1  0.2183582E+004  0.1043930E+01  0.7957747E-01            NaN
         13   -1    0    0    0    0  0.00000000000E+00  0.00000000000E+00  0.74505805969E-08  0.10566000000E+00  0.10566000000E+00 0. -1.
     999900   -1    0    0    0    0 -0.00000000000E+00 -0.00000000000E+00 -0.74505805969E-08  0.93827000000E+00  0.93827000000E+00 0. -1.
     999902    2    1    2    0    0  0.79212940860E-03 -0.13270576562E-01  0.32112645010E-03  0.10306319252E+01  0.10305461302E+01 0.  0.
     999903    2    3    3    0    0  0.97807566665E-01 -0.24242488581E-01 -0.87529069978E-01  0.14088475047E+00  0.45090536419E-01 0.  0.
         14    1    1    2    0    0 -0.79212940860E-03  0.13270576562E-01 -0.32112645010E-03  0.13298074803E-01  0.00000000000E+00 0.  1.
     999901    1    3    3    0    0 -0.97015437257E-01  0.10971912020E-01  0.87850196428E-01  0.88974717473E+00  0.88000000000E+00 0.  1.
        -11    1    4    4    0    0  0.25008556186E-01 -0.18477382358E-01 -0.49731503299E-01  0.58654284436E-01  0.51100000000E-03 0. -1.
         11    1    4    4    0    0  0.72799010479E-01 -0.57651062233E-02 -0.37797566679E-01  0.82230466035E-01  0.51100000000E-03 0.  1.
</event>
<event>
 8    1  0.2183582E+004  0.1043930E+01  0.7957747E-01            NaN
         13   -1    0    0    0    0  0.00000000000E+00  0.00000000000E+00  0.74505805969E-08  0.10566000000E+00  0.10566000000E+00 0.  1.
     999900   -1    0    0    0    0 -0.00000000000E+00 -0.00000000000E+00 -0.74505805969E-08  0.93827000000E+00  0.93827000000E+00 0. -1.
     999902    2    1    2    0    0  0.52535079910E-03 -0.59360537458E-02 -0.15213883848E-01  0.10275906307E+01  0.10274607191E+01 0.  0.
     999903    2    3    3    0    0 -0.51288439865E-01 -0.10437598583E+00 -0.69160306906E-01  0.13894823598E+00  0.31600850442E-01 0.  0.
         14    1    1    2    0    0 -0.52535079910E-03  0.59360537458E-02  0.15213883848E-01  0.16339369304E-01  0.00000000000E+00 0.  1.
     999901    1    3    3    0    0  0.51813790664E-01  0.98439932080E-01  0.53946423059E-01  0.88864239472E+00  0.88000000000E+00 0.  1.
        -11    1    4    4    0    0 -0.17153799941E-01 -0.49071388151E-01 -0.47563467359E-01  0.70461326525E-01  0.51100000000E-03 0. -1.
         11    1    4    4    0    0 -0.34134639924E-01 -0.55304597676E-01 -0.21596839547E-01  0.68486909451E-01  0.51100000000E-03 0.  1.
</event>
<event>
 8    1  0.2183582E+004  0.1043930E+01  0.7957747E-01            NaN
         13   -1    0    0    0    0  0.00000000000E+00  0.00000000000E+00  0.74505805969E-08  0.10566000000E+00  0.10566000000E+00 0. -1.
     999900   -1    0    0    0    0 -0.00000000000E+00 -0.00000000000E+00 -0.74505805969E-08  0.93827000000E+00  0.93827000000E+00 0. -1.
     999902    2    1    2    0    0  0.11096914063E-01 -0.90278791388E-02 -0.21105845078E-02  0.10294697555E+01  0.10293681940E+01 0.  0.
     999903    2    3    3    0    0 -0.38146494674E-01 -0.12405573548E+00 -0.28381157633E-01  0.14023049410E+00  0.44878957253E-01 0.  0.
         14    1    1    2    0    0 -0.11096914063E-01  0.90278791388E-02  0.21105845078E-02  0.14460244480E-01  0.00000000000E+00 0. -1.
     999901    1    3    3    0    0  0.49243408737E-01  0.11502785635E+00  0.26270573125E-01  0.88923926142E+00  0.88000000000E+00 0. -1.
        -11    1    4    4    0    0 -0.45042566871E-01 -0.97099780716E-01 -0.11436213155E-01  0.10764872660E+00  0.51100000000E-03 0. -1.
         11    1    4    4    0    0  0.68960721972E-02 -0.26955954768E-01 -0.16944944478E-01  0.32581767503E-01  0.51100000000E-03 0.  1.
</event>
<event>
 8    1  0.2183582E+004  0.1043930E+01  0.7957747E-01            NaN
         13   -1    0    0    0    0  0.00000000000E+00  0.00000000000E+00  0.74505805969E-08  0.10566000000E+00  0.10566000000E+00 0. -1.
     999900   -1    0    0    0    0 -0.00000000000E+00 -0.00000000000E+00 -0.74505805969E-08  0.93827000000E+00  0.93827000000E+00 0.  1.
     999902    2    1    2    0    0  0.38009933422E-03 -0.10499584641E-01  0.75196544678E-02  0.10310098237E+01  0.10309288654E+01 0.  0.
     999903    2    3    3    0    0 -0.93572376037E-01 -0.71942835906E-01 -0.63310580456E-01  0.14105518273E+00  0.44235435804E-01 0.  0.
         14    1    1    2    0    0 -0.38009933422E-03  0.10499584641E-01 -0.75196544678E-02  0.12920176332E-01  0.00000000000E+00 0.  1.
     999901    1    3    3    0    0  0.93952475372E-01  0.61443251265E-01  0.70830234924E-01  0.88995464094E+00  0.88000000000E+00 0. -1.
        -11    1    4    4    0    0 -0.43928708300E-01 -0.60662326156E-01 -0.33416387926E-01  0.82015640768E-01  0.51100000000E-03 0.  1.
         11    1    4    4    0    0 -0.49643667737E-01 -0.11280509750E-01 -0.29894192531E-01  0.59039541959E-01  0.51100000000E-03 0. -1.
</event>
<event>
 8    1  0.2183582E+004  0.1043930E+01  0.7957747E-01            NaN
         13   -1    0    0    0    0  0.00000000000E+00  0.00000000000E+00  0.74505805969E-08  0.10566000000E+00  0.10566000000E+00 0. -1.
     999900   -1    0    0    0    0 -0.00000000000E+00 -0.00000000000E+00 -0.74505805969E-08  0.93827000000E+00  0.93827000000E+00 0. -1.
     999902    2    1    2    0    0 -0.13977137409E-01  0.30485483711E-02 -0.30899997001E-03  0.10296209295E+01  0.10295214952E+01 0.  0.
     999903    2    3    3    0    0 -0.68616360438E-01 -0.22863267366E-01  0.10778843566E+00  0.14094667959E+00  0.54924363537E-01 0.  0.
         14    1    1    2    0    0  0.13977137409E-01 -0.30485483711E-02  0.30899997001E-03  0.14309070491E-01  0.00000000000E+00 0. -1.
     999901    1    3    3    0    0  0.54639223029E-01  0.25911815737E-01 -0.10809743563E+00  0.88867424992E+00  0.88000000000E+00 0. -1.
        -11    1    4    4    0    0 -0.17167524698E-02 -0.20246842482E-01  0.10586734506E-01  0.22917721048E-01  0.51100000000E-03 0. -1.
         11    1    4    4    0    0 -0.66899607968E-01 -0.26164248845E-02  0.97201701153E-01  0.11802895854E+00  0.51100000000E-03 0.  1.
</event>
<event>
 8    1  0.2183582E+004  0.1043930E+01  0.7957747E-01            NaN
         13   -1    0    0    0    0  0.00000000000E+00  0.00000000000E+00  0.74505805969E-08  0.10566000000E+00  0.10566000000E+00 0. -1.
     999900   -1    0    0    0    0 -0.00000000000E+00 -0.00000000000E+00 -0.74505805969E-08  0.93827000000E+00  0.93827000000E+00 0. -1.
     999902    2    1    2    0    0  0.11716891086E-01 -0.15586684206E-02 -0.87991441672E-02  0.10291943316E+01  0.10290888360E+01 0.  0.
     999903    2    3    3    0    0 -0.62937279018E-01  0.54950871813E-01 -0.10181578323E+00  0.13935239714E+00  0.45518539856E-01 0.  0.
         14    1    1    2    0    0 -0.11716891086E-01  0.15586684206E-02  0.87991441672E-02  0.14735668361E-01  0.00000000000E+00 0.  1.
     999901    1    3    3    0    0  0.74654170105E-01 -0.56509540234E-01  0.93016639062E-01  0.88984193450E+00  0.88000000000E+00 0.  1.
        -11    1    4    4    0    0 -0.54985867958E-01  0.59267685565E-01 -0.72243312573E-01  0.10842260631E+00  0.51100000000E-03 0. -1.
         11    1    4    4    0    0 -0.79514110601E-02 -0.43168137517E-02 -0.29572470656E-01  0.30929790825E-01  0.51100000000E-03 0.  1.
</event>
<event>
 8    1  0.2183582E+004  0.1043930E+01  0.7957747E-01            NaN
         13   -1    0    0    0    0  0.00000000000E+00  0.00000000000E+00  0.74505805969E-08  0.10566000000E+00  0.10566000000E+00 0. -1.
     999900   -1    0    0    0    0 -0.00000000000E+00 -0.00000000000E+00 -0.74505805969E-08  0.93827000000E+00  0.93827000000E+00 0. -1.
     999902    2    1    2    0    0 -0.53002258380E-02  0.82220508730E-02 -0.89090809346E-02  0.10306987401E+01  0.10306138106E+01 0.  0.
     999903    2    3    3    0    0 -0.12650777242E+00  0.42627709272E-01  0.12889465119E-01  0.14145738072E+00  0.44974594701E-01 0.  0.
         14    1    1    2    0    0  0.53002258380E-02 -0.82220508730E-02  0.89090809346E-02  0.13231259864E-01  0.00000000000E+00 0.  1.
     999901    1    3    3    0    0  0.12120754659E+00 -0.34405658399E-01 -0.21798546053E-01  0.88924135941E+00  0.88000000000E+00 0. -1.
        -11    1    4    4    0    0 -0.31644097638E-01  0.29787849085E-01  0.14186626677E-01  0.45718556035E-01  0.51100000000E-03 0.  1.
         11    1    4    4    0    0 -0.94863674787E-01  0.12839860187E-01 -0.12971615584E-02  0.95738824689E-01  0.51100000000E-03 0. -1.
</event>
<event>
 8    1  0.2183582E+004  0.1043930E+01  0.7957747E-01            NaN
         13   -1    0    0    0    0  0.00000000000E+00  0.00000000000E+00  0.74505805969E-08  0.10566000000E+00  0.10566000000E+00 0.  1.
     999900   -1    0    0    0    0 -0.00000000000E+00 -0.00000000000E+00 -0.74505805969E-08  0.93827000000E+00  0.93827000000E+00 0. -1.
     999902    2    1    2    0    0  0.66173148426E-02 -0.71276398409E-02 -0.91082576322E-02  0.10306051187E+01  0.10305189752E+01 0.  0.
     999903    2    3    3    0    0 -0.40315617543E-02  0.46445331075E-01  0.12281851527E+00  0.13909620946E+00  0.45715921995E-01 0.  0.
         14    1    1    2    0    0 -0.66173148426E-02  0.71276398409E-02  0.91082576322E-02  0.13324881332E-01  0.00000000000E+00 0.  1.
     999901    1    3    3    0    0  0.10648876597E-01 -0.53572970916E-01 -0.13192677290E+00  0.89150890921E+00  0.88000000000E+00 0. -1.
        -11    1    4    4    0    0 -0.29140071168E-02  0.49835060751E-01  0.69048935613E-01  0.85205876252E-01  0.51100000000E-03 0. -1.
         11    1    4    4    0    0 -0.11175546375E-02 -0.33897296761E-02  0.53769579660E-01  0.53890333209E-01  0.51100000000E-03 0.  1.
</event>
<event>
 8    1  0.2183582E+004  0.1043930E+01  0.7957747E-01            NaN
         13   -1    0    0    0    0  0.00000000000E+00  0.00000000000E+00  0.74505805969E-08  0.10566000000E+00  0.10566000000E+00 0. -1.
     999900   -1    0    0    0    0 -0.00000000000E+00 -0.00000000000E+00 -0.74505805969E-08  0.93827000000E+00  0.93827000000E+00 0.  1.
     999902    2    1    2    0    0 -0.55366954806E-02  0.81670654319E-02  0.10646157909E-01  0.10294146070E+01  0.10293122639E+01 0.  0.
     999903    2    3    3    0    0  0.62881513743E-01 -0.11248488947E+00  0.23306270326E-01  0.13846105942E+00  0.44959399548E-01 0.  0.
         14    1    1    2    0    0  0.55366954806E-02 -0.81670654319E-02 -0.10646157909E-01  0.14515392962E-01  0.00000000000E+00 0.  1.
     999901    1    3    3    0    0 -0.68418209224E-01  0.12065195490E+00 -0.12660112417E-01  0.89095354762E+00  0.88000000000E+00 0.  1.
        -11    1    4    4    0    0  0.57892813077E-01 -0.74935147938E-01  0.31319332469E-01  0.99739740875E-01  0.51100000000E-03 0.  1.
         11    1    4    4    0    0  0.49887006657E-02 -0.37549741534E-01 -0.80130621428E-02  0.38721318540E-01  0.51100000000E-03 0. -1.
</event>
<event>
 8    1  0.2183582E+004  0.1043930E+01  0.7957747E-01            NaN
         13   -1    0    0    0    0  0.00000000000E+00  0.00000000000E+00  0.74505805969E-08  0.10566000000E+00  0.10566000000E+00 0. -1.
     999900   -1    0    0    0    0 -0.00000000000E+00 -0.00000000000E+00 -0.74505805969E-08  0.93827000000E+00  0.93827000000E+00 0. -1.
     999902    2    1    2    0    0  0.11903760444E-01  0.55672536635E-02  0.48012064016E-02  0.10299390955E+01  0.10298440634E+01 0.  0.
     999903    2    3    3    0    0  0.61163705051E-01  0.11910173880E+00  0.40457363538E-02  0.14127875982E+00  0.44912102965E-01 0.  0.
         14    1    1    2    0    0 -0.11903760444E-01 -0.55672536635E-02 -0.48012064016E-02  0.13990904508E-01  0.00000000000E+00 0. -1.
     999901    1    3    3    0    0 -0.49259944607E-01 -0.11353448514E+00  0.75547004778E-03  0.88866033567E+00  0.88000000000E+00 0. -1.
        -11    1    4    4    0    0  0.44999867416E-01  0.11543961798E+00 -0.11359728487E-02  0.12390659797E+00  0.51100000000E-03 0.  1.
         11    1    4    4    0    0  0.16163837635E-01  0.36621208264E-02  0.51817092025E-02  0.17372161848E-01  0.51100000000E-03 0. -1.
</event>
<event>
 8    1  0.2183582E+004  0.1043930E+01  0.7957747E-01            NaN
         13   -1    0    0    0    0  0.00000000000E+00  0.00000000000E+00  0.74505805969E-08  0.10566000000E+00  0.10566000000E+00 0. -1.
     999900   -1    0    0    0    0 -0.00000000000E+00 -0.00000000000E+00 -0.74505805969E-08  0.93827000000E+00  0.93827000000E+00 0.  1.
     999902    2    1    2    0    0  0.66267044545E-02 -0.12121602865E-01 -0.34397037725E-03  0.10301109992E+01  0.10300183037E+01 0.  0.
     999903    2    3    3    0    0  0.20062453084E-01 -0.86630393849E-02  0.13102931909E+00  0.14025066060E+00  0.44989054916E-01 0.  0.
         14    1    1    2    0    0 -0.66267044545E-02  0.12121602865E-01  0.34397037725E-03  0.13819000817E-01  0.00000000000E+00 0.  1.
     999901    1    3    3    0    0 -0.13435748630E-01 -0.34585634802E-02 -0.13137328947E+00  0.88986033859E+00  0.88000000000E+00 0.  1.
        -11    1    4    4    0    0  0.37167026900E-02 -0.25936654044E-01  0.66603225903E-01  0.71573561624E-01  0.51100000000E-03 0. -1.
         11    1    4    4    0    0  0.16345750394E-01  0.17273614659E-01  0.64426093186E-01  0.68677098974E-01  0.51100000000E-03 0.  1.
</event>
<event>
 8    1  0.2183582E+004  0.1043930E+01  0.7957747E-01            NaN
         13   -1    0    0    0    0  0.00000000000E+00  0.00000000000E+00  0.74505805969E-08  0.10566000000E+00  0.10566000000E+00 0. -1.
     999900   -1    0    0    0    0 -0.00000000000E+00 -0.00000000000E+00 -0.74505805969E-08  0.93827000000E+00  0.93827000000E+00 0. -1.
     999902    2    1    2    0    0 -0.13087937937E-01 -0.31528258694E-02  0.25699145145E-02  0.10302245671E+01  0.10301333990E+01 0.  0.
     999903    2    3    3    0    0  0.74037980990E-01 -0.15895925460E-01 -0.10746255948E+00  0.13901165333E+00  0.45185561803E-01 0.  0.
         14    1    1    2    0    0  0.13087937937E-01  0.31528258694E-02 -0.25699145145E-02  0.13705432901E-01  0.00000000000E+00 0. -1.
     999901    1    3    3    0    0 -0.87125918926E-01  0.12743099591E-01  0.11003247400E+00  0.89121291377E+00  0.88000000000E+00 0.  1.
        -11    1    4    4    0    0  0.32464842077E-01  0.10785263397E-01 -0.23206994030E-01  0.41341426808E-01  0.51100000000E-03 0.  1.
         11    1    4    4    0    0  0.41573138912E-01 -0.26681188857E-01 -0.84255565453E-01  0.97670226521E-01  0.51100000000E-03 0. -1.
</event>
<event>
 8    1  0.2183582E+004  0.1043930E+01  0.7957747E-01            NaN
         13   -1    0    0    0    0  0.00000000000E+00  0.00000000000E+00  0.74505805969E-08  0.10566000000E+00  0.10566000000E+00 0. -1.
     999900   -1    0    0    0    0 -0.00000000000E+00 -0.00000000000E+00 -0.74505805969E-08  0.93827000000E+00  0.93827000000E+00 0. -1.
     999902    2    1    2    0    0 -0.67239490552E-02 -0.12524836728E-01 -0.16564370827E-02  0.10296182283E+01  0.10295187561E+01 0.  0.
     999903    2    3    3    0    0 -0.35930905580E-01 -0.12901389824E+00 -0.13186957687E-01  0.14138644509E+00  0.43366059171E-01 0.  0.
         14    1    1    2    0    0  0.67239490552E-02  0.12524836728E-01  0.16564370827E-02  0.14311771720E-01  0.00000000000E+00 0. -1.
     999901    1    3    3    0    0  0.29206956525E-01  0.11648906151E+00  0.11530520605E-01  0.88823178319E+00  0.88000000000E+00 0.  1.
        -11    1    4    4    0    0 -0.86077427809E-02 -0.70298647725E-01 -0.25852257130E-01  0.75396242794E-01  0.51100000000E-03 0. -1.
         11    1    4    4    0    0 -0.27323162799E-01 -0.58715250514E-01  0.12665299443E-01  0.65990202297E-01  0.51100000000E-03 0.  1.
</event>
<event>
 8    1  0.2183582E+004  0.1043930E+01  0.7957747E-01            NaN
         13   -1    0    0    0    0  0.00000000000E+00  0.00000000000E+00  0.74505805969E-08  0.10566000000E+00  0.10566000000E+00 0.  1.
     999900   -1    0    0    0    0 -0.00000000000E+00 -0.00000000000E+00 -0.74505805969E-08  0.93827000000E+00  0.93827000000E+00 0. -1.
     999902    2    1    2    0    0 -0.74249886937E-03 -0.12397263580E-01 -0.55322683340E-02  0.10303340652E+01  0.10302443577E+01 0.  0.
     999903    2    3    3    0    0  0.41790232509E-01  0.92509725133E-01 -0.86399858321E-01  0.13940529333E+00  0.40797395917E-01 0.  0.
         14    1    1    2    0    0  0.74249886937E-03  0.12397263580E-01  0.55322683340E-02  0.13595934752E-01  0.00000000000E+00 0.  1.
     999901    1    3    3    0    0 -0.42532731378E-01 -0.10490698871E+00  0.80867589987E-01  0.89092877192E+00  0.88000000000E+00 0.  1.
        -11    1    4    4    0    0  0.37094554836E-01  0.44123520539E-01 -0.30141754249E-01  0.65051345362E-01  0.51100000000E-03 0. -1.
         11    1    4    4    0    0  0.46956776730E-02  0.48386204594E-01 -0.56258104073E-01  0.74353947970E-01  0.51100000000E-03 0.  1.
</event>
<event>
 8    1  0.2183582E+004  0.1043930E+01  0.7957747E-01            NaN
         13   -1    0    0    0    0  0.00000000000E+00  0.00000000000E+00  0.74505805969E-08  0.10566000000E+00  0.10566000000E+00 0.  1.
     999900   -1    0    0    0    0 -0.00000000000E+00 -0.00000000000E+00 -0.74505805969E-08  0.93827000000E+00  0.93827000000E+00 0. -1.
     999902    2    1    2    0    0 -0.32049153692E-02 -0.11188363719E-01 -0.71674539135E-02  0.10302616658E+01  0.10301709939E+01 0.  0.
     999903    2    3    3    0    0  0.52958138613E-01  0.64362506227E-01  0.10123118208E+00  0.13862693850E+00  0.44973094152E-01 0.  0.
         14    1    1    2    0    0  0.32049153692E-02  0.11188363719E-01  0.71674539135E-02  0.13668334238E-01  0.00000000000E+00 0. -1.
     999901    1    3    3    0    0 -0.56163053983E-01 -0.75550869946E-01 -0.10839863600E+00  0.89163472727E+00  0.88000000000E+00 0. -1.
        -11    1    4    4    0    0  0.22509374174E-01  0.21176166448E-01  0.71730175666E-01  0.78106217251E-01  0.51100000000E-03 0.  1.
         11    1    4    4    0    0  0.30448764440E-01  0.43186339779E-01  0.29501006416E-01  0.60520721244E-01  0.51100000000E-03 0. -1.
</event>
<event>
 8    1  0.2183582E+004  0.1043930E+01  0.7957747E-01            NaN
         13   -1    0    0    0    0  0.00000000000E+00  0.00000000000E+00  0.74505805969E-08  0.10566000000E+00  0.10566000000E+00 0.  1.
     999900   -1    0    0    0    0 -0.00000000000E+00 -0.00000000000E+00 -0.74505805969E-08  0.93827000000E+00  0.93827000000E+00 0. -1.
     999902    2    1    2    0    0  0.10869950578E-01  0.77451064360E-02 -0.39467359028E-02  0.10300116947E+01  0.10299176530E+01 0.  0.
     999903    2    3    3    0    0  0.33277569119E-01 -0.10176477775E+00  0.77576941234E-01  0.13920272185E+00  0.43540203980E-01 0.  0.
         14    1    1    2    0    0 -0.10869950578E-01 -0.77451064360E-02  0.39467359028E-02  0.13918305341E-01  0.00000000000E+00 0.  1.
     999901    1    3    3    0    0 -0.22407618541E-01  0.10950988418E+00 -0.81523677137E-01  0.89080897281E+00  0.88000000000E+00 0. -1.
        -11    1    4    4    0    0  0.98735281601E-02 -0.87624637663E-01  0.60980715190E-01  0.10721227742E+00  0.51100000000E-03 0. -1.
         11    1    4    4    0    0  0.23404040959E-01 -0.14140140086E-01  0.16596226045E-01  0.31990444429E-01  0.51100000000E-03 0.  1.
</event>
<event>
 8    1  0.2183582E+004  0.1043930E+01  0.7957747E-01            NaN
         13   -1    0    0    0    0  0.00000000000E+00  0.00000000000E+00  0.74505805969E-08  0.10566000000E+00  0.10566000000E+00 0.  1.
     999900   -1    0    0    0    0 -0.00000000000E+00 -0.00000000000E+00 -0.74505805969E-08  0.93827000000E+00  0.93827000000E+00 0. -1.
     999902    2    1    2    0    0  0.67215994681E-02 -0.98594972844E-02 -0.57241515824E-02  0.10306953675E+01  0.10306103944E+01 0.  0.
     999903    2    3    3    0    0 -0.22786018493E-01 -0.11165295712E+00  0.70022819037E-01  0.14110545549E+00  0.44966308640E-01 0.  0.
         14    1    1    2    0    0 -0.67215994681E-02  0.98594972844E-02  0.57241515824E-02  0.13234632501E-01  0.00000000000E+00 0.  1.
     999901    1    3    3    0    0  0.29507617961E-01  0.10179345983E+00 -0.75746970619E-01  0.88958991200E+00  0.88000000000E+00 0. -1.
        -11    1    4    4    0    0 -0.22679606326E-02 -0.78482319338E-01  0.26993296700E-01  0.83027208082E-01  0.51100000000E-03 0. -1.
         11    1    4    4    0    0 -0.20518057860E-01 -0.33170637779E-01  0.43029522336E-01  0.58078247412E-01  0.51100000000E-03 0.  1.
</event>
<event>
 8    1  0.2183582E+004  0.1043930E+01  0.7957747E-01            NaN
         13   -1    0    0    0    0  0.00000000000E+00  0.00000000000E+00  0.74505805969E-08  0.10566000000E+00  0.10566000000E+00 0. -1.
     999900   -1    0    0    0    0 -0.00000000000E+00 -0.00000000000E+00 -0.74505805969E-08  0.93827000000E+00  0.93827000000E+00 0.  1.
     999902    2    1    2    0    0 -0.10094050510E-01 -0.97495469776E-02 -0.33143389292E-02  0.10295102786E+01  0.10294092896E+01 0.  0.
     999903    2    3    3    0    0 -0.10873925801E+00  0.70593295117E-01  0.28079920619E-01  0.13980726707E+00  0.44158243127E-01 0.  0.
         14    1    1    2    0    0  0.10094050510E-01  0.97495469776E-02  0.33143389292E-02  0.14419721374E-01  0.00000000000E+00 0. -1.
     999901    1    3    3    0    0  0.98645207499E-01 -0.80342842094E-01 -0.31394259548E-01  0.88970301156E+00  0.88000000000E+00 0. -1.
        -11    1    4    4    0    0 -0.91088971993E-01  0.65959838409E-01  0.38397046419E-01  0.11883810583E+00  0.51100000000E-03 0. -1.
         11    1    4    4    0    0 -0.17650286016E-01  0.46334567075E-02 -0.10317125801E-01  0.20969161244E-01  0.51100000000E-03 0.  1.
</event>
<event>
 8    1  0.2183582E+004  0.1043930E+01  0.7957747E-01            NaN
         13   -1    0    0    0    0  0.00000000000E+00  0.00000000000E+00  0.74505805969E-08  0.10566000000E+00  0.10566000000E+00 0.  1.
     999900   -1    0    0    0    0 -0.00000000000E+00 -0.00000000000E+00 -0.74505805969E-08  0.93827000000E+00  0.93827000000E+00 0. -1.
     999902    2    1    2    0    0  0.10869089850E-01 -0.33085935831E-02  0.62277952240E-02  0.10309735599E+01  0.10308921437E+01 0.  0.
     999903    2    3    3    0    0  0.52179715499E-01 -0.24032396430E-01 -0.11925765213E+00  0.14087095839E+00  0.48186725730E-01 0.  0.
         14    1    1    2    0    0 -0.10869089850E-01  0.33085935831E-02 -0.62277952240E-02  0.12956440060E-01  0.00000000000E+00 0. -1.
     999901    1    3    3    0    0 -0.41310625649E-01  0.20723802847E-01  0.12548544736E+00  0.89010260155E+00  0.88000000000E+00 0.  1.
        -11    1    4    4    0    0  0.41754899327E-01  0.32686262229E-02 -0.47166350367E-01  0.63079959283E-01  0.51100000000E-03 0. -1.
         11    1    4    4    0    0  0.10424816172E-01 -0.27301022653E-01 -0.72091301766E-01  0.77790999103E-01  0.51100000000E-03 0.  1.
</event>
<event>
 8    1  0.2183582E+004  0.1043930E+01  0.7957747E-01            NaN
         13   -1    0    0    0    0  0.00000000000E+00  0.00000000000E+00  0.74505805969E-08  0.10566000000E+00  0.10566000000E+00 0.  1.
     999900   -1    0    0    0    0 -0.00000000000E+00 -0.00000000000E+00 -0.74505805969E-08  0.93827000000E+00  0.93827000000E+00 0. -1.
     999902    2    1    2    0    0 -0.33205074992E-02  0.13659449161E-01 -0.47009669830E-02  0.10291075369E+01  0.10290007858E+01 0.  0.
     999903    2    3    3    0    0 -0.17400525115E-01  0.14971867446E-01  0.12938536605E+00  0.13883841241E+00  0.44817370762E-01 0.  0.
         14    1    1    2    0    0  0.33205074992E-02 -0.13659449161E-01  0.47009669830E-02  0.14822463089E-01  0.00000000000E+00 0. -1.
     999901    1    3    3    0    0  0.14080017616E-01 -0.13124182850E-02 -0.13408633304E+00  0.89026912450E+00  0.88000000000E+00 0. -1.
        -11    1    4    4    0    0  0.83164768347E-02  0.16962515886E-01  0.25157633470E-01  0.31465193070E-01  0.51100000000E-03 0.  1.
         11    1    4    4    0    0 -0.25717001950E-01 -0.19906484395E-02  0.10422773258E+00  0.10737321934E+00  0.51100000000E-03 0. -1.
</event>
<event>
 8    1  0.2183582E+004  0.1043930E+01  0.7957747E-01            NaN
         13   -1    0    0    0    0  0.00000000000E+00  0.00000000000E+00  0.74505805969E-08  0.10566000000E+00  0.10566000000E+00 0.  1.
     999900   -1    0    0    0    0 -0.00000000000E+00 -0.00000000000E+00 -0.74505805969E-08  0.93827000000E+00  0.93827000000E+00 0.  1.
     999902    2    1    2    0    0 -0.10894833893E-01 -0.22026204546E-02  0.11592476010E-01  0.10278696624E+01  0.10277441844E+01 0.  0.
     999903    2    3    3    0    0 -0.82573341714E-01 -0.73102309397E-01  0.74853878176E-01  0.13985694892E+00  0.42362231785E-01 0.  0.
         14    1    1    2    0    0  0.10894833893E-01  0.22026204546E-02 -0.11592476010E-01  0.16060337558E-01  0.00000000000E+00 0. -1.
     999901    1    3    3    0    0  0.71678507821E-01  0.70899688943E-01 -0.63261402166E-01  0.88801271352E+00  0.88000000000E+00 0.  1.
        -11    1    4    4    0    0 -0.53301263326E-01 -0.50772799544E-01  0.71927049318E-01  0.10292066552E+00  0.51100000000E-03 0.  1.
         11    1    4    4    0    0 -0.29272078388E-01 -0.22329509853E-01  0.29268288581E-02  0.36936283403E-01  0.51100000000E-03 0. -1.
</event>
<event>
 8    1  0.2183582E+004  0.1043930E+01  0.7957747E-01            NaN
         13   -1    0    0    0    0  0.00000000000E+00  0.00000000000E+00  0.74505805969E-08  0.10566000000E+00  0.10566000000E+00 0. -1.
     999900   -1    0    0    0    0 -0.00000000000E+00 -0.00000000000E+00 -0.74505805969E-08  0.93827000000E+00  0.93827000000E+00 0. -1.
     999902    2    1    2    0    0 -0.49358263888E-02 -0.77969281623E-02 -0.10196452237E-01  0.10301778326E+01  0.10300860375E+01 0.  0.
     999903    2    3    3    0    0 -0.57079336303E-01  0.80650710598E-01 -0.89508258333E-01  0.14066544198E+00  0.44860344444E-01 0.  0.
         14    1    1    2    0    0  0.49358263888E-02  0.77969281623E-02  0.10196452237E-01  0.13752167434E-01  0.00000000000E+00 0. -1.
     999901    1    3    3    0    0  0.52143509914E-01 -0.88447638760E-01  0.79311806096E-01  0.88951239059E+00  0.88000000000E+00 0.  1.
        -11    1    4    4    0    0 -0.20630208945E-01  0.29681994936E-01 -0.66128066692E-02  0.36750737102E-01  0.51100000000E-03 0.  1.
         11    1    4    4    0    0 -0.36449127358E-01  0.50968715661E-01 -0.82895451664E-01  0.10391470487E+00  0.51100000000E-03 0. -1.
</event>
<event>
 8    1  0.2183582E+004  0.1043930E+01  0.7957747E-01            NaN
         13   -1    0    0    0    0  0.00000000000E+00  0.00000000000E+00  0.74505805969E-08  0.10566000000E+00  0.10566000000E+00 0.  1.
     999900   -1    0    0    0    0 -0.00000000000E+00 -0.00000000000E+00 -0.74505805969E-08  0.93827000000E+00  0.93827000000E+00 0. -1.
     999902    2    1    2    0    0  0.22090602746E-03  0.14651314009E-01 -0.25319316185E-02  0.10290598796E+01  0.10289524359E+01 0.  0.
     999903    2    3    3    0    0  0.11941393477E+00 -0.13394562608E-01 -0.54535512366E-01  0.13906104723E+00  0.43871979907E-01 0.  0.
         14    1    1    2    0    0 -0.22090602746E-03 -0.14651314009E-01  0.25319316185E-02  0.14870120356E-01  0.00000000000E+00 0. -1.
     999901    1    3    3    0    0 -0.11919302875E+00  0.28045876617E-01  0.52003580748E-01  0.88999883242E+00  0.88000000000E+00 0. -1.
        -11    1    4    4    0    0  0.83772661884E-01 -0.29412056339E-01 -0.39746945895E-01  0.97277997339E-01  0.51100000000E-03 0. -1.
         11    1    4    4    0    0  0.35641272889E-01  0.16017493731E-01 -0.14788566472E-01  0.41783049887E-01  0.51100000000E-03 0.  1.
</event>
<event>
 8    1  0.2183582E+004  0.1043930E+01  0.7957747E-01            NaN
         13   -1    0    0    0    0  0.00000000000E+00  0.00000000000E+00  0.74505805969E-08  0.10566000000E+00  0.10566000000E+00 0. -1.
     999900   -1    0    0    0    0 -0.00000000000E+00 -0.00000000000E+00 -0.74505805969E-08  0.93827000000E+00  0.93827000000E+00 0. -1.
     999902    2    1    2    0    0  0.10251848591E-01 -0.11863524481E-01 -0.52809083251E-02  0.10273851638E+01  0.10272519375E+01 0.  0.
     999903    2    3    3    0    0 -0.11412860724E+00  0.56809974259E-02 -0.59989511590E-01  0.13678349114E+00  0.45314117282E-01 0.  0.
         14    1    1    2    0    0 -0.10251848591E-01  0.11863524481E-01  0.52809083251E-02  0.16544836215E-01  0.00000000000E+00 0.  1.
     999901    1    3    3    0    0  0.12438045583E+00 -0.17544521907E-01  0.54708603265E-01  0.89060167264E+00  0.88000000000E+00 0.  1.
        -11    1    4    4    0    0 -0.75452540414E-01 -0.16204751129E-01 -0.47495281580E-01  0.90618666440E-01  0.51100000000E-03 0.  1.
         11    1    4    4    0    0 -0.38676066830E-01  0.21885748555E-01 -0.12494230011E-01  0.46164824702E-01  0.51100000000E-03 0. -1.
</event>
<event>
 8    1  0.2183582E+004  0.1043930E+01  0.7957747E-01            NaN
         13   -1    0    0    0    0  0.00000000000E+00  0.00000000000E+00  0.74505805969E-08  0.10566000000E+00  0.10566000000E+00 0. -1.
     999900   -1    0    0    0    0 -0.00000000000E+00 -0.00000000000E+00 -0.74505805969E-08  0.93827000000E+00  0.93827000000E+00 0. -1.
     999902    2    1    2    0    0  0.88131134743E-02  0.32558535115E-02  0.71904267135E-02  0.10320989482E+01  0.10320311357E+01 0.  0.
     999903    2    3    3    0    0 -0.13495525638E-01  0.14501907567E-01  0.13398388987E+00  0.14266051218E+00  0.44809646899E-01 0.  0.
         14    1    1    2    0    0 -0.88131134743E-02 -0.32558535115E-02 -0.71904267135E-02  0.11831051835E-01  0.00000000000E+00 0. -1.
     999901    1    3    3    0    0  0.22308639113E-01 -0.11246054056E-01 -0.12679346316E+00  0.88943843599E+00  0.88000000000E+00 0. -1.
        -11    1    4    4    0    0 -0.25344181727E-01  0.23091763761E-01  0.90607637113E-01  0.96879110882E-01  0.51100000000E-03 0.  1.
         11    1    4    4    0    0  0.11848656089E-01 -0.85898561938E-02  0.43376252756E-01  0.45781401297E-01  0.51100000000E-03 0. -1.
</event>
<event>
 8    1  0.2183582E+004  0.1043930E+01  0.7957747E-01            NaN
         13   -1    0    0    0    0  0.00000000000E+00  0.00000000000E+00  0.74505805969E-08  0.10566000000E+00  0.10566000000E+00 0. -1.
     999900   -1    0    0    0    0 -0.00000000000E+00 -0.00000000000E+00 -0.74505805969E-08  0.93827000000E+00  0.93827000000E+00 0. -1.
     999902    2    1    2    0    0  0.63113561381E-02  0.89923960244E-02 -0.64654764212E-02  0.10311824988E+01  0.10311037033E+01 0.  0.
     999903    2    3    3    0    0 -0.43682228446E-01  0.12628749255E+00 -0.89306640134E-03  0.14197580180E+00  0.47954800305E-01 0.  0.
         14    1    1    2    0    0 -0.63113561381E-02 -0.89923960244E-02  0.64654764212E-02  0.12747501242E-01  0.00000000000E+00 0. -1.
     999901    1    3    3    0    0  0.49993584584E-01 -0.11729509652E+00 -0.55724100199E-02  0.88920669696E+00  0.88000000000E+00 0. -1.
        -11    1    4    4    0    0 -0.39812636226E-01  0.77121266315E-01  0.18907946422E-01  0.88828527401E-01  0.51100000000E-03 0.  1.
         11    1    4    4    0    0 -0.38695922197E-02  0.49166226232E-01 -0.19801012823E-01  0.53147274395E-01  0.51100000000E-03 0. -1.
</event>
<event>
 8    1  0.2183582E+004  0.1043930E+01  0.7957747E-01            NaN
         13   -1    0    0    0    0  0.00000000000E+00  0.00000000000E+00  0.74505805969E-08  0.10566000000E+00  0.10566000000E+00 0.  1.
     999900   -1    0    0    0    0 -0.00000000000E+00 -0.00000000000E+00 -0.74505805969E-08  0.93827000000E+00  0.93827000000E+00 0.  1.
     999902    2    1    2    0    0  0.98037680350E-02 -0.10750668851E-01  0.85779185361E-02  0.10270400197E+01  0.10269011299E+01 0.  0.
     999903    2    3    3    0    0 -0.10686383446E+00 -0.72605601013E-01  0.10567908839E-01  0.13718535618E+00  0.44907558818E-01 0.  0.
         14    1    1    2    0    0 -0.98037680350E-02  0.10750668851E-01 -0.85779185361E-02  0.16889980309E-01  0.00000000000E+00 0. -1.
     999901    1    3    3    0    0  0.11666760250E+00  0.61854932162E-01 -0.19899903027E-02  0.88985466351E+00  0.88000000000E+00 0. -1.
        -11    1    4    4    0    0 -0.22652670545E-01 -0.31107156192E-01 -0.12585263321E-01  0.40490105248E-01  0.51100000000E-03 0. -1.
         11    1    4    4    0    0 -0.84211163919E-01 -0.41498444821E-01  0.23153172160E-01  0.96695250934E-01  0.51100000000E-03 0.  1.
</event>
<event>
 8    1  0.2183582E+004  0.1043930E+01  0.7957747E-01            NaN
         13   -1    0    0    0    0  0.00000000000E+00  0.00000000000E+00  0.74505805969E-08  0.10566000000E+00  0.10566000000E+00 0.  1.
     999900   -1    0    0    0    0 -0.00000000000E+00 -0.00000000000E+00 -0.74505805969E-08  0.93827000000E+00  0.93827000000E+00 0.  1.
     999902    2    1    2    0    0  0.27512343987E-02  0.39830491510E-02  0.15585563053E-01  0.10276099587E+01  0.10274803568E+01 0.  0.
     999903    2    3    3    0    0  0.97686053352E-01 -0.85168061033E-01  0.15772007047E-01  0.13802546300E+00  0.44789603584E-01 0.  0.
         14    1    1    2    0    0 -0.27512343987E-02 -0.39830491510E-02 -0.15585563053E-01  0.16320041266E-01  0.00000000000E+00 0. -1.
     999901    1    3    3    0    0 -0.94934818953E-01  0.89151110184E-01 -0.18644399380E-03  0.88958449574E+00  0.88000000000E+00 0.  1.
        -11    1    4    4    0    0  0.50981346357E-02 -0.20441708362E-01 -0.80706100274E-02  0.22566574502E-01  0.51100000000E-03 0. -1.
         11    1    4    4    0    0  0.92587918716E-01 -0.64726352671E-01  0.23842617074E-01  0.11545888849E+00  0.51100000000E-03 0.  1.
</event>
<event>
 8    1  0.2183582E+004  0.1043930E+01  0.7957747E-01            NaN
         13   -1    0    0    0    0  0.00000000000E+00  0.00000000000E+00  0.74505805969E-08  0.10566000000E+00  0.10566000000E+00 0. -1.
     999900   -1    0    0    0    0 -0.00000000000E+00 -0.00000000000E+00 -0.74505805969E-08  0.93827000000E+00  0.93827000000E+00 0. -1.
     999902    2    1    2    0    0  0.79305163734E-02  0.19948105276E-02  0.10863310365E-01  0.10303327991E+01  0.10302430748E+01 0.  0.
     999903    2    3    3    0    0  0.16292145005E-01  0.91724669967E-01  0.96688885794E-01  0.14157670555E+00  0.44904051582E-01 0.  0.
         14    1    1    2    0    0 -0.79305163734E-02 -0.19948105276E-02 -0.10863310365E-01  0.13597200855E-01  0.00000000000E+00 0.  1.
     999901    1    3    3    0    0 -0.83616286318E-02 -0.89729859439E-01 -0.85825575428E-01  0.88875609360E+00  0.88000000000E+00 0. -1.
        -11    1    4    4    0    0  0.10938636947E-01  0.64600618435E-01  0.35710896859E-01  0.74621866473E-01  0.51100000000E-03 0. -1.
         11    1    4    4    0    0  0.53535080578E-02  0.27124051531E-01  0.60977988935E-01  0.66954839075E-01  0.51100000000E-03 0.  1.
</event>
<event>
 8    1  0.2183582E+004  0.1043930E+01  0.7957747E-01            NaN
         13   -1    0    0    0    0  0.00000000000E+00  0.00000000000E+00  0.74505805969E-08  0.10566000000E+00  0.10566000000E+00 0.  1.
     999900   -1    0    0    0    0 -0.00000000000E+00 -0.00000000000E+00 -0.74505805969E-08  0.93827000000E+00  0.93827000000E+00 0. -1.
     999902    2    1    2    0    0 -0.12555470838E-01 -0.13449518139E-02 -0.75855006683E-02  0.10291994683E+01  0.10290940467E+01 0.  0.
     999903    2    3    3    0    0 -0.41856341962E-01 -0.12524402702E+00  0.91546115067E-02  0.13987964213E+00  0.45216011587E-01 0.  0.
         14    1    1    2    0    0  0.12555470838E-01  0.13449518139E-02  0.75855006683E-02  0.14730531685E-01  0.00000000000E+00 0.  1.
     999901    1    3    3    0    0  0.29300871124E-01  0.12389907521E+00 -0.16740112175E-01  0.88931982618E+00  0.88000000000E+00 0. -1.
        -11    1    4    4    0    0 -0.31171921677E-01 -0.12504823908E+00  0.81260779912E-02  0.12913189018E+00  0.51100000000E-03 0.  1.
         11    1    4    4    0    0 -0.10684420285E-01 -0.19578794344E-03  0.10285335155E-02  0.10747751948E-01  0.51100000000E-03 0. -1.
</event>
<event>
 8    1  0.2183582E+004  0.1043930E+01  0.7957747E-01            NaN
         13   -1    0    0    0    0  0.00000000000E+00  0.00000000000E+00  0.74505805969E-08  0.10566000000E+00  0.10566000000E+00 0. -1.
     999900   -1    0    0    0    0 -0.00000000000E+00 -0.00000000000E+00 -0.74505805969E-08  0.93827000000E+00  0.93827000000E+00 0. -1.
     999902    2    1    2    0    0  0.10918097300E-01  0.59018699672E-02 -0.19560542978E-02  0.10313656430E+01  0.10312891091E+01 0.  0.
     999903    2    3    3    0    0  0.12783886586E-01  0.88603143333E-01  0.99877089605E-01  0.14163929690E+00  0.45522660674E-01 0.  0.
         14    1    1    2    0    0 -0.10918097300E-01 -0.59018699672E-02  0.19560542978E-02  0.12564356974E-01  0.00000000000E+00 0.  1.
     999901    1    3    3    0    0 -0.18657892860E-02 -0.82701273366E-01 -0.10183314390E+00  0.88972634612E+00  0.88000000000E+00 0. -1.
        -11    1    4    4    0    0  0.24657223023E-02  0.19681020789E-01 -0.11488064995E-04  0.19841462112E-01  0.51100000000E-03 0. -1.
         11    1    4    4    0    0  0.10318164283E-01  0.68922122545E-01  0.99888577670E-01  0.12179783479E+00  0.51100000000E-03 0.  1.
</event>
<event>
 8    1  0.2183582E+004  0.1043930E+01  0.7957747E-01            NaN
         13   -1    0    0    0    0  0.00000000000E+00  0.00000000000E+00  0.74505805969E-08  0.10566000000E+00  0.10566000000E+00 0. -1.
     999900   -1    0    0    0    0 -0.00000000000E+00 -0.00000000000E+00 -0.74505805969E-08  0.93827000000E+00  0.93827000000E+00 0.  1.
     999902    2    1    2    0    0 -0.12143078923E-01 -0.34599753331E-02  0.28338537594E-02  0.10309895007E+01  0.10309082859E+01 0.  0.
     999903    2    3    3    0    0 -0.13538717384E+00 -0.93243783176E-03 -0.20988953713E-02  0.14238394850E+00  0.44025301249E-01 0.  0.
         14    1    1    2    0    0  0.12143078923E-01  0.34599753331E-02 -0.28338537594E-02  0.12940499301E-01  0.00000000000E+00 0.  1.
     999901    1    3    3    0    0  0.12324409491E+00 -0.25275375014E-02  0.49327491308E-02  0.88860555219E+00  0.88000000000E+00 0.  1.
        -11    1    4    4    0    0 -0.88669276578E-01 -0.16996674153E-01 -0.14510064576E-01  0.91443592647E-01  0.51100000000E-03 0.  1.
         11    1    4    4    0    0 -0.46717897259E-01  0.16064236322E-01  0.12411169204E-01  0.50940355858E-01  0.51100000000E-03 0. -1.
</event>
<event>
 8    1  0.2183582E+004  0.1043930E+01  0.7957747E-01            NaN
         13   -1    0    0    0    0  0.00000000000E+00  0.00000000000E+00  0.74505805969E-08  0.10566000000E+00  0.10566000000E+00 0. -1.
     999900   -1    0    0    0    0 -0.00000000000E+00 -0.00000000000E+00 -0.74505805969E-08  0.93827000000E+00  0.93827000000E+00 0. -1.
     999902    2    1    2    0    0  0.74363111422E-02  0.10685783546E-01 -0.28487394901E-02  0.10306033346E+01  0.10305171679E+01 0.  0.
     999903    2    3    3    0    0 -0.12648030779E+00 -0.94207036108E-02 -0.36970124998E-01  0.13959143762E+00  0.45088373214E-01 0.  0.
         14    1    1    2    0    0 -0.74363111422E-02 -0.10685783546E-01  0.28487394901E-02  0.13326665377E-01  0.00000000000E+00 0.  1.
     999901    1    3    3    0    0  0.13391661893E+00  0.20106487157E-01  0.34121385508E-01  0.89101189700E+00  0.88000000000E+00 0. -1.
        -11    1    4    4    0    0 -0.31382071498E-02  0.77836713800E-02 -0.82624175673E-02  0.11788237753E-01  0.51100000000E-03 0.  1.
         11    1    4    4    0    0 -0.12334210064E+00 -0.17204374991E-01 -0.28707707431E-01  0.12780319987E+00  0.51100000000E-03 0. -1.
</event>
<event>
 8    1  0.2183582E+004  0.1043930E+01  0.7957747E-01            NaN
         13   -1    0    0    0    0  0.00000000000E+00  0.00000000000E+00  0.74505805969E-08  0.10566000000E+00  0.10566000000E+00 0. -1.
     999900   -1    0    0    0    0 -0.00000000000E+00 -0.00000000000E+00 -0.74505805969E-08  0.93827000000E+00  0.93827000000E+00 0. -1.
     999902    2    1    2    0    0 -0.90528908881E-02  0.57664895435E-02  0.11141471083E-01  0.10284593952E+01  0.10283430303E+01 0.  0.
     999903    2    3    3    0    0  0.11235905819E-01 -0.11148350599E+00  0.67759320391E-01  0.13864774233E+00  0.45574699845E-01 0.  0.
         14    1    1    2    0    0  0.90528908881E-02 -0.57664895435E-02 -0.11141471083E-01  0.15470604803E-01  0.00000000000E+00 0.  1.
     999901    1    3    3    0    0 -0.20288796707E-01  0.11724999553E+00 -0.56617849308E-01  0.88981165287E+00  0.88000000000E+00 0.  1.
        -11    1    4    4    0    0  0.18682149034E-01 -0.59256858285E-01  0.14753566421E-01  0.63861778784E-01  0.51100000000E-03 0.  1.
         11    1    4    4    0    0 -0.74462432148E-02 -0.52226647701E-01  0.53005753970E-01  0.74785963543E-01  0.51100000000E-03 0. -1.
</event>
<event>
 8    1  0.2183582E+004  0.1043930E+01  0.7957747E-01            NaN
         13   -1    0    0    0    0  0.00000000000E+00  0.00000000000E+00  0.74505805969E-08  0.10566000000E+00  0.10566000000E+00 0.  1.
     999900   -1    0    0    0    0 -0.00000000000E+00 -0.00000000000E+00 -0.74505805969E-08  0.93827000000E+00  0.93827000000E+00 0.  1.
     999902    2    1    2    0    0  0.12310890172E-01 -0.33694315513E-03 -0.49603339727E-02  0.10306530854E+01  0.10305675650E+01 0.  0.
     999903    2    3    3    0    0 -0.44079632253E-01 -0.10762145568E+00  0.63682796221E-01  0.13969756635E+00  0.43983176406E-01 0.  0.
         14    1    1    2    0    0 -0.12310890172E-01  0.33694315513E-03  0.49603339727E-02  0.13276914575E-01  0.00000000000E+00 0. -1.
     999901    1    3    3    0    0  0.56390522425E-01  0.10728451253E+00 -0.68643130194E-01  0.89095551908E+00  0.88000000000E+00 0.  1.
        -11    1    4    4    0    0  0.48285544089E-02 -0.39035407366E-01  0.13212507109E-01  0.41495896556E-01  0.51100000000E-03 0. -1.
         11    1    4    4    0    0 -0.48908186662E-01 -0.68586048317E-01  0.50470289112E-01  0.98201669794E-01  0.51100000000E-03 0.  1.
</event>
<event>
 8    1  0.2183582E+004  0.1043930E+01  0.7957747E-01            NaN
         13   -1    0    0    0    0  0.00000000000E+00  0.00000000000E+00  0.74505805969E-08  0.10566000000E+00  0.10566000000E+00 0.  1.
     999900   -1    0    0    0    0 -0.00000000000E+00 -0.00000000000E+00 -0.74505805969E-08  0.93827000000E+00  0.93827000000E+00 0. -1.
     999902    2    1    2    0    0  0.11940535400E-01  0.21636457080E-03 -0.67978821091E-02  0.10301882970E+01  0.10300966425E+01 0.  0.
     999903    2    3    3    0    0 -0.53277981630E-01  0.11859922647E+00 -0.24398357534E-01  0.13969532475E+00  0.44890801492E-01 0.  0.
         14    1    1    2    0    0 -0.11940535400E-01 -0.21636457080E-03  0.67978821091E-02  0.13741702967E-01  0.00000000000E+00 0.  1.
     999901    1    3    3    0    0  0.65218517030E-01 -0.11838286190E+00  0.17600475425E-01  0.89049297229E+00  0.88000000000E+00 0. -1.
        -11    1    4    4    0    0 -0.71670729806E-02  0.40821459203E-01 -0.26596278542E-01  0.49248163619E-01  0.51100000000E-03 0. -1.
         11    1    4    4    0    0 -0.46110908649E-01  0.77777767272E-01  0.21979210073E-02  0.90447161127E-01  0.51100000000E-03 0.  1.
</event>
<event>
 8    1  0.2183582E+004  0.1043930E+01  0.7957747E-01            NaN
         13   -1    0    0    0    0  0.00000000000E+00  0.00000000000E+00  0.74505805969E-08  0.10566000000E+00  0.10566000000E+00 0.  1.
     999900   -1    0    0    0    0 -0.00000000000E+00 -0.00000000000E+00 -0.74505805969E-08  0.93827000000E+00  0.93827000000E+00 0.  1.
     999902    2    1    2    0    0 -0.70276153405E-02 -0.53173349601E-02 -0.96157104830E-02  0.10308868671E+01  0.10308043507E+01 0.  0.
     999903    2    3    3    0    0  0.62007226628E-01  0.11405950654E+00  0.24332216260E-01  0.13950081074E+00  0.44877079498E-01 0.  0.
         14    1    1    2    0    0  0.70276153405E-02  0.53173349601E-02  0.96157104830E-02  0.13043132927E-01  0.00000000000E+00 0.  1.
     999901    1    3    3    0    0 -0.69034841969E-01 -0.11937684150E+00 -0.33947926743E-01  0.89138605633E+00  0.88000000000E+00 0.  1.
        -11    1    4    4    0    0  0.12244446129E-01  0.41287211504E-01  0.27818364922E-01  0.51270682097E-01  0.51100000000E-03 0. -1.
         11    1    4    4    0    0  0.49762780500E-01  0.72772295032E-01 -0.34861486616E-02  0.88230128645E-01  0.51100000000E-03 0.  1.
</event>
<event>
 8    1  0.2183582E+004  0.1043930E+01  0.7957747E-01            NaN
         13   -1    0    0    0    0  0.00000000000E+00  0.00000000000E+00  0.74505805969E-08  0.10566000000E+00  0.10566000000E+00 0. -1.
     999900   -1    0    0    0    0 -0.00000000000E+00 -0.00000000000E+00 -0.74505805969E-08  0.93827000000E+00  0.93827000000E+00 0.  1.
     999902    2    1    2    0    0  0.13389409619E-01  0.16685047877E-02  0.46761642388E-02  0.10296497090E+01  0.10295506770E+01 0.  0.
     999903    2    3    3    0    0 -0.53248480718E-01 -0.41618474134E-01  0.11347028961E+00  0.13939663676E+00  0.44591676664E-01 0.  0.
         14    1    1    2    0    0 -0.13389409619E-01 -0.16685047877E-02 -0.46761642388E-02  0.14280290969E-01  0.00000000000E+00 0. -1.
     999901    1    3    3    0    0  0.66637890337E-01  0.43286978922E-01 -0.10879412537E+00  0.89025307227E+00  0.88000000000E+00 0.  1.
        -11    1    4    4    0    0 -0.49497988079E-01 -0.20398525546E-01  0.10146534123E+00  0.11472413547E+00  0.51100000000E-03 0. -1.
         11    1    4    4    0    0 -0.37504926396E-02 -0.21219948588E-01  0.12004948381E-01  0.24672501287E-01  0.51100000000E-03 0.  1.
</event>
<event>
 8    1  0.2183582E+004  0.1043930E+01  0.7957747E-01            NaN
         13   -1    0    0    0    0  0.00000000000E+00  0.00000000000E+00  0.74505805969E-08  0.10566000000E+00  0.10566000000E+00 0. -1.
     999900   -1    0    0    0    0 -0.00000000000E+00 -0.00000000000E+00 -0.74505805969E-08  0.93827000000E+00  0.93827000000E+00 0. -1.
     999902    2    1    2    0    0  0.14050522968E-01 -0.11824208307E-02  0.26520390910E-02  0.10295825742E+01  0.10294826024E+01 0.  0.
     999903    2    3    3    0    0  0.11545538335E+00 -0.67269218477E-01  0.10062710773E-01  0.14126656707E+00  0.44720146757E-01 0.  0.
         14    1    1    2    0    0 -0.14050522968E-01  0.11824208307E-02 -0.26520390910E-02  0.14347425763E-01  0.00000000000E+00 0.  1.
     999901    1    3    3    0    0 -0.10140486038E+00  0.66086797646E-01 -0.74106716821E-02  0.88831600717E+00  0.88000000000E+00 0. -1.
        -11    1    4    4    0    0  0.96456765934E-01 -0.40247720840E-01  0.20724055116E-01  0.10655296481E+00  0.51100000000E-03 0.  1.
         11    1    4    4    0    0  0.18998617412E-01 -0.27021497637E-01 -0.10661344343E-01  0.34713602266E-01  0.51100000000E-03 0. -1.
</event>
<event>
 8    1  0.2183582E+004  0.1043930E+01  0.7957747E-01            NaN
         13   -1    0    0    0    0  0.00000000000E+00  0.00000000000E+00  0.74505805969E-08  0.10566000000E+00  0.10566000000E+00 0. -1.
     999900   -1    0    0    0    0 -0.00000000000E+00 -0.00000000000E+00 -0.74505805969E-08  0.93827000000E+00  0.93827000000E+00 0. -1.
     999902    2    1    2    0    0  0.62123992860E-02  0.61647812170E-02 -0.11725065332E-01  0.10292986778E+01  0.10291946815E+01 0.  0.
     999903    2    3    3    0    0 -0.46137235169E-01  0.11416804951E+00 -0.48938869556E-01  0.14037232685E+00  0.46329139782E-01 0.  0.
         14    1    1    2    0    0 -0.62123992860E-02 -0.61647812170E-02  0.11725065332E-01  0.14631322202E-01  0.00000000000E+00 0. -1.
     999901    1    3    3    0    0  0.52349634455E-01 -0.10800326829E+00  0.37213804225E-01  0.88892635095E+00  0.88000000000E+00 0.  1.
        -11    1    4    4    0    0  0.40705949685E-03  0.47201107630E-01 -0.32131723162E-01  0.57103581440E-01  0.51100000000E-03 0.  1.
         11    1    4    4    0    0 -0.46544294666E-01  0.66966941881E-01 -0.16807146395E-01  0.83268745407E-01  0.51100000000E-03 0. -1.
</event>
<event>
 8    1  0.2183582E+004  0.1043930E+01  0.7957747E-01            NaN
         13   -1    0    0    0    0  0.00000000000E+00  0.00000000000E+00  0.74505805969E-08  0.10566000000E+00  0.10566000000E+00 0. -1.
     999900   -1    0    0    0    0 -0.00000000000E+00 -0.00000000000E+00 -0.74505805969E-08  0.93827000000E+00  0.93827000000E+00 0.  1.
     999902    2    1    2    0    0 -0.95028656628E-02  0.10329880416E-01 -0.36302719865E-03  0.10298892495E+01  0.10297935345E+01 0.  0.
     999903    2    3    3    0    0  0.12271474646E+00  0.28817478736E-01  0.37295153035E-01  0.13902370030E+00  0.45247151579E-01 0.  0.
         14    1    1    2    0    0  0.95028656628E-02 -0.10329880416E-01  0.36302719865E-03  0.14040750477E-01  0.00000000000E+00 0. -1.
     999901    1    3    3    0    0 -0.13221761213E+00 -0.18487598320E-01 -0.37658180233E-01  0.89086554922E+00  0.88000000000E+00 0. -1.
        -11    1    4    4    0    0  0.61069504683E-01 -0.87735171273E-02  0.15852480511E-01  0.63702600138E-01  0.51100000000E-03 0. -1.
         11    1    4    4    0    0  0.61645241779E-01  0.37590995864E-01  0.21442672524E-01  0.75321100165E-01  0.51100000000E-03 0.  1.
</event>
<event>
 8    1  0.2183582E+004  0.1043930E+01  0.7957747E-01            NaN
         13   -1    0    0    0    0  0.00000000000E+00  0.00000000000E+00  0.74505805969E-08  0.10566000000E+00  0.10566000000E+00 0.  1.
     999900   -1    0    0    0    0 -0.00000000000E+00 -0.00000000000E+00 -0.74505805969E-08  0.93827000000E+00  0.93827000000E+00 0. -1.
     999902    2    1    2    0    0  0.53607659317E-02  0.13238231414E-01  0.11126353816E-02  0.10296042700E+01  0.10295046024E+01 0.  0.
     999903    2    3    3    0    0 -0.10502330745E+00  0.41637071105E-01 -0.68488239676E-01  0.13952819485E+00  0.44876913750E-01 0.  0.
         14    1    1    2    0    0 -0.53607659317E-02 -0.13238231414E-01 -0.11126353816E-02  0.14325729993E-01  0.00000000000E+00 0. -1.
     999901    1    3    3    0    0  0.11038407338E+00 -0.28398839691E-01  0.69600875057E-01  0.89007607515E+00  0.88000000000E+00 0.  1.
        -11    1    4    4    0    0 -0.95829698373E-01  0.37637883767E-01 -0.41987399234E-01  0.11118967668E+00  0.51100000000E-03 0. -1.
         11    1    4    4    0    0 -0.91936090752E-02  0.39991873376E-02 -0.26500840442E-01  0.28338518174E-01  0.51100000000E-03 0.  1.
</event>
<event>
 8    1  0.2183582E+004  0.1043930E+01  0.7957747E-01            NaN
         13   -1    0    0    0    0  0.00000000000E+00  0.00000000000E+00  0.74505805969E-08  0.10566000000E+00  0.10566000000E+00 0. -1.
     999900   -1    0    0    0    0 -0.00000000000E+00 -0.00000000000E+00 -0.74505805969E-08  0.93827000000E+00  0.93827000000E+00 0. -1.
     999902    2    1    2    0    0 -0.15236961072E-02 -0.21227844140E-03 -0.12181512532E-01  0.10316517282E+01  0.10315786602E+01 0.  0.
     999903    2    3    3    0    0  0.60762241746E-01 -0.54720798546E-01 -0.10787288055E+00  0.14260304854E+00  0.44862626729E-01 0.  0.
         14    1    1    2    0    0  0.15236961072E-02  0.21227844140E-03  0.12181512532E-01  0.12278271846E-01  0.00000000000E+00 0. -1.
     999901    1    3    3    0    0 -0.62285937853E-01  0.54508520105E-01  0.95691368022E-01  0.88904867962E+00  0.88000000000E+00 0.  1.
        -11    1    4    4    0    0  0.20554547134E-01 -0.25287881120E-01 -0.12331010863E-01  0.34846539129E-01  0.51100000000E-03 0. -1.
         11    1    4    4    0    0  0.40207694613E-01 -0.29432917427E-01 -0.95541869691E-01  0.10775650941E+00  0.51100000000E-03 0.  1.
</event>
<event>
 8    1  0.2183582E+004  0.1043930E+01  0.7957747E-01            NaN
         13   -1    0    0    0    0  0.00000000000E+00  0.00000000000E+00  0.74505805969E-08  0.10566000000E+00  0.10566000000E+00 0.  1.
     999900   -1    0    0    0    0 -0.00000000000E+00 -0.00000000000E+00 -0.74505805969E-08  0.93827000000E+00  0.93827000000E+00 0. -1.
     999902    2    1    2    0    0  0.11893178789E-01 -0.17280653456E-02 -0.75102436159E-02  0.10297582792E+01  0.10296607577E+01 0.  0.
     999903    2    3    3    0    0 -0.80787445914E-01 -0.42799199280E-01 -0.95219957285E-01  0.13960687066E+00  0.45440677740E-01 0.  0.
         14    1    1    2    0    0 -0.11893178789E-01  0.17280653456E-02  0.75102436159E-02  0.14171720810E-01  0.00000000000E+00 0. -1.
     999901    1    3    3    0    0  0.92680624703E-01  0.41071133934E-01  0.87709713669E-01  0.89015140853E+00  0.88000000000E+00 0. -1.
        -11    1    4    4    0    0 -0.46515089989E-01 -0.43849176939E-01 -0.79133727247E-01  0.10172911001E+00  0.51100000000E-03 0.  1.
         11    1    4    4    0    0 -0.34272355925E-01  0.10499776591E-02 -0.16086230038E-01  0.37877760647E-01  0.51100000000E-03 0. -1.
</event>
<event>
 8    1  0.2183582E+004  0.1043930E+01  0.7957747E-01            NaN
         13   -1    0    0    0    0  0.00000000000E+00  0.00000000000E+00  0.74505805969E-08  0.10566000000E+00  0.10566000000E+00 0. -1.
     999900   -1    0    0    0    0 -0.00000000000E+00 -0.00000000000E+00 -0.74505805969E-08  0.93827000000E+00  0.93827000000E+00 0.  1.
     999902    2    1    2    0    0 -0.64040312213E-02  0.47038923441E-02 -0.10590726974E-01  0.10306898445E+01  0.10306048001E+01 0.  0.
     999903    2    3    3    0    0 -0.87200503920E-01  0.95540941352E-02 -0.10240794854E+00  0.14221812487E+00  0.45203965747E-01 0.  0.
         14    1    1    2    0    0  0.64040312213E-02 -0.47038923441E-02  0.10590726974E-01  0.13240155471E-01  0.00000000000E+00 0. -1.
     999901    1    3    3    0    0  0.80796472698E-01 -0.48502017912E-02  0.91817221563E-01  0.88847171966E+00  0.88000000000E+00 0. -1.
        -11    1    4    4    0    0 -0.35814007997E-01  0.25121462257E-01 -0.57288016007E-01  0.72082653487E-01  0.51100000000E-03 0. -1.
         11    1    4    4    0    0 -0.51386495923E-01 -0.15567368122E-01 -0.45119932531E-01  0.70135471382E-01  0.51100000000E-03 0.  1.
</event>
<event>
 8    1  0.2183582E+004  0.1043930E+01  0.7957747E-01            NaN
         13   -1    0    0    0    0  0.00000000000E+00  0.00000000000E+00  0.74505805969E-08  0.10566000000E+00  0.10566000000E+00 0. -1.
     999900   -1    0    0    0    0 -0.00000000000E+00 -0.00000000000E+00 -0.74505805969E-08  0.93827000000E+00  0.93827000000E+00 0.  1.
     999902    2    1    2    0    0  0.24998268288E-02  0.26949926511E-02 -0.13104960535E-01  0.10303192649E+01  0.10302293606E+01 0.  0.
     999903    2    3    3    0    0  0.96858199530E-01 -0.88112540233E-01 -0.25205474988E-01  0.14054629779E+00  0.44414133918E-01 0.  0.
         14    1    1    2    0    0 -0.24998268288E-02 -0.26949926511E-02  0.13104960535E-01  0.13610735109E-01  0.00000000000E+00 0. -1.
     999901    1    3    3    0    0 -0.94358372701E-01  0.90807532884E-01  0.12100514452E-01  0.88977296710E+00  0.88000000000E+00 0.  1.
        -11    1    4    4    0    0  0.49986710715E-01 -0.32556590864E-01 -0.31722171363E-01  0.67565968755E-01  0.51100000000E-03 0. -1.
         11    1    4    4    0    0  0.46871488815E-01 -0.55555949369E-01  0.65166963750E-02  0.72980329039E-01  0.51100000000E-03 0.  1.
</event>
<event>
 8    1  0.2183582E+004  0.1043930E+01  0.7957747E-01            NaN
         13   -1    0    0    0    0  0.00000000000E+00  0.00000000000E+00  0.74505805969E-08  0.10566000000E+00  0.10566000000E+00 0. -1.
     999900   -1    0    0    0    0 -0.00000000000E+00 -0.00000000000E+00 -0.74505805969E-08  0.93827000000E+00  0.93827000000E+00 0. -1.
     999902    2    1    2    0    0  0.43911079026E-02  0.11305659812E-01  0.69412834025E-02  0.10299556954E+01  0.10298608903E+01 0.  0.
     999903    2    3    3    0    0  0.98824624080E-01  0.75298907959E-01  0.50421389755E-01  0.14152823953E+00  0.45295630859E-01 0.  0.
         14    1    1    2    0    0 -0.43911079026E-02 -0.11305659812E-01 -0.69412834025E-02  0.13974304551E-01  0.00000000000E+00 0. -1.
     999901    1    3    3    0    0 -0.94433516177E-01 -0.63993248147E-01 -0.43480106352E-01  0.88842745592E+00  0.88000000000E+00 0. -1.
        -11    1    4    4    0    0  0.90019417942E-01  0.49371992230E-01  0.28794584601E-01  0.10663244556E+00  0.51100000000E-03 0. -1.
         11    1    4    4    0    0  0.88052061376E-02  0.25926915729E-01  0.21626805153E-01  0.34895793965E-01  0.51100000000E-03 0.  1.
</event>
<event>
 8    1  0.2183582E+004  0.1043930E+01  0.7957747E-01            NaN
         13   -1    0    0    0    0  0.00000000000E+00  0.00000000000E+00  0.74505805969E-08  0.10566000000E+00  0.10566000000E+00 0. -1.
     999900   -1    0    0    0    0 -0.00000000000E+00 -0.00000000000E+00 -0.74505805969E-08  0.93827000000E+00  0.93827000000E+00 0. -1.
     999902    2    1    2    0    0 -0.11102602439E-01 -0.48341587932E-02  0.40806282256E-02  0.10311515651E+01  0.10310723844E+01 0.  0.
     999903    2    3    3    0    0 -0.68171139804E-01  0.10825164601E+00  0.39178215243E-01  0.14138920478E+00  0.45719268512E-01 0.  0.
         14    1    1    2    0    0  0.11102602439E-01  0.48341587932E-02 -0.40806282256E-02  0.12778434915E-01  0.00000000000E+00 0.  1.
     999901    1    3    3    0    0  0.57068537365E-01 -0.11308580480E+00 -0.35097587018E-01  0.88976236031E+00  0.88000000000E+00 0. -1.
        -11    1    4    4    0    0 -0.10968530757E-01  0.81517373449E-02  0.20426263607E-01  0.24581555171E-01  0.51100000000E-03 0. -1.
         11    1    4    4    0    0 -0.57202609048E-01  0.10009990866E+00  0.18751951636E-01  0.11680764961E+00  0.51100000000E-03 0.  1.
</event>
<event>
 8    1  0.2183582E+004  0.1043930E+01  0.7957747E-01            NaN
         13   -1    0    0    0    0  0.00000000000E+00  0.00000000000E+00  0.74505805969E-08  0.10566000000E+00  0.10566000000E+00 0.  1.
     999900   -1    0    0    0    0 -0.00000000000E+00 -0.00000000000E+00 -0.74505805969E-08  0.93827000000E+00  0.93827000000E+00 0. -1.
     999902    2    1    2    0    0 -0.12457550530E-01 -0.71908996934E-02 -0.53630296578E-03  0.10295360004E+01  0.10294353738E+01 0.  0.
     999903    2    3    3    0    0  0.98380240617E-01 -0.28284280895E-01  0.79362161293E-01  0.13874213465E+00  0.49722781410E-01 0.  0.
         14    1    1    2    0    0  0.12457550530E-01  0.71908996934E-02  0.53630296578E-03  0.14393999599E-01  0.00000000000E+00 0.  1.
     999901    1    3    3    0    0 -0.11083779115E+00  0.21093381202E-01 -0.79898464259E-01  0.89079386576E+00  0.88000000000E+00 0. -1.
        -11    1    4    4    0    0  0.80168295816E-01 -0.26006127452E-01  0.35992717819E-01  0.91646119264E-01  0.51100000000E-03 0.  1.
         11    1    4    4    0    0  0.18211944801E-01 -0.22781534432E-02  0.43369443474E-01  0.47096015381E-01  0.51100000000E-03 0. -1.
</event>
<event>
 8    1  0.2183582E+004  0.1043930E+01  0.7957747E-01            NaN
         13   -1    0    0    0    0  0.00000000000E+00  0.00000000000E+00  0.74505805969E-08  0.10566000000E+00  0.10566000000E+00 0.  1.
     999900   -1    0    0    0    0 -0.00000000000E+00 -0.00000000000E+00 -0.74505805969E-08  0.93827000000E+00  0.93827000000E+00 0.  1.
     999902    2    1    2    0    0  0.73102340283E-02 -0.10501106840E-02  0.11561896741E-01  0.10302106811E+01  0.10301193270E+01 0.  0.
     999903    2    3    3    0    0 -0.48116254386E-01 -0.11501246771E+00  0.46158525009E-01  0.14045990640E+00  0.45335793929E-01 0.  0.
         14    1    1    2    0    0 -0.73102340283E-02  0.10501106840E-02 -0.11561896741E-01  0.13719318870E-01  0.00000000000E+00 0. -1.
     999901    1    3    3    0    0  0.55426488415E-01  0.11396235703E+00 -0.34596628268E-01  0.88975077473E+00  0.88000000000E+00 0.  1.
        -11    1    4    4    0    0 -0.51393331726E-01 -0.77257331969E-01  0.21517975664E-01  0.95253631356E-01  0.51100000000E-03 0.  1.
         11    1    4    4    0    0  0.32770773394E-02 -0.37755135742E-01  0.24640549345E-01  0.45206275049E-01  0.51100000000E-03 0. -1.
</event>
<event>
 8    1  0.2183582E+004  0.1043930E+01  0.7957747E-01            NaN
         13   -1    0    0    0    0  0.00000000000E+00  0.00000000000E+00  0.74505805969E-08  0.10566000000E+00  0.10566000000E+00 0.  1.
     999900   -1    0    0    0    0 -0.00000000000E+00 -0.00000000000E+00 -0.74505805969E-08  0.93827000000E+00  0.93827000000E+00 0.  1.
     999902    2    1    2    0    0 -0.29320181576E-02 -0.11325651197E-01  0.13579466263E-01  0.10260060214E+01  0.10258494465E+01 0.  0.
     999903    2    3    3    0    0 -0.38169922480E-01  0.60436316957E-01  0.10842394245E+00  0.13730642949E+00  0.44584895343E-01 0.  0.
         14    1    1    2    0    0  0.29320181576E-02  0.11325651197E-01 -0.13579466263E-01  0.17923978618E-01  0.00000000000E+00 0. -1.
     999901    1    3    3    0    0  0.35237904322E-01 -0.71761968153E-01 -0.94844476185E-01  0.88869959190E+00  0.88000000000E+00 0.  1.
        -11    1    4    4    0    0  0.92239446672E-02  0.19340885296E-01  0.30266425359E-01  0.37087310826E-01  0.51100000000E-03 0. -1.
         11    1    4    4    0    0 -0.47393867147E-01  0.41095431661E-01  0.78157517089E-01  0.10021911866E+00  0.51100000000E-03 0.  1.
</event>
<event>
 8    1  0.2183582E+004  0.1043930E+01  0.7957747E-01            NaN
         13   -1    0    0    0    0  0.00000000000E+00  0.00000000000E+00  0.74505805969E-08  0.10566000000E+00  0.10566000000E+00 0. -1.
     999900   -1    0    0    0    0 -0.00000000000E+00 -0.00000000000E+00 -0.74505805969E-08  0.93827000000E+00  0.93827000000E+00 0. -1.
     999902    2    1    2    0    0  0.36288778936E-02  0.12618271652E-01  0.33006170454E-02  0.10303917724E+01  0.10303028297E+01 0.  0.
     999903    2    3    3    0    0  0.13085644619E+00 -0.22884146115E-01  0.45394503961E-02  0.14053290126E+00  0.45626703502E-01 0.  0.
         14    1    1    2    0    0 -0.36288778936E-02 -0.12618271652E-01 -0.33006170454E-02  0.13538227622E-01  0.00000000000E+00 0. -1.
     999901    1    3    3    0    0 -0.12722756830E+00  0.35502417767E-01 -0.12388333507E-02  0.88985887112E+00  0.88000000000E+00 0. -1.
        -11    1    4    4    0    0  0.12353117704E-01 -0.17956506068E-01 -0.67162046552E-03  0.21811644189E-01  0.51100000000E-03 0.  1.
         11    1    4    4    0    0  0.11850332849E+00 -0.49276400462E-02  0.52110708616E-02  0.11872125707E+00  0.51100000000E-03 0. -1.
</event>
<event>
 8    1  0.2183582E+004  0.1043930E+01  0.7957747E-01            NaN
         13   -1    0    0    0    0  0.00000000000E+00  0.00000000000E+00  0.74505805969E-08  0.10566000000E+00  0.10566000000E+00 0.  1.
     999900   -1    0    0    0    0 -0.00000000000E+00 -0.00000000000E+00 -0.74505805969E-08  0.93827000000E+00  0.93827000000E+00 0.  1.
     999902    2    1    2    0    0 -0.16369011242E-01 -0.17196780462E-01  0.23958312167E-03  0.10201869760E+01  0.10199106504E+01 0.  0.
     999903    2    3    3    0    0 -0.95600136331E-01 -0.25715029971E-02  0.80001868240E-01  0.13291391093E+00  0.46041395528E-01 0.  0.
         14    1    1    2    0    0  0.16369011242E-01  0.17196780462E-01 -0.23958312167E-03  0.23743023972E-01  0.00000000000E+00 0. -1.
     999901    1    3    3    0    0  0.79231125089E-01 -0.14625277465E-01 -0.79762285118E-01  0.88727306510E+00  0.88000000000E+00 0.  1.
        -11    1    4    4    0    0 -0.44500360323E-01  0.21196319235E-01  0.43701884478E-01  0.65876261627E-01  0.51100000000E-03 0. -1.
         11    1    4    4    0    0 -0.51099776008E-01 -0.23767822232E-01  0.36299983762E-01  0.67037649301E-01  0.51100000000E-03 0.  1.
</event>
<event>
 8    1  0.2183582E+004  0.1043930E+01  0.7957747E-01            NaN
         13   -1    0    0    0    0  0.00000000000E+00  0.00000000000E+00  0.74505805969E-08  0.10566000000E+00  0.10566000000E+00 0.  1.
     999900   -1    0    0    0    0 -0.00000000000E+00 -0.00000000000E+00 -0.74505805969E-08  0.93827000000E+00  0.93827000000E+00 0. -1.
     999902    2    1    2    0    0  0.11324474074E-01  0.70943769911E-02  0.87994166437E-02  0.10279298865E+01  0.10278053551E+01 0.  0.
     999903    2    3    3    0    0  0.59346372450E-01  0.11055189085E+00  0.42153980055E-01  0.13994222513E+00  0.45421975364E-01 0.  0.
         14    1    1    2    0    0 -0.11324474074E-01 -0.70943769911E-02 -0.87994166437E-02  0.16000113475E-01  0.00000000000E+00 0.  1.
     999901    1    3    3    0    0 -0.48021898375E-01 -0.10345751386E+00 -0.33354563411E-01  0.88798766140E+00  0.88000000000E+00 0. -1.
        -11    1    4    4    0    0  0.36623448425E-01  0.80638641937E-01  0.49793620182E-01  0.10160478965E+00  0.51100000000E-03 0. -1.
         11    1    4    4    0    0  0.22722924025E-01  0.29913248909E-01 -0.76396401278E-02  0.38337435475E-01  0.51100000000E-03 0.  1.
</event>
<event>
 8    1  0.2183582E+004  0.1043930E+01  0.7957747E-01            NaN
         13   -1    0    0    0    0  0.00000000000E+00  0.00000000000E+00  0.74505805969E-08  0.10566000000E+00  0.10566000000E+00 0.  1.
     999900   -1    0    0    0    0 -0.00000000000E+00 -0.00000000000E+00 -0.74505805969E-08  0.93827000000E+00  0.93827000000E+00 0. -1.
     999902    2    1    2    0    0  0.12491492742E-01 -0.54275327599E-02  0.32352954009E-02  0.10299313344E+01  0.10298361961E+01 0.  0.
     999903    2    3    3    0    0  0.31550798233E-02  0.13127712797E+00  0.96828760410E-02  0.13930408117E+00  0.45477797704E-01 0.  0.
         14    1    1    2    0    0 -0.12491492742E-01  0.54275327599E-02 -0.32352954009E-02  0.13998665619E-01  0.00000000000E+00 0. -1.
     999901    1    3    3    0    0  0.93364129188E-02 -0.13670466073E+00 -0.64475806401E-02  0.89062725321E+00  0.88000000000E+00 0.  1.
        -11    1    4    4    0    0 -0.15440519743E-01  0.10282657042E+00  0.78113604641E-04  0.10398067348E+00  0.51100000000E-03 0.  1.
         11    1    4    4    0    0  0.18595599567E-01  0.28450557552E-01  0.96047624364E-02  0.35323407688E-01  0.51100000000E-03 0. -1.
</event>
<event>
 8    1  0.2183582E+004  0.1043930E+01  0.7957747E-01            NaN
         13   -1    0    0    0    0  0.00000000000E+00  0.00000000000E+00  0.74505805969E-08  0.10566000000E+00  0.10566000000E+00 0.  1.
     999900   -1    0    0    0    0 -0.00000000000E+00 -0.00000000000E+00 -0.74505805969E-08  0.93827000000E+00  0.93827000000E+00 0. -1.
     999902    2    1    2    0    0 -0.79057648427E-02 -0.36989743299E-02 -0.10479619926E-01  0.10302915997E+01  0.10302013271E+01 0.  0.
     999903    2    3    3    0    0  0.57261752456E-01 -0.54574029245E-01 -0.10779400139E+00  0.14107555995E+00  0.45005931996E-01 0.  0.
         14    1    1    2    0    0  0.79057648427E-02  0.36989743299E-02  0.10479619926E-01  0.13638400296E-01  0.00000000000E+00 0.  1.
     999901    1    3    3    0    0 -0.65167517299E-01  0.50875054915E-01  0.97314381469E-01  0.88921603976E+00  0.88000000000E+00 0.  1.
        -11    1    4    4    0    0  0.27120612844E-01 -0.16529006800E-01 -0.12508809545E-01  0.34138938825E-01  0.51100000000E-03 0. -1.
         11    1    4    4    0    0  0.30141139612E-01 -0.38045022445E-01 -0.95285191849E-01  0.10693662112E+00  0.51100000000E-03 0.  1.
</event>
<event>
 8    1  0.2183582E+004  0.1043930E+01  0.7957747E-01            NaN
         13   -1    0    0    0    0  0.00000000000E+00  0.00000000000E+00  0.74505805969E-08  0.10566000000E+00  0.10566000000E+00 0.  1.
     999900   -1    0    0    0    0 -0.00000000000E+00 -0.00000000000E+00 -0.74505805969E-08  0.93827000000E+00  0.93827000000E+00 0. -1.
     999902    2    1    2    0    0  0.27039003383E-02  0.12276177334E-01 -0.46071597760E-02  0.10305418886E+01  0.10304549202E+01 0.  0.
     999903    2    3    3    0    0  0.10396831894E+00 -0.73716324513E-01 -0.36389889365E-01  0.14000309953E+00  0.45090309250E-01 0.  0.
         14    1    1    2    0    0 -0.27039003383E-02 -0.12276177334E-01  0.46071597760E-02  0.13388111449E-01  0.00000000000E+00 0.  1.
     999901    1    3    3    0    0 -0.10126441860E+00  0.85992501847E-01  0.31782729589E-01  0.89053878902E+00  0.88000000000E+00 0. -1.
        -11    1    4    4    0    0  0.75505502345E-01 -0.37471046687E-01 -0.40904925676E-01  0.93694366372E-01  0.51100000000E-03 0. -1.
         11    1    4    4    0    0  0.28462816591E-01 -0.36245277826E-01  0.45150363103E-02  0.46308733160E-01  0.51100000000E-03 0.  1.
</event>
<event>
 8    1  0.2183582E+004  0.1043930E+01  0.7957747E-01            NaN
         13   -1    0    0    0    0  0.00000000000E+00  0.00000000000E+00  0.74505805969E-08  0.10566000000E+00  0.10566000000E+00 0. -1.
     999900   -1    0    0    0    0 -0.00000000000E+00 -0.00000000000E+00 -0.74505805969E-08  0.93827000000E+00  0.93827000000E+00 0. -1.
     999902    2    1    2    0    0 -0.35154429290E-02 -0.24208723206E-02 -0.13666114076E-01  0.10296128203E+01  0.10295132724E+01 0.  0.
     999903    2    3    3    0    0  0.60125797596E-01  0.17978098054E-01 -0.11771751480E+00  0.14096608534E+00  0.45559854914E-01 0.  0.
         14    1    1    2    0    0  0.35154429290E-02  0.24208723206E-02  0.13666114076E-01  0.14317179741E-01  0.00000000000E+00 0. -1.
     999901    1    3    3    0    0 -0.63641240524E-01 -0.20398970374E-01  0.10405140072E+00  0.88864673492E+00  0.88000000000E+00 0.  1.
        -11    1    4    4    0    0 -0.12427132965E-02 -0.91499718801E-02 -0.23867851331E-01  0.25596909382E-01  0.51100000000E-03 0. -1.
         11    1    4    4    0    0  0.61368510892E-01  0.27128069934E-01 -0.93849663469E-01  0.11536917596E+00  0.51100000000E-03 0.  1.
</event>
<event>
 8    1  0.2183582E+004  0.1043930E+01  0.7957747E-01            NaN
         13   -1    0    0    0    0  0.00000000000E+00  0.00000000000E+00  0.74505805969E-08  0.10566000000E+00  0.10566000000E+00 0.  1.
     999900   -1    0    0    0    0 -0.00000000000E+00 -0.00000000000E+00 -0.74505805969E-08  0.93827000000E+00  0.93827000000E+00 0. -1.
     999902    2    1    2    0    0 -0.11806312071E-01  0.70574552184E-02 -0.46744491457E-04  0.10301750422E+01  0.10300832096E+01 0.  0.
     999903    2    3    3    0    0 -0.15059023765E-01 -0.13118225329E+00 -0.69645221284E-02  0.13935033847E+00  0.43982433840E-01 0.  0.
         14    1    1    2    0    0  0.11806312071E-01 -0.70574552184E-02  0.46744491457E-04  0.13754957794E-01  0.00000000000E+00 0.  1.
     999901    1    3    3    0    0  0.32527116945E-02  0.13823970851E+00  0.69177776370E-02  0.89082470374E+00  0.88000000000E+00 0. -1.
        -11    1    4    4    0    0  0.10799298945E-02 -0.78565525130E-02 -0.12541279084E-01  0.14847103018E-01  0.51100000000E-03 0.  1.
         11    1    4    4    0    0 -0.16138953660E-01 -0.12332570078E+00  0.55767569552E-02  0.12450323545E+00  0.51100000000E-03 0. -1.
</event>
<event>
 7    1  0.2183582E+004  0.1043930E+01  0.7957747E-01            NaN
         13   -1    0    0    0    0  0.00000000000E+00  0.00000000000E+00  0.74505805969E-08  0.10566000000E+00  0.10566000000E+00 0.  1.
     999900   -1    0    0    0    0 -0.00000000000E+00 -0.00000000000E+00 -0.74505805969E-08  0.93827000000E+00  0.93827000000E+00 0. -1.
     999902    2    1    2    0    0 -0.12302137655E-01 -0.23142603015E-02 -0.63330819560E-02  0.10299012325E+01  0.10298056818E+01 0.  0.
         14    1    1    2    0    0  0.12302137655E-01  0.23142603015E-02  0.63330819560E-02  0.14028767540E-01  0.00000000000E+00 0.  1.
     999901    1    3    3    0    0 -0.28897630018E-01 -0.31678360830E-01 -0.11450538583E+00  0.88845375510E+00  0.88000000000E+00 0. -1.
        -11    1    3    3    0    0  0.24313437476E-01 -0.10923469777E-02  0.10728450863E+00  0.11001165110E+00  0.51100000000E-03 0.  1.
         11    1    3    3    0    0 -0.77179451138E-02  0.30456447506E-01  0.88779524547E-03  0.31435826264E-01  0.51100000000E-03 0. -1.
</event>
<event>
 8    1  0.2183582E+004  0.1043930E+01  0.7957747E-01            NaN
         13   -1    0    0    0    0  0.00000000000E+00  0.00000000000E+00  0.74505805969E-08  0.10566000000E+00  0.10566000000E+00 0.  1.
     999900   -1    0    0    0    0 -0.00000000000E+00 -0.00000000000E+00 -0.74505805969E-08  0.93827000000E+00  0.93827000000E+00 0. -1.
     999902    2    1    2    0    0 -0.39975350934E-03 -0.94413247527E-02  0.10326437535E-01  0.10299323671E+01  0.10298372430E+01 0.  0.
     999903    2    3    3    0    0 -0.10359239254E+00 -0.46873590910E-01 -0.67230267057E-01  0.13972736947E+00  0.45555588606E-01 0.  0.
         14    1    1    2    0    0  0.39975350934E-03  0.94413247527E-02 -0.10326437535E-01  0.13997632947E-01  0.00000000000E+00 0. -1.
     999901    1    3    3    0    0  0.10319263903E+00  0.37432266157E-01  0.77556704592E-01  0.89020499759E+00  0.88000000000E+00 0.  1.
        -11    1    4    4    0    0 -0.81062868272E-01 -0.19819202686E-01 -0.62368218956E-01  0.10418274936E+00  0.51100000000E-03 0.  1.
         11    1    4    4    0    0 -0.22529524265E-01 -0.27054388224E-01 -0.48620481007E-02  0.35544620107E-01  0.51100000000E-03 0. -1.
</event>
<event>
 8    1  0.2183582E+004  0.1043930E+01  0.7957747E-01            NaN
         13   -1    0    0    0    0  0.00000000000E+00  0.00000000000E+00  0.74505805969E-08  0.10566000000E+00  0.10566000000E+00 0. -1.
     999900   -1    0    0    0    0 -0.00000000000E+00 -0.00000000000E+00 -0.74505805969E-08  0.93827000000E+00  0.93827000000E+00 0.  1.
     999902    2    1    2    0    0  0.20413169484E-03 -0.84298082916E-02  0.13934469966E-03  0.10354965692E+01  0.10354622263E+01 0.  0.
     999903    2    3    3    0    0  0.16298542935E-01 -0.13165164470E+00  0.39169859675E-01  0.14590900629E+00  0.46447412813E-01 0.  0.
         14    1    1    2    0    0 -0.20413169484E-03  0.84298082916E-02 -0.13934469966E-03  0.84334307685E-02  0.00000000000E+00 0.  1.
     999901    1    3    3    0    0 -0.16094411240E-01  0.12322183640E+00 -0.39030514975E-01  0.88958756294E+00  0.88000000000E+00 0. -1.
        -11    1    4    4    0    0  0.68902995404E-02 -0.66997966256E-01 -0.42066895126E-02  0.67484524654E-01  0.51100000000E-03 0. -1.
         11    1    4    4    0    0  0.94082433945E-02 -0.64653678439E-01  0.43376549187E-01  0.78424481636E-01  0.51100000000E-03 0.  1.
</event>
<event>
 8    1  0.2183582E+004  0.1043930E+01  0.7957747E-01            NaN
         13   -1    0    0    0    0  0.00000000000E+00  0.00000000000E+00  0.74505805969E-08  0.10566000000E+00  0.10566000000E+00 0.  1.
     999900   -1    0    0    0    0 -0.00000000000E+00 -0.00000000000E+00 -0.74505805969E-08  0.93827000000E+00  0.93827000000E+00 0.  1.
     999902    2    1    2    0    0 -0.68529960906E-02  0.39767885128E-02 -0.11312029583E-01  0.10301191197E+01  0.10300265338E+01 0.  0.
     999903    2    3    3    0    0  0.10859860619E+00 -0.73080408746E-01 -0.66357046466E-02  0.13922700940E+00  0.46965137728E-01 0.  0.
         14    1    1    2    0    0  0.68529960906E-02 -0.39767885128E-02  0.11312029583E-01  0.13810880333E-01  0.00000000000E+00 0.  1.
     999901    1    3    3    0    0 -0.11545160228E+00  0.77057197259E-01 -0.46763249361E-02  0.89089211027E+00  0.88000000000E+00 0.  1.
        -11    1    4    4    0    0  0.62887635285E-01 -0.48310101382E-01  0.18566467659E-01  0.81447500941E-01  0.51100000000E-03 0.  1.
         11    1    4    4    0    0  0.45710970905E-01 -0.24770307364E-01 -0.25202172305E-01  0.57779508461E-01  0.51100000000E-03 0. -1.
</event>
<event>
 8    1  0.2183582E+004  0.1043930E+01  0.7957747E-01            NaN
         13   -1    0    0    0    0  0.00000000000E+00  0.00000000000E+00  0.74505805969E-08  0.10566000000E+00  0.10566000000E+00 0. -1.
     999900   -1    0    0    0    0 -0.00000000000E+00 -0.00000000000E+00 -0.74505805969E-08  0.93827000000E+00  0.93827000000E+00 0. -1.
     999902    2    1    2    0    0  0.87594669613E-02  0.13289318980E-01  0.20515997603E-02  0.10278818437E+01  0.10277565574E+01 0.  0.
     999903    2    3    3    0    0  0.72773147653E-01  0.77645552583E-01 -0.78193965405E-01  0.13958075346E+00  0.45207606168E-01 0.  0.
         14    1    1    2    0    0 -0.87594669613E-02 -0.13289318980E-01 -0.20515997603E-02  0.16048156342E-01  0.00000000000E+00 0.  1.
     999901    1    3    3    0    0 -0.64013680691E-01 -0.64356233603E-01  0.80245565165E-01  0.88830109020E+00  0.88000000000E+00 0.  1.
        -11    1    4    4    0    0  0.56569928419E-01  0.29352971078E-01 -0.34526657054E-01  0.72485204564E-01  0.51100000000E-03 0.  1.
         11    1    4    4    0    0  0.16203219234E-01  0.48292581505E-01 -0.43667308351E-01  0.67095548895E-01  0.51100000000E-03 0. -1.
</event>
<event>
 8    1  0.2183582E+004  0.1043930E+01  0.7957747E-01            NaN
         13   -1    0    0    0    0  0.00000000000E+00  0.00000000000E+00  0.74505805969E-08  0.10566000000E+00  0.10566000000E+00 0.  1.
     999900   -1    0    0    0    0 -0.00000000000E+00 -0.00000000000E+00 -0.74505805969E-08  0.93827000000E+00  0.93827000000E+00 0. -1.
     999902    2    1    2    0    0  0.13765512302E-01 -0.99886699164E-03 -0.51839681385E-03  0.10301185627E+01  0.10300259693E+01 0.  0.
     999903    2    3    3    0    0 -0.54789407516E-01 -0.10414381603E+00 -0.59116418798E-01  0.13951630262E+00  0.46067712462E-01 0.  0.
         14    1    1    2    0    0 -0.13765512302E-01  0.99886699164E-03  0.51839681385E-03  0.13811437269E-01  0.00000000000E+00 0. -1.
     999901    1    3    3    0    0  0.68554919818E-01  0.10314494903E+00  0.58598021984E-01  0.89060226012E+00  0.88000000000E+00 0.  1.
        -11    1    4    4    0    0 -0.12509854938E-01 -0.72466505708E-01 -0.34375221118E-01  0.81177631574E-01  0.51100000000E-03 0. -1.
         11    1    4    4    0    0 -0.42279552578E-01 -0.31677310318E-01 -0.24741197680E-01  0.58338671041E-01  0.51100000000E-03 0.  1.
</event>
<event>
 8    1  0.2183582E+004  0.1043930E+01  0.7957747E-01            NaN
         13   -1    0    0    0    0  0.00000000000E+00  0.00000000000E+00  0.74505805969E-08  0.10566000000E+00  0.10566000000E+00 0. -1.
     999900   -1    0    0    0    0 -0.00000000000E+00 -0.00000000000E+00 -0.74505805969E-08  0.93827000000E+00  0.93827000000E+00 0. -1.
     999902    2    1    2    0    0 -0.23492809870E-02  0.71981308769E-02  0.11444720593E-01  0.10302072511E+01  0.10301158509E+01 0.  0.
     999903    2    3    3    0    0 -0.29914199605E-01 -0.82489595063E-01 -0.97360633631E-01  0.13855579559E+00  0.44935763909E-01 0.  0.
         14    1    1    2    0    0  0.23492809870E-02 -0.71981308769E-02 -0.11444720593E-01  0.13722748949E-01  0.00000000000E+00 0.  1.
     999901    1    3    3    0    0  0.27564918618E-01  0.89687725940E-01  0.10880535422E+00  0.89165145546E+00  0.88000000000E+00 0.  1.
        -11    1    4    4    0    0 -0.20119809230E-01 -0.50330634782E-01 -0.88509315259E-01  0.10378891814E+00  0.51100000000E-03 0.  1.
         11    1    4    4    0    0 -0.97943903757E-02 -0.32158960281E-01 -0.88513183717E-02  0.34766877442E-01  0.51100000000E-03 0. -1.
</event>
<event>
 8    1  0.2183582E+004  0.1043930E+01  0.7957747E-01            NaN
         13   -1    0    0    0    0  0.00000000000E+00  0.00000000000E+00  0.74505805969E-08  0.10566000000E+00  0.10566000000E+00 0.  1.
     999900   -1    0    0    0    0 -0.00000000000E+00 -0.00000000000E+00 -0.74505805969E-08  0.93827000000E+00  0.93827000000E+00 0.  1.
     999902    2    1    2    0    0 -0.65220267095E-02 -0.10253086375E-01  0.89856102779E-02  0.10288169657E+01  0.10287059566E+01 0.  0.
     999903    2    3    3    0    0 -0.90155784361E-01  0.38093691438E-01 -0.88556252142E-01  0.13817313610E+00  0.40870661421E-01 0.  0.
         14    1    1    2    0    0  0.65220267095E-02  0.10253086375E-01 -0.89856102779E-02  0.15113034265E-01  0.00000000000E+00 0. -1.
     999901    1    3    3    0    0  0.83633757651E-01 -0.48346777814E-01  0.97541862420E-01  0.89064382964E+00  0.88000000000E+00 0. -1.
        -11    1    4    4    0    0 -0.42470554894E-01  0.96079128841E-02 -0.15125255452E-01  0.46098747233E-01  0.51100000000E-03 0.  1.
         11    1    4    4    0    0 -0.47685229467E-01  0.28485778554E-01 -0.73430996691E-01  0.92074388866E-01  0.51100000000E-03 0. -1.
</event>
<event>
 8    1  0.3334004E+004  0.1043930E+01  0.7957747E-01            NaN
         13   -1    0    0    0    0  0.00000000000E+00  0.00000000000E+00  0.74505805969E-08  0.10566000000E+00  0.10566000000E+00 0.  1.
     999900   -1    0    0    0    0 -0.00000000000E+00 -0.00000000000E+00 -0.74505805969E-08  0.93827000000E+00  0.93827000000E+00 0.  1.
     999902    2    1    2    0    0  0.34906765180E-02  0.12539674705E-01 -0.42232243735E-02  0.10302455604E+01  0.10301546732E+01 0.  0.
     999903    2    3    3    0    0  0.76793391813E-01  0.48131035904E-01  0.97784199807E-01  0.14061330619E+00  0.44682552557E-01 0.  0.
         14    1    1    2    0    0 -0.34906765180E-02 -0.12539674705E-01  0.42232243735E-02  0.13684439644E-01  0.00000000000E+00 0.  1.
     999901    1    3    3    0    0 -0.73302715295E-01 -0.35591361198E-01 -0.10200742418E+00  0.88963225416E+00  0.88000000000E+00 0.  1.
        -11    1    4    4    0    0  0.60269447300E-01  0.12624429321E-01  0.54424623796E-01  0.82183229979E-01  0.51100000000E-03 0. -1.
         11    1    4    4    0    0  0.16523944512E-01  0.35506606583E-01  0.43359576011E-01  0.58430076212E-01  0.51100000000E-03 0.  1.
</event>
<event>
 8    1  0.2183582E+004  0.1043930E+01  0.7957747E-01            NaN
         13   -1    0    0    0    0  0.00000000000E+00  0.00000000000E+00  0.74505805969E-08  0.10566000000E+00  0.10566000000E+00 0.  1.
     999900   -1    0    0    0    0 -0.00000000000E+00 -0.00000000000E+00 -0.74505805969E-08  0.93827000000E+00  0.93827000000E+00 0.  1.
     999902    2    1    2    0    0 -0.37222221145E-02  0.35012740555E-03 -0.14475525195E-01  0.10289794697E+01  0.10288708523E+01 0.  0.
     999903    2    3    3    0    0  0.11790369009E+00 -0.50409812891E-01  0.25690223557E-01  0.13825913119E+00  0.44868367446E-01 0.  0.
         14    1    1    2    0    0  0.37222221145E-02 -0.35012740555E-03  0.14475525195E-01  0.14950530303E-01  0.00000000000E+00 0.  1.
     999901    1    3    3    0    0 -0.12162591221E+00  0.50759940296E-01 -0.40165748751E-01  0.89072033851E+00  0.88000000000E+00 0. -1.
        -11    1    4    4    0    0  0.37755449557E-01 -0.32156022906E-01 -0.64166470766E-02  0.50009181768E-01  0.51100000000E-03 0.  1.
         11    1    4    4    0    0  0.80148240537E-01 -0.18253789985E-01  0.32106870633E-01  0.88249949421E-01  0.51100000000E-03 0. -1.
</event>
<event>
 8    1  0.2183582E+004  0.1043930E+01  0.7957747E-01            NaN
         13   -1    0    0    0    0  0.00000000000E+00  0.00000000000E+00  0.74505805969E-08  0.10566000000E+00  0.10566000000E+00 0.  1.
     999900   -1    0    0    0    0 -0.00000000000E+00 -0.00000000000E+00 -0.74505805969E-08  0.93827000000E+00  0.93827000000E+00 0.  1.
     999902    2    1    2    0    0  0.77166942770E-02  0.93335988724E-02 -0.63123602956E-02  0.10302731581E+01  0.10301826396E+01 0.  0.
     999903    2    3    3    0    0 -0.50545289630E-01  0.12488654378E-01  0.12101273314E+00  0.13919735179E+00  0.44955849144E-01 0.  0.
         14    1    1    2    0    0 -0.77166942770E-02 -0.93335988724E-02  0.63123602956E-02  0.13656841911E-01  0.00000000000E+00 0.  1.
     999901    1    3    3    0    0  0.58261983907E-01 -0.31550555058E-02 -0.12732509344E+00  0.89107580629E+00  0.88000000000E+00 0.  1.
        -11    1    4    4    0    0 -0.70112341772E-02  0.17826181067E-01  0.14573328948E-01  0.24074326029E-01  0.51100000000E-03 0.  1.
         11    1    4    4    0    0 -0.43534055452E-01 -0.53375266889E-02  0.10643940419E+00  0.11512302577E+00  0.51100000000E-03 0. -1.
</event>
<event>
 8    1  0.2183582E+004  0.1043930E+01  0.7957747E-01            NaN
         13   -1    0    0    0    0  0.00000000000E+00  0.00000000000E+00  0.74505805969E-08  0.10566000000E+00  0.10566000000E+00 0.  1.
     999900   -1    0    0    0    0 -0.00000000000E+00 -0.00000000000E+00 -0.74505805969E-08  0.93827000000E+00  0.93827000000E+00 0. -1.
     999902    2    1    2    0    0  0.11981821517E-01 -0.68142426147E-02  0.15318130098E-02  0.10300611716E+01  0.10299678019E+01 0.  0.
     999903    2    3    3    0    0 -0.91716276064E-01 -0.58218758161E-01 -0.74951075169E-01  0.13919341947E+00  0.44224939309E-01 0.  0.
         14    1    1    2    0    0 -0.11981821517E-01  0.68142426147E-02 -0.15318130098E-02  0.13868828371E-01  0.00000000000E+00 0. -1.
     999901    1    3    3    0    0  0.10369809758E+00  0.51404515546E-01  0.76482888179E-01  0.89086775216E+00  0.88000000000E+00 0. -1.
        -11    1    4    4    0    0 -0.86302401374E-01 -0.53796714670E-01 -0.50092018779E-01  0.11336517304E+00  0.51100000000E-03 0.  1.
         11    1    4    4    0    0 -0.54138746899E-02 -0.44220434901E-02 -0.24859056390E-01  0.25828246425E-01  0.51100000000E-03 0. -1.
</event>
<event>
 8    1  0.2183582E+004  0.1043930E+01  0.7957747E-01            NaN
         13   -1    0    0    0    0  0.00000000000E+00  0.00000000000E+00  0.74505805969E-08  0.10566000000E+00  0.10566000000E+00 0.  1.
     999900   -1    0    0    0    0 -0.00000000000E+00 -0.00000000000E+00 -0.74505805969E-08  0.93827000000E+00  0.93827000000E+00 0.  1.
     999902    2    1    2    0    0  0.12686210846E-02 -0.13210815747E-01 -0.55192951968E-04  0.10306582971E+01  0.10305728442E+01 0.  0.
     999903    2    3    3    0    0  0.93333152829E-01  0.53972030458E-01  0.79893525161E-01  0.13971429752E+00  0.38897970116E-01 0.  0.
         14    1    1    2    0    0 -0.12686210846E-02  0.13210815747E-01  0.55192951968E-04  0.13271702921E-01  0.00000000000E+00 0.  1.
     999901    1    3    3    0    0 -0.92064531744E-01 -0.67182846205E-01 -0.79948718113E-01  0.89094399956E+00  0.88000000000E+00 0.  1.
        -11    1    4    4    0    0  0.24398747525E-01  0.29625941944E-02  0.35410412422E-01  0.43107241550E-01  0.51100000000E-03 0.  1.
         11    1    4    4    0    0  0.68934405304E-01  0.51009436264E-01  0.44483112739E-01  0.96607055966E-01  0.51100000000E-03 0. -1.
</event>
<event>
 8    1  0.2183582E+004  0.1043930E+01  0.7957747E-01            NaN
         13   -1    0    0    0    0  0.00000000000E+00  0.00000000000E+00  0.74505805969E-08  0.10566000000E+00  0.10566000000E+00 0.  1.
     999900   -1    0    0    0    0 -0.00000000000E+00 -0.00000000000E+00 -0.74505805969E-08  0.93827000000E+00  0.93827000000E+00 0. -1.
     999902    2    1    2    0    0 -0.11186036608E-01 -0.11933377765E-03  0.84404343215E-02  0.10299163428E+01  0.10298209993E+01 0.  0.
     999903    2    3    3    0    0 -0.55896285719E-01  0.43750761735E-01 -0.11139567055E+00  0.13958815408E+00  0.45136830120E-01 0.  0.
         14    1    1    2    0    0  0.11186036608E-01  0.11933377765E-03 -0.84404343215E-02  0.14013657163E-01  0.00000000000E+00 0. -1.
     999901    1    3    3    0    0  0.44710249111E-01 -0.43870095513E-01  0.11983610487E+00  0.89032818875E+00  0.88000000000E+00 0.  1.
        -11    1    4    4    0    0 -0.19893845727E-01  0.10752148965E-01 -0.75935521661E-01  0.79232811234E-01  0.51100000000E-03 0. -1.
         11    1    4    4    0    0 -0.36002439992E-01  0.32998612770E-01 -0.35460148892E-01  0.60355342850E-01  0.51100000000E-03 0.  1.
</event>
<event>
 8    1  0.2183582E+004  0.1043930E+01  0.7957747E-01            NaN
         13   -1    0    0    0    0  0.00000000000E+00  0.00000000000E+00  0.74505805969E-08  0.10566000000E+00  0.10566000000E+00 0.  1.
     999900   -1    0    0    0    0 -0.00000000000E+00 -0.00000000000E+00 -0.74505805969E-08  0.93827000000E+00  0.93827000000E+00 0. -1.
     999902    2    1    2    0    0 -0.10528794519E-01  0.62058332679E-02  0.62840628755E-02  0.10301874629E+01  0.10300957972E+01 0.  0.
     999903    2    3    3    0    0  0.94776616864E-01  0.10158214135E-01 -0.89910279011E-01  0.13869534154E+00  0.45461446020E-01 0.  0.
         14    1    1    2    0    0  0.10528794519E-01 -0.62058332679E-02 -0.62840628755E-02  0.13742537131E-01  0.00000000000E+00 0. -1.
     999901    1    3    3    0    0 -0.10530541138E+00 -0.39523808669E-02  0.96194341887E-01  0.89149212133E+00  0.88000000000E+00 0.  1.
        -11    1    4    4    0    0  0.72156241552E-01  0.22785029228E-01 -0.82055173661E-01  0.11161986112E+00  0.51100000000E-03 0. -1.
         11    1    4    4    0    0  0.22620375312E-01 -0.12626815093E-01 -0.78551053500E-02  0.27075480415E-01  0.51100000000E-03 0.  1.
</event>
<event>
 8    1  0.2183582E+004  0.1043930E+01  0.7957747E-01            NaN
         13   -1    0    0    0    0  0.00000000000E+00  0.00000000000E+00  0.74505805969E-08  0.10566000000E+00  0.10566000000E+00 0. -1.
     999900   -1    0    0    0    0 -0.00000000000E+00 -0.00000000000E+00 -0.74505805969E-08  0.93827000000E+00  0.93827000000E+00 0.  1.
     999902    2    1    2    0    0 -0.99338301225E-02 -0.93753185594E-02  0.85895154555E-04  0.10302703896E+01  0.10301798341E+01 0.  0.
     999903    2    3    3    0    0  0.75714854785E-01 -0.10611185234E+00  0.25338061647E-01  0.14047753385E+00  0.45819817832E-01 0.  0.
         14    1    1    2    0    0  0.99338301225E-02  0.93753185594E-02 -0.85895154555E-04  0.13659610425E-01  0.00000000000E+00 0.  1.
     999901    1    3    3    0    0 -0.85648684908E-01  0.96736533776E-01 -0.25252166493E-01  0.88979285573E+00  0.88000000000E+00 0. -1.
        -11    1    4    4    0    0  0.76255636850E-02 -0.27083226214E-01 -0.10707214961E-01  0.30109067353E-01  0.51100000000E-03 0. -1.
         11    1    4    4    0    0  0.68089291100E-01 -0.79028626122E-01  0.36045276608E-01  0.11036846649E+00  0.51100000000E-03 0.  1.
</event>
<event>
 8    1  0.2183582E+004  0.1043930E+01  0.7957747E-01            NaN
         13   -1    0    0    0    0  0.00000000000E+00  0.00000000000E+00  0.74505805969E-08  0.10566000000E+00  0.10566000000E+00 0.  1.
     999900   -1    0    0    0    0 -0.00000000000E+00 -0.00000000000E+00 -0.74505805969E-08  0.93827000000E+00  0.93827000000E+00 0. -1.
     999902    2    1    2    0    0 -0.70869243334E-03 -0.24097229593E-02  0.13334461517E-01  0.10303610327E+01  0.10302716830E+01 0.  0.
     999903    2    3    3    0    0  0.12439885253E+00  0.17641306877E-01  0.40914613760E-01  0.14085858391E+00  0.48793901489E-01 0.  0.
         14    1    1    2    0    0  0.70869243334E-03  0.24097229593E-02 -0.13334461517E-01  0.13568967302E-01  0.00000000000E+00 0. -1.
     999901    1    3    3    0    0 -0.12510754496E+00 -0.20051029836E-01 -0.27580152243E-01  0.88950244879E+00  0.88000000000E+00 0. -1.
        -11    1    4    4    0    0  0.54131742197E-01 -0.10524791060E-01  0.34122460753E-01  0.64850753187E-01  0.51100000000E-03 0.  1.
         11    1    4    4    0    0  0.70267110333E-01  0.28166097936E-01  0.67921530071E-02  0.76007830721E-01  0.51100000000E-03 0. -1.
</event>
<event>
 8    1  0.2183582E+004  0.1043930E+01  0.7957747E-01            NaN
         13   -1    0    0    0    0  0.00000000000E+00  0.00000000000E+00  0.74505805969E-08  0.10566000000E+00  0.10566000000E+00 0.  1.
     999900   -1    0    0    0    0 -0.00000000000E+00 -0.00000000000E+00 -0.74505805969E-08  0.93827000000E+00  0.93827000000E+00 0.  1.
     999902    2    1    2    0    0  0.42758401036E-02  0.49877345339E-02 -0.12179997411E-01  0.10300911908E+01  0.10299982275E+01 0.  0.
     999903    2    3    3    0    0  0.83341900722E-01  0.69759369566E-01 -0.78569747983E-01  0.14169127764E+00  0.45727134202E-01 0.  0.
         14    1    1    2    0    0 -0.42758401036E-02 -0.49877345339E-02  0.12179997411E-01  0.13838809245E-01  0.00000000000E+00 0.  1.
     999901    1    3    3    0    0 -0.79066060619E-01 -0.64771635032E-01  0.66389750572E-01  0.88839991312E+00  0.88000000000E+00 0. -1.
        -11    1    4    4    0    0  0.19578587949E-01  0.31939104592E-01 -0.59920285476E-02  0.37941969313E-01  0.51100000000E-03 0.  1.
         11    1    4    4    0    0  0.63763312773E-01  0.37820264974E-01 -0.72577719435E-01  0.10374930832E+00  0.51100000000E-03 0. -1.
</event>
<event>
 8    1  0.2183582E+004  0.1043930E+01  0.7957747E-01            NaN
         13   -1    0    0    0    0  0.00000000000E+00  0.00000000000E+00  0.74505805969E-08  0.10566000000E+00  0.10566000000E+00 0.  1.
     999900   -1    0    0    0    0 -0.00000000000E+00 -0.00000000000E+00 -0.74505805969E-08  0.93827000000E+00  0.93827000000E+00 0.  1.
     999902    2    1    2    0    0 -0.67414030567E-02  0.34370035749E-02  0.11579734172E-01  0.10300970772E+01  0.10300041936E+01 0.  0.
     999903    2    3    3    0    0 -0.55743882942E-01 -0.12279212072E+00 -0.25785282717E-02  0.13962782383E+00  0.36110870740E-01 0.  0.
         14    1    1    2    0    0  0.67414030567E-02 -0.34370035749E-02 -0.11579734172E-01  0.13832922766E-01  0.00000000000E+00 0. -1.
     999901    1    3    3    0    0  0.49002479885E-01  0.12622912429E+00  0.14158262444E-01  0.89046925340E+00  0.88000000000E+00 0. -1.
        -11    1    4    4    0    0 -0.38474754695E-01 -0.46694730004E-01  0.74069010325E-02  0.60957590691E-01  0.51100000000E-03 0. -1.
         11    1    4    4    0    0 -0.17269128247E-01 -0.76097390712E-01 -0.99854293042E-02  0.78670233144E-01  0.51100000000E-03 0.  1.
</event>
<event>
 8    1  0.2183582E+004  0.1043930E+01  0.7957747E-01            NaN
         13   -1    0    0    0    0  0.00000000000E+00  0.00000000000E+00  0.74505805969E-08  0.10566000000E+00  0.10566000000E+00 0. -1.
     999900   -1    0    0    0    0 -0.00000000000E+00 -0.00000000000E+00 -0.74505805969E-08  0.93827000000E+00  0.93827000000E+00 0. -1.
     999902    2    1    2    0    0  0.12163904891E-01 -0.23998075594E-02  0.10370037945E-01  0.10277665429E+01  0.10276394355E+01 0.  0.
     999903    2    3    3    0    0  0.51247737481E-01 -0.12057820555E+00  0.96311058668E-02  0.13900660583E+00  0.45438353980E-01 0.  0.
         14    1    1    2    0    0 -0.12163904891E-01  0.23998075594E-02 -0.10370037945E-01  0.16163457102E-01  0.00000000000E+00 0.  1.
     999901    1    3    3    0    0 -0.39083832590E-01  0.11817839799E+00  0.73893207834E-03  0.88875993707E+00  0.88000000000E+00 0. -1.
        -11    1    4    4    0    0  0.12257966451E-01 -0.43239216668E-01  0.24402454737E-01  0.51143215755E-01  0.51100000000E-03 0.  1.
         11    1    4    4    0    0  0.38989771030E-01 -0.77338988883E-01 -0.14771348870E-01  0.87863390071E-01  0.51100000000E-03 0. -1.
</event>
<event>
 8    1  0.2183582E+004  0.1043930E+01  0.7957747E-01            NaN
         13   -1    0    0    0    0  0.00000000000E+00  0.00000000000E+00  0.74505805969E-08  0.10566000000E+00  0.10566000000E+00 0.  1.
     999900   -1    0    0    0    0 -0.00000000000E+00 -0.00000000000E+00 -0.74505805969E-08  0.93827000000E+00  0.93827000000E+00 0.  1.
     999902    2    1    2    0    0 -0.14778666510E-01 -0.55876457666E-02 -0.10653604995E-02  0.10280944147E+01  0.10279724509E+01 0.  0.
     999903    2    3    3    0    0 -0.15516377552E-01  0.19559059713E-01  0.12846325350E+00  0.13825703469E+00  0.44596920880E-01 0.  0.
         14    1    1    2    0    0  0.14778666510E-01  0.55876457666E-02  0.10653604995E-02  0.15835585307E-01  0.00000000000E+00 0.  1.
     999901    1    3    3    0    0  0.73771104158E-03 -0.25146705479E-01 -0.12952861400E+00  0.88983738001E+00  0.88000000000E+00 0.  1.
        -11    1    4    4    0    0 -0.51608228278E-02  0.33342479957E-01  0.89370131724E-01  0.95528198074E-01  0.51100000000E-03 0. -1.
         11    1    4    4    0    0 -0.10355554724E-01 -0.13783420244E-01  0.39093121773E-01  0.42728836612E-01  0.51100000000E-03 0.  1.
</event>
<event>
 8    1  0.2183582E+004  0.1043930E+01  0.7957747E-01            NaN
         13   -1    0    0    0    0  0.00000000000E+00  0.00000000000E+00  0.74505805969E-08  0.10566000000E+00  0.10566000000E+00 0.  1.
     999900   -1    0    0    0    0 -0.00000000000E+00 -0.00000000000E+00 -0.74505805969E-08  0.93827000000E+00  0.93827000000E+00 0.  1.
     999902    2    1    2    0    0  0.96924568453E-02  0.73116982260E-02  0.66423609805E-02  0.10300907222E+01  0.10299977526E+01 0.  0.
     999903    2    3    3    0    0  0.46759942925E-02 -0.89946528238E-01 -0.95370576747E-01  0.13886069186E+00  0.45546700986E-01 0.  0.
         14    1    1    2    0    0 -0.96924568453E-02 -0.73116982260E-02 -0.66423609805E-02  0.13839277801E-01  0.00000000000E+00 0.  1.
     999901    1    3    3    0    0  0.50164625528E-02  0.97258226464E-01  0.10201293773E+00  0.89123003034E+00  0.88000000000E+00 0. -1.
        -11    1    4    4    0    0 -0.10244467743E-01 -0.52438677235E-01 -0.28008979348E-01  0.60328501015E-01  0.51100000000E-03 0.  1.
         11    1    4    4    0    0  0.14920462036E-01 -0.37507851002E-01 -0.67361597399E-01  0.78532190847E-01  0.51100000000E-03 0. -1.
</event>
<event>
 7    1  0.2183582E+004  0.1043930E+01  0.7957747E-01            NaN
         13   -1    0    0    0    0  0.00000000000E+00  0.00000000000E+00  0.74505805969E-08  0.10566000000E+00  0.10566000000E+00 0.  1.
     999900   -1    0    0    0    0 -0.00000000000E+00 -0.00000000000E+00 -0.74505805969E-08  0.93827000000E+00  0.93827000000E+00 0.  1.
     999902    2    1    2    0    0 -0.58206847066E-02 -0.13636276246E-01  0.37557507316E-02  0.10286350968E+01  0.10285213796E+01 0.  0.
         14    1    1    2    0    0  0.58206847066E-02  0.13636276246E-01 -0.37557507316E-02  0.15294903199E-01  0.00000000000E+00 0. -1.
     999901    1    3    3    0    0  0.11694309124E+00 -0.56371757951E-01 -0.37739269682E-01  0.89032449936E+00  0.88000000000E+00 0.  1.
        -11    1    3    3    0    0  0.26262169277E-03 -0.10440954317E-02  0.10967784506E-02  0.16196139644E-02  0.51100000000E-03 0.  1.
         11    1    3    3    0    0 -0.12302639764E+00  0.43779577137E-01  0.40398241963E-01  0.13669098348E+00  0.51100000000E-03 0. -1.
</event>
<event>
 8    1  0.2183582E+004  0.1043930E+01  0.7957747E-01            NaN
         13   -1    0    0    0    0  0.00000000000E+00  0.00000000000E+00  0.74505805969E-08  0.10566000000E+00  0.10566000000E+00 0. -1.
     999900   -1    0    0    0    0 -0.00000000000E+00 -0.00000000000E+00 -0.74505805969E-08  0.93827000000E+00  0.93827000000E+00 0. -1.
     999902    2    1    2    0    0  0.51855076480E-02  0.13335096751E-02 -0.11240083830E-01  0.10314798104E+01  0.10314046693E+01 0.  0.
     999903    2    3    3    0    0  0.96301297239E-01 -0.89377772297E-01  0.26328650274E-01  0.14134384683E+00  0.44972871597E-01 0.  0.
         14    1    1    2    0    0 -0.51855076480E-02 -0.13335096751E-02  0.11240083830E-01  0.12450189642E-01  0.00000000000E+00 0. -1.
     999901    1    3    3    0    0 -0.91115789591E-01  0.90711281972E-01 -0.37568734104E-01  0.89013596353E+00  0.88000000000E+00 0. -1.
        -11    1    4    4    0    0  0.94646536759E-03 -0.25561900720E-02  0.11154114998E-01  0.11493707269E-01  0.51100000000E-03 0.  1.
         11    1    4    4    0    0  0.95354831872E-01 -0.86821582225E-01  0.15174535275E-01  0.12985013956E+00  0.51100000000E-03 0. -1.
</event>
<event>
 8    1  0.2826188E+004  0.1043930E+01  0.7957747E-01            NaN
         13   -1    0    0    0    0  0.00000000000E+00  0.00000000000E+00  0.74505805969E-08  0.10566000000E+00  0.10566000000E+00 0.  1.
     999900   -1    0    0    0    0 -0.00000000000E+00 -0.00000000000E+00 -0.74505805969E-08  0.93827000000E+00  0.93827000000E+00 0. -1.
     999902    2    1    2    0    0  0.44316969279E-02 -0.22603013336E-01 -0.24147353710E-02  0.10207703995E+01  0.10205076390E+01 0.  0.
     999903    2    3    3    0    0  0.55021723210E-01  0.50381610418E-01 -0.97944218422E-01  0.13115700693E+00  0.45203914115E-01 0.  0.
         14    1    1    2    0    0 -0.44316969279E-02  0.22603013336E-01  0.24147353710E-02  0.23159600524E-01  0.00000000000E+00 0. -1.
     999901    1    3    3    0    0 -0.50590026282E-01 -0.72984623754E-01  0.95529483051E-01  0.88961339255E+00  0.88000000000E+00 0.  1.
        -11    1    4    4    0    0  0.45345710979E-01  0.25424746370E-01 -0.34771855000E-01  0.62545937145E-01  0.51100000000E-03 0.  1.
         11    1    4    4    0    0  0.96760122312E-02  0.24956864048E-01 -0.63172363422E-01  0.68611069786E-01  0.51100000000E-03 0. -1.
</event>
<event>
 8    1  0.2183582E+004  0.1043930E+01  0.7957747E-01            NaN
         13   -1    0    0    0    0  0.00000000000E+00  0.00000000000E+00  0.74505805969E-08  0.10566000000E+00  0.10566000000E+00 0.  1.
     999900   -1    0    0    0    0 -0.00000000000E+00 -0.00000000000E+00 -0.74505805969E-08  0.93827000000E+00  0.93827000000E+00 0.  1.
     999902    2    1    2    0    0  0.19593160973E-02  0.24284182530E-02 -0.84668929274E-02  0.10349064524E+01  0.10348671127E+01 0.  0.
     999903    2    3    3    0    0  0.88240301962E-01  0.92720508107E-02  0.10324641194E+00  0.14363146327E+00  0.45802334500E-01 0.  0.
         14    1    1    2    0    0 -0.19593160973E-02 -0.24284182530E-02  0.84668929274E-02  0.90235475632E-02  0.00000000000E+00 0.  1.
     999901    1    3    3    0    0 -0.86280985865E-01 -0.68436325576E-02 -0.11171330487E+00  0.89127498917E+00  0.88000000000E+00 0.  1.
        -11    1    4    4    0    0  0.58656095650E-01 -0.70322706693E-02  0.38250840695E-01  0.70380240995E-01  0.51100000000E-03 0.  1.
         11    1    4    4    0    0  0.29584206312E-01  0.16304321480E-01  0.64995571248E-01  0.73251222276E-01  0.51100000000E-03 0. -1.
</event>
<event>
 8    1  0.2183582E+004  0.1043930E+01  0.7957747E-01            NaN
         13   -1    0    0    0    0  0.00000000000E+00  0.00000000000E+00  0.74505805969E-08  0.10566000000E+00  0.10566000000E+00 0. -1.
     999900   -1    0    0    0    0 -0.00000000000E+00 -0.00000000000E+00 -0.74505805969E-08  0.93827000000E+00  0.93827000000E+00 0.  1.
     999902    2    1    2    0    0 -0.39533198599E-02 -0.16404613441E-01  0.15433667138E-01  0.10210621588E+01  0.10208060511E+01 0.  0.
     999903    2    3    3    0    0  0.69667234321E-01 -0.83887104908E-01  0.63781985081E-01  0.13409461007E+00  0.44973913772E-01 0.  0.
         14    1    1    2    0    0  0.39533198599E-02  0.16404613441E-01 -0.15433667138E-01  0.22867841205E-01  0.00000000000E+00 0.  1.
     999901    1    3    3    0    0 -0.73620554181E-01  0.67482491467E-01 -0.48348317943E-01  0.88696754873E+00  0.88000000000E+00 0.  1.
        -11    1    4    4    0    0  0.35372494571E-01 -0.14992083784E-01  0.34859427049E-01  0.51878865866E-01  0.51100000000E-03 0.  1.
         11    1    4    4    0    0  0.34294739750E-01 -0.68895021123E-01  0.28922558031E-01  0.82215744199E-01  0.51100000000E-03 0. -1.
</event>
<event>
 8    1  0.2183582E+004  0.1043930E+01  0.7957747E-01            NaN
         13   -1    0    0    0    0  0.00000000000E+00  0.00000000000E+00  0.74505805969E-08  0.10566000000E+00  0.10566000000E+00 0. -1.
     999900   -1    0    0    0    0 -0.00000000000E+00 -0.00000000000E+00 -0.74505805969E-08  0.93827000000E+00  0.93827000000E+00 0. -1.
     999902    2    1    2    0    0  0.14690196483E-01  0.20735002527E-03  0.20893029630E-02  0.10290905238E+01  0.10289835257E+01 0.  0.
     999903    2    3    3    0    0 -0.92348741493E-01  0.24472759093E-01 -0.88633921215E-01  0.13764403202E+00  0.44302387831E-01 0.  0.
         14    1    1    2    0    0 -0.14690196483E-01 -0.20735002527E-03 -0.20893029630E-02  0.14839476190E-01  0.00000000000E+00 0. -1.
     999901    1    3    3    0    0  0.10703893798E+00 -0.24265409068E-01  0.90723224178E-01  0.89144649179E+00  0.88000000000E+00 0.  1.
        -11    1    4    4    0    0 -0.16999983582E-01  0.67738971044E-02 -0.45478693739E-01  0.49025073472E-01  0.51100000000E-03 0.  1.
         11    1    4    4    0    0 -0.75348757910E-01  0.17698861989E-01 -0.43155227476E-01  0.88618958547E-01  0.51100000000E-03 0. -1.
</event>
<event>
 8    1  0.2183582E+004  0.1043930E+01  0.7957747E-01            NaN
         13   -1    0    0    0    0  0.00000000000E+00  0.00000000000E+00  0.74505805969E-08  0.10566000000E+00  0.10566000000E+00 0.  1.
     999900   -1    0    0    0    0 -0.00000000000E+00 -0.00000000000E+00 -0.74505805969E-08  0.93827000000E+00  0.93827000000E+00 0.  1.
     999902    2    1    2    0    0 -0.86517600011E-02 -0.96973526688E-02 -0.28039260321E-02  0.10306351288E+01  0.10305493754E+01 0.  0.
     999903    2    3    3    0    0  0.21267415536E-01 -0.98980181885E-01 -0.88902735881E-01  0.14143347238E+00  0.43015709849E-01 0.  0.
         14    1    1    2    0    0  0.86517600011E-02  0.96973526688E-02  0.28039260321E-02  0.13294871233E-01  0.00000000000E+00 0.  1.
     999901    1    3    3    0    0 -0.29919175537E-01  0.89282829216E-01  0.86098809849E-01  0.88920165638E+00  0.88000000000E+00 0. -1.
        -11    1    4    4    0    0 -0.12134490716E-01 -0.37934266560E-01 -0.25512061958E-01  0.47300960569E-01  0.51100000000E-03 0.  1.
         11    1    4    4    0    0  0.33401906252E-01 -0.61045915325E-01 -0.63390673924E-01  0.94132511815E-01  0.51100000000E-03 0. -1.
</event>
<event>
 8    1  0.2183582E+004  0.1043930E+01  0.7957747E-01            NaN
         13   -1    0    0    0    0  0.00000000000E+00  0.00000000000E+00  0.74505805969E-08  0.10566000000E+00  0.10566000000E+00 0.  1.
     999900   -1    0    0    0    0 -0.00000000000E+00 -0.00000000000E+00 -0.74505805969E-08  0.93827000000E+00  0.93827000000E+00 0. -1.
     999902    2    1    2    0    0  0.68849098759E-02  0.12107087279E-01 -0.17624618490E-02  0.10298911319E+01  0.10297954426E+01 0.  0.
     999903    2    3    3    0    0  0.80919114859E-01  0.65618514362E-01 -0.84389845019E-01  0.14131259242E+00  0.44653222251E-01 0.  0.
         14    1    1    2    0    0 -0.68849098759E-02 -0.12107087279E-01  0.17624618490E-02  0.14038868122E-01  0.00000000000E+00 0. -1.
     999901    1    3    3    0    0 -0.74034204983E-01 -0.53511427083E-01  0.82627383170E-01  0.88857853946E+00  0.88000000000E+00 0. -1.
        -11    1    4    4    0    0  0.70681814508E-02  0.17066770156E-01 -0.36204948300E-01  0.40648409993E-01  0.51100000000E-03 0. -1.
         11    1    4    4    0    0  0.73850933408E-01  0.48551744206E-01 -0.48184896719E-01  0.10066418243E+00  0.51100000000E-03 0.  1.
</event>
<event>
 8    1  0.2183582E+004  0.1043930E+01  0.7957747E-01            NaN
         13   -1    0    0    0    0  0.00000000000E+00  0.00000000000E+00  0.74505805969E-08  0.10566000000E+00  0.10566000000E+00 0.  1.
     999900   -1    0    0    0    0 -0.00000000000E+00 -0.00000000000E+00 -0.74505805969E-08  0.93827000000E+00  0.93827000000E+00 0.  1.
     999902    2    1    2    0    0  0.53319375850E-02 -0.10432111684E-01  0.10253880685E-01  0.10283607810E+01  0.10282429164E+01 0.  0.
     999903    2    3    3    0    0  0.89141512762E-01  0.94696185728E-01 -0.25427767244E-01  0.13743475495E+00  0.36443979378E-01 0.  0.
         14    1    1    2    0    0 -0.53319375850E-02  0.10432111684E-01 -0.10253880685E-01  0.15569219046E-01  0.00000000000E+00 0. -1.
     999901    1    3    3    0    0 -0.83809575177E-01 -0.10512829741E+00  0.35681647928E-01  0.89092602600E+00  0.88000000000E+00 0. -1.
        -11    1    4    4    0    0  0.18044378971E-01  0.15152856833E-01 -0.19488397065E-01  0.30582142237E-01  0.51100000000E-03 0. -1.
         11    1    4    4    0    0  0.71097133791E-01  0.79543328895E-01 -0.59393701787E-02  0.10685261272E+00  0.51100000000E-03 0.  1.
</event>
<event>
 8    1  0.2183582E+004  0.1043930E+01  0.7957747E-01            NaN
         13   -1    0    0    0    0  0.00000000000E+00  0.00000000000E+00  0.74505805969E-08  0.10566000000E+00  0.10566000000E+00 0.  1.
     999900   -1    0    0    0    0 -0.00000000000E+00 -0.00000000000E+00 -0.74505805969E-08  0.93827000000E+00  0.93827000000E+00 0. -1.
     999902    2    1    2    0    0  0.89367187596E-02 -0.80360504978E-02  0.71618518404E-02  0.10299394614E+01  0.10298444343E+01 0.  0.
     999903    2    3    3    0    0  0.61286659818E-01 -0.52403191024E-01  0.10739924243E+00  0.14159465557E+00  0.44858668179E-01 0.  0.
         14    1    1    2    0    0 -0.89367187596E-02  0.80360504978E-02 -0.71618518404E-02  0.13990538645E-01  0.00000000000E+00 0. -1.
     999901    1    3    3    0    0 -0.52349941058E-01  0.44367140526E-01 -0.10023739059E+00  0.88834480578E+00  0.88000000000E+00 0. -1.
        -11    1    4    4    0    0  0.65785547709E-02 -0.27383773308E-01  0.55090336947E-01  0.61873700143E-01  0.51100000000E-03 0.  1.
         11    1    4    4    0    0  0.54708105047E-01 -0.25019417716E-01  0.52308905485E-01  0.79720955430E-01  0.51100000000E-03 0. -1.
</event>
<event>
 8    1  0.2183582E+004  0.1043930E+01  0.7957747E-01            NaN
         13   -1    0    0    0    0  0.00000000000E+00  0.00000000000E+00  0.74505805969E-08  0.10566000000E+00  0.10566000000E+00 0. -1.
     999900   -1    0    0    0    0 -0.00000000000E+00 -0.00000000000E+00 -0.74505805969E-08  0.93827000000E+00  0.93827000000E+00 0. -1.
     999902    2    1    2    0    0 -0.13259317909E-01  0.34873306843E-02 -0.28197917961E-02  0.10299327784E+01  0.10298376599E+01 0.  0.
     999903    2    3    3    0    0 -0.60062190580E-01 -0.75934425932E-01 -0.91207946968E-01  0.14071357579E+00  0.45912057709E-01 0.  0.
         14    1    1    2    0    0  0.13259317909E-01 -0.34873306843E-02  0.28197917961E-02  0.13997221599E-01  0.00000000000E+00 0. -1.
     999901    1    3    3    0    0  0.46802872670E-01  0.79421756617E-01  0.88388155172E-01  0.88921920261E+00  0.88000000000E+00 0.  1.
        -11    1    4    4    0    0 -0.33874446058E-02 -0.34991131855E-01 -0.44127376889E-01  0.56421100676E-01  0.51100000000E-03 0. -1.
         11    1    4    4    0    0 -0.56674745974E-01 -0.40943294077E-01 -0.47080570079E-01  0.84292475116E-01  0.51100000000E-03 0.  1.
</event>
<event>
 8    1  0.2183582E+004  0.1043930E+01  0.7957747E-01            NaN
         13   -1    0    0    0    0  0.00000000000E+00  0.00000000000E+00  0.74505805969E-08  0.10566000000E+00  0.10566000000E+00 0.  1.
     999900   -1    0    0    0    0 -0.00000000000E+00 -0.00000000000E+00 -0.74505805969E-08  0.93827000000E+00  0.93827000000E+00 0.  1.
     999902    2    1    2    0    0 -0.17662825723E-02  0.13809942711E-01  0.55408034097E-02  0.10289455156E+01  0.10288364006E+01 0.  0.
     999903    2    3    3    0    0 -0.29867940302E-01 -0.69957849724E-01  0.10781265074E+00  0.13862743926E+00  0.42518286192E-01 0.  0.
         14    1    1    2    0    0  0.17662825723E-02 -0.13809942711E-01 -0.55408034097E-02  0.14984484450E-01  0.00000000000E+00 0.  1.
     999901    1    3    3    0    0  0.28101657730E-01  0.83767792435E-01 -0.10227184733E+00  0.89031807629E+00  0.88000000000E+00 0.  1.
        -11    1    4    4    0    0 -0.21598794081E-01 -0.94489003524E-02  0.46224635278E-01  0.51891884252E-01  0.51100000000E-03 0.  1.
         11    1    4    4    0    0 -0.82691462216E-02 -0.60508949371E-01  0.61588015458E-01  0.86735555007E-01  0.51100000000E-03 0. -1.
</event>
<event>
 8    1  0.2183582E+004  0.1043930E+01  0.7957747E-01            NaN
         13   -1    0    0    0    0  0.00000000000E+00  0.00000000000E+00  0.74505805969E-08  0.10566000000E+00  0.10566000000E+00 0.  1.
     999900   -1    0    0    0    0 -0.00000000000E+00 -0.00000000000E+00 -0.74505805969E-08  0.93827000000E+00  0.93827000000E+00 0.  1.
     999902    2    1    2    0    0  0.27637778195E-02 -0.10646133968E-01 -0.10253149080E-01  0.10288931884E+01  0.10287833044E+01 0.  0.
     999903    2    3    3    0    0  0.11478989897E+00 -0.15547162066E-01  0.62002266204E-01  0.13883997825E+00  0.44875643642E-01 0.  0.
         14    1    1    2    0    0 -0.27637778195E-02  0.10646133968E-01  0.10253149080E-01  0.15036811576E-01  0.00000000000E+00 0.  1.
     999901    1    3    3    0    0 -0.11202612115E+00  0.49010280979E-02 -0.72255415284E-01  0.89005321017E+00  0.88000000000E+00 0.  1.
        -11    1    4    4    0    0  0.19790280192E-01 -0.20936172194E-01  0.10691988579E-01  0.30733666182E-01  0.51100000000E-03 0.  1.
         11    1    4    4    0    0  0.94999618782E-01  0.53890101273E-02  0.51310277624E-01  0.10810631207E+00  0.51100000000E-03 0. -1.
</event>
<event>
 8    1  0.2183582E+004  0.1043930E+01  0.7957747E-01            NaN
         13   -1    0    0    0    0  0.00000000000E+00  0.00000000000E+00  0.74505805969E-08  0.10566000000E+00  0.10566000000E+00 0. -1.
     999900   -1    0    0    0    0 -0.00000000000E+00 -0.00000000000E+00 -0.74505805969E-08  0.93827000000E+00  0.93827000000E+00 0.  1.
     999902    2    1    2    0    0  0.10324550052E-01 -0.10060420721E-01 -0.47736757737E-03  0.10295065372E+01  0.10294054954E+01 0.  0.
     999903    2    3    3    0    0  0.57310164114E-01  0.76378636493E-01 -0.90972177311E-01  0.13941178432E+00  0.45183598132E-01 0.  0.
         14    1    1    2    0    0 -0.10324550052E-01  0.10060420721E-01  0.47736757737E-03  0.14423462783E-01  0.00000000000E+00 0.  1.
     999901    1    3    3    0    0 -0.46985614062E-01 -0.86439057213E-01  0.90494809734E-01  0.89009475289E+00  0.88000000000E+00 0. -1.
        -11    1    4    4    0    0 -0.62664485585E-02  0.18652091468E-01 -0.19131079744E-01  0.27448647085E-01  0.51100000000E-03 0. -1.
         11    1    4    4    0    0  0.63576612672E-01  0.57726545025E-01 -0.71841097567E-01  0.11196313724E+00  0.51100000000E-03 0.  1.
</event>
<event>
 8    1  0.2183582E+004  0.1043930E+01  0.7957747E-01            NaN
         13   -1    0    0    0    0  0.00000000000E+00  0.00000000000E+00  0.74505805969E-08  0.10566000000E+00  0.10566000000E+00 0. -1.
     999900   -1    0    0    0    0 -0.00000000000E+00 -0.00000000000E+00 -0.74505805969E-08  0.93827000000E+00  0.93827000000E+00 0.  1.
     999902    2    1    2    0    0  0.17114167720E-02 -0.60032927061E-02 -0.11801558472E-01  0.10305791479E+01  0.10304926660E+01 0.  0.
     999903    2    3    3    0    0  0.13109533301E+00 -0.23013616622E-01 -0.88281277817E-02  0.14095091640E+00  0.45536931249E-01 0.  0.
         14    1    1    2    0    0 -0.17114167720E-02  0.60032927061E-02  0.11801558472E-01  0.13350852147E-01  0.00000000000E+00 0. -1.
     999901    1    3    3    0    0 -0.12938391624E+00  0.17010323916E-01 -0.29734306903E-02  0.88962823145E+00  0.88000000000E+00 0.  1.
        -11    1    4    4    0    0  0.53141771183E-01  0.12704559842E-01 -0.78049268450E-02  0.55196301409E-01  0.51100000000E-03 0. -1.
         11    1    4    4    0    0  0.77953561829E-01 -0.35718176464E-01 -0.10232009367E-02  0.85754614995E-01  0.51100000000E-03 0.  1.
</event>
<event>
 8    1  0.2183582E+004  0.1043930E+01  0.7957747E-01            NaN
         13   -1    0    0    0    0  0.00000000000E+00  0.00000000000E+00  0.74505805969E-08  0.10566000000E+00  0.10566000000E+00 0.  1.
     999900   -1    0    0    0    0 -0.00000000000E+00 -0.00000000000E+00 -0.74505805969E-08  0.93827000000E+00  0.93827000000E+00 0. -1.
     999902    2    1    2    0    0 -0.86446089792E-02 -0.23200832490E-02  0.10165371236E-01  0.10303857458E+01  0.10302967234E+01 0.  0.
     999903    2    3    3    0    0 -0.28411042994E-02 -0.12927006256E+00  0.29722734884E-01  0.14104190427E+00  0.47859762258E-01 0.  0.
         14    1    1    2    0    0  0.86446089792E-02  0.23200832490E-02 -0.10165371236E-01  0.13544254245E-01  0.00000000000E+00 0. -1.
     999901    1    3    3    0    0 -0.58035046799E-02  0.12694997931E+00 -0.19557363648E-01  0.88934384148E+00  0.88000000000E+00 0. -1.
        -11    1    4    4    0    0  0.23376439436E-02 -0.11840177610E+00  0.11213188375E-01  0.11895562987E+00  0.51100000000E-03 0.  1.
         11    1    4    4    0    0 -0.51787482430E-02 -0.10868286456E-01  0.18509546508E-01  0.22086274399E-01  0.51100000000E-03 0. -1.
</event>
<event>
 8    1  0.2721182E+004  0.1043930E+01  0.7957747E-01            NaN
         13   -1    0    0    0    0  0.00000000000E+00  0.00000000000E+00  0.74505805969E-08  0.10566000000E+00  0.10566000000E+00 0.  1.
     999900   -1    0    0    0    0 -0.00000000000E+00 -0.00000000000E+00 -0.74505805969E-08  0.93827000000E+00  0.93827000000E+00 0. -1.
     999902    2    1    2    0    0 -0.22803828055E-02 -0.15894945616E-01 -0.64505827985E-03  0.10278593578E+01  0.10277337174E+01 0.  0.
     999903    2    3    3    0    0 -0.62188925974E-01 -0.43382733123E-01 -0.10731540288E+00  0.13897062770E+00  0.45240641248E-01 0.  0.
         14    1    1    2    0    0  0.22803828055E-02  0.15894945616E-01  0.64505827985E-03  0.16070642242E-01  0.00000000000E+00 0. -1.
     999901    1    3    3    0    0  0.59908543168E-01  0.27487787508E-01  0.10667034460E+00  0.88888873006E+00  0.88000000000E+00 0.  1.
        -11    1    4    4    0    0 -0.50555092264E-01 -0.42522226374E-01 -0.56800046604E-01  0.87123266151E-01  0.51100000000E-03 0.  1.
         11    1    4    4    0    0 -0.11633833710E-01 -0.86050674952E-03 -0.50515356278E-01  0.51847361549E-01  0.51100000000E-03 0. -1.
</event>
<event>
 8    1  0.2183582E+004  0.1043930E+01  0.7957747E-01            NaN
         13   -1    0    0    0    0  0.00000000000E+00  0.00000000000E+00  0.74505805969E-08  0.10566000000E+00  0.10566000000E+00 0.  1.
     999900   -1    0    0    0    0 -0.00000000000E+00 -0.00000000000E+00 -0.74505805969E-08  0.93827000000E+00  0.93827000000E+00 0.  1.
     999902    2    1    2    0    0  0.76497598522E-03  0.66264990165E-02 -0.10725162318E-01  0.10312996879E+01  0.10312223434E+01 0.  0.
     999903    2    3    3    0    0  0.11515001850E+00 -0.58129171986E-01 -0.35873516597E-01  0.14118190096E+00  0.44798354539E-01 0.  0.
         14    1    1    2    0    0 -0.76497598522E-03 -0.66264990165E-02  0.10725162318E-01  0.12630312119E-01  0.00000000000E+00 0.  1.
     999901    1    3    3    0    0 -0.11438504251E+00  0.64755671002E-01  0.25148354279E-01  0.89011778692E+00  0.88000000000E+00 0. -1.
        -11    1    4    4    0    0  0.17324441074E-01 -0.30139186372E-01 -0.78822264903E-02  0.35649648373E-01  0.51100000000E-03 0. -1.
         11    1    4    4    0    0  0.97825577421E-01 -0.27989985614E-01 -0.27991290107E-01  0.10553225258E+00  0.51100000000E-03 0.  1.
</event>
<event>
 8    1  0.2183582E+004  0.1043930E+01  0.7957747E-01            NaN
         13   -1    0    0    0    0  0.00000000000E+00  0.00000000000E+00  0.74505805969E-08  0.10566000000E+00  0.10566000000E+00 0.  1.
     999900   -1    0    0    0    0 -0.00000000000E+00 -0.00000000000E+00 -0.74505805969E-08  0.93827000000E+00  0.93827000000E+00 0. -1.
     999902    2    1    2    0    0 -0.57007772158E-02  0.26518031759E-02 -0.12198019536E-01  0.10302069318E+01  0.10301155273E+01 0.  0.
     999903    2    3    3    0    0 -0.20423006963E-01  0.29438498644E-01  0.12632960986E+00  0.13884607600E+00  0.45114721300E-01 0.  0.
         14    1    1    2    0    0  0.57007772158E-02 -0.26518031759E-02  0.12198019536E-01  0.13723068227E-01  0.00000000000E+00 0.  1.
     999901    1    3    3    0    0  0.14722229747E-01 -0.26786695468E-01 -0.13852762939E+00  0.89136085577E+00  0.88000000000E+00 0. -1.
        -11    1    4    4    0    0  0.21040023965E-02  0.30238917468E-01  0.98327110982E-01  0.10289461031E+00  0.51100000000E-03 0. -1.
         11    1    4    4    0    0 -0.22527009359E-01 -0.80041882477E-03  0.28002498874E-01  0.35951465689E-01  0.51100000000E-03 0.  1.
</event>
<event>
 8    1  0.2183582E+004  0.1043930E+01  0.7957747E-01            NaN
         13   -1    0    0    0    0  0.00000000000E+00  0.00000000000E+00  0.74505805969E-08  0.10566000000E+00  0.10566000000E+00 0. -1.
     999900   -1    0    0    0    0 -0.00000000000E+00 -0.00000000000E+00 -0.74505805969E-08  0.93827000000E+00  0.93827000000E+00 0.  1.
     999902    2    1    2    0    0 -0.84731478811E-02  0.26219714451E-03  0.12077401786E-01  0.10291744378E+01  0.10290686550E+01 0.  0.
     999903    2    3    3    0    0  0.11213396858E+00 -0.60472153809E-01  0.30653352418E-01  0.13868030312E+00  0.45405838445E-01 0.  0.
         14    1    1    2    0    0  0.84731478811E-02 -0.26219714451E-03 -0.12077401786E-01  0.14755562214E-01  0.00000000000E+00 0. -1.
     999901    1    3    3    0    0 -0.12060711646E+00  0.60734350954E-01 -0.18575950632E-01  0.89049413466E+00  0.88000000000E+00 0.  1.
        -11    1    4    4    0    0  0.93873771777E-01 -0.47287006629E-01  0.42317647971E-01  0.11331103421E+00  0.51100000000E-03 0. -1.
         11    1    4    4    0    0  0.18260196799E-01 -0.13185147181E-01 -0.11664295553E-01  0.25369268911E-01  0.51100000000E-03 0.  1.
</event>
<event>
 8    1  0.2183582E+004  0.1043930E+01  0.7957747E-01            NaN
         13   -1    0    0    0    0  0.00000000000E+00  0.00000000000E+00  0.74505805969E-08  0.10566000000E+00  0.10566000000E+00 0. -1.
     999900   -1    0    0    0    0 -0.00000000000E+00 -0.00000000000E+00 -0.74505805969E-08  0.93827000000E+00  0.93827000000E+00 0.  1.
     999902    2    1    2    0    0  0.52168352988E-02 -0.16393121005E-01  0.11722534609E-01  0.10231125169E+01  0.10229007061E+01 0.  0.
     999903    2    3    3    0    0  0.10417780800E+00 -0.65545905584E-01  0.36180945876E-01  0.13586537866E+00  0.44733196348E-01 0.  0.
         14    1    1    2    0    0 -0.52168352988E-02  0.16393121005E-01 -0.11722534609E-01  0.20817483145E-01  0.00000000000E+00 0.  1.
     999901    1    3    3    0    0 -0.98960972703E-01  0.49152784579E-01 -0.24458411267E-01  0.88724713819E+00  0.88000000000E+00 0.  1.
        -11    1    4    4    0    0  0.12919572503E-01 -0.12553208991E-01 -0.10071566784E-01  0.20644514723E-01  0.51100000000E-03 0.  1.
         11    1    4    4    0    0  0.91258235499E-01 -0.52992696593E-01  0.46252512660E-01  0.11522086394E+00  0.51100000000E-03 0. -1.
</event>
<event>
 8    1  0.2183582E+004  0.1043930E+01  0.7957747E-01            NaN
         13   -1    0    0    0    0  0.00000000000E+00  0.00000000000E+00  0.74505805969E-08  0.10566000000E+00  0.10566000000E+00 0. -1.
     999900   -1    0    0    0    0 -0.00000000000E+00 -0.00000000000E+00 -0.74505805969E-08  0.93827000000E+00  0.93827000000E+00 0.  1.
     999902    2    1    2    0    0  0.56073537396E-02 -0.10862537357E-01  0.32449921843E-02  0.10312821896E+01  0.10312046293E+01 0.  0.
     999903    2    3    3    0    0 -0.91820792229E-01 -0.38359016927E-01 -0.89025469281E-01  0.14068568271E+00  0.44322173609E-01 0.  0.
         14    1    1    2    0    0 -0.56073537396E-02  0.10862537357E-01 -0.32449921843E-02  0.12647810406E-01  0.00000000000E+00 0.  1.
     999901    1    3    3    0    0  0.97428145969E-01  0.27496479570E-01  0.92270461466E-01  0.89059650688E+00  0.88000000000E+00 0. -1.
        -11    1    4    4    0    0 -0.28683787587E-01  0.17309656546E-02 -0.46457324498E-01  0.54628747312E-01  0.51100000000E-03 0.  1.
         11    1    4    4    0    0 -0.63137004643E-01 -0.40089982581E-01 -0.42568144784E-01  0.86056935397E-01  0.51100000000E-03 0. -1.
</event>
<event>
 7    1  0.2183582E+004  0.1043930E+01  0.7957747E-01            NaN
         13   -1    0    0    0    0  0.00000000000E+00  0.00000000000E+00  0.74505805969E-08  0.10566000000E+00  0.10566000000E+00 0. -1.
     999900   -1    0    0    0    0 -0.00000000000E+00 -0.00000000000E+00 -0.74505805969E-08  0.93827000000E+00  0.93827000000E+00 0. -1.
     999902    2    1    2    0    0 -0.42265526010E-02  0.62129746266E-02  0.11642396892E-01  0.10300732253E+01  0.10299800188E+01 0.  0.
         14    1    1    2    0    0  0.42265526010E-02 -0.62129746266E-02 -0.11642396892E-01  0.13856774733E-01  0.00000000000E+00 0.  1.
     999901    1    3    3    0    0  0.77375808331E-01  0.39594631152E-01  0.88149694517E-01  0.88866479573E+00  0.88000000000E+00 0.  1.
        -11    1    3    3    0    0 -0.21697183860E-01  0.16826932391E-01 -0.53154155467E-01  0.59829247075E-01  0.51100000000E-03 0. -1.
         11    1    3    3    0    0 -0.59905177072E-01 -0.50208588917E-01 -0.23353142157E-01  0.81579182459E-01  0.51100000000E-03 0.  1.
</event>
<event>
 8    1  0.2183582E+004  0.1043930E+01  0.7957747E-01            NaN
         13   -1    0    0    0    0  0.00000000000E+00  0.00000000000E+00  0.74505805969E-08  0.10566000000E+00  0.10566000000E+00 0.  1.
     999900   -1    0    0    0    0 -0.00000000000E+00 -0.00000000000E+00 -0.74505805969E-08  0.93827000000E+00  0.93827000000E+00 0.  1.
     999902    2    1    2    0    0  0.21078836776E-02  0.10775438132E-01  0.81226093974E-02  0.10302724005E+01  0.10301818719E+01 0.  0.
     999903    2    3    3    0    0  0.83421202137E-01 -0.90311624528E-01  0.48189855151E-01  0.13985910648E+00  0.46076252397E-01 0.  0.
         14    1    1    2    0    0 -0.21078836776E-02 -0.10775438132E-01 -0.81226093974E-02  0.13657599494E-01  0.00000000000E+00 0. -1.
     999901    1    3    3    0    0 -0.81313318460E-01  0.10108706266E+00 -0.40067245753E-01  0.89041329403E+00  0.88000000000E+00 0.  1.
        -11    1    4    4    0    0  0.40064348978E-01 -0.32508323420E-01 -0.23981775678E-02  0.51652255781E-01  0.51100000000E-03 0.  1.
         11    1    4    4    0    0  0.43356853159E-01 -0.57803301107E-01  0.50588032719E-01  0.88206850698E-01  0.51100000000E-03 0. -1.
</event>
<event>
 8    1  0.2183582E+004  0.1043930E+01  0.7957747E-01            NaN
         13   -1    0    0    0    0  0.00000000000E+00  0.00000000000E+00  0.74505805969E-08  0.10566000000E+00  0.10566000000E+00 0.  1.
     999900   -1    0    0    0    0 -0.00000000000E+00 -0.00000000000E+00 -0.74505805969E-08  0.93827000000E+00  0.93827000000E+00 0. -1.
     999902    2    1    2    0    0 -0.54123747744E-02 -0.94069477838E-02  0.87160881617E-02  0.10300104217E+01  0.10299163627E+01 0.  0.
     999903    2    3    3    0    0 -0.86515958048E-01  0.95489957854E-01 -0.28822664338E-01  0.13928582342E+00  0.44344690539E-01 0.  0.
         14    1    1    2    0    0  0.54123747744E-02  0.94069477838E-02 -0.87160881617E-02  0.13919578304E-01  0.00000000000E+00 0. -1.
     999901    1    3    3    0    0  0.81103583274E-01 -0.10489690564E+00  0.37538752499E-01  0.89072459827E+00  0.88000000000E+00 0.  1.
        -11    1    4    4    0    0 -0.28628247394E-01  0.39294687227E-01  0.10178684676E-01  0.49674095220E-01  0.51100000000E-03 0.  1.
         11    1    4    4    0    0 -0.57887710654E-01  0.56195270626E-01 -0.39001349014E-01  0.89611728202E-01  0.51100000000E-03 0. -1.
</event>
<event>
 8    1  0.2183582E+004  0.1043930E+01  0.7957747E-01            NaN
         13   -1    0    0    0    0  0.00000000000E+00  0.00000000000E+00  0.74505805969E-08  0.10566000000E+00  0.10566000000E+00 0.  1.
     999900   -1    0    0    0    0 -0.00000000000E+00 -0.00000000000E+00 -0.74505805969E-08  0.93827000000E+00  0.93827000000E+00 0.  1.
     999902    2    1    2    0    0  0.32826719440E-02 -0.54680785181E-02 -0.12531190934E-01  0.10298691834E+01  0.10297731927E+01 0.  0.
     999903    2    3    3    0    0  0.83218844430E-01  0.97381972920E-01  0.30700189973E-01  0.13923071742E+00  0.45100624067E-01 0.  0.
         14    1    1    2    0    0 -0.32826719440E-02  0.54680785181E-02  0.12531190934E-01  0.14060816619E-01  0.00000000000E+00 0.  1.
     999901    1    3    3    0    0 -0.79936172486E-01 -0.10285005144E+00 -0.43231380906E-01  0.89063846596E+00  0.88000000000E+00 0.  1.
        -11    1    4    4    0    0  0.55951188643E-01  0.38475466470E-01  0.30192640095E-01  0.74315231733E-01  0.51100000000E-03 0. -1.
         11    1    4    4    0    0  0.27267655787E-01  0.58906506450E-01  0.50754987816E-03  0.64915485688E-01  0.51100000000E-03 0.  1.
</event>
<event>
 8    1  0.2183582E+004  0.1043930E+01  0.7957747E-01            NaN
         13   -1    0    0    0    0  0.00000000000E+00  0.00000000000E+00  0.74505805969E-08  0.10566000000E+00  0.10566000000E+00 0. -1.
     999900   -1    0    0    0    0 -0.00000000000E+00 -0.00000000000E+00 -0.74505805969E-08  0.93827000000E+00  0.93827000000E+00 0.  1.
     999902    2    1    2    0    0 -0.89463785035E-02  0.14892429375E-01 -0.30547218741E-02  0.10262904573E+01  0.10261388548E+01 0.  0.
     999903    2    3    3    0    0 -0.29455607236E-01  0.44158144315E-01  0.11824355301E+00  0.13725143564E+00  0.45153562988E-01 0.  0.
         14    1    1    2    0    0  0.89463785035E-02 -0.14892429375E-01  0.30547218741E-02  0.17639542702E-01  0.00000000000E+00 0.  1.
     999901    1    3    3    0    0  0.20509228732E-01 -0.29265714941E-01 -0.12129827488E+00  0.88903902165E+00  0.88000000000E+00 0.  1.
        -11    1    4    4    0    0 -0.28444141430E-02  0.42882495782E-01  0.75770498869E-01  0.87111587955E-01  0.51100000000E-03 0.  1.
         11    1    4    4    0    0 -0.26611193093E-01  0.12756485338E-02  0.42473054142E-01  0.50139847688E-01  0.51100000000E-03 0. -1.
</event>
<event>
 8    1  0.2183582E+004  0.1043930E+01  0.7957747E-01            NaN
         13   -1    0    0    0    0  0.00000000000E+00  0.00000000000E+00  0.74505805969E-08  0.10566000000E+00  0.10566000000E+00 0. -1.
     999900   -1    0    0    0    0 -0.00000000000E+00 -0.00000000000E+00 -0.74505805969E-08  0.93827000000E+00  0.93827000000E+00 0. -1.
     999902    2    1    2    0    0 -0.47158037803E-02  0.13212116143E-01  0.12084208301E-02  0.10298495490E+01  0.10297532882E+01 0.  0.
     999903    2    3    3    0    0 -0.81517368942E-01  0.12222233309E-01 -0.10414583889E+00  0.14024346750E+00  0.45026769734E-01 0.  0.
         14    1    1    2    0    0  0.47158037803E-02 -0.13212116143E-01 -0.12084208301E-02  0.14080450958E-01  0.00000000000E+00 0.  1.
     999901    1    3    3    0    0  0.76801565161E-01  0.98988283410E-03  0.10535425972E+00  0.88960608154E+00  0.88000000000E+00 0.  1.
        -11    1    4    4    0    0 -0.18500385444E-01 -0.15823757935E-02 -0.10225473378E-02  0.18603088421E-01  0.51100000000E-03 0. -1.
         11    1    4    4    0    0 -0.63016983497E-01  0.13804609102E-01 -0.10312329155E+00  0.12164037908E+00  0.51100000000E-03 0.  1.
</event>
<event>
 8    1  0.2183582E+004  0.1043930E+01  0.7957747E-01            NaN
         13   -1    0    0    0    0  0.00000000000E+00  0.00000000000E+00  0.74505805969E-08  0.10566000000E+00  0.10566000000E+00 0. -1.
     999900   -1    0    0    0    0 -0.00000000000E+00 -0.00000000000E+00 -0.74505805969E-08  0.93827000000E+00  0.93827000000E+00 0. -1.
     999902    2    1    2    0    0 -0.64694356374E-02 -0.42951356636E-02 -0.15487860308E-01  0.10266044234E+01  0.10264582147E+01 0.  0.
     999903    2    3    3    0    0 -0.47843462951E-01  0.28360192082E-01 -0.11916976730E+00  0.13895127131E+00  0.44863402871E-01 0.  0.
         14    1    1    2    0    0  0.64694356374E-02  0.42951356636E-02  0.15487860308E-01  0.17325576607E-01  0.00000000000E+00 0. -1.
     999901    1    3    3    0    0  0.41374027313E-01 -0.32655327746E-01  0.10368190700E+00  0.88765315208E+00  0.88000000000E+00 0.  1.
        -11    1    4    4    0    0 -0.15750086381E-01  0.22932329381E-01 -0.93329389829E-01  0.97388875538E-01  0.51100000000E-03 0.  1.
         11    1    4    4    0    0 -0.32093376570E-01  0.54278627011E-02 -0.25840377476E-01  0.41562395771E-01  0.51100000000E-03 0. -1.
</event>
<event>
 8    1  0.2183582E+004  0.1043930E+01  0.7957747E-01            NaN
         13   -1    0    0    0    0  0.00000000000E+00  0.00000000000E+00  0.74505805969E-08  0.10566000000E+00  0.10566000000E+00 0.  1.
     999900   -1    0    0    0    0 -0.00000000000E+00 -0.00000000000E+00 -0.74505805969E-08  0.93827000000E+00  0.93827000000E+00 0.  1.
     999902    2    1    2    0    0 -0.74272211878E-02  0.10704747376E-01  0.73006149342E-03  0.10308805471E+01  0.10307979502E+01 0.  0.
     999903    2    3    3    0    0  0.36209809896E-01  0.40360882316E-01 -0.12109502782E+00  0.14092266653E+00  0.47487272255E-01 0.  0.
         14    1    1    2    0    0  0.74272211878E-02 -0.10704747376E-01 -0.73006149342E-03  0.13049452890E-01  0.00000000000E+00 0. -1.
     999901    1    3    3    0    0 -0.43637031084E-01 -0.29656134940E-01  0.12182508931E+00  0.88995788058E+00  0.88000000000E+00 0. -1.
        -11    1    4    4    0    0  0.91803429817E-02 -0.10324542394E-02 -0.67011526643E-01  0.67647250373E-01  0.51100000000E-03 0.  1.
         11    1    4    4    0    0  0.27029466914E-01  0.41393336556E-01 -0.54083501172E-01  0.73275416157E-01  0.51100000000E-03 0. -1.
</event>
<event>
 8    1  0.2183582E+004  0.1043930E+01  0.7957747E-01            NaN
         13   -1    0    0    0    0  0.00000000000E+00  0.00000000000E+00  0.74505805969E-08  0.10566000000E+00  0.10566000000E+00 0.  1.
     999900   -1    0    0    0    0 -0.00000000000E+00 -0.00000000000E+00 -0.74505805969E-08  0.93827000000E+00  0.93827000000E+00 0.  1.
     999902    2    1    2    0    0 -0.10097936901E-01 -0.39084877307E-02 -0.87437663136E-02  0.10300124551E+01  0.10299184238E+01 0.  0.
     999903    2    3    3    0    0 -0.25629540632E-01  0.60692657506E-02  0.13027018250E+00  0.13890883363E+00  0.40393492950E-01 0.  0.
         14    1    1    2    0    0  0.10097936901E-01  0.39084877307E-02  0.87437663136E-02  0.13917544875E-01  0.00000000000E+00 0.  1.
     999901    1    3    3    0    0  0.15531603732E-01 -0.99777534813E-02 -0.13901394881E+00  0.89110362150E+00  0.88000000000E+00 0.  1.
        -11    1    4    4    0    0 -0.16416311766E-01 -0.16832068054E-01  0.61885941277E-01  0.66203811489E-01  0.51100000000E-03 0. -1.
         11    1    4    4    0    0 -0.92132288666E-02  0.22901333804E-01  0.68384241220E-01  0.72705022141E-01  0.51100000000E-03 0.  1.
</event>
<event>
 8    1  0.2183582E+004  0.1043930E+01  0.7957747E-01            NaN
         13   -1    0    0    0    0  0.00000000000E+00  0.00000000000E+00  0.74505805969E-08  0.10566000000E+00  0.10566000000E+00 0.  1.
     999900   -1    0    0    0    0 -0.00000000000E+00 -0.00000000000E+00 -0.74505805969E-08  0.93827000000E+00  0.93827000000E+00 0. -1.
     999902    2    1    2    0    0 -0.61625093529E-03 -0.13478417452E-01  0.33203349215E-02  0.10300349604E+01  0.10299412350E+01 0.  0.
     999903    2    3    3    0    0 -0.10139679606E+00  0.58386191196E-01 -0.60371120219E-01  0.13909285131E+00  0.44854114127E-01 0.  0.
         14    1    1    2    0    0  0.61625093529E-03  0.13478417452E-01 -0.33203349215E-02  0.13895039626E-01  0.00000000000E+00 0.  1.
     999901    1    3    3    0    0  0.10078054513E+00 -0.71864608648E-01  0.63691455140E-01  0.89094210907E+00  0.88000000000E+00 0.  1.
        -11    1    4    4    0    0 -0.40120379252E-01  0.45118506527E-01 -0.42699754232E-01  0.73951704477E-01  0.51100000000E-03 0. -1.
         11    1    4    4    0    0 -0.61276416809E-01  0.13267684669E-01 -0.17671365987E-01  0.65141146830E-01  0.51100000000E-03 0.  1.
</event>
<event>
 8    1  0.2251332E+004  0.1043930E+01  0.7957747E-01            NaN
         13   -1    0    0    0    0  0.00000000000E+00  0.00000000000E+00  0.74505805969E-08  0.10566000000E+00  0.10566000000E+00 0.  1.
     999900   -1    0    0    0    0 -0.00000000000E+00 -0.00000000000E+00 -0.74505805969E-08  0.93827000000E+00  0.93827000000E+00 0. -1.
     999902    2    1    2    0    0  0.81573099852E-02  0.11424922109E-01 -0.59074389326E-03  0.10298793940E+01  0.10297835436E+01 0.  0.
     999903    2    3    3    0    0 -0.76386732390E-01  0.10889700082E+00  0.32646494062E-02  0.14046196369E+00  0.45004617949E-01 0.  0.
         14    1    1    2    0    0 -0.81573099852E-02 -0.11424922109E-01  0.59074389326E-03  0.14050606027E-01  0.00000000000E+00 0.  1.
     999901    1    3    3    0    0  0.84544042375E-01 -0.97472078708E-01 -0.38553932994E-02  0.88941743028E+00  0.88000000000E+00 0. -1.
        -11    1    4    4    0    0 -0.41626773820E-01  0.41487763910E-01  0.21278942646E-01  0.62506618642E-01  0.51100000000E-03 0. -1.
         11    1    4    4    0    0 -0.34759958569E-01  0.67409236906E-01 -0.18014293240E-01  0.77955345051E-01  0.51100000000E-03 0.  1.
</event>
<event>
 8    1  0.2183582E+004  0.1043930E+01  0.7957747E-01            NaN
         13   -1    0    0    0    0  0.00000000000E+00  0.00000000000E+00  0.74505805969E-08  0.10566000000E+00  0.10566000000E+00 0. -1.
     999900   -1    0    0    0    0 -0.00000000000E+00 -0.00000000000E+00 -0.74505805969E-08  0.93827000000E+00  0.93827000000E+00 0.  1.
     999902    2    1    2    0    0  0.39851982102E-02  0.10850332409E-01 -0.81961847995E-02  0.10297599978E+01  0.10296625001E+01 0.  0.
     999903    2    3    3    0    0  0.11033230593E+00  0.26681484941E-01 -0.70001955319E-01  0.14106416342E+00  0.45975048472E-01 0.  0.
         14    1    1    2    0    0 -0.39851982102E-02 -0.10850332409E-01  0.81961847995E-02  0.14170002238E-01  0.00000000000E+00 0. -1.
     999901    1    3    3    0    0 -0.10634710772E+00 -0.15831152532E-01  0.61805770519E-01  0.88869583434E+00  0.88000000000E+00 0. -1.
        -11    1    4    4    0    0  0.30576636708E-01  0.26233408406E-01 -0.37151808267E-01  0.54805477896E-01  0.51100000000E-03 0.  1.
         11    1    4    4    0    0  0.79755669222E-01  0.44807653516E-03 -0.32850147052E-01  0.86258685521E-01  0.51100000000E-03 0. -1.
</event>
<event>
 8    1  0.2183582E+004  0.1043930E+01  0.7957747E-01            NaN
         13   -1    0    0    0    0  0.00000000000E+00  0.00000000000E+00  0.74505805969E-08  0.10566000000E+00  0.10566000000E+00 0.  1.
     999900   -1    0    0    0    0 -0.00000000000E+00 -0.00000000000E+00 -0.74505805969E-08  0.93827000000E+00  0.93827000000E+00 0.  1.
     999902    2    1    2    0    0  0.13697855309E-01  0.42057258905E-02 -0.56752955445E-03  0.10295897957E+01  0.10294899251E+01 0.  0.
     999903    2    3    3    0    0  0.78735471554E-01  0.91347489185E-01  0.57991943422E-01  0.14096569612E+00  0.44324076063E-01 0.  0.
         14    1    1    2    0    0 -0.13697855309E-01 -0.42057258905E-02  0.56752955445E-03  0.14340204327E-01  0.00000000000E+00 0. -1.
     999901    1    3    3    0    0 -0.65037616245E-01 -0.87141763294E-01 -0.58559472976E-01  0.88862409956E+00  0.88000000000E+00 0. -1.
        -11    1    4    4    0    0  0.49812832496E-01  0.80289314259E-01  0.56215455611E-01  0.10994603602E+00  0.51100000000E-03 0. -1.
         11    1    4    4    0    0  0.28922639057E-01  0.11058174926E-01  0.17764878105E-02  0.31019660099E-01  0.51100000000E-03 0.  1.
</event>
<event>
 8    1  0.2183582E+004  0.1043930E+01  0.7957747E-01            NaN
         13   -1    0    0    0    0  0.00000000000E+00  0.00000000000E+00  0.74505805969E-08  0.10566000000E+00  0.10566000000E+00 0. -1.
     999900   -1    0    0    0    0 -0.00000000000E+00 -0.00000000000E+00 -0.74505805969E-08  0.93827000000E+00  0.93827000000E+00 0.  1.
     999902    2    1    2    0    0 -0.52996751651E-02  0.11909157425E-03  0.13279771680E-01  0.10296312911E+01  0.10295320017E+01 0.  0.
     999903    2    3    3    0    0  0.12679478792E+00  0.34708043380E-01  0.22177503378E-02  0.13903165544E+00  0.45203056091E-01 0.  0.
         14    1    1    2    0    0  0.52996751651E-02 -0.11909157425E-03 -0.13279771680E-01  0.14298708877E-01  0.00000000000E+00 0.  1.
     999901    1    3    3    0    0 -0.13209446308E+00 -0.34588951806E-01  0.11062021342E-01  0.89059963568E+00  0.88000000000E+00 0.  1.
        -11    1    4    4    0    0  0.32175387824E-01  0.93767248911E-02  0.20637771899E-01  0.39361876242E-01  0.51100000000E-03 0. -1.
         11    1    4    4    0    0  0.94619400091E-01  0.25331318489E-01 -0.18420021562E-01  0.99669779198E-01  0.51100000000E-03 0.  1.
</event>
<event>
 8    1  0.2183582E+004  0.1043930E+01  0.7957747E-01            NaN
         13   -1    0    0    0    0  0.00000000000E+00  0.00000000000E+00  0.74505805969E-08  0.10566000000E+00  0.10566000000E+00 0.  1.
     999900   -1    0    0    0    0 -0.00000000000E+00 -0.00000000000E+00 -0.74505805969E-08  0.93827000000E+00  0.93827000000E+00 0. -1.
     999902    2    1    2    0    0 -0.90592091761E-02 -0.13854468843E-02 -0.12085059111E-01  0.10287630165E+01  0.10286512075E+01 0.  0.
     999903    2    3    3    0    0  0.72839956376E-01  0.92548289076E-01  0.54842672255E-01  0.13746601704E+00  0.44925962257E-01 0.  0.
         14    1    1    2    0    0  0.90592091761E-02  0.13854468843E-02  0.12085059111E-01  0.15166983473E-01  0.00000000000E+00 0.  1.
     999901    1    3    3    0    0 -0.81899165552E-01 -0.93933735961E-01 -0.66927731366E-01  0.89129699949E+00  0.88000000000E+00 0. -1.
        -11    1    4    4    0    0  0.56959753848E-01  0.65956434317E-01  0.60347858221E-01  0.10600372587E+00  0.51100000000E-03 0.  1.
         11    1    4    4    0    0  0.15880202527E-01  0.26591854760E-01 -0.55051859656E-02  0.31462291166E-01  0.51100000000E-03 0. -1.
</event>
<event>
 7    1  0.2183582E+004  0.1043930E+01  0.7957747E-01            NaN
         13   -1    0    0    0    0  0.00000000000E+00  0.00000000000E+00  0.74505805969E-08  0.10566000000E+00  0.10566000000E+00 0.  1.
     999900   -1    0    0    0    0 -0.00000000000E+00 -0.00000000000E+00 -0.74505805969E-08  0.93827000000E+00  0.93827000000E+00 0. -1.
     999903    2    1    2    0    0 -0.14679141216E-02 -0.57977624891E-01  0.92594192057E-01  0.11849790833E+00  0.45874939948E-01 0.  0.
         14    1    1    2    0    0 -0.11253442848E-01 -0.53680251194E-02  0.31969203172E-01  0.34314510358E-01  0.00000000000E+00 0.  1.
     999901    1    1    2    0    0  0.12721356969E-01  0.63345650010E-01 -0.12456339523E+00  0.89111758132E+00  0.88000000000E+00 0. -1.
        -11    1    3    3    0    0  0.27678745726E-02 -0.17891983444E-01  0.69959431614E-01  0.72265949063E-01  0.51100000000E-03 0.  1.
         11    1    3    3    0    0 -0.42357886942E-02 -0.40085641447E-01  0.22634760443E-01  0.46231959264E-01  0.51100000000E-03 0. -1.
</event>
<event>
 8    1  0.2183582E+004  0.1043930E+01  0.7957747E-01            NaN
         13   -1    0    0    0    0  0.00000000000E+00  0.00000000000E+00  0.74505805969E-08  0.10566000000E+00  0.10566000000E+00 0.  1.
     999900   -1    0    0    0    0 -0.00000000000E+00 -0.00000000000E+00 -0.74505805969E-08  0.93827000000E+00  0.93827000000E+00 0. -1.
     999902    2    1    2    0    0 -0.87083862301E-02 -0.26803297236E-02  0.10475089010E-01  0.10300466413E+01  0.10299530745E+01 0.  0.
     999903    2    3    3    0    0  0.90726485003E-01 -0.95629717842E-01  0.88398984364E-02  0.13958072047E+00  0.45036604077E-01 0.  0.
         14    1    1    2    0    0  0.87083862301E-02  0.26803297236E-02 -0.10475089010E-01  0.13883358669E-01  0.00000000000E+00 0.  1.
     999901    1    3    3    0    0 -0.99434871233E-01  0.92949388119E-01  0.16351905734E-02  0.89046592086E+00  0.88000000000E+00 0. -1.
        -11    1    4    4    0    0  0.12971503890E-01 -0.73254265338E-03 -0.87057137489E-02  0.15647591022E-01  0.51100000000E-03 0.  1.
         11    1    4    4    0    0  0.77754981113E-01 -0.94897175189E-01  0.17545612185E-01  0.12393312945E+00  0.51100000000E-03 0. -1.
</event>
<event>
 8    1  0.2183582E+004  0.1043930E+01  0.7957747E-01            NaN
         13   -1    0    0    0    0  0.00000000000E+00  0.00000000000E+00  0.74505805969E-08  0.10566000000E+00  0.10566000000E+00 0. -1.
     999900   -1    0    0    0    0 -0.00000000000E+00 -0.00000000000E+00 -0.74505805969E-08  0.93827000000E+00  0.93827000000E+00 0. -1.
     999902    2    1    2    0    0 -0.12002221935E-01 -0.26156902331E-02  0.54880612350E-02  0.10304758563E+01  0.10303880223E+01 0.  0.
     999903    2    3    3    0    0  0.26165976708E-01 -0.59497847468E-01  0.11662807658E+00  0.14084419419E+00  0.44836665795E-01 0.  0.
         14    1    1    2    0    0  0.12002221935E-01  0.26156902331E-02 -0.54880612350E-02  0.13454143708E-01  0.00000000000E+00 0.  1.
     999901    1    3    3    0    0 -0.38168198644E-01  0.56882157235E-01 -0.11114001535E+00  0.88963166210E+00  0.88000000000E+00 0. -1.
        -11    1    4    4    0    0  0.30114987115E-01 -0.62493392039E-01  0.89374528525E-01  0.11313887028E+00  0.51100000000E-03 0.  1.
         11    1    4    4    0    0 -0.39490104066E-02  0.29955445705E-02  0.27253548059E-01  0.27705323916E-01  0.51100000000E-03 0. -1.
</event>
<event>
 8    1  0.2183582E+004  0.1043930E+01  0.7957747E-01            NaN
         13   -1    0    0    0    0  0.00000000000E+00  0.00000000000E+00  0.74505805969E-08  0.10566000000E+00  0.10566000000E+00 0.  1.
     999900   -1    0    0    0    0 -0.00000000000E+00 -0.00000000000E+00 -0.74505805969E-08  0.93827000000E+00  0.93827000000E+00 0. -1.
     999902    2    1    2    0    0  0.57744387208E-02  0.96240458514E-02  0.80642438637E-02  0.10301097818E+01  0.10300170699E+01 0.  0.
     999903    2    3    3    0    0 -0.90742742550E-01 -0.16419403498E-01  0.95136248844E-01  0.14017980617E+00  0.45778052348E-01 0.  0.
         14    1    1    2    0    0 -0.57744387208E-02 -0.96240458514E-02 -0.80642438637E-02  0.13820218167E-01  0.00000000000E+00 0. -1.
     999901    1    3    3    0    0  0.96517181271E-01  0.26043449349E-01 -0.87072004980E-01  0.88992997566E+00  0.88000000000E+00 0. -1.
        -11    1    4    4    0    0 -0.24304667990E-01 -0.24377083224E-01  0.44515215923E-01  0.56274547020E-01  0.51100000000E-03 0.  1.
         11    1    4    4    0    0 -0.66438074560E-01  0.79576797264E-02  0.50621032921E-01  0.83905259149E-01  0.51100000000E-03 0. -1.
</event>
<event>
 8    1  0.2183582E+004  0.1043930E+01  0.7957747E-01            NaN
         13   -1    0    0    0    0  0.00000000000E+00  0.00000000000E+00  0.74505805969E-08  0.10566000000E+00  0.10566000000E+00 0.  1.
     999900   -1    0    0    0    0 -0.00000000000E+00 -0.00000000000E+00 -0.74505805969E-08  0.93827000000E+00  0.93827000000E+00 0.  1.
     999902    2    1    2    0    0  0.12849904327E-01  0.17255476670E-03 -0.36854443840E-02  0.10305609194E+01  0.10304741997E+01 0.  0.
     999903    2    3    3    0    0 -0.42819989017E-02 -0.53650015688E-01  0.12124225266E+00  0.13994467167E+00  0.44588873040E-01 0.  0.
         14    1    1    2    0    0 -0.12849904327E-01 -0.17255476670E-03  0.36854443840E-02  0.13369080622E-01  0.00000000000E+00 0.  1.
     999901    1    3    3    0    0  0.17131903229E-01  0.53822570455E-01 -0.12492769705E+00  0.89061624771E+00  0.88000000000E+00 0.  1.
        -11    1    4    4    0    0  0.18780407522E-01 -0.36743857639E-01  0.69828622069E-01  0.81111727648E-01  0.51100000000E-03 0.  1.
         11    1    4    4    0    0 -0.23062406424E-01 -0.16906158049E-01  0.51413630594E-01  0.58832944019E-01  0.51100000000E-03 0. -1.
</event>
<event>
 8    1  0.2183582E+004  0.1043930E+01  0.7957747E-01            NaN
         13   -1    0    0    0    0  0.00000000000E+00  0.00000000000E+00  0.74505805969E-08  0.10566000000E+00  0.10566000000E+00 0.  1.
     999900   -1    0    0    0    0 -0.00000000000E+00 -0.00000000000E+00 -0.74505805969E-08  0.93827000000E+00  0.93827000000E+00 0. -1.
     999902    2    1    2    0    0 -0.33672777419E-02 -0.45695965155E-02  0.11377652953E-01  0.10312150183E+01  0.10311366269E+01 0.  0.
     999903    2    3    3    0    0 -0.65357981944E-01 -0.10750924709E+00  0.49031466543E-01  0.14225088592E+00  0.44736180198E-01 0.  0.
         14    1    1    2    0    0  0.33672777419E-02  0.45695965155E-02 -0.11377652953E-01  0.12714981653E-01  0.00000000000E+00 0. -1.
     999901    1    3    3    0    0  0.61990704202E-01  0.10293965058E+00 -0.37653813590E-01  0.88896413243E+00  0.88000000000E+00 0. -1.
        -11    1    4    4    0    0  0.33868746304E-04 -0.38059359066E-01  0.16202944848E-01  0.41368013033E-01  0.51100000000E-03 0.  1.
         11    1    4    4    0    0 -0.65391850690E-01 -0.69449888028E-01  0.32828521695E-01  0.10088287288E+00  0.51100000000E-03 0. -1.
</event>
<event>
 8    1  0.2183582E+004  0.1043930E+01  0.7957747E-01            NaN
         13   -1    0    0    0    0  0.00000000000E+00  0.00000000000E+00  0.74505805969E-08  0.10566000000E+00  0.10566000000E+00 0.  1.
     999900   -1    0    0    0    0 -0.00000000000E+00 -0.00000000000E+00 -0.74505805969E-08  0.93827000000E+00  0.93827000000E+00 0.  1.
     999902    2    1    2    0    0 -0.85773875576E-02  0.63855198571E-02 -0.11441911098E-01  0.10282691006E+01  0.10281498332E+01 0.  0.
     999903    2    3    3    0    0 -0.79285371776E-01  0.89488620114E-01  0.54348462978E-01  0.13909301137E+00  0.45811866096E-01 0.  0.
         14    1    1    2    0    0  0.85773875576E-02 -0.63855198571E-02  0.11441911098E-01  0.15660899423E-01  0.00000000000E+00 0.  1.
     999901    1    3    3    0    0  0.70707984219E-01 -0.83103100257E-01 -0.65790374075E-01  0.88917608921E+00  0.88000000000E+00 0. -1.
        -11    1    4    4    0    0 -0.45326995450E-02  0.29266248895E-01  0.24864721389E-01  0.38672654167E-01  0.51100000000E-03 0.  1.
         11    1    4    4    0    0 -0.74752672231E-01  0.60222371219E-01  0.29483741589E-01  0.10042035720E+00  0.51100000000E-03 0. -1.
</event>
<event>
 8    1  0.2183582E+004  0.1043930E+01  0.7957747E-01            NaN
         13   -1    0    0    0    0  0.00000000000E+00  0.00000000000E+00  0.74505805969E-08  0.10566000000E+00  0.10566000000E+00 0.  1.
     999900   -1    0    0    0    0 -0.00000000000E+00 -0.00000000000E+00 -0.74505805969E-08  0.93827000000E+00  0.93827000000E+00 0.  1.
     999902    2    1    2    0    0 -0.88766333380E-02  0.11098158106E-01  0.15723490800E-02  0.10296318877E+01  0.10295326067E+01 0.  0.
     999903    2    3    3    0    0 -0.88921487167E-01  0.89468369510E-01  0.44681340789E-01  0.14148355900E+00  0.45929894739E-01 0.  0.
         14    1    1    2    0    0  0.88766333380E-02 -0.11098158106E-01 -0.15723490800E-02  0.14298112267E-01  0.00000000000E+00 0. -1.
     999901    1    3    3    0    0  0.80044853829E-01 -0.78370211404E-01 -0.43108991709E-01  0.88814832873E+00  0.88000000000E+00 0. -1.
        -11    1    4    4    0    0 -0.67208257495E-01  0.80041545795E-01  0.51950001693E-01  0.11671616309E+00  0.51100000000E-03 0. -1.
         11    1    4    4    0    0 -0.21713229672E-01  0.94268237143E-02 -0.72686609038E-02  0.24767395916E-01  0.51100000000E-03 0.  1.
</event>
<event>
 8    1  0.2183582E+004  0.1043930E+01  0.7957747E-01            NaN
         13   -1    0    0    0    0  0.00000000000E+00  0.00000000000E+00  0.74505805969E-08  0.10566000000E+00  0.10566000000E+00 0.  1.
     999900   -1    0    0    0    0 -0.00000000000E+00 -0.00000000000E+00 -0.74505805969E-08  0.93827000000E+00  0.93827000000E+00 0.  1.
     999902    2    1    2    0    0 -0.12064257179E-01  0.23912987260E-02  0.26347974108E-02  0.10313519728E+01  0.10312752712E+01 0.  0.
     999903    2    3    3    0    0 -0.60872749401E-01 -0.24399491211E-01  0.11809625875E+00  0.14206497503E+00  0.43987543798E-01 0.  0.
         14    1    1    2    0    0  0.12064257179E-01 -0.23912987260E-02 -0.26347974108E-02  0.12578027201E-01  0.00000000000E+00 0. -1.
     999901    1    3    3    0    0  0.48808492222E-01  0.26790789937E-01 -0.11546146134E+00  0.88928699776E+00  0.88000000000E+00 0.  1.
        -11    1    4    4    0    0 -0.18019906385E-01 -0.13032153873E-01  0.84532268132E-02  0.23796475059E-01  0.51100000000E-03 0. -1.
         11    1    4    4    0    0 -0.42852843016E-01 -0.11367337338E-01  0.10964303194E+00  0.11826849997E+00  0.51100000000E-03 0.  1.
</event>
<event>
 8    1  0.2183582E+004  0.1043930E+01  0.7957747E-01            NaN
         13   -1    0    0    0    0  0.00000000000E+00  0.00000000000E+00  0.74505805969E-08  0.10566000000E+00  0.10566000000E+00 0.  1.
     999900   -1    0    0    0    0 -0.00000000000E+00 -0.00000000000E+00 -0.74505805969E-08  0.93827000000E+00  0.93827000000E+00 0. -1.
     999902    2    1    2    0    0 -0.90850289014E-02  0.10686286865E-01  0.32704755284E-02  0.10295275527E+01  0.10294268072E+01 0.  0.
     999903    2    3    3    0    0  0.11912194319E+00  0.46568059542E-01  0.26351184975E-01  0.13921454685E+00  0.48246073271E-01 0.  0.
         14    1    1    2    0    0  0.90850289014E-02 -0.10686286865E-01 -0.32704755284E-02  0.14402447267E-01  0.00000000000E+00 0.  1.
     999901    1    3    3    0    0 -0.12820697209E+00 -0.35881772677E-01 -0.23080709447E-01  0.89031300589E+00  0.88000000000E+00 0. -1.
        -11    1    4    4    0    0  0.87815278561E-01  0.50120220290E-01  0.51684978211E-02  0.10124492146E+00  0.51100000000E-03 0. -1.
         11    1    4    4    0    0  0.31306664625E-01 -0.35521607479E-02  0.21182687154E-01  0.37969625386E-01  0.51100000000E-03 0.  1.
</event>
<event>
 8    1  0.2183582E+004  0.1043930E+01  0.7957747E-01            NaN
         13   -1    0    0    0    0  0.00000000000E+00  0.00000000000E+00  0.74505805969E-08  0.10566000000E+00  0.10566000000E+00 0.  1.
     999900   -1    0    0    0    0 -0.00000000000E+00 -0.00000000000E+00 -0.74505805969E-08  0.93827000000E+00  0.93827000000E+00 0.  1.
     999902    2    1    2    0    0 -0.11725539318E-01 -0.31774779781E-02  0.58079801168E-02  0.10304645898E+01  0.10303766076E+01 0.  0.
     999903    2    3    3    0    0 -0.98719706446E-01  0.18885407537E-01 -0.88025741835E-01  0.14093689299E+00  0.44860199748E-01 0.  0.
         14    1    1    2    0    0  0.11725539318E-01  0.31774779781E-02 -0.58079801168E-02  0.13465410192E-01  0.00000000000E+00 0. -1.
     999901    1    3    3    0    0  0.86994167128E-01 -0.22062885515E-01  0.93833721952E-01  0.88952769682E+00  0.88000000000E+00 0. -1.
        -11    1    4    4    0    0 -0.66962375358E-01  0.29409879072E-01 -0.43006992601E-01  0.84845525717E-01  0.51100000000E-03 0. -1.
         11    1    4    4    0    0 -0.31757331087E-01 -0.10524471535E-01 -0.45018749235E-01  0.56091367273E-01  0.51100000000E-03 0.  1.
</event>
<event>
 8    1  0.2183582E+004  0.1043930E+01  0.7957747E-01            NaN
         13   -1    0    0    0    0  0.00000000000E+00  0.00000000000E+00  0.74505805969E-08  0.10566000000E+00  0.10566000000E+00 0.  1.
     999900   -1    0    0    0    0 -0.00000000000E+00 -0.00000000000E+00 -0.74505805969E-08  0.93827000000E+00  0.93827000000E+00 0. -1.
     999902    2    1    2    0    0  0.12777580689E-01 -0.45004040568E-02 -0.26060261277E-02  0.10301346538E+01  0.10300422775E+01 0.  0.
     999903    2    3    3    0    0  0.84637595262E-01  0.99220027480E-01 -0.32632595001E-01  0.14062727077E+00  0.41267501034E-01 0.  0.
         14    1    1    2    0    0 -0.12777580689E-01  0.45004040568E-02  0.26060261277E-02  0.13795346212E-01  0.00000000000E+00 0. -1.
     999901    1    3    3    0    0 -0.71860014573E-01 -0.10372043154E+00  0.30026568873E-01  0.88950738302E+00  0.88000000000E+00 0.  1.
        -11    1    4    4    0    0  0.21139285330E-01  0.54819783788E-01 -0.78593449800E-02  0.59279916526E-01  0.51100000000E-03 0. -1.
         11    1    4    4    0    0  0.63498309932E-01  0.44400243692E-01 -0.24773250021E-01  0.81347354239E-01  0.51100000000E-03 0.  1.
</event>
<event>
 8    1  0.2183582E+004  0.1043930E+01  0.7957747E-01            NaN
         13   -1    0    0    0    0  0.00000000000E+00  0.00000000000E+00  0.74505805969E-08  0.10566000000E+00  0.10566000000E+00 0. -1.
     999900   -1    0    0    0    0 -0.00000000000E+00 -0.00000000000E+00 -0.74505805969E-08  0.93827000000E+00  0.93827000000E+00 0.  1.
     999902    2    1    2    0    0  0.12592464041E-01  0.40465587038E-02 -0.18335781926E-02  0.10305768432E+01  0.10304903313E+01 0.  0.
     999903    2    3    3    0    0  0.55090259233E-01 -0.94724808287E-01 -0.76781271054E-01  0.14086958672E+00  0.44058494204E-01 0.  0.
         14    1    1    2    0    0 -0.12592464041E-01 -0.40465587038E-02  0.18335781926E-02  0.13353156816E-01  0.00000000000E+00 0. -1.
     999901    1    3    3    0    0 -0.42497795192E-01  0.98771366990E-01  0.74947692862E-01  0.88970725646E+00  0.88000000000E+00 0. -1.
        -11    1    4    4    0    0  0.27608714462E-01 -0.30833359828E-01 -0.53248675654E-01  0.67443456113E-01  0.51100000000E-03 0. -1.
         11    1    4    4    0    0  0.27481544771E-01 -0.63891448458E-01 -0.23532595400E-01  0.73426130610E-01  0.51100000000E-03 0.  1.
</event>
<event>
 8    1  0.2183582E+004  0.1043930E+01  0.7957747E-01            NaN
         13   -1    0    0    0    0  0.00000000000E+00  0.00000000000E+00  0.74505805969E-08  0.10566000000E+00  0.10566000000E+00 0.  1.
     999900   -1    0    0    0    0 -0.00000000000E+00 -0.00000000000E+00 -0.74505805969E-08  0.93827000000E+00  0.93827000000E+00 0.  1.
     999902    2    1    2    0    0 -0.88108439937E-02 -0.10737140513E-01  0.90239034953E-04  0.10300402447E+01  0.10299465911E+01 0.  0.
     999903    2    3    3    0    0 -0.11125614163E+00  0.27167929056E-01 -0.69489109831E-01  0.14056111676E+00  0.42575412387E-01 0.  0.
         14    1    1    2    0    0  0.88108439937E-02  0.10737140513E-01 -0.90239034953E-04  0.13889755266E-01  0.00000000000E+00 0. -1.
     999901    1    3    3    0    0  0.10244529764E+00 -0.37905069569E-01  0.69579348866E-01  0.88947912797E+00  0.88000000000E+00 0. -1.
        -11    1    4    4    0    0 -0.51501394485E-01  0.16412111852E-01 -0.57032355691E-01  0.78579270588E-01  0.51100000000E-03 0. -1.
         11    1    4    4    0    0 -0.59754747149E-01  0.10755817203E-01 -0.12456754139E-01  0.61981846175E-01  0.51100000000E-03 0.  1.
</event>
<event>
 8    1  0.2183582E+004  0.1043930E+01  0.7957747E-01            NaN
         13   -1    0    0    0    0  0.00000000000E+00  0.00000000000E+00  0.74505805969E-08  0.10566000000E+00  0.10566000000E+00 0.  1.
     999900   -1    0    0    0    0 -0.00000000000E+00 -0.00000000000E+00 -0.74505805969E-08  0.93827000000E+00  0.93827000000E+00 0.  1.
     999902    2    1    2    0    0 -0.12866476383E-01 -0.42152909832E-02 -0.50312576538E-03  0.10303812721E+01  0.10302921905E+01 0.  0.
     999903    2    3    3    0    0  0.10958276505E+00  0.31949526851E-02 -0.72546205370E-01  0.13895604597E+00  0.45024889547E-01 0.  0.
         14    1    1    2    0    0  0.12866476383E-01  0.42152909832E-02  0.50312576538E-03  0.13548727916E-01  0.00000000000E+00 0.  1.
     999901    1    3    3    0    0 -0.12244924143E+00 -0.74102436682E-02  0.72043079605E-01  0.89142522612E+00  0.88000000000E+00 0. -1.
        -11    1    4    4    0    0  0.99341204226E-01 -0.13941238883E-02 -0.44730503567E-01  0.10895731967E+00  0.51100000000E-03 0.  1.
         11    1    4    4    0    0  0.10241560823E-01  0.45890765733E-02 -0.27815701803E-01  0.29998726301E-01  0.51100000000E-03 0. -1.
</event>
<event>
 8    1  0.2183582E+004  0.1043930E+01  0.7957747E-01            NaN
         13   -1    0    0    0    0  0.00000000000E+00  0.00000000000E+00  0.74505805969E-08  0.10566000000E+00  0.10566000000E+00 0.  1.
     999900   -1    0    0    0    0 -0.00000000000E+00 -0.00000000000E+00 -0.74505805969E-08  0.93827000000E+00  0.93827000000E+00 0.  1.
     999902    2    1    2    0    0 -0.78258330194E-03  0.43751920902E-02  0.14615398157E-01  0.10286537241E+01  0.10285402858E+01 0.  0.
     999903    2    3    3    0    0 -0.53367874495E-01 -0.82513186741E-01  0.88501405895E-01  0.13973643583E+00  0.45135536315E-01 0.  0.
         14    1    1    2    0    0  0.78258330194E-03 -0.43751920902E-02 -0.14615398157E-01  0.15276275912E-01  0.00000000000E+00 0. -1.
     999901    1    3    3    0    0  0.52585291193E-01  0.86888378831E-01 -0.73886007738E-01  0.88891728826E+00  0.88000000000E+00 0.  1.
        -11    1    4    4    0    0 -0.14654223099E-01 -0.61467404250E-01  0.60759429093E-01  0.87663888714E-01  0.51100000000E-03 0. -1.
         11    1    4    4    0    0 -0.38713651396E-01 -0.21045782491E-01  0.27741976803E-01  0.52072547115E-01  0.51100000000E-03 0.  1.
</event>
<event>
 8    1  0.2183582E+004  0.1043930E+01  0.7957747E-01            NaN
         13   -1    0    0    0    0  0.00000000000E+00  0.00000000000E+00  0.74505805969E-08  0.10566000000E+00  0.10566000000E+00 0. -1.
     999900   -1    0    0    0    0 -0.00000000000E+00 -0.00000000000E+00 -0.74505805969E-08  0.93827000000E+00  0.93827000000E+00 0.  1.
     999902    2    1    2    0    0  0.24933495302E-02 -0.40446846541E-02  0.13943940476E-01  0.10291987495E+01  0.10290933175E+01 0.  0.
     999903    2    3    3    0    0 -0.18737475830E-01  0.92107886497E-01  0.93879163363E-01  0.14010611947E+00  0.44513724214E-01 0.  0.
         14    1    1    2    0    0 -0.24933495302E-02  0.40446846541E-02 -0.13943940476E-01  0.14731250518E-01  0.00000000000E+00 0.  1.
     999901    1    3    3    0    0  0.21230825360E-01 -0.96152571151E-01 -0.79935222887E-01  0.88909263001E+00  0.88000000000E+00 0. -1.
        -11    1    4    4    0    0 -0.21214504149E-01  0.35119604682E-01  0.17095946668E-01  0.44451932835E-01  0.51100000000E-03 0.  1.
         11    1    4    4    0    0  0.24770283193E-02  0.56988281815E-01  0.76783216695E-01  0.95654186634E-01  0.51100000000E-03 0. -1.
</event>
<event>
 8    1  0.2183582E+004  0.1043930E+01  0.7957747E-01            NaN
         13   -1    0    0    0    0  0.00000000000E+00  0.00000000000E+00  0.74505805969E-08  0.10566000000E+00  0.10566000000E+00 0. -1.
     999900   -1    0    0    0    0 -0.00000000000E+00 -0.00000000000E+00 -0.74505805969E-08  0.93827000000E+00  0.93827000000E+00 0.  1.
     999902    2    1    2    0    0 -0.77271310174E-02  0.16792549262E-02  0.11512137794E-01  0.10299636917E+01  0.10298689958E+01 0.  0.
     999903    2    3    3    0    0 -0.17274291756E-01 -0.38441550583E-01  0.12278722083E+00  0.14199805531E+00  0.57537745385E-01 0.  0.
         14    1    1    2    0    0  0.77271310174E-02 -0.16792549262E-02 -0.11512137794E-01  0.13966308297E-01  0.00000000000E+00 0.  1.
     999901    1    3    3    0    0  0.95471607385E-02  0.40120805509E-01 -0.11127508304E+00  0.88796563640E+00  0.88000000000E+00 0.  1.
        -11    1    4    4    0    0 -0.13971184779E-01  0.12413353321E-01  0.20679907412E-01  0.27878397307E-01  0.51100000000E-03 0.  1.
         11    1    4    4    0    0 -0.33031069764E-02 -0.50854903904E-01  0.10210731342E+00  0.11411965800E+00  0.51100000000E-03 0. -1.
</event>
<event>
 8    1  0.2183582E+004  0.1043930E+01  0.7957747E-01            NaN
         13   -1    0    0    0    0  0.00000000000E+00  0.00000000000E+00  0.74505805969E-08  0.10566000000E+00  0.10566000000E+00 0. -1.
     999900   -1    0    0    0    0 -0.00000000000E+00 -0.00000000000E+00 -0.74505805969E-08  0.93827000000E+00  0.93827000000E+00 0. -1.
     999902    2    1    2    0    0 -0.76502335496E-02  0.10428535123E-01 -0.59980649915E-02  0.10296731700E+01  0.10295744654E+01 0.  0.
     999903    2    3    3    0    0 -0.77158870283E-01 -0.77823867209E-01 -0.74452555835E-01  0.13989457146E+00  0.44913945295E-01 0.  0.
         14    1    1    2    0    0  0.76502335496E-02 -0.10428535123E-01  0.59980649915E-02  0.14256830006E-01  0.00000000000E+00 0. -1.
     999901    1    3    3    0    0  0.69508636733E-01  0.88252402333E-01  0.68454490843E-01  0.88977859854E+00  0.88000000000E+00 0.  1.
        -11    1    4    4    0    0 -0.41910334559E-01 -0.50562975017E-01 -0.18242118799E-01  0.68162501456E-01  0.51100000000E-03 0.  1.
         11    1    4    4    0    0 -0.35248535724E-01 -0.27260892192E-01 -0.56210437036E-01  0.71732070001E-01  0.51100000000E-03 0. -1.
</event>
<event>
 8    1  0.2183582E+004  0.1043930E+01  0.7957747E-01            NaN
         13   -1    0    0    0    0  0.00000000000E+00  0.00000000000E+00  0.74505805969E-08  0.10566000000E+00  0.10566000000E+00 0.  1.
     999900   -1    0    0    0    0 -0.00000000000E+00 -0.00000000000E+00 -0.74505805969E-08  0.93827000000E+00  0.93827000000E+00 0.  1.
     999902    2    1    2    0    0 -0.75866160959E-03 -0.26432104315E-02  0.13288353144E-01  0.10303600900E+01  0.10302707278E+01 0.  0.
     999903    2    3    3    0    0 -0.37379108090E-01  0.11341926769E+00 -0.55365932359E-01  0.13933541756E+00  0.45692932901E-01 0.  0.
         14    1    1    2    0    0  0.75866160959E-03  0.26432104315E-02 -0.13288353144E-01  0.13569910025E-01  0.00000000000E+00 0. -1.
     999901    1    3    3    0    0  0.36620446481E-01 -0.11606247812E+00  0.68654285503E-01  0.89102467241E+00  0.88000000000E+00 0.  1.
        -11    1    4    4    0    0 -0.20249950078E-01  0.55767871015E-01 -0.52332938610E-01  0.79114559345E-01  0.51100000000E-03 0.  1.
         11    1    4    4    0    0 -0.17129158013E-01  0.57651396673E-01 -0.30329937487E-02  0.60220858219E-01  0.51100000000E-03 0. -1.
</event>
<event>
 8    1  0.2183582E+004  0.1043930E+01  0.7957747E-01            NaN
         13   -1    0    0    0    0  0.00000000000E+00  0.00000000000E+00  0.74505805969E-08  0.10566000000E+00  0.10566000000E+00 0.  1.
     999900   -1    0    0    0    0 -0.00000000000E+00 -0.00000000000E+00 -0.74505805969E-08  0.93827000000E+00  0.93827000000E+00 0.  1.
     999902    2    1    2    0    0  0.67948774343E-03 -0.84018959743E-02  0.11290595348E-01  0.10298398934E+01  0.10297434996E+01 0.  0.
     999903    2    3    3    0    0 -0.11876401074E+00 -0.15937766594E-01  0.57687383550E-01  0.14052768694E+00  0.45401474915E-01 0.  0.
         14    1    1    2    0    0 -0.67948774343E-03  0.84018959743E-02 -0.11290595348E-01  0.14090106560E-01  0.00000000000E+00 0. -1.
     999901    1    3    3    0    0  0.11944349848E+00  0.75358706193E-02 -0.46396788202E-01  0.88931220650E+00  0.88000000000E+00 0.  1.
        -11    1    4    4    0    0 -0.52540715234E-01 -0.28960465211E-01  0.20097808137E-01  0.63272571589E-01  0.51100000000E-03 0. -1.
         11    1    4    4    0    0 -0.66223295507E-01  0.13022698618E-01  0.37589575413E-01  0.77255115351E-01  0.51100000000E-03 0.  1.
</event>
<event>
 8    1  0.2183582E+004  0.1043930E+01  0.7957747E-01            NaN
         13   -1    0    0    0    0  0.00000000000E+00  0.00000000000E+00  0.74505805969E-08  0.10566000000E+00  0.10566000000E+00 0.  1.
     999900   -1    0    0    0    0 -0.00000000000E+00 -0.00000000000E+00 -0.74505805969E-08  0.93827000000E+00  0.93827000000E+00 0.  1.
     999902    2    1    2    0    0  0.11846924512E-01  0.41733325545E-02  0.82588980954E-02  0.10288975111E+01  0.10287876907E+01 0.  0.
     999903    2    3    3    0    0 -0.40751353249E-01  0.12423619795E+00 -0.13531636043E-01  0.13892195084E+00  0.44954394432E-01 0.  0.
         14    1    1    2    0    0 -0.11846924512E-01 -0.41733325545E-02 -0.82588980954E-02  0.15032488908E-01  0.00000000000E+00 0. -1.
     999901    1    3    3    0    0  0.52598277761E-01 -0.12006286539E+00  0.21790534139E-01  0.88997556025E+00  0.88000000000E+00 0. -1.
        -11    1    4    4    0    0 -0.86653653077E-02  0.87882884812E-01 -0.18335825807E-01  0.90193977781E-01  0.51100000000E-03 0.  1.
         11    1    4    4    0    0 -0.32085987941E-01  0.36353313135E-01  0.48041897641E-02  0.48727973058E-01  0.51100000000E-03 0. -1.
</event>
<event>
 8    1  0.2183582E+004  0.1043930E+01  0.7957747E-01            NaN
         13   -1    0    0    0    0  0.00000000000E+00  0.00000000000E+00  0.74505805969E-08  0.10566000000E+00  0.10566000000E+00 0. -1.
     999900   -1    0    0    0    0 -0.00000000000E+00 -0.00000000000E+00 -0.74505805969E-08  0.93827000000E+00  0.93827000000E+00 0.  1.
     999902    2    1    2    0    0  0.24353543815E-03  0.17525952380E-01 -0.11020236265E-02  0.10263677458E+01  0.10262174803E+01 0.  0.
     999903    2    3    3    0    0  0.67543140494E-01 -0.16163916445E-01 -0.10855374500E+00  0.13664300380E+00  0.45431783053E-01 0.  0.
         14    1    1    2    0    0 -0.24353543815E-03 -0.17525952380E-01  0.11020236265E-02  0.17562254195E-01  0.00000000000E+00 0. -1.
     999901    1    3    3    0    0 -0.67299605056E-01  0.33689868825E-01  0.10745172138E+00  0.88972474200E+00  0.88000000000E+00 0. -1.
        -11    1    4    4    0    0  0.18934433689E-01  0.68952623094E-02 -0.62996844610E-01  0.66143185388E-01  0.51100000000E-03 0.  1.
         11    1    4    4    0    0  0.48608706805E-01 -0.23059178754E-01 -0.45556900394E-01  0.70499818416E-01  0.51100000000E-03 0. -1.
</event>
<event>
 8    1  0.2183582E+004  0.1043930E+01  0.7957747E-01            NaN
         13   -1    0    0    0    0  0.00000000000E+00  0.00000000000E+00  0.74505805969E-08  0.10566000000E+00  0.10566000000E+00 0.  1.
     999900   -1    0    0    0    0 -0.00000000000E+00 -0.00000000000E+00 -0.74505805969E-08  0.93827000000E+00  0.93827000000E+00 0. -1.
     999902    2    1    2    0    0 -0.35967676848E-02  0.15319310612E-01 -0.42857637645E-02  0.10276209293E+01  0.10274915029E+01 0.  0.
     999903    2    3    3    0    0 -0.10860898666E+00  0.74743847940E-01 -0.53272569653E-02  0.13938676736E+00  0.44919221475E-01 0.  0.
         14    1    1    2    0    0  0.35967676848E-02 -0.15319310612E-01  0.42857637645E-02  0.16309070680E-01  0.00000000000E+00 0.  1.
     999901    1    3    3    0    0  0.10501221898E+00 -0.59424537328E-01  0.10414932008E-02  0.88823416196E+00  0.88000000000E+00 0. -1.
        -11    1    4    4    0    0 -0.75819399638E-01  0.71787843461E-01  0.59471514977E-02  0.10458348609E+00  0.51100000000E-03 0. -1.
         11    1    4    4    0    0 -0.32789587027E-01  0.29560044792E-02 -0.11274408463E-01  0.34803281268E-01  0.51100000000E-03 0.  1.
</event>
<event>
 8    1  0.2183582E+004  0.1043930E+01  0.7957747E-01            NaN
         13   -1    0    0    0    0  0.00000000000E+00  0.00000000000E+00  0.74505805969E-08  0.10566000000E+00  0.10566000000E+00 0.  1.
     999900   -1    0    0    0    0 -0.00000000000E+00 -0.00000000000E+00 -0.74505805969E-08  0.93827000000E+00  0.93827000000E+00 0. -1.
     999902    2    1    2    0    0 -0.18586477160E-02  0.52250940987E-02 -0.98667682028E-02  0.10326114624E+01  0.10325494288E+01 0.  0.
     999903    2    3    3    0    0 -0.12370878735E+00  0.53632493401E-01  0.17927263685E-02  0.14282121929E+00  0.47057182198E-01 0.  0.
         14    1    1    2    0    0  0.18586477160E-02 -0.52250940987E-02  0.98667682028E-02  0.11318537646E-01  0.00000000000E+00 0.  1.
     999901    1    3    3    0    0  0.12185013963E+00 -0.48407399302E-01 -0.11659494571E-01  0.88979024306E+00  0.88000000000E+00 0.  1.
        -11    1    4    4    0    0 -0.64000170626E-01  0.24117193515E-01 -0.22379159265E-01  0.71963523772E-01  0.51100000000E-03 0.  1.
         11    1    4    4    0    0 -0.59708616723E-01  0.29515299885E-01  0.24171885634E-01  0.70857695520E-01  0.51100000000E-03 0. -1.
</event>
<event>
 8    1  0.2183582E+004  0.1043930E+01  0.7957747E-01            NaN
         13   -1    0    0    0    0  0.00000000000E+00  0.00000000000E+00  0.74505805969E-08  0.10566000000E+00  0.10566000000E+00 0. -1.
     999900   -1    0    0    0    0 -0.00000000000E+00 -0.00000000000E+00 -0.74505805969E-08  0.93827000000E+00  0.93827000000E+00 0. -1.
     999902    2    1    2    0    0 -0.11831335044E-01 -0.69515564577E-02 -0.33752997781E-02  0.10297985714E+01  0.10297016074E+01 0.  0.
     999903    2    3    3    0    0 -0.86181819116E-01  0.16736086195E-01 -0.10075875736E+00  0.14099452284E+00  0.44941359126E-01 0.  0.
         14    1    1    2    0    0  0.11831335044E-01  0.69515564577E-02  0.33752997781E-02  0.14131428615E-01  0.00000000000E+00 0. -1.
     999901    1    3    3    0    0  0.74350484071E-01 -0.23687642653E-01  0.97383457579E-01  0.88880404854E+00  0.88000000000E+00 0.  1.
        -11    1    4    4    0    0 -0.51794515426E-01  0.12615591789E-01 -0.27558397905E-01  0.60012926944E-01  0.51100000000E-03 0.  1.
         11    1    4    4    0    0 -0.34387303690E-01  0.41204944064E-02 -0.73200359452E-01  0.80981595898E-01  0.51100000000E-03 0. -1.
</event>
<event>
 8    1  0.2183582E+004  0.1043930E+01  0.7957747E-01            NaN
         13   -1    0    0    0    0  0.00000000000E+00  0.00000000000E+00  0.74505805969E-08  0.10566000000E+00  0.10566000000E+00 0.  1.
     999900   -1    0    0    0    0 -0.00000000000E+00 -0.00000000000E+00 -0.74505805969E-08  0.93827000000E+00  0.93827000000E+00 0.  1.
     999902    2    1    2    0    0  0.49622407669E-02  0.63116836484E-02  0.11858500727E-01  0.10296092031E+01  0.10295096046E+01 0.  0.
     999903    2    3    3    0    0 -0.37850619530E-01  0.11238481649E+00  0.61534470028E-01  0.14081667815E+00  0.44495274648E-01 0.  0.
         14    1    1    2    0    0 -0.49622407669E-02 -0.63116836484E-02 -0.11858500727E-01  0.14320796884E-01  0.00000000000E+00 0. -1.
     999901    1    3    3    0    0  0.42812860296E-01 -0.10607313284E+00 -0.49675969301E-01  0.88879252497E+00  0.88000000000E+00 0.  1.
        -11    1    4    4    0    0 -0.20319119740E-01  0.13890254527E-01  0.27275287600E-02  0.24769059973E-01  0.51100000000E-03 0. -1.
         11    1    4    4    0    0 -0.17531499790E-01  0.98494561963E-01  0.58806941268E-01  0.11604761817E+00  0.51100000000E-03 0.  1.
</event>
<event>
 8    1  0.2183582E+004  0.1043930E+01  0.7957747E-01            NaN
         13   -1    0    0    0    0  0.00000000000E+00  0.00000000000E+00  0.74505805969E-08  0.10566000000E+00  0.10566000000E+00 0. -1.
     999900   -1    0    0    0    0 -0.00000000000E+00 -0.00000000000E+00 -0.74505805969E-08  0.93827000000E+00  0.93827000000E+00 0. -1.
     999902    2    1    2    0    0 -0.29254347985E-02  0.71122364981E-02 -0.11799093537E-01  0.10298459422E+01  0.10297496317E+01 0.  0.
     999903    2    3    3    0    0 -0.84614264922E-01  0.35029720976E-01 -0.97660134188E-01  0.14146282143E+00  0.45689964516E-01 0.  0.
         14    1    1    2    0    0  0.29254347985E-02 -0.71122364981E-02  0.11799093537E-01  0.14084057834E-01  0.00000000000E+00 0. -1.
     999901    1    3    3    0    0  0.81688830123E-01 -0.27917484478E-01  0.85861040651E-01  0.88838312074E+00  0.88000000000E+00 0.  1.
        -11    1    4    4    0    0 -0.14790919668E-01  0.12028418928E-01 -0.50850388283E-01  0.54309090179E-01  0.51100000000E-03 0.  1.
         11    1    4    4    0    0 -0.69823345254E-01  0.23001302048E-01 -0.46809745905E-01  0.87153731251E-01  0.51100000000E-03 0. -1.
</event>
<event>
 8    1  0.2183582E+004  0.1043930E+01  0.7957747E-01            NaN
         13   -1    0    0    0    0  0.00000000000E+00  0.00000000000E+00  0.74505805969E-08  0.10566000000E+00  0.10566000000E+00 0. -1.
     999900   -1    0    0    0    0 -0.00000000000E+00 -0.00000000000E+00 -0.74505805969E-08  0.93827000000E+00  0.93827000000E+00 0. -1.
     999902    2    1    2    0    0 -0.11533557395E-01  0.23406830737E-02 -0.28662505561E-02  0.10318173151E+01  0.10317462162E+01 0.  0.
     999903    2    3    3    0    0  0.12751212009E+00  0.32170876049E-01 -0.19468614079E-01  0.14024612931E+00  0.44672629381E-01 0.  0.
         14    1    1    2    0    0  0.11533557395E-01 -0.23406830737E-02  0.28662505561E-02  0.12112684909E-01  0.00000000000E+00 0. -1.
     999901    1    3    3    0    0 -0.13904567749E+00 -0.29830192976E-01  0.16602363523E-01  0.89157118578E+00  0.88000000000E+00 0.  1.
        -11    1    4    4    0    0  0.61469752275E-01 -0.73697164750E-02 -0.85816100290E-02  0.62503986412E-01  0.51100000000E-03 0. -1.
         11    1    4    4    0    0  0.66042367819E-01  0.39540592524E-01 -0.10887004050E-01  0.77742142898E-01  0.51100000000E-03 0.  1.
</event>
<event>
 8    1  0.2222552E+004  0.1043930E+01  0.7957747E-01            NaN
         13   -1    0    0    0    0  0.00000000000E+00  0.00000000000E+00  0.74505805969E-08  0.10566000000E+00  0.10566000000E+00 0.  1.
     999900   -1    0    0    0    0 -0.00000000000E+00 -0.00000000000E+00 -0.74505805969E-08  0.93827000000E+00  0.93827000000E+00 0.  1.
     999902    2    1    2    0    0  0.50563747691E-02  0.10307821319E-01 -0.73401146513E-02  0.10303029905E+01  0.10302128696E+01 0.  0.
     999903    2    3    3    0    0 -0.54950866745E-01  0.58096708444E-01  0.10538670966E+00  0.13980201702E+00  0.45204204454E-01 0.  0.
         14    1    1    2    0    0 -0.50563747691E-02 -0.10307821319E-01  0.73401146513E-02  0.13627009549E-01  0.00000000000E+00 0.  1.
     999901    1    3    3    0    0  0.60007241514E-01 -0.47788887124E-01 -0.11272682431E+00  0.89050097343E+00  0.88000000000E+00 0.  1.
        -11    1    4    4    0    0 -0.44149176225E-01  0.13798590875E-01  0.52515305914E-01  0.69983350504E-01  0.51100000000E-03 0. -1.
         11    1    4    4    0    0 -0.10801690519E-01  0.44298117569E-01  0.52871403749E-01  0.69818666513E-01  0.51100000000E-03 0.  1.
</event>
<event>
 8    1  0.2183582E+004  0.1043930E+01  0.7957747E-01            NaN
         13   -1    0    0    0    0  0.00000000000E+00  0.00000000000E+00  0.74505805969E-08  0.10566000000E+00  0.10566000000E+00 0.  1.
     999900   -1    0    0    0    0 -0.00000000000E+00 -0.00000000000E+00 -0.74505805969E-08  0.93827000000E+00  0.93827000000E+00 0. -1.
     999902    2    1    2    0    0  0.12280639806E-01 -0.21064656571E-02 -0.64881824292E-02  0.10298819459E+01  0.10297861306E+01 0.  0.
     999903    2    3    3    0    0 -0.87491985176E-01  0.95465755773E-01 -0.16882973265E-01  0.13882472737E+00  0.47103207405E-01 0.  0.
         14    1    1    2    0    0 -0.12280639806E-01  0.21064656571E-02  0.64881824292E-02  0.14048054059E-01  0.00000000000E+00 0. -1.
     999901    1    3    3    0    0  0.99772624982E-01 -0.97572221430E-01  0.10394790836E-01  0.89105721857E+00  0.88000000000E+00 0.  1.
        -11    1    4    4    0    0 -0.28398977884E-01  0.25456121982E-01 -0.26883921376E-01  0.46663930833E-01  0.51100000000E-03 0. -1.
         11    1    4    4    0    0 -0.59093007292E-01  0.70009633791E-01  0.10000948111E-01  0.92160796538E-01  0.51100000000E-03 0.  1.
</event>
<event>
 8    1  0.2183582E+004  0.1043930E+01  0.7957747E-01            NaN
         13   -1    0    0    0    0  0.00000000000E+00  0.00000000000E+00  0.74505805969E-08  0.10566000000E+00  0.10566000000E+00 0. -1.
     999900   -1    0    0    0    0 -0.00000000000E+00 -0.00000000000E+00 -0.74505805969E-08  0.93827000000E+00  0.93827000000E+00 0.  1.
     999902    2    1    2    0    0 -0.56839511889E-02  0.10525635158E-01  0.92951523991E-02  0.10287808695E+01  0.10286693255E+01 0.  0.
     999903    2    3    3    0    0 -0.21002371331E-01  0.13100912399E+00  0.99261429178E-03  0.14040040078E+00  0.45899859328E-01 0.  0.
         14    1    1    2    0    0  0.56839511889E-02 -0.10525635158E-01 -0.92951523991E-02  0.15149130494E-01  0.00000000000E+00 0.  1.
     999901    1    3    3    0    0  0.15318420142E-01 -0.12048348883E+00  0.83025381073E-02  0.88838046873E+00  0.88000000000E+00 0. -1.
        -11    1    4    4    0    0 -0.86541226675E-02  0.11209064358E+00 -0.13982115595E-01  0.11329151290E+00  0.51100000000E-03 0.  1.
         11    1    4    4    0    0 -0.12348248663E-01  0.18918480411E-01  0.14974729887E-01  0.27108887884E-01  0.51100000000E-03 0. -1.
</event>
<event>
 8    1  0.2183582E+004  0.1043930E+01  0.7957747E-01            NaN
         13   -1    0    0    0    0  0.00000000000E+00  0.00000000000E+00  0.74505805969E-08  0.10566000000E+00  0.10566000000E+00 0.  1.
     999900   -1    0    0    0    0 -0.00000000000E+00 -0.00000000000E+00 -0.74505805969E-08  0.93827000000E+00  0.93827000000E+00 0.  1.
     999902    2    1    2    0    0 -0.15477689649E-02 -0.16941521897E-02 -0.15418617097E-01  0.10283415590E+01  0.10282234010E+01 0.  0.
     999903    2    3    3    0    0 -0.56871887013E-02  0.39429462226E-01 -0.12654715595E+00  0.14039007460E+00  0.45914744465E-01 0.  0.
         14    1    1    2    0    0  0.15477689649E-02  0.16941521897E-02  0.15418617097E-01  0.15588441025E-01  0.00000000000E+00 0.  1.
     999901    1    3    3    0    0  0.41394197364E-02 -0.41123614416E-01  0.11112853886E+00  0.88795148438E+00  0.88000000000E+00 0. -1.
        -11    1    4    4    0    0 -0.14728580695E-01  0.43177793993E-01 -0.73979125964E-01  0.86916196321E-01  0.51100000000E-03 0. -1.
         11    1    4    4    0    0  0.90413919935E-02 -0.37483317668E-02 -0.52568029988E-01  0.53473878277E-01  0.51100000000E-03 0.  1.
</event>
<event>
 8    1  0.2183582E+004  0.1043930E+01  0.7957747E-01            NaN
         13   -1    0    0    0    0  0.00000000000E+00  0.00000000000E+00  0.74505805969E-08  0.10566000000E+00  0.10566000000E+00 0. -1.
     999900   -1    0    0    0    0 -0.00000000000E+00 -0.00000000000E+00 -0.74505805969E-08  0.93827000000E+00  0.93827000000E+00 0. -1.
     999902    2    1    2    0    0  0.10809381700E-01  0.49561381790E-02 -0.62803645376E-02  0.10304819884E+01  0.10303942349E+01 0.  0.
     999903    2    3    3    0    0  0.13946231412E-01 -0.11781990403E+00 -0.59302010325E-01  0.14037239326E+00  0.45952727942E-01 0.  0.
         14    1    1    2    0    0 -0.10809381700E-01 -0.49561381790E-02  0.62803645376E-02  0.13448011641E-01  0.00000000000E+00 0. -1.
     999901    1    3    3    0    0 -0.31368497124E-02  0.12277604221E+00  0.53021645787E-01  0.89010959510E+00  0.88000000000E+00 0.  1.
        -11    1    4    4    0    0  0.56807515080E-02 -0.10172491830E+00 -0.30494600632E-01  0.10635041951E+00  0.51100000000E-03 0. -1.
         11    1    4    4    0    0  0.82654799041E-02 -0.16094985723E-01 -0.28807409693E-01  0.34021973748E-01  0.51100000000E-03 0.  1.
</event>
<event>
 8    1  0.2183582E+004  0.1043930E+01  0.7957747E-01            NaN
         13   -1    0    0    0    0  0.00000000000E+00  0.00000000000E+00  0.74505805969E-08  0.10566000000E+00  0.10566000000E+00 0.  1.
     999900   -1    0    0    0    0 -0.00000000000E+00 -0.00000000000E+00 -0.74505805969E-08  0.93827000000E+00  0.93827000000E+00 0.  1.
     999902    2    1    2    0    0 -0.16891055870E-02 -0.76653917490E-03  0.13707012840E-01  0.10300980493E+01  0.10300051787E+01 0.  0.
     999903    2    3    3    0    0  0.67914835741E-02 -0.11740347481E+00  0.63381716696E-01  0.14097282111E+00  0.45015487700E-01 0.  0.
         14    1    1    2    0    0  0.16891055870E-02  0.76653917490E-03 -0.13707012840E-01  0.13831950729E-01  0.00000000000E+00 0. -1.
     999901    1    3    3    0    0 -0.84805891612E-02  0.11663693564E+00 -0.49674703856E-01  0.88912522816E+00  0.88000000000E+00 0.  1.
        -11    1    4    4    0    0  0.17828902367E-01 -0.93644786881E-01  0.63903075457E-01  0.11476532596E+00  0.51100000000E-03 0.  1.
         11    1    4    4    0    0 -0.11037418793E-01 -0.23758687933E-01 -0.52135876112E-03  0.26207495147E-01  0.51100000000E-03 0. -1.
</event>
<event>
 8    1  0.2183582E+004  0.1043930E+01  0.7957747E-01            NaN
         13   -1    0    0    0    0  0.00000000000E+00  0.00000000000E+00  0.74505805969E-08  0.10566000000E+00  0.10566000000E+00 0. -1.
     999900   -1    0    0    0    0 -0.00000000000E+00 -0.00000000000E+00 -0.74505805969E-08  0.93827000000E+00  0.93827000000E+00 0.  1.
     999902    2    1    2    0    0  0.66468179011E-02 -0.11011246950E-01 -0.32899807186E-02  0.10306540171E+01  0.10305685088E+01 0.  0.
     999903    2    3    3    0    0 -0.10406655832E+00  0.36203274524E-01 -0.72697731422E-01  0.13975329396E+00  0.45885698997E-01 0.  0.
         14    1    1    2    0    0 -0.66468179011E-02  0.11011246950E-01  0.32899807186E-02  0.13275982853E-01  0.00000000000E+00 0. -1.
     999901    1    3    3    0    0  0.11071337622E+00 -0.47214521474E-01  0.69407750703E-01  0.89090072318E+00  0.88000000000E+00 0. -1.
        -11    1    4    4    0    0 -0.99100428472E-01  0.24277916154E-01 -0.49983115873E-01  0.11361727478E+00  0.51100000000E-03 0. -1.
         11    1    4    4    0    0 -0.49661298491E-02  0.11925358371E-01 -0.22714615549E-01  0.26136019178E-01  0.51100000000E-03 0.  1.
</event>
<event>
 8    1  0.2183582E+004  0.1043930E+01  0.7957747E-01            NaN
         13   -1    0    0    0    0  0.00000000000E+00  0.00000000000E+00  0.74505805969E-08  0.10566000000E+00  0.10566000000E+00 0.  1.
     999900   -1    0    0    0    0 -0.00000000000E+00 -0.00000000000E+00 -0.74505805969E-08  0.93827000000E+00  0.93827000000E+00 0.  1.
     999902    2    1    2    0    0 -0.13546817107E-02  0.12012804998E-01 -0.10979880547E-01  0.10275990348E+01  0.10274692579E+01 0.  0.
     999903    2    3    3    0    0  0.41659252864E-02 -0.95945945887E-01 -0.87910832266E-01  0.13765300258E+00  0.44688423820E-01 0.  0.
         14    1    1    2    0    0  0.13546817107E-02 -0.12012804998E-01  0.10979880547E-01  0.16330965167E-01  0.00000000000E+00 0.  1.
     999901    1    3    3    0    0 -0.55206069971E-02  0.10795875088E+00  0.76930951719E-01  0.88994603226E+00  0.88000000000E+00 0. -1.
        -11    1    4    4    0    0 -0.19780654014E-01 -0.55302677949E-01 -0.49808441677E-01  0.77011703298E-01  0.51100000000E-03 0.  1.
         11    1    4    4    0    0  0.23946579300E-01 -0.40643267937E-01 -0.38102390589E-01  0.60641299280E-01  0.51100000000E-03 0. -1.
</event>
<event>
 8    1  0.2183582E+004  0.1043930E+01  0.7957747E-01            NaN
         13   -1    0    0    0    0  0.00000000000E+00  0.00000000000E+00  0.74505805969E-08  0.10566000000E+00  0.10566000000E+00 0. -1.
     999900   -1    0    0    0    0 -0.00000000000E+00 -0.00000000000E+00 -0.74505805969E-08  0.93827000000E+00  0.93827000000E+00 0. -1.
     999902    2    1    2    0    0 -0.22876274688E-02  0.12081211333E-03  0.13688081836E-01  0.10300515484E+01  0.10299580481E+01 0.  0.
     999903    2    3    3    0    0 -0.72003908385E-01  0.96935609911E-02 -0.10941969627E+00  0.13870003389E+00  0.44570186478E-01 0.  0.
         14    1    1    2    0    0  0.22876274688E-02 -0.12081211333E-03 -0.13688081836E-01  0.13878451619E-01  0.00000000000E+00 0.  1.
     999901    1    3    3    0    0  0.69716280916E-01 -0.95727488778E-02  0.12310777811E+00  0.89135151449E+00  0.88000000000E+00 0. -1.
        -11    1    4    4    0    0 -0.39597266524E-01 -0.70900434429E-02 -0.87037311089E-01  0.95885175469E-01  0.51100000000E-03 0. -1.
         11    1    4    4    0    0 -0.32406641861E-01  0.16783604434E-01 -0.22382385184E-01  0.42814858426E-01  0.51100000000E-03 0.  1.
</event>
<event>
 8    1  0.2183582E+004  0.1043930E+01  0.7957747E-01            NaN
         13   -1    0    0    0    0  0.00000000000E+00  0.00000000000E+00  0.74505805969E-08  0.10566000000E+00  0.10566000000E+00 0.  1.
     999900   -1    0    0    0    0 -0.00000000000E+00 -0.00000000000E+00 -0.74505805969E-08  0.93827000000E+00  0.93827000000E+00 0. -1.
     999902    2    1    2    0    0  0.32323004614E-02 -0.13321139723E-01 -0.21568820980E-02  0.10300536651E+01  0.10299601936E+01 0.  0.
     999903    2    3    3    0    0 -0.37309947211E-01 -0.36365574833E-01  0.12084691965E+00  0.14027579671E+00  0.48567828453E-01 0.  0.
         14    1    1    2    0    0 -0.32323004614E-02  0.13321139723E-01  0.21568820980E-02  0.13876334897E-01  0.00000000000E+00 0.  1.
     999901    1    3    3    0    0  0.40542247673E-01  0.23044435111E-01 -0.12300380175E+00  0.88977786839E+00  0.88000000000E+00 0. -1.
        -11    1    4    4    0    0 -0.42484632369E-01 -0.11353663385E-01  0.60963935045E-01  0.75171218940E-01  0.51100000000E-03 0.  1.
         11    1    4    4    0    0  0.51746851572E-02 -0.25011911448E-01  0.59882984604E-01  0.65104577772E-01  0.51100000000E-03 0. -1.
</event>
<event>
 8    1  0.2183582E+004  0.1043930E+01  0.7957747E-01            NaN
         13   -1    0    0    0    0  0.00000000000E+00  0.00000000000E+00  0.74505805969E-08  0.10566000000E+00  0.10566000000E+00 0. -1.
     999900   -1    0    0    0    0 -0.00000000000E+00 -0.00000000000E+00 -0.74505805969E-08  0.93827000000E+00  0.93827000000E+00 0.  1.
     999902    2    1    2    0    0 -0.12282914966E-01  0.50595076913E-03  0.72975084203E-02  0.10296338601E+01  0.10295346067E+01 0.  0.
     999903    2    3    3    0    0  0.75971341106E-01  0.10553666185E+00 -0.17353804714E-01  0.13866362985E+00  0.44908975066E-01 0.  0.
         14    1    1    2    0    0  0.12282914966E-01 -0.50595076913E-03 -0.72975084203E-02  0.14296139877E-01  0.00000000000E+00 0.  1.
     999901    1    3    3    0    0 -0.88254256072E-01 -0.10503071109E+00  0.24651313134E-01  0.89097023027E+00  0.88000000000E+00 0. -1.
        -11    1    4    4    0    0  0.66268771298E-01  0.10872389332E+00 -0.16665034996E-01  0.12841502849E+00  0.51100000000E-03 0. -1.
         11    1    4    4    0    0  0.97025698077E-02 -0.31872314674E-02 -0.68876971802E-03  0.10248601369E-01  0.51100000000E-03 0.  1.
</event>
<event>
 8    1  0.2183582E+004  0.1043930E+01  0.7957747E-01            NaN
         13   -1    0    0    0    0  0.00000000000E+00  0.00000000000E+00  0.74505805969E-08  0.10566000000E+00  0.10566000000E+00 0. -1.
     999900   -1    0    0    0    0 -0.00000000000E+00 -0.00000000000E+00 -0.74505805969E-08  0.93827000000E+00  0.93827000000E+00 0.  1.
     999902    2    1    2    0    0 -0.26009824275E-02  0.51750157116E-02  0.12892517191E-01  0.10297962497E+01  0.10296992537E+01 0.  0.
     999903    2    3    3    0    0 -0.44897888345E-02 -0.12495249847E+00  0.41837737084E-01  0.13975436123E+00  0.46342207098E-01 0.  0.
         14    1    1    2    0    0  0.26009824275E-02 -0.51750157116E-02 -0.12892517191E-01  0.14133750271E-01  0.00000000000E+00 0.  1.
     999901    1    3    3    0    0  0.18888064069E-02  0.13012751418E+00 -0.28945219893E-01  0.89004188850E+00  0.88000000000E+00 0. -1.
        -11    1    4    4    0    0 -0.16763617930E-03 -0.10537564093E+00  0.15286064945E-01  0.10647994509E+00  0.51100000000E-03 0.  1.
         11    1    4    4    0    0 -0.43221526552E-02 -0.19576857539E-01  0.26551672139E-01  0.33274416133E-01  0.51100000000E-03 0. -1.
</event>
<event>
 8    1  0.2183582E+004  0.1043930E+01  0.7957747E-01            NaN
         13   -1    0    0    0    0  0.00000000000E+00  0.00000000000E+00  0.74505805969E-08  0.10566000000E+00  0.10566000000E+00 0.  1.
     999900   -1    0    0    0    0 -0.00000000000E+00 -0.00000000000E+00 -0.74505805969E-08  0.93827000000E+00  0.93827000000E+00 0.  1.
     999902    2    1    2    0    0  0.25285060645E-02  0.12359233874E-02 -0.13230286184E-01  0.10304036804E+01  0.10303148952E+01 0.  0.
     999903    2    3    3    0    0 -0.77599672990E-01 -0.70454032101E-01  0.79500680016E-01  0.13902328635E+00  0.44962608209E-01 0.  0.
         14    1    1    2    0    0 -0.25285060645E-02 -0.12359233874E-02  0.13230286184E-01  0.13526319605E-01  0.00000000000E+00 0.  1.
     999901    1    3    3    0    0  0.80128179054E-01  0.71689955489E-01 -0.92730966200E-01  0.89138039405E+00  0.88000000000E+00 0.  1.
        -11    1    4    4    0    0 -0.20654919792E-01 -0.38152888023E-01  0.52743630895E-01  0.68296561385E-01  0.51100000000E-03 0. -1.
         11    1    4    4    0    0 -0.56944753197E-01 -0.32301144079E-01  0.26757049121E-01  0.70726724964E-01  0.51100000000E-03 0.  1.
</event>
<event>
 8    1  0.2183582E+004  0.1043930E+01  0.7957747E-01            NaN
         13   -1    0    0    0    0  0.00000000000E+00  0.00000000000E+00  0.74505805969E-08  0.10566000000E+00  0.10566000000E+00 0. -1.
     999900   -1    0    0    0    0 -0.00000000000E+00 -0.00000000000E+00 -0.74505805969E-08  0.93827000000E+00  0.93827000000E+00 0.  1.
     999902    2    1    2    0    0  0.33905118822E-02  0.13335262655E-01 -0.14392517988E-03  0.10301697124E+01  0.10300778081E+01 0.  0.
     999903    2    3    3    0    0  0.12216558965E+00  0.32833843237E-01  0.42899732555E-01  0.14093382117E+00  0.44938428336E-01 0.  0.
         14    1    1    2    0    0 -0.33905118822E-02 -0.13335262655E-01  0.14392517988E-03  0.13760287619E-01  0.00000000000E+00 0.  1.
     999901    1    3    3    0    0 -0.11877507777E+00 -0.19498580582E-01 -0.43043657735E-01  0.88923589121E+00  0.88000000000E+00 0.  1.
        -11    1    4    4    0    0  0.71787969741E-01  0.25752050631E-01  0.30855060686E-02  0.76331266071E-01  0.51100000000E-03 0.  1.
         11    1    4    4    0    0  0.50377619907E-01  0.70817926055E-02  0.39814226486E-01  0.64602555102E-01  0.51100000000E-03 0. -1.
</event>
<event>
 8    1  0.2183582E+004  0.1043930E+01  0.7957747E-01            NaN
         13   -1    0    0    0    0  0.00000000000E+00  0.00000000000E+00  0.74505805969E-08  0.10566000000E+00  0.10566000000E+00 0. -1.
     999900   -1    0    0    0    0 -0.00000000000E+00 -0.00000000000E+00 -0.74505805969E-08  0.93827000000E+00  0.93827000000E+00 0. -1.
     999902    2    1    2    0    0  0.60584173734E-02 -0.12691218403E-01 -0.36677307420E-02  0.10293964631E+01  0.10292938621E+01 0.  0.
     999903    2    3    3    0    0  0.46492060679E-02 -0.98810002900E-01 -0.90273194136E-01  0.14096023174E+00  0.43994381047E-01 0.  0.
         14    1    1    2    0    0 -0.60584173734E-02  0.12691218403E-01  0.36677307420E-02  0.14533536886E-01  0.00000000000E+00 0. -1.
     999901    1    3    3    0    0  0.14092113055E-02  0.86118784497E-01  0.86605463394E-01  0.88843623137E+00  0.88000000000E+00 0.  1.
        -11    1    4    4    0    0  0.44997536886E-02 -0.84564102508E-01 -0.50244619469E-01  0.98468868800E-01  0.51100000000E-03 0.  1.
         11    1    4    4    0    0  0.14945237938E-03 -0.14245900393E-01 -0.40028574667E-01  0.42491362944E-01  0.51100000000E-03 0. -1.
</event>
<event>
 8    1  0.2183582E+004  0.1043930E+01  0.7957747E-01            NaN
         13   -1    0    0    0    0  0.00000000000E+00  0.00000000000E+00  0.74505805969E-08  0.10566000000E+00  0.10566000000E+00 0.  1.
     999900   -1    0    0    0    0 -0.00000000000E+00 -0.00000000000E+00 -0.74505805969E-08  0.93827000000E+00  0.93827000000E+00 0. -1.
     999902    2    1    2    0    0  0.27119358521E-02 -0.10471060139E-01  0.11129032968E-01  0.10284105583E+01  0.10282934519E+01 0.  0.
     999903    2    3    3    0    0  0.10221963536E-01 -0.28594115329E-01  0.12926876944E+00  0.14029916719E+00  0.45291606208E-01 0.  0.
         14    1    1    2    0    0 -0.27119358521E-02  0.10471060139E-01 -0.11129032968E-01  0.15519441720E-01  0.00000000000E+00 0. -1.
     999901    1    3    3    0    0 -0.75100276837E-02  0.18123055190E-01 -0.11813973647E+00  0.88811139109E+00  0.88000000000E+00 0. -1.
        -11    1    4    4    0    0 -0.10803504067E-01 -0.29737673643E-01  0.59110880335E-01  0.67047760804E-01  0.51100000000E-03 0. -1.
         11    1    4    4    0    0  0.21025467603E-01  0.11435583139E-02  0.70157889103E-01  0.73251406389E-01  0.51100000000E-03 0.  1.
</event>
<event>
 8    1  0.2183582E+004  0.1043930E+01  0.7957747E-01            NaN
         13   -1    0    0    0    0  0.00000000000E+00  0.00000000000E+00  0.74505805969E-08  0.10566000000E+00  0.10566000000E+00 0. -1.
     999900   -1    0    0    0    0 -0.00000000000E+00 -0.00000000000E+00 -0.74505805969E-08  0.93827000000E+00  0.93827000000E+00 0.  1.
     999902    2    1    2    0    0  0.45876096959E-03  0.71586687706E-02 -0.11754962760E-01  0.10301591558E+01  0.10300671095E+01 0.  0.
     999903    2    3    3    0    0 -0.39540332369E-01  0.86272117484E-01 -0.95340502279E-01  0.14176430685E+00  0.44732439952E-01 0.  0.
         14    1    1    2    0    0 -0.45876096959E-03 -0.71586687706E-02  0.11754962760E-01  0.13770844189E-01  0.00000000000E+00 0. -1.
     999901    1    3    3    0    0  0.39999093339E-01 -0.79113448714E-01  0.83585539518E-01  0.88839484896E+00  0.88000000000E+00 0. -1.
        -11    1    4    4    0    0 -0.16044720175E-01  0.62298574980E-01 -0.85070154698E-01  0.10665710399E+00  0.51100000000E-03 0. -1.
         11    1    4    4    0    0 -0.23495612194E-01  0.23973542504E-01 -0.10270347580E-01  0.35107202865E-01  0.51100000000E-03 0.  1.
</event>
<event>
 8    1  0.2183582E+004  0.1043930E+01  0.7957747E-01            NaN
         13   -1    0    0    0    0  0.00000000000E+00  0.00000000000E+00  0.74505805969E-08  0.10566000000E+00  0.10566000000E+00 0.  1.
     999900   -1    0    0    0    0 -0.00000000000E+00 -0.00000000000E+00 -0.74505805969E-08  0.93827000000E+00  0.93827000000E+00 0.  1.
     999902    2    1    2    0    0  0.12785879284E-01  0.57807629883E-02  0.10828248044E-02  0.10298563210E+01  0.10297601534E+01 0.  0.
     999903    2    3    3    0    0 -0.26836159900E-01 -0.97080982687E-01 -0.79941153998E-01  0.13928609369E+00  0.53526919534E-01 0.  0.
         14    1    1    2    0    0 -0.12785879284E-01 -0.57807629883E-02 -0.10828248044E-02  0.14073678955E-01  0.00000000000E+00 0. -1.
     999901    1    3    3    0    0  0.39622039183E-01  0.10286174568E+00  0.81023978802E-01  0.89057022736E+00  0.88000000000E+00 0. -1.
        -11    1    4    4    0    0  0.54968036811E-02 -0.10425507314E-01  0.58177491318E-02  0.13153455038E-01  0.51100000000E-03 0.  1.
         11    1    4    4    0    0 -0.32332963581E-01 -0.86655475373E-01 -0.85758903129E-01  0.12613263865E+00  0.51100000000E-03 0. -1.
</event>
<event>
 8    1  0.2183582E+004  0.1043930E+01  0.7957747E-01            NaN
         13   -1    0    0    0    0  0.00000000000E+00  0.00000000000E+00  0.74505805969E-08  0.10566000000E+00  0.10566000000E+00 0. -1.
     999900   -1    0    0    0    0 -0.00000000000E+00 -0.00000000000E+00 -0.74505805969E-08  0.93827000000E+00  0.93827000000E+00 0. -1.
     999902    2    1    2    0    0  0.11890200173E-01 -0.69839393003E-02 -0.36415831059E-02  0.10296676932E+01  0.10295689122E+01 0.  0.
     999903    2    3    3    0    0  0.52196452420E-01 -0.52038184514E-01 -0.11164556741E+00  0.14100614928E+00  0.44559613102E-01 0.  0.
         14    1    1    2    0    0 -0.11890200173E-01  0.69839393003E-02  0.36415831059E-02  0.14262306820E-01  0.00000000000E+00 0. -1.
     999901    1    3    3    0    0 -0.40306252248E-01  0.45054245213E-01  0.10800398430E+00  0.88866154390E+00  0.88000000000E+00 0.  1.
        -11    1    4    4    0    0  0.25598763955E-01 -0.24359684838E-02 -0.16811197255E-01  0.30726342650E-01  0.51100000000E-03 0. -1.
         11    1    4    4    0    0  0.26597688465E-01 -0.49602216030E-01 -0.94834370155E-01  0.11027980663E+00  0.51100000000E-03 0.  1.
</event>
<event>
 8    1  0.2183582E+004  0.1043930E+01  0.7957747E-01            NaN
         13   -1    0    0    0    0  0.00000000000E+00  0.00000000000E+00  0.74505805969E-08  0.10566000000E+00  0.10566000000E+00 0. -1.
     999900   -1    0    0    0    0 -0.00000000000E+00 -0.00000000000E+00 -0.74505805969E-08  0.93827000000E+00  0.93827000000E+00 0.  1.
     999902    2    1    2    0    0 -0.11805729565E-01 -0.69224033572E-02  0.27969712365E-02  0.10299615367E+01  0.10298668113E+01 0.  0.
     999903    2    3    3    0    0  0.10153555191E+00  0.77630759933E-01  0.33111016570E-01  0.13815750842E+00  0.40683590388E-01 0.  0.
         14    1    1    2    0    0  0.11805729565E-01  0.69224033572E-02 -0.27969712365E-02  0.13968463298E-01  0.00000000000E+00 0.  1.
     999901    1    3    3    0    0 -0.11334128147E+00 -0.84553163290E-01 -0.30314045333E-01  0.89180402828E+00  0.88000000000E+00 0.  1.
        -11    1    4    4    0    0  0.21895586603E-01 -0.11335709814E-02  0.27392390095E-02  0.22101272525E-01  0.51100000000E-03 0.  1.
         11    1    4    4    0    0  0.79639965304E-01  0.78764330914E-01  0.30371777560E-01  0.11605623590E+00  0.51100000000E-03 0. -1.
</event>
<event>
 8    1  0.2183582E+004  0.1043930E+01  0.7957747E-01            NaN
         13   -1    0    0    0    0  0.00000000000E+00  0.00000000000E+00  0.74505805969E-08  0.10566000000E+00  0.10566000000E+00 0.  1.
     999900   -1    0    0    0    0 -0.00000000000E+00 -0.00000000000E+00 -0.74505805969E-08  0.93827000000E+00  0.93827000000E+00 0. -1.
     999902    2    1    2    0    0 -0.83752211530E-02 -0.16147383958E-02 -0.10953091755E-01  0.10300475676E+01  0.10299540134E+01 0.  0.
     999903    2    3    3    0    0 -0.66667554607E-01  0.95426358054E-01  0.63102099140E-01  0.13971103472E+00  0.44570681595E-01 0.  0.
         14    1    1    2    0    0  0.83752211530E-02  0.16147383958E-02  0.10953091755E-01  0.13882432368E-01  0.00000000000E+00 0.  1.
     999901    1    3    3    0    0  0.58292333454E-01 -0.97041096450E-01 -0.74055190895E-01  0.89033653291E+00  0.88000000000E+00 0. -1.
        -11    1    4    4    0    0 -0.19616963044E-01  0.47452352194E-01  0.63239537167E-02  0.51737843784E-01  0.51100000000E-03 0. -1.
         11    1    4    4    0    0 -0.47050591563E-01  0.47974005860E-01  0.56778145423E-01  0.87973190936E-01  0.51100000000E-03 0.  1.
</event>
<event>
 8    1  0.2183582E+004  0.1043930E+01  0.7957747E-01            NaN
         13   -1    0    0    0    0  0.00000000000E+00  0.00000000000E+00  0.74505805969E-08  0.10566000000E+00  0.10566000000E+00 0.  1.
     999900   -1    0    0    0    0 -0.00000000000E+00 -0.00000000000E+00 -0.74505805969E-08  0.93827000000E+00  0.93827000000E+00 0. -1.
     999902    2    1    2    0    0 -0.34598575339E-02  0.61227468551E-02 -0.10889244760E-01  0.10309671957E+01  0.10308856990E+01 0.  0.
     999903    2    3    3    0    0  0.41234499846E-01 -0.12618978539E+00 -0.43347865429E-02  0.13993007378E+00  0.44016920130E-01 0.  0.
         14    1    1    2    0    0  0.34598575339E-02 -0.61227468551E-02  0.10889244760E-01  0.12962804274E-01  0.00000000000E+00 0.  1.
     999901    1    3    3    0    0 -0.44694357380E-01  0.13231253225E+00 -0.65544582171E-02  0.89103712195E+00  0.88000000000E+00 0. -1.
        -11    1    4    4    0    0  0.27907524985E-01 -0.77913290899E-01  0.18627286052E-01  0.84832468761E-01  0.51100000000E-03 0. -1.
         11    1    4    4    0    0  0.13326974862E-01 -0.48276494493E-01 -0.22962072595E-01  0.55097605014E-01  0.51100000000E-03 0.  1.
</event>
<event>
 8    1  0.2183582E+004  0.1043930E+01  0.7957747E-01            NaN
         13   -1    0    0    0    0  0.00000000000E+00  0.00000000000E+00  0.74505805969E-08  0.10566000000E+00  0.10566000000E+00 0.  1.
     999900   -1    0    0    0    0 -0.00000000000E+00 -0.00000000000E+00 -0.74505805969E-08  0.93827000000E+00  0.93827000000E+00 0.  1.
     999902    2    1    2    0    0  0.59316834465E-02  0.11450906551E-01 -0.45095573364E-02  0.10302682199E+01  0.10301776355E+01 0.  0.
     999903    2    3    3    0    0 -0.43247229439E-01  0.14221843921E-01 -0.12535097633E+00  0.14064532665E+00  0.44672776328E-01 0.  0.
         14    1    1    2    0    0 -0.59316834465E-02 -0.11450906551E-01  0.45095573364E-02  0.13661780144E-01  0.00000000000E+00 0.  1.
     999901    1    3    3    0    0  0.49178912885E-01 -0.27709373707E-02  0.12084141899E+00  0.88962289320E+00  0.88000000000E+00 0. -1.
        -11    1    4    4    0    0 -0.14597429789E-01 -0.42699150771E-02 -0.90917003171E-01  0.92181775410E-01  0.51100000000E-03 0.  1.
         11    1    4    4    0    0 -0.28649799650E-01  0.18491758998E-01 -0.34433973155E-01  0.48463551243E-01  0.51100000000E-03 0. -1.
</event>
<event>
 8    1  0.2183582E+004  0.1043930E+01  0.7957747E-01            NaN
         13   -1    0    0    0    0  0.00000000000E+00  0.00000000000E+00  0.74505805969E-08  0.10566000000E+00  0.10566000000E+00 0. -1.
     999900   -1    0    0    0    0 -0.00000000000E+00 -0.00000000000E+00 -0.74505805969E-08  0.93827000000E+00  0.93827000000E+00 0. -1.
     999902    2    1    2    0    0  0.84888162431E-02 -0.33692439253E-03 -0.99280841534E-02  0.10308632340E+01  0.10307804164E+01 0.  0.
     999903    2    3    3    0    0 -0.93281735893E-01  0.87050525763E-01  0.34625848324E-01  0.13958389246E+00  0.44782109983E-01 0.  0.
         14    1    1    2    0    0 -0.84888162431E-02  0.33692439253E-03  0.99280841534E-02  0.13066766020E-01  0.00000000000E+00 0. -1.
     999901    1    3    3    0    0  0.10177055214E+00 -0.87387450156E-01 -0.44553932477E-01  0.89127934152E+00  0.88000000000E+00 0. -1.
        -11    1    4    4    0    0  0.38398421973E-02  0.11611538921E-01  0.32932621954E-02  0.12675918945E-01  0.51100000000E-03 0.  1.
         11    1    4    4    0    0 -0.97121578090E-01  0.75438986842E-01  0.31332586128E-01  0.12690797351E+00  0.51100000000E-03 0. -1.
</event>
<event>
 8    1  0.2183582E+004  0.1043930E+01  0.7957747E-01            NaN
         13   -1    0    0    0    0  0.00000000000E+00  0.00000000000E+00  0.74505805969E-08  0.10566000000E+00  0.10566000000E+00 0.  1.
     999900   -1    0    0    0    0 -0.00000000000E+00 -0.00000000000E+00 -0.74505805969E-08  0.93827000000E+00  0.93827000000E+00 0. -1.
     999902    2    1    2    0    0  0.28644837001E-02  0.91896016923E-02  0.97140328711E-02  0.10302546031E+01  0.10301638368E+01 0.  0.
     999903    2    3    3    0    0  0.14748061746E-01  0.12698380928E+00  0.39994417707E-01  0.14181012172E+00  0.46563548294E-01 0.  0.
         14    1    1    2    0    0 -0.28644837001E-02 -0.91896016923E-02 -0.97140328711E-02  0.13675396914E-01  0.00000000000E+00 0. -1.
     999901    1    3    3    0    0 -0.11883578046E-01 -0.11779420759E+00 -0.30280384836E-01  0.88844448137E+00  0.88000000000E+00 0. -1.
        -11    1    4    4    0    0 -0.13766796895E-01  0.23708757471E-01  0.16895384694E-01  0.32207841010E-01  0.51100000000E-03 0.  1.
         11    1    4    4    0    0  0.28514858642E-01  0.10327505181E+00  0.23099033013E-01  0.10960228071E+00  0.51100000000E-03 0. -1.
</event>
<event>
 8    1  0.2183582E+004  0.1043930E+01  0.7957747E-01            NaN
         13   -1    0    0    0    0  0.00000000000E+00  0.00000000000E+00  0.74505805969E-08  0.10566000000E+00  0.10566000000E+00 0.  1.
     999900   -1    0    0    0    0 -0.00000000000E+00 -0.00000000000E+00 -0.74505805969E-08  0.93827000000E+00  0.93827000000E+00 0.  1.
     999902    2    1    2    0    0 -0.47525114371E-02  0.82371861804E-02  0.10659283020E-01  0.10296451158E+01  0.10295460197E+01 0.  0.
     999903    2    3    3    0    0  0.12466797165E+00  0.57251086426E-02  0.43642422078E-01  0.13956429959E+00  0.44706293655E-01 0.  0.
         14    1    1    2    0    0  0.47525114371E-02 -0.82371861804E-02 -0.10659283020E-01  0.14284884166E-01  0.00000000000E+00 0.  1.
     999901    1    3    3    0    0 -0.12942048309E+00  0.25120775378E-02 -0.32983139058E-01  0.89008081624E+00  0.88000000000E+00 0.  1.
        -11    1    4    4    0    0  0.11608053474E+00 -0.66316596282E-02  0.32182118240E-01  0.12064252695E+00  0.51100000000E-03 0. -1.
         11    1    4    4    0    0  0.85874369121E-02  0.12356768271E-01  0.11460303838E-01  0.18921772641E-01  0.51100000000E-03 0.  1.
</event>
<event>
 8    1  0.2183582E+004  0.1043930E+01  0.7957747E-01            NaN
         13   -1    0    0    0    0  0.00000000000E+00  0.00000000000E+00  0.74505805969E-08  0.10566000000E+00  0.10566000000E+00 0. -1.
     999900   -1    0    0    0    0 -0.00000000000E+00 -0.00000000000E+00 -0.74505805969E-08  0.93827000000E+00  0.93827000000E+00 0.  1.
     999902    2    1    2    0    0 -0.87713904316E-02  0.40811561246E-02  0.10162360617E-02  0.10342024175E+01  0.10341566683E+01 0.  0.
     999903    2    3    3    0    0  0.78002099250E-02 -0.11819461635E+00 -0.67351711178E-01  0.14296723043E+00  0.43273148379E-01 0.  0.
         14    1    1    2    0    0  0.87713904316E-02 -0.40811561246E-02 -0.10162360617E-02  0.97275824925E-02  0.00000000000E+00 0. -1.
     999901    1    3    3    0    0 -0.16571600357E-01  0.12227577247E+00  0.68367947240E-01  0.89123518708E+00  0.88000000000E+00 0. -1.
        -11    1    4    4    0    0  0.17787933394E-01 -0.41437389918E-01 -0.88897984823E-02  0.45964741876E-01  0.51100000000E-03 0.  1.
         11    1    4    4    0    0 -0.99877234686E-02 -0.76757226428E-01 -0.58461912696E-01  0.97002488556E-01  0.51100000000E-03 0. -1.
</event>
<event>
 8    1  0.2183582E+004  0.1043930E+01  0.7957747E-01            NaN
         13   -1    0    0    0    0  0.00000000000E+00  0.00000000000E+00  0.74505805969E-08  0.10566000000E+00  0.10566000000E+00 0. -1.
     999900   -1    0    0    0    0 -0.00000000000E+00 -0.00000000000E+00 -0.74505805969E-08  0.93827000000E+00  0.93827000000E+00 0.  1.
     999902    2    1    2    0    0  0.55309633607E-02  0.93774291151E-02 -0.87590861404E-02  0.10299568356E+01  0.10298620461E+01 0.  0.
     999903    2    3    3    0    0 -0.78419034804E-01 -0.21369503818E-01  0.10295274067E+00  0.13840060727E+00  0.44150431115E-01 0.  0.
         14    1    1    2    0    0 -0.55309633607E-02 -0.93774291151E-02  0.87590861404E-02  0.13973164370E-01  0.00000000000E+00 0. -1.
     999901    1    3    3    0    0  0.83949998165E-01  0.30746932933E-01 -0.11171182681E+00  0.89155622836E+00  0.88000000000E+00 0.  1.
        -11    1    4    4    0    0 -0.29295451525E-01  0.56573177812E-02  0.13328501640E-01  0.32682392836E-01  0.51100000000E-03 0.  1.
         11    1    4    4    0    0 -0.49123583279E-01 -0.27026821599E-01  0.89624239033E-01  0.10571821443E+00  0.51100000000E-03 0. -1.
</event>
<event>
 8    1  0.2183582E+004  0.1043930E+01  0.7957747E-01            NaN
         13   -1    0    0    0    0  0.00000000000E+00  0.00000000000E+00  0.74505805969E-08  0.10566000000E+00  0.10566000000E+00 0. -1.
     999900   -1    0    0    0    0 -0.00000000000E+00 -0.00000000000E+00 -0.74505805969E-08  0.93827000000E+00  0.93827000000E+00 0. -1.
     999902    2    1    2    0    0  0.61067049885E-02  0.90937391656E-02 -0.79871641358E-02  0.10303733511E+01  0.10302841647E+01 0.  0.
     999903    2    3    3    0    0 -0.52971762720E-01 -0.18553357844E-01 -0.12072669372E+00  0.14078646450E+00  0.45778371285E-01 0.  0.
         14    1    1    2    0    0 -0.61067049885E-02 -0.90937391656E-02  0.79871641358E-02  0.13556648877E-01  0.00000000000E+00 0. -1.
     999901    1    3    3    0    0  0.59078467708E-01  0.27647097010E-01  0.11273952958E+00  0.88958688662E+00  0.88000000000E+00 0.  1.
        -11    1    4    4    0    0 -0.32601704876E-01 -0.22580311020E-01 -0.36040446581E-01  0.53590265136E-01  0.51100000000E-03 0. -1.
         11    1    4    4    0    0 -0.20370057843E-01  0.40269531759E-02 -0.84686247138E-01  0.87196199365E-01  0.51100000000E-03 0.  1.
</event>
<event>
 8    1  0.2183582E+004  0.1043930E+01  0.7957747E-01            NaN
         13   -1    0    0    0    0  0.00000000000E+00  0.00000000000E+00  0.74505805969E-08  0.10566000000E+00  0.10566000000E+00 0. -1.
     999900   -1    0    0    0    0 -0.00000000000E+00 -0.00000000000E+00 -0.74505805969E-08  0.93827000000E+00  0.93827000000E+00 0.  1.
     999902    2    1    2    0    0 -0.75330109242E-02 -0.83326207777E-02 -0.83735942536E-02  0.10299194360E+01  0.10298241349E+01 0.  0.
     999903    2    3    3    0    0 -0.76630915395E-01 -0.11054713126E+00 -0.27418700669E-02  0.14129463168E+00  0.43170472163E-01 0.  0.
         14    1    1    2    0    0  0.75330109242E-02  0.83326207777E-02  0.83735942536E-02  0.14010563991E-01  0.00000000000E+00 0. -1.
     999901    1    3    3    0    0  0.69097904471E-01  0.10221451048E+00 -0.56317241867E-02  0.88862480433E+00  0.88000000000E+00 0.  1.
        -11    1    4    4    0    0 -0.49118090086E-01 -0.33521205227E-01 -0.17799826703E-02  0.59495272357E-01  0.51100000000E-03 0.  1.
         11    1    4    4    0    0 -0.27512825309E-01 -0.77025926029E-01 -0.96188739666E-03  0.81799359321E-01  0.51100000000E-03 0. -1.
</event>
<event>
 8    1  0.2183582E+004  0.1043930E+01  0.7957747E-01            NaN
         13   -1    0    0    0    0  0.00000000000E+00  0.00000000000E+00  0.74505805969E-08  0.10566000000E+00  0.10566000000E+00 0. -1.
     999900   -1    0    0    0    0 -0.00000000000E+00 -0.00000000000E+00 -0.74505805969E-08  0.93827000000E+00  0.93827000000E+00 0. -1.
     999902    2    1    2    0    0  0.37952323670E-02  0.11691092674E-01 -0.61125201603E-02  0.10302023513E+01  0.10301108854E+01 0.  0.
     999903    2    3    3    0    0  0.50849623530E-01 -0.48655242252E-01  0.11126092255E+00  0.13911743899E+00  0.44962786068E-01 0.  0.
         14    1    1    2    0    0 -0.37952323670E-02 -0.11691092674E-01  0.61125201603E-02  0.13727648719E-01  0.00000000000E+00 0. -1.
     999901    1    3    3    0    0 -0.47054391163E-01  0.60346334926E-01 -0.11737344271E+00  0.89108491230E+00  0.88000000000E+00 0. -1.
        -11    1    4    4    0    0  0.50508087684E-01 -0.35793703265E-01  0.10994241040E+00  0.12617389128E+00  0.51100000000E-03 0.  1.
         11    1    4    4    0    0  0.34153584595E-03 -0.12861538987E-01  0.13185121478E-02  0.12943547703E-01  0.51100000000E-03 0. -1.
</event>
<event>
 8    1  0.2183582E+004  0.1043930E+01  0.7957747E-01            NaN
         13   -1    0    0    0    0  0.00000000000E+00  0.00000000000E+00  0.74505805969E-08  0.10566000000E+00  0.10566000000E+00 0. -1.
     999900   -1    0    0    0    0 -0.00000000000E+00 -0.00000000000E+00 -0.74505805969E-08  0.93827000000E+00  0.93827000000E+00 0.  1.
     999902    2    1    2    0    0 -0.55513441869E-02 -0.80577259613E-02  0.98000756649E-02  0.10300813231E+01  0.10299882263E+01 0.  0.
     999903    2    3    3    0    0 -0.12175728073E-01  0.11701452750E+00 -0.57561831057E-01  0.13866414938E+00  0.45538268858E-01 0.  0.
         14    1    1    2    0    0  0.55513441869E-02  0.80577259613E-02 -0.98000756649E-02  0.13848676940E-01  0.00000000000E+00 0.  1.
     999901    1    3    3    0    0  0.66243838861E-02 -0.12507225346E+00  0.67361906722E-01  0.89141717368E+00  0.88000000000E+00 0. -1.
        -11    1    4    4    0    0  0.73830301246E-02  0.19565950518E-01 -0.28031861757E-01  0.34976877334E-01  0.51100000000E-03 0. -1.
         11    1    4    4    0    0 -0.19558758198E-01  0.97448576979E-01 -0.29529969300E-01  0.10368727205E+00  0.51100000000E-03 0.  1.
</event>
<event>
 8    1  0.2183582E+004  0.1043930E+01  0.7957747E-01            NaN
         13   -1    0    0    0    0  0.00000000000E+00  0.00000000000E+00  0.74505805969E-08  0.10566000000E+00  0.10566000000E+00 0.  1.
     999900   -1    0    0    0    0 -0.00000000000E+00 -0.00000000000E+00 -0.74505805969E-08  0.93827000000E+00  0.93827000000E+00 0. -1.
     999902    2    1    2    0    0  0.11842574971E-02  0.12268911508E-01  0.59931207435E-02  0.10302243022E+01  0.10301331306E+01 0.  0.
     999903    2    3    3    0    0  0.93750086962E-01  0.96871088286E-01 -0.45989685244E-02  0.14127089880E+00  0.41990829768E-01 0.  0.
         14    1    1    2    0    0 -0.11842574971E-02 -0.12268911508E-01 -0.59931207435E-02  0.13705697780E-01  0.00000000000E+00 0. -1.
     999901    1    3    3    0    0 -0.92565829465E-01 -0.84602176778E-01  0.10592089268E-01  0.88895340342E+00  0.88000000000E+00 0.  1.
        -11    1    4    4    0    0  0.78013396289E-01  0.56495098799E-01 -0.12784372824E-01  0.97167317028E-01  0.51100000000E-03 0. -1.
         11    1    4    4    0    0  0.15736690673E-01  0.40375989487E-01  0.81854043001E-02  0.44103581770E-01  0.51100000000E-03 0.  1.
</event>
<event>
 8    1  0.2183582E+004  0.1043930E+01  0.7957747E-01            NaN
         13   -1    0    0    0    0  0.00000000000E+00  0.00000000000E+00  0.74505805969E-08  0.10566000000E+00  0.10566000000E+00 0.  1.
     999900   -1    0    0    0    0 -0.00000000000E+00 -0.00000000000E+00 -0.74505805969E-08  0.93827000000E+00  0.93827000000E+00 0. -1.
     999902    2    1    2    0    0  0.21551514555E-02 -0.84777872600E-02 -0.11931754560E-01  0.10291352603E+01  0.10290289110E+01 0.  0.
     999903    2    3    3    0    0  0.12377711247E+00 -0.46628122478E-01 -0.31404290661E-02  0.13990827195E+00  0.45491833215E-01 0.  0.
         14    1    1    2    0    0 -0.21551514555E-02  0.84777872600E-02  0.11931754560E-01  0.14794739657E-01  0.00000000000E+00 0.  1.
     999901    1    3    3    0    0 -0.12162196101E+00  0.38150335218E-01 -0.87913254944E-02  0.88922698839E+00  0.88000000000E+00 0. -1.
        -11    1    4    4    0    0  0.40487422310E-01 -0.38874770502E-01 -0.37244847808E-02  0.56254884720E-01  0.51100000000E-03 0. -1.
         11    1    4    4    0    0  0.83289690158E-01 -0.77533519758E-02  0.58405571472E-03  0.83653387233E-01  0.51100000000E-03 0.  1.
</event>
<event>
 8    1  0.2183582E+004  0.1043930E+01  0.7957747E-01            NaN
         13   -1    0    0    0    0  0.00000000000E+00  0.00000000000E+00  0.74505805969E-08  0.10566000000E+00  0.10566000000E+00 0.  1.
     999900   -1    0    0    0    0 -0.00000000000E+00 -0.00000000000E+00 -0.74505805969E-08  0.93827000000E+00  0.93827000000E+00 0.  1.
     999902    2    1    2    0    0  0.97516643304E-02  0.81289651514E-02  0.10561551792E-01  0.10274157211E+01  0.10272829905E+01 0.  0.
     999903    2    3    3    0    0  0.48359449753E-01  0.11711360655E+00 -0.32948104246E-01  0.13878683155E+00  0.46064887065E-01 0.  0.
         14    1    1    2    0    0 -0.97516643304E-02 -0.81289651514E-02 -0.10561551792E-01  0.16514278909E-01  0.00000000000E+00 0. -1.
     999901    1    3    3    0    0 -0.38607785422E-01 -0.10898464139E+00  0.43509656038E-01  0.88862888954E+00  0.88000000000E+00 0.  1.
        -11    1    4    4    0    0  0.42704364264E-01  0.93095437937E-01 -0.65270393512E-02  0.10263180139E+00  0.51100000000E-03 0. -1.
         11    1    4    4    0    0  0.56550854889E-02  0.24018168608E-01 -0.26421064895E-01  0.36155030166E-01  0.51100000000E-03 0.  1.
</event>
<event>
 8    1  0.2183582E+004  0.1043930E+01  0.7957747E-01            NaN
         13   -1    0    0    0    0  0.00000000000E+00  0.00000000000E+00  0.74505805969E-08  0.10566000000E+00  0.10566000000E+00 0.  1.
     999900   -1    0    0    0    0 -0.00000000000E+00 -0.00000000000E+00 -0.74505805969E-08  0.93827000000E+00  0.93827000000E+00 0.  1.
     999902    2    1    2    0    0 -0.76616282908E-02 -0.11962668802E-01  0.38135129904E-04  0.10297241052E+01  0.10296261095E+01 0.  0.
     999903    2    3    3    0    0 -0.60817699075E-01  0.33241480370E-02  0.11793003772E+00  0.14014119432E+00  0.44969078998E-01 0.  0.
         14    1    1    2    0    0  0.76616282908E-02  0.11962668802E-01 -0.38135129904E-04  0.14205894805E-01  0.00000000000E+00 0.  1.
     999901    1    3    3    0    0  0.53156070784E-01 -0.15286816839E-01 -0.11789190259E+00  0.88958291088E+00  0.88000000000E+00 0.  1.
        -11    1    4    4    0    0 -0.12169405761E-01  0.15740375788E-01  0.12875309740E-01  0.23704189259E-01  0.51100000000E-03 0.  1.
         11    1    4    4    0    0 -0.48648293314E-01 -0.12416227751E-01  0.10505472798E+00  0.11643700506E+00  0.51100000000E-03 0. -1.
</event>
<event>
 8    1  0.2183582E+004  0.1043930E+01  0.7957747E-01            NaN
         13   -1    0    0    0    0  0.00000000000E+00  0.00000000000E+00  0.74505805969E-08  0.10566000000E+00  0.10566000000E+00 0.  1.
     999900   -1    0    0    0    0 -0.00000000000E+00 -0.00000000000E+00 -0.74505805969E-08  0.93827000000E+00  0.93827000000E+00 0.  1.
     999902    2    1    2    0    0 -0.15682957242E-01  0.12534579490E-01  0.43947346332E-02  0.10233780044E+01  0.10231716158E+01 0.  0.
     999903    2    3    3    0    0 -0.10853693077E+00 -0.54513245196E-01 -0.37973644864E-01  0.13494547979E+00  0.44903514002E-01 0.  0.
         14    1    1    2    0    0  0.15682957242E-01 -0.12534579490E-01 -0.43947346332E-02  0.20551995605E-01  0.00000000000E+00 0. -1.
     999901    1    3    3    0    0  0.92853973524E-01  0.67047824686E-01  0.42368379497E-01  0.88843252460E+00  0.88000000000E+00 0. -1.
        -11    1    4    4    0    0 -0.11080305360E+00 -0.47085844317E-01 -0.30592873600E-01  0.12421987948E+00  0.51100000000E-03 0. -1.
         11    1    4    4    0    0  0.22661228352E-02 -0.74274008790E-02 -0.73807712644E-02  0.10725600309E-01  0.51100000000E-03 0.  1.
</event>
<event>
 8    1  0.2183582E+004  0.1043930E+01  0.7957747E-01            NaN
         13   -1    0    0    0    0  0.00000000000E+00  0.00000000000E+00  0.74505805969E-08  0.10566000000E+00  0.10566000000E+00 0.  1.
     999900   -1    0    0    0    0 -0.00000000000E+00 -0.00000000000E+00 -0.74505805969E-08  0.93827000000E+00  0.93827000000E+00 0.  1.
     999902    2    1    2    0    0 -0.77797827236E-03  0.62092321254E-02 -0.12990563576E-01  0.10295107574E+01  0.10294097751E+01 0.  0.
     999903    2    3    3    0    0 -0.12040445658E+00  0.54228960061E-01  0.10342301580E-01  0.13981372408E+00  0.44753781582E-01 0.  0.
         14    1    1    2    0    0  0.77797827236E-03 -0.62092321254E-02  0.12990563576E-01  0.14419242553E-01  0.00000000000E+00 0.  1.
     999901    1    3    3    0    0  0.11962647831E+00 -0.48019727936E-01 -0.23332865156E-01  0.88969703337E+00  0.88000000000E+00 0. -1.
        -11    1    4    4    0    0 -0.19028236077E-01  0.23198790698E-01  0.15287568045E-01  0.33678309277E-01  0.51100000000E-03 0.  1.
         11    1    4    4    0    0 -0.10137622050E+00  0.31030169363E-01 -0.49452664649E-02  0.10613541480E+00  0.51100000000E-03 0. -1.
</event>
<event>
 8    1  0.2183582E+004  0.1043930E+01  0.7957747E-01            NaN
         13   -1    0    0    0    0  0.00000000000E+00  0.00000000000E+00  0.74505805969E-08  0.10566000000E+00  0.10566000000E+00 0. -1.
     999900   -1    0    0    0    0 -0.00000000000E+00 -0.00000000000E+00 -0.74505805969E-08  0.93827000000E+00  0.93827000000E+00 0. -1.
     999902    2    1    2    0    0  0.50941969335E-02  0.10523817009E-01 -0.61210406631E-02  0.10307327008E+01  0.10306482095E+01 0.  0.
     999903    2    3    3    0    0  0.76106858416E-01 -0.10149202712E+00  0.38678514501E-01  0.13966741277E+00  0.43795813029E-01 0.  0.
         14    1    1    2    0    0 -0.50941969335E-02 -0.10523817009E-01  0.61210406631E-02  0.13197299180E-01  0.00000000000E+00 0. -1.
     999901    1    3    3    0    0 -0.71012661483E-01  0.11201584413E+00 -0.44799555164E-01  0.89106528805E+00  0.88000000000E+00 0. -1.
        -11    1    4    4    0    0  0.50239000682E-01 -0.31681254150E-01  0.12113113808E-01  0.60618872484E-01  0.51100000000E-03 0. -1.
         11    1    4    4    0    0  0.25867857734E-01 -0.69810772970E-01  0.26565400692E-01  0.79048540286E-01  0.51100000000E-03 0.  1.
</event>
<event>
 8    1  0.2183582E+004  0.1043930E+01  0.7957747E-01            NaN
         13   -1    0    0    0    0  0.00000000000E+00  0.00000000000E+00  0.74505805969E-08  0.10566000000E+00  0.10566000000E+00 0.  1.
     999900   -1    0    0    0    0 -0.00000000000E+00 -0.00000000000E+00 -0.74505805969E-08  0.93827000000E+00  0.93827000000E+00 0. -1.
     999902    2    1    2    0    0 -0.98234789097E-02  0.89821370863E-02  0.62522412967E-02  0.10292238773E+01  0.10291188073E+01 0.  0.
     999903    2    3    3    0    0  0.89598138502E-01  0.94481661114E-01  0.20794690217E-01  0.13938888726E+00  0.45191061525E-01 0.  0.
         14    1    1    2    0    0  0.98234789097E-02 -0.89821370863E-02 -0.62522412967E-02  0.14706122730E-01  0.00000000000E+00 0.  1.
     999901    1    3    3    0    0 -0.99421617411E-01 -0.85499524028E-01 -0.14542448920E-01  0.88983499001E+00  0.88000000000E+00 0.  1.
        -11    1    4    4    0    0  0.58271120135E-01  0.35843802205E-01  0.24835026668E-01  0.72782836362E-01  0.51100000000E-03 0. -1.
         11    1    4    4    0    0  0.31327018366E-01  0.58637858909E-01 -0.40403364512E-02  0.66606050902E-01  0.51100000000E-03 0.  1.
</event>
<event>
 8    1  0.2183582E+004  0.1043930E+01  0.7957747E-01            NaN
         13   -1    0    0    0    0  0.00000000000E+00  0.00000000000E+00  0.74505805969E-08  0.10566000000E+00  0.10566000000E+00 0.  1.
     999900   -1    0    0    0    0 -0.00000000000E+00 -0.00000000000E+00 -0.74505805969E-08  0.93827000000E+00  0.93827000000E+00 0.  1.
     999902    2    1    2    0    0  0.26514937462E-02 -0.13795446435E-01 -0.19217519929E-02  0.10297512168E+01  0.10296535974E+01 0.  0.
     999903    2    3    3    0    0  0.10203863905E+00 -0.18036533933E-01  0.82645731042E-01  0.14011789312E+00  0.45447845900E-01 0.  0.
         14    1    1    2    0    0 -0.26514937462E-02  0.13795446435E-01  0.19217519929E-02  0.14178783169E-01  0.00000000000E+00 0. -1.
     999901    1    3    3    0    0 -0.99387145303E-01  0.42410874978E-02 -0.84567483035E-01  0.88963332371E+00  0.88000000000E+00 0.  1.
        -11    1    4    4    0    0  0.84248606356E-01 -0.53651230055E-02  0.42740676608E-01  0.94623669215E-01  0.51100000000E-03 0.  1.
         11    1    4    4    0    0  0.17790032693E-01 -0.12671410928E-01  0.39905054434E-01  0.45494223903E-01  0.51100000000E-03 0. -1.
</event>
<event>
 8    1  0.2183582E+004  0.1043930E+01  0.7957747E-01            NaN
         13   -1    0    0    0    0  0.00000000000E+00  0.00000000000E+00  0.74505805969E-08  0.10566000000E+00  0.10566000000E+00 0. -1.
     999900   -1    0    0    0    0 -0.00000000000E+00 -0.00000000000E+00 -0.74505805969E-08  0.93827000000E+00  0.93827000000E+00 0.  1.
     999902    2    1    2    0    0 -0.74430584836E-02 -0.12290130357E-01  0.22926411904E-02  0.10293799956E+01  0.10292771603E+01 0.  0.
     999903    2    3    3    0    0 -0.52928323980E-01 -0.45795891075E-01  0.11284334722E+00  0.14066575359E+00  0.46417260840E-01 0.  0.
         14    1    1    2    0    0  0.74430584836E-02  0.12290130357E-01 -0.22926411904E-02  0.14550004379E-01  0.00000000000E+00 0.  1.
     999901    1    3    3    0    0  0.45485265497E-01  0.33505760717E-01 -0.11055070603E+00  0.88871424203E+00  0.88000000000E+00 0.  1.
        -11    1    4    4    0    0 -0.44452163499E-01 -0.13070653375E-01  0.85236538170E-01  0.97017345766E-01  0.51100000000E-03 0.  1.
         11    1    4    4    0    0 -0.84761604815E-02 -0.32725237700E-01  0.27606809049E-01  0.43648407828E-01  0.51100000000E-03 0. -1.
</event>
<event>
 8    1  0.2183582E+004  0.1043930E+01  0.7957747E-01            NaN
         13   -1    0    0    0    0  0.00000000000E+00  0.00000000000E+00  0.74505805969E-08  0.10566000000E+00  0.10566000000E+00 0.  1.
     999900   -1    0    0    0    0 -0.00000000000E+00 -0.00000000000E+00 -0.74505805969E-08  0.93827000000E+00  0.93827000000E+00 0. -1.
     999902    2    1    2    0    0 -0.16161066987E-02 -0.12457100640E-01 -0.51585352050E-02  0.10303505434E+01  0.10302610546E+01 0.  0.
     999903    2    3    3    0    0  0.43332351013E-01 -0.63382670963E-01 -0.10960443365E+00  0.14157457425E+00  0.46207927627E-01 0.  0.
         14    1    1    2    0    0  0.16161066987E-02  0.12457100640E-01  0.51585352050E-02  0.13579456641E-01  0.00000000000E+00 0.  1.
     999901    1    3    3    0    0 -0.44948457712E-01  0.50925570323E-01  0.10444589845E+00  0.88877596911E+00  0.88000000000E+00 0.  1.
        -11    1    4    4    0    0  0.35846987762E-01 -0.69520068067E-01 -0.10475460159E+00  0.13073574137E+00  0.51100000000E-03 0. -1.
         11    1    4    4    0    0  0.74853632506E-02  0.61373971038E-02 -0.48498320554E-02  0.10838832879E-01  0.51100000000E-03 0.  1.
</event>
<event>
 8    1  0.2183582E+004  0.1043930E+01  0.7957747E-01            NaN
         13   -1    0    0    0    0  0.00000000000E+00  0.00000000000E+00  0.74505805969E-08  0.10566000000E+00  0.10566000000E+00 0.  1.
     999900   -1    0    0    0    0 -0.00000000000E+00 -0.00000000000E+00 -0.74505805969E-08  0.93827000000E+00  0.93827000000E+00 0. -1.
     999902    2    1    2    0    0 -0.25867468374E-02  0.86651890258E-02  0.10191344353E-01  0.10303050134E+01  0.10302149195E+01 0.  0.
     999903    2    3    3    0    0 -0.71632228215E-02 -0.10323308314E+00 -0.80344129414E-01  0.13859943449E+00  0.45235416391E-01 0.  0.
         14    1    1    2    0    0  0.25867468374E-02 -0.86651890258E-02 -0.10191344353E-01  0.13624986597E-01  0.00000000000E+00 0. -1.
     999901    1    3    3    0    0  0.45764759841E-02  0.11189827216E+00  0.90535473766E-01  0.89170557891E+00  0.88000000000E+00 0. -1.
        -11    1    4    4    0    0 -0.24852824897E-01 -0.38645651858E-01 -0.33920686872E-01  0.57114126376E-01  0.51100000000E-03 0. -1.
         11    1    4    4    0    0  0.17689602076E-01 -0.64587431278E-01 -0.46423442542E-01  0.81485308119E-01  0.51100000000E-03 0.  1.
</event>
<event>
 8    1  0.2183582E+004  0.1043930E+01  0.7957747E-01            NaN
         13   -1    0    0    0    0  0.00000000000E+00  0.00000000000E+00  0.74505805969E-08  0.10566000000E+00  0.10566000000E+00 0. -1.
     999900   -1    0    0    0    0 -0.00000000000E+00 -0.00000000000E+00 -0.74505805969E-08  0.93827000000E+00  0.93827000000E+00 0. -1.
     999902    2    1    2    0    0 -0.26462553115E-02  0.13346853303E-01  0.36946189825E-02  0.10298306607E+01  0.10297341396E+01 0.  0.
     999903    2    3    3    0    0 -0.20859718989E-01  0.22244026157E-01  0.12964351271E+00  0.14063213740E+00  0.45166725657E-01 0.  0.
         14    1    1    2    0    0  0.26462553115E-02 -0.13346853303E-01 -0.36946189825E-02  0.14099339335E-01  0.00000000000E+00 0.  1.
     999901    1    3    3    0    0  0.18213463678E-01 -0.88971728545E-02 -0.12594889373E+00  0.88919852326E+00  0.88000000000E+00 0. -1.
        -11    1    4    4    0    0  0.59001383398E-02  0.25512897144E-01  0.48416121251E-01  0.55046357473E-01  0.51100000000E-03 0.  1.
         11    1    4    4    0    0 -0.26759857329E-01 -0.32688709868E-02  0.81227391458E-01  0.85585779928E-01  0.51100000000E-03 0. -1.
</event>
<event>
 8    1  0.2183582E+004  0.1043930E+01  0.7957747E-01            NaN
         13   -1    0    0    0    0  0.00000000000E+00  0.00000000000E+00  0.74505805969E-08  0.10566000000E+00  0.10566000000E+00 0. -1.
     999900   -1    0    0    0    0 -0.00000000000E+00 -0.00000000000E+00 -0.74505805969E-08  0.93827000000E+00  0.93827000000E+00 0. -1.
     999902    2    1    2    0    0  0.94829649007E-03  0.39925808735E-02  0.13377328002E-01  0.10299373994E+01  0.10298423441E+01 0.  0.
     999903    2    3    3    0    0  0.11346668393E+00  0.68898602415E-01 -0.23772474676E-02  0.14026252290E+00  0.45235143960E-01 0.  0.
         14    1    1    2    0    0 -0.94829649007E-03 -0.39925808735E-02 -0.13377328002E-01  0.13992600642E-01  0.00000000000E+00 0.  1.
     999901    1    3    3    0    0 -0.11251838744E+00 -0.64906021541E-01  0.15754575469E-01  0.88967487645E+00  0.88000000000E+00 0.  1.
        -11    1    4    4    0    0  0.41147568297E-01  0.30881065325E-01 -0.22441099166E-01  0.56130442944E-01  0.51100000000E-03 0.  1.
         11    1    4    4    0    0  0.72319115634E-01  0.38017537090E-01  0.20063851698E-01  0.84132079960E-01  0.51100000000E-03 0. -1.
</event>
<event>
 8    1  0.2183582E+004  0.1043930E+01  0.7957747E-01            NaN
         13   -1    0    0    0    0  0.00000000000E+00  0.00000000000E+00  0.74505805969E-08  0.10566000000E+00  0.10566000000E+00 0. -1.
     999900   -1    0    0    0    0 -0.00000000000E+00 -0.00000000000E+00 -0.74505805969E-08  0.93827000000E+00  0.93827000000E+00 0. -1.
     999902    2    1    2    0    0  0.43191259216E-02 -0.12918776607E-01  0.31499561226E-03  0.10303046978E+01  0.10302145997E+01 0.  0.
     999903    2    3    3    0    0 -0.78977201730E-01  0.77343219046E-01 -0.70157180070E-01  0.13898442225E+00  0.46639766164E-01 0.  0.
         14    1    1    2    0    0 -0.43191259216E-02  0.12918776607E-01 -0.31499561226E-03  0.13625302198E-01  0.00000000000E+00 0. -1.
     999901    1    3    3    0    0  0.83296327652E-01 -0.90261995654E-01  0.70472175682E-01  0.89132027555E+00  0.88000000000E+00 0.  1.
        -11    1    4    4    0    0 -0.56628329716E-01  0.72899057899E-01 -0.70558577380E-01  0.11618870140E+00  0.51100000000E-03 0. -1.
         11    1    4    4    0    0 -0.22348872014E-01  0.44441611477E-02  0.40139731016E-03  0.22795720857E-01  0.51100000000E-03 0.  1.
</event>
<event>
 8    1  0.2183582E+004  0.1043930E+01  0.7957747E-01            NaN
         13   -1    0    0    0    0  0.00000000000E+00  0.00000000000E+00  0.74505805969E-08  0.10566000000E+00  0.10566000000E+00 0. -1.
     999900   -1    0    0    0    0 -0.00000000000E+00 -0.00000000000E+00 -0.74505805969E-08  0.93827000000E+00  0.93827000000E+00 0. -1.
     999902    2    1    2    0    0  0.26748254445E-02 -0.11873713618E-01  0.11903794027E-01  0.10269053097E+01  0.10267641770E+01 0.  0.
     999903    2    3    3    0    0 -0.11772111710E+00  0.39213804874E-01  0.36374135421E-01  0.13690311023E+00  0.44982218244E-01 0.  0.
         14    1    1    2    0    0 -0.26748254445E-02  0.11873713618E-01 -0.11903794027E-01  0.17024690261E-01  0.00000000000E+00 0.  1.
     999901    1    3    3    0    0  0.12039594255E+00 -0.51087518491E-01 -0.24470341394E-01  0.89000219951E+00  0.88000000000E+00 0. -1.
        -11    1    4    4    0    0 -0.85177850925E-01  0.28728034689E-01  0.42626493163E-02  0.89994430747E-01  0.51100000000E-03 0. -1.
         11    1    4    4    0    0 -0.32543266176E-01  0.10485770185E-01  0.32111486104E-01  0.46908679481E-01  0.51100000000E-03 0.  1.
</event>
<event>
 8    1  0.2183582E+004  0.1043930E+01  0.7957747E-01            NaN
         13   -1    0    0    0    0  0.00000000000E+00  0.00000000000E+00  0.74505805969E-08  0.10566000000E+00  0.10566000000E+00 0. -1.
     999900   -1    0    0    0    0 -0.00000000000E+00 -0.00000000000E+00 -0.74505805969E-08  0.93827000000E+00  0.93827000000E+00 0. -1.
     999902    2    1    2    0    0 -0.14472561613E-01  0.38106622887E-03  0.15738127043E-02  0.10293671315E+01  0.10292641130E+01 0.  0.
     999903    2    3    3    0    0  0.17165116705E-01 -0.89896974922E-01 -0.94247402648E-01  0.13901171223E+00  0.45448607225E-01 0.  0.
         14    1    1    2    0    0  0.14472561613E-01 -0.38106622887E-03 -0.15738127043E-02  0.14562868452E-01  0.00000000000E+00 0.  1.
     999901    1    3    3    0    0 -0.31637678318E-01  0.90278041151E-01  0.95821215353E-01  0.89035541932E+00  0.88000000000E+00 0.  1.
        -11    1    4    4    0    0  0.26966136980E-01 -0.28433083111E-01 -0.28372172502E-01  0.48382373364E-01  0.51100000000E-03 0. -1.
         11    1    4    4    0    0 -0.98010202749E-02 -0.61463891810E-01 -0.65875230147E-01  0.90629338863E-01  0.51100000000E-03 0.  1.
</event>
<event>
 8    1  0.2183582E+004  0.1043930E+01  0.7957747E-01            NaN
         13   -1    0    0    0    0  0.00000000000E+00  0.00000000000E+00  0.74505805969E-08  0.10566000000E+00  0.10566000000E+00 0. -1.
     999900   -1    0    0    0    0 -0.00000000000E+00 -0.00000000000E+00 -0.74505805969E-08  0.93827000000E+00  0.93827000000E+00 0. -1.
     999902    2    1    2    0    0  0.11340385952E-01 -0.84187644321E-02  0.31437127340E-02  0.10294606228E+01  0.10293589320E+01 0.  0.
     999903    2    3    3    0    0 -0.80471436393E-01  0.20807915775E-01  0.98724373092E-01  0.13905662895E+00  0.51784387388E-01 0.  0.
         14    1    1    2    0    0 -0.11340385952E-01  0.84187644321E-02 -0.31437127340E-02  0.14469377245E-01  0.00000000000E+00 0.  1.
     999901    1    3    3    0    0  0.91811822345E-01 -0.29226680207E-01 -0.95580660358E-01  0.89040399381E+00  0.88000000000E+00 0. -1.
        -11    1    4    4    0    0 -0.38334249444E-01  0.34505687020E-01  0.38871300931E-01  0.64586347429E-01  0.51100000000E-03 0. -1.
         11    1    4    4    0    0 -0.42137186948E-01 -0.13697771244E-01  0.59853072161E-01  0.74470281516E-01  0.51100000000E-03 0.  1.
</event>
<event>
 8    1  0.2183582E+004  0.1043930E+01  0.7957747E-01            NaN
         13   -1    0    0    0    0  0.00000000000E+00  0.00000000000E+00  0.74505805969E-08  0.10566000000E+00  0.10566000000E+00 0.  1.
     999900   -1    0    0    0    0 -0.00000000000E+00 -0.00000000000E+00 -0.74505805969E-08  0.93827000000E+00  0.93827000000E+00 0.  1.
     999902    2    1    2    0    0  0.13422198137E-01  0.66564709650E-02 -0.18758631462E-02  0.10288308983E+01  0.10287200953E+01 0.  0.
     999903    2    3    3    0    0  0.66005545578E-01 -0.11221176678E+00 -0.18807864611E-01  0.13912231737E+00  0.45310823969E-01 0.  0.
         14    1    1    2    0    0 -0.13422198137E-01 -0.66564709650E-02  0.18758631462E-02  0.15099101664E-01  0.00000000000E+00 0.  1.
     999901    1    3    3    0    0 -0.52583347442E-01  0.11886823774E+00  0.16932001465E-01  0.88970858097E+00  0.88000000000E+00 0. -1.
        -11    1    4    4    0    0  0.55807145924E-01 -0.65550607337E-01 -0.27901449469E-01  0.90499014701E-01  0.51100000000E-03 0. -1.
         11    1    4    4    0    0  0.10198399654E-01 -0.46661159440E-01  0.90935848576E-02  0.48623302668E-01  0.51100000000E-03 0.  1.
</event>
<event>
 8    1  0.2183582E+004  0.1043930E+01  0.7957747E-01            NaN
         13   -1    0    0    0    0  0.00000000000E+00  0.00000000000E+00  0.74505805969E-08  0.10566000000E+00  0.10566000000E+00 0.  1.
     999900   -1    0    0    0    0 -0.00000000000E+00 -0.00000000000E+00 -0.74505805969E-08  0.93827000000E+00  0.93827000000E+00 0. -1.
     999902    2    1    2    0    0 -0.38042436473E-02  0.13517898345E-01 -0.44933706816E-02  0.10291856375E+01  0.10290800164E+01 0.  0.
     999903    2    3    3    0    0 -0.14828588975E-01  0.12644521676E+00  0.38174539116E-01  0.14087563195E+00  0.46694414533E-01 0.  0.
         14    1    1    2    0    0  0.38042436473E-02 -0.13517898345E-01  0.44933706816E-02  0.14744362498E-01  0.00000000000E+00 0. -1.
     999901    1    3    3    0    0  0.11024345328E-01 -0.11292731842E+00 -0.42667909798E-01  0.88831000555E+00  0.88000000000E+00 0. -1.
        -11    1    4    4    0    0  0.10681706931E-01  0.41833588903E-01  0.29026413763E-01  0.52028279238E-01  0.51100000000E-03 0. -1.
         11    1    4    4    0    0 -0.25510295906E-01  0.84611627857E-01  0.91481253528E-02  0.88847352714E-01  0.51100000000E-03 0.  1.
</event>
<event>
 8    1  0.2183582E+004  0.1043930E+01  0.7957747E-01            NaN
         13   -1    0    0    0    0  0.00000000000E+00  0.00000000000E+00  0.74505805969E-08  0.10566000000E+00  0.10566000000E+00 0.  1.
     999900   -1    0    0    0    0 -0.00000000000E+00 -0.00000000000E+00 -0.74505805969E-08  0.93827000000E+00  0.93827000000E+00 0.  1.
     999902    2    1    2    0    0  0.91542052453E-02 -0.16202822119E-02 -0.15400150266E-01  0.10259414087E+01  0.10257836929E+01 0.  0.
     999903    2    3    3    0    0 -0.89106404751E-01 -0.79239224305E-01  0.44934862110E-01  0.13503167066E+00  0.44672186113E-01 0.  0.
         14    1    1    2    0    0 -0.91542052453E-02  0.16202822119E-02  0.15400150266E-01  0.17988591282E-01  0.00000000000E+00 0.  1.
     999901    1    3    3    0    0  0.98260609996E-01  0.77618942093E-01 -0.60335012376E-01  0.89090973806E+00  0.88000000000E+00 0.  1.
        -11    1    4    4    0    0 -0.39066467547E-01 -0.29835930774E-01  0.41987428124E-01  0.64649647279E-01  0.51100000000E-03 0. -1.
         11    1    4    4    0    0 -0.50039937204E-01 -0.49403293531E-01  0.29474339857E-02  0.70382023381E-01  0.51100000000E-03 0.  1.
</event>
<event>
 8    1  0.2183582E+004  0.1043930E+01  0.7957747E-01            NaN
         13   -1    0    0    0    0  0.00000000000E+00  0.00000000000E+00  0.74505805969E-08  0.10566000000E+00  0.10566000000E+00 0. -1.
     999900   -1    0    0    0    0 -0.00000000000E+00 -0.00000000000E+00 -0.74505805969E-08  0.93827000000E+00  0.93827000000E+00 0. -1.
     999902    2    1    2    0    0 -0.86383611469E-02 -0.67485035265E-02 -0.78471839318E-02  0.10304488324E+01  0.10303606429E+01 0.  0.
     999903    2    3    3    0    0 -0.10769494179E+00 -0.80517212318E-01  0.32580077066E-02  0.14175464778E+00  0.44749788661E-01 0.  0.
         14    1    1    2    0    0  0.86383611469E-02  0.67485035265E-02  0.78471839318E-02  0.13481167561E-01  0.00000000000E+00 0. -1.
     999901    1    3    3    0    0  0.99056580648E-01  0.73768708792E-01 -0.11105191638E-01  0.88869418466E+00  0.88000000000E+00 0. -1.
        -11    1    4    4    0    0 -0.10612689203E+00 -0.70892228132E-01  0.12589979513E-01  0.12824739345E+00  0.51100000000E-03 0. -1.
         11    1    4    4    0    0 -0.15680497596E-02 -0.96249841865E-02 -0.93319718059E-02  0.13507254326E-01  0.51100000000E-03 0.  1.
</event>
<event>
 8    1  0.2183582E+004  0.1043930E+01  0.7957747E-01            NaN
         13   -1    0    0    0    0  0.00000000000E+00  0.00000000000E+00  0.74505805969E-08  0.10566000000E+00  0.10566000000E+00 0. -1.
     999900   -1    0    0    0    0 -0.00000000000E+00 -0.00000000000E+00 -0.74505805969E-08  0.93827000000E+00  0.93827000000E+00 0.  1.
     999902    2    1    2    0    0 -0.14070170126E-02  0.11770266680E-01  0.79484055777E-02  0.10296577883E+01  0.10295588692E+01 0.  0.
     999903    2    3    3    0    0  0.81347083361E-01  0.83801626446E-01  0.66181852683E-01  0.14093517003E+00  0.42925795991E-01 0.  0.
         14    1    1    2    0    0  0.14070170126E-02 -0.11770266680E-01 -0.79484055777E-02  0.14272211666E-01  0.00000000000E+00 0.  1.
     999901    1    3    3    0    0 -0.82754100373E-01 -0.72031359765E-01 -0.58233447105E-01  0.88872261830E+00  0.88000000000E+00 0.  1.
        -11    1    4    4    0    0  0.78416360268E-01  0.62706779188E-01  0.42358791760E-01  0.10897611699E+00  0.51100000000E-03 0. -1.
         11    1    4    4    0    0  0.29307230925E-02  0.21094847258E-01  0.23823060923E-01  0.31959053044E-01  0.51100000000E-03 0.  1.
</event>
<event>
 8    1  0.2183582E+004  0.1043930E+01  0.7957747E-01            NaN
         13   -1    0    0    0    0  0.00000000000E+00  0.00000000000E+00  0.74505805969E-08  0.10566000000E+00  0.10566000000E+00 0.  1.
     999900   -1    0    0    0    0 -0.00000000000E+00 -0.00000000000E+00 -0.74505805969E-08  0.93827000000E+00  0.93827000000E+00 0. -1.
     999902    2    1    2    0    0  0.86112962361E-02 -0.73914814725E-02  0.92218813964E-02  0.10293070209E+01  0.10292031441E+01 0.  0.
     999903    2    3    3    0    0  0.34520930150E-01 -0.86875191345E-01 -0.93309623168E-01  0.13941844434E+00  0.44629848276E-01 0.  0.
         14    1    1    2    0    0 -0.86112962361E-02  0.73914814725E-02 -0.92218813964E-02  0.14622979098E-01  0.00000000000E+00 0.  1.
     999901    1    3    3    0    0 -0.25909633914E-01  0.79483709872E-01  0.10253150456E+00  0.88988857656E+00  0.88000000000E+00 0.  1.
        -11    1    4    4    0    0  0.47058806292E-02 -0.10605819037E-01 -0.40124947164E-01  0.41772014745E-01  0.51100000000E-03 0. -1.
         11    1    4    4    0    0  0.29815049521E-01 -0.76269372308E-01 -0.53184676003E-01  0.97646429596E-01  0.51100000000E-03 0.  1.
</event>
<event>
 8    1  0.2183582E+004  0.1043930E+01  0.7957747E-01            NaN
         13   -1    0    0    0    0  0.00000000000E+00  0.00000000000E+00  0.74505805969E-08  0.10566000000E+00  0.10566000000E+00 0.  1.
     999900   -1    0    0    0    0 -0.00000000000E+00 -0.00000000000E+00 -0.74505805969E-08  0.93827000000E+00  0.93827000000E+00 0.  1.
     999902    2    1    2    0    0 -0.53565378420E-02  0.12339734002E-02  0.12348613251E-01  0.10304132165E+01  0.10303245572E+01 0.  0.
     999903    2    3    3    0    0 -0.22103851001E-01 -0.65864741435E-01  0.11549247762E+00  0.14169426944E+00  0.43726527562E-01 0.  0.
         14    1    1    2    0    0  0.53565378420E-02 -0.12339734002E-02 -0.12348613251E-01  0.13516783538E-01  0.00000000000E+00 0. -1.
     999901    1    3    3    0    0  0.16747313159E-01  0.67098714836E-01 -0.10314386437E+00  0.88871894702E+00  0.88000000000E+00 0.  1.
        -11    1    4    4    0    0 -0.51120836332E-02 -0.64761711699E-01  0.88740161179E-01  0.10997858895E+00  0.51100000000E-03 0. -1.
         11    1    4    4    0    0 -0.16991767367E-01 -0.11030297362E-02  0.26752316443E-01  0.31715680490E-01  0.51100000000E-03 0.  1.
</event>
<event>
 8    1  0.2183582E+004  0.1043930E+01  0.7957747E-01            NaN
         13   -1    0    0    0    0  0.00000000000E+00  0.00000000000E+00  0.74505805969E-08  0.10566000000E+00  0.10566000000E+00 0. -1.
     999900   -1    0    0    0    0 -0.00000000000E+00 -0.00000000000E+00 -0.74505805969E-08  0.93827000000E+00  0.93827000000E+00 0.  1.
     999902    2    1    2    0    0  0.93241273714E-02  0.77229956272E-02  0.73627348314E-02  0.10297598244E+01  0.10296623243E+01 0.  0.
     999903    2    3    3    0    0 -0.86285556850E-01  0.55592844917E-01 -0.81789253213E-01  0.13881604885E+00  0.45217825596E-01 0.  0.
         14    1    1    2    0    0 -0.93241273714E-02 -0.77229956272E-02 -0.73627348314E-02  0.14170175613E-01  0.00000000000E+00 0.  1.
     999901    1    3    3    0    0  0.95609684221E-01 -0.47869849290E-01  0.89151988045E-01  0.89094377553E+00  0.88000000000E+00 0. -1.
        -11    1    4    4    0    0 -0.41931806626E-01  0.18777268710E-01 -0.10490117814E-01  0.47129246969E-01  0.51100000000E-03 0. -1.
         11    1    4    4    0    0 -0.44353750224E-01  0.36815576207E-01 -0.71299135399E-01  0.91686801886E-01  0.51100000000E-03 0.  1.
</event>
<event>
 8    1  0.2183582E+004  0.1043930E+01  0.7957747E-01            NaN
         13   -1    0    0    0    0  0.00000000000E+00  0.00000000000E+00  0.74505805969E-08  0.10566000000E+00  0.10566000000E+00 0.  1.
     999900   -1    0    0    0    0 -0.00000000000E+00 -0.00000000000E+00 -0.74505805969E-08  0.93827000000E+00  0.93827000000E+00 0.  1.
     999902    2    1    2    0    0  0.85403085477E-02  0.91339574378E-02  0.66892566775E-02  0.10297485966E+01  0.10296509408E+01 0.  0.
     999903    2    3    3    0    0  0.13101377454E+00  0.26301675343E-01 -0.73545638424E-02  0.14099007519E+00  0.44359040198E-01 0.  0.
         14    1    1    2    0    0 -0.85403085477E-02 -0.91339574378E-02 -0.66892566775E-02  0.14181403438E-01  0.00000000000E+00 0. -1.
     999901    1    3    3    0    0 -0.12247346600E+00 -0.17167717905E-01  0.14043820520E-01  0.88875852137E+00  0.88000000000E+00 0.  1.
        -11    1    4    4    0    0  0.43630715198E-01  0.96746684893E-02  0.18478161351E-01  0.48362610423E-01  0.51100000000E-03 0. -1.
         11    1    4    4    0    0  0.87383059347E-01  0.16627006854E-01 -0.25832725193E-01  0.92627464770E-01  0.51100000000E-03 0.  1.
</event>
<event>
 8    1  0.2183582E+004  0.1043930E+01  0.7957747E-01            NaN
         13   -1    0    0    0    0  0.00000000000E+00  0.00000000000E+00  0.74505805969E-08  0.10566000000E+00  0.10566000000E+00 0.  1.
     999900   -1    0    0    0    0 -0.00000000000E+00 -0.00000000000E+00 -0.74505805969E-08  0.93827000000E+00  0.93827000000E+00 0. -1.
     999902    2    1    2    0    0  0.32668530426E-02 -0.67033522126E-03 -0.12788466160E-01  0.10307138529E+01  0.10306291185E+01 0.  0.
     999903    2    3    3    0    0 -0.12648060667E+00  0.41110843847E-01 -0.60541967635E-02  0.14019410542E+00  0.43935049205E-01 0.  0.
         14    1    1    2    0    0 -0.32668530426E-02  0.67033522126E-03  0.12788466160E-01  0.13216147126E-01  0.00000000000E+00 0.  1.
     999901    1    3    3    0    0  0.12974745972E+00 -0.41781179068E-01 -0.67342693970E-02  0.89051974746E+00  0.88000000000E+00 0. -1.
        -11    1    4    4    0    0 -0.44681436254E-01 -0.41296772157E-02  0.82545740834E-02  0.45627668075E-01  0.51100000000E-03 0.  1.
         11    1    4    4    0    0 -0.81799170420E-01  0.45240521062E-01 -0.14308770847E-01  0.94566437342E-01  0.51100000000E-03 0. -1.
</event>
<event>
 8    1  0.2183582E+004  0.1043930E+01  0.7957747E-01            NaN
         13   -1    0    0    0    0  0.00000000000E+00  0.00000000000E+00  0.74505805969E-08  0.10566000000E+00  0.10566000000E+00 0. -1.
     999900   -1    0    0    0    0 -0.00000000000E+00 -0.00000000000E+00 -0.74505805969E-08  0.93827000000E+00  0.93827000000E+00 0. -1.
     999902    2    1    2    0    0  0.13816506959E-02 -0.13584550022E-01  0.21107298862E-02  0.10301131936E+01  0.10300205277E+01 0.  0.
     999903    2    3    3    0    0 -0.14824004075E-01  0.36230476829E-01 -0.12612893391E+00  0.13927674874E+00  0.44239193286E-01 0.  0.
         14    1    1    2    0    0 -0.13816506959E-02  0.13584550022E-01 -0.21107298862E-02  0.13816806382E-01  0.00000000000E+00 0. -1.
     999901    1    3    3    0    0  0.16205654771E-01 -0.49815026851E-01  0.12823966380E+00  0.89083644488E+00  0.88000000000E+00 0.  1.
        -11    1    4    4    0    0 -0.27306493149E-01  0.99662465223E-02 -0.50842709806E-01  0.58568019424E-01  0.51100000000E-03 0. -1.
         11    1    4    4    0    0  0.12482489075E-01  0.26264230307E-01 -0.75286224106E-01  0.80708729319E-01  0.51100000000E-03 0.  1.
</event>
<event>
 8    1  0.2183582E+004  0.1043930E+01  0.7957747E-01            NaN
         13   -1    0    0    0    0  0.00000000000E+00  0.00000000000E+00  0.74505805969E-08  0.10566000000E+00  0.10566000000E+00 0. -1.
     999900   -1    0    0    0    0 -0.00000000000E+00 -0.00000000000E+00 -0.74505805969E-08  0.93827000000E+00  0.93827000000E+00 0.  1.
     999902    2    1    2    0    0 -0.80494719313E-02 -0.52373568897E-02 -0.98733172946E-02  0.10301566090E+01  0.10300645284E+01 0.  0.
     999903    2    3    3    0    0 -0.10000471506E+00  0.13243784976E-01  0.86030798804E-01  0.13999093967E+00  0.44942451792E-01 0.  0.
         14    1    1    2    0    0  0.80494719313E-02  0.52373568897E-02  0.98733172946E-02  0.13773391012E-01  0.00000000000E+00 0. -1.
     999901    1    3    3    0    0  0.91955243128E-01 -0.18481141866E-01 -0.95904116098E-01  0.89016566932E+00  0.88000000000E+00 0.  1.
        -11    1    4    4    0    0 -0.67377777137E-01  0.29237277842E-01  0.50259548865E-01  0.88999250787E-01  0.51100000000E-03 0. -1.
         11    1    4    4    0    0 -0.32626937922E-01 -0.15993492866E-01  0.35771249938E-01  0.50991688885E-01  0.51100000000E-03 0.  1.
</event>
<event>
 8    1  0.2183582E+004  0.1043930E+01  0.7957747E-01            NaN
         13   -1    0    0    0    0  0.00000000000E+00  0.00000000000E+00  0.74505805969E-08  0.10566000000E+00  0.10566000000E+00 0. -1.
     999900   -1    0    0    0    0 -0.00000000000E+00 -0.00000000000E+00 -0.74505805969E-08  0.93827000000E+00  0.93827000000E+00 0.  1.
     999902    2    1    2    0    0  0.24021166765E-02  0.26255835275E-02  0.13357687760E-01  0.10301064087E+01  0.10300136512E+01 0.  0.
     999903    2    3    3    0    0 -0.60488488246E-01  0.80250248248E-01 -0.84850266043E-01  0.13902525701E+00  0.45049915474E-01 0.  0.
         14    1    1    2    0    0 -0.24021166765E-02 -0.26255835275E-02 -0.13357687760E-01  0.13823591273E-01  0.00000000000E+00 0.  1.
     999901    1    3    3    0    0  0.62890604922E-01 -0.77624664720E-01  0.98207953803E-01  0.89108115172E+00  0.88000000000E+00 0. -1.
        -11    1    4    4    0    0 -0.18399640535E-01  0.51299617706E-01 -0.63430899077E-01  0.83629765199E-01  0.51100000000E-03 0.  1.
         11    1    4    4    0    0 -0.42088847711E-01  0.28950630542E-01 -0.21419366967E-01  0.55395491808E-01  0.51100000000E-03 0. -1.
</event>
<event>
 8    1  0.2183582E+004  0.1043930E+01  0.7957747E-01            NaN
         13   -1    0    0    0    0  0.00000000000E+00  0.00000000000E+00  0.74505805969E-08  0.10566000000E+00  0.10566000000E+00 0.  1.
     999900   -1    0    0    0    0 -0.00000000000E+00 -0.00000000000E+00 -0.74505805969E-08  0.93827000000E+00  0.93827000000E+00 0. -1.
     999902    2    1    2    0    0  0.35006042317E-02 -0.12075974859E-01 -0.57138590773E-03  0.10313439013E+01  0.10312671006E+01 0.  0.
     999903    2    3    3    0    0  0.11483626482E+00  0.68536438519E-01  0.69960015836E-02  0.14064122595E+00  0.42969748377E-01 0.  0.
         14    1    1    2    0    0 -0.35006042317E-02  0.12075974859E-01  0.57138590773E-03  0.12586098706E-01  0.00000000000E+00 0.  1.
     999901    1    3    3    0    0 -0.11133566059E+00 -0.80612413378E-01 -0.75673874913E-02  0.89070267534E+00  0.88000000000E+00 0.  1.
        -11    1    4    4    0    0  0.77769591320E-01  0.58146437698E-01 -0.11763961019E-01  0.97814975596E-01  0.51100000000E-03 0.  1.
         11    1    4    4    0    0  0.37066673502E-01  0.10390000822E-01  0.18759962603E-01  0.42826250355E-01  0.51100000000E-03 0. -1.
</event>
<event>
 7    1  0.2183582E+004  0.1043930E+01  0.7957747E-01            NaN
         13   -1    0    0    0    0  0.00000000000E+00  0.00000000000E+00  0.74505805969E-08  0.10566000000E+00  0.10566000000E+00 0. -1.
     999900   -1    0    0    0    0 -0.00000000000E+00 -0.00000000000E+00 -0.74505805969E-08  0.93827000000E+00  0.93827000000E+00 0. -1.
     999903    2    1    2    0    0 -0.77747021449E-01  0.24693160013E-01 -0.72684197968E-01  0.11829049327E+00  0.45335379878E-01 0.  0.
         14    1    1    2    0    0  0.78789602704E-03 -0.21233479328E-01 -0.29530062131E-01  0.36380021907E-01  0.00000000000E+00 0.  1.
     999901    1    1    2    0    0  0.76959125422E-01 -0.34596806854E-02  0.10221426010E+00  0.88925948482E+00  0.88000000000E+00 0.  1.
        -11    1    3    3    0    0 -0.37309278701E-01 -0.10991539492E-01 -0.36513046535E-01  0.53350350569E-01  0.51100000000E-03 0. -1.
         11    1    3    3    0    0 -0.40437742748E-01  0.35684699505E-01 -0.36171151433E-01  0.64940142703E-01  0.51100000000E-03 0.  1.
</event>
<event>
 8    1  0.2183582E+004  0.1043930E+01  0.7957747E-01            NaN
         13   -1    0    0    0    0  0.00000000000E+00  0.00000000000E+00  0.74505805969E-08  0.10566000000E+00  0.10566000000E+00 0. -1.
     999900   -1    0    0    0    0 -0.00000000000E+00 -0.00000000000E+00 -0.74505805969E-08  0.93827000000E+00  0.93827000000E+00 0. -1.
     999902    2    1    2    0    0  0.94299079549E-02  0.92241007342E-02 -0.40008805643E-02  0.10301454346E+01  0.10300532036E+01 0.  0.
     999903    2    3    3    0    0 -0.10209924194E+00 -0.25602007629E-01 -0.79791676076E-01  0.13919321713E+00  0.43912664754E-01 0.  0.
         14    1    1    2    0    0 -0.94299079549E-02 -0.92241007342E-02  0.40008805643E-02  0.13784565415E-01  0.00000000000E+00 0.  1.
     999901    1    3    3    0    0  0.11152914989E+00  0.34826108363E-01  0.75790795511E-01  0.89095221745E+00  0.88000000000E+00 0.  1.
        -11    1    4    4    0    0 -0.91430687912E-01 -0.34053408462E-01 -0.58029843853E-01  0.11352061143E+00  0.51100000000E-03 0.  1.
         11    1    4    4    0    0 -0.10668554026E-01  0.84514008338E-02 -0.21761832223E-01  0.25672605706E-01  0.51100000000E-03 0. -1.
</event>
<event>
 8    1  0.2183582E+004  0.1043930E+01  0.7957747E-01            NaN
         13   -1    0    0    0    0  0.00000000000E+00  0.00000000000E+00  0.74505805969E-08  0.10566000000E+00  0.10566000000E+00 0.  1.
     999900   -1    0    0    0    0 -0.00000000000E+00 -0.00000000000E+00 -0.74505805969E-08  0.93827000000E+00  0.93827000000E+00 0. -1.
     999902    2    1    2    0    0  0.76112110093E-03 -0.37615054341E-02 -0.13469452005E-01  0.10299244880E+01  0.10298292561E+01 0.  0.
     999903    2    3    3    0    0 -0.81043147136E-01 -0.71191982299E-01 -0.79470209827E-01  0.14110791102E+00  0.44267801643E-01 0.  0.
         14    1    1    2    0    0 -0.76112110093E-03  0.37615054341E-02  0.13469452005E-01  0.14005511978E-01  0.00000000000E+00 0.  1.
     999901    1    3    3    0    0  0.81804268237E-01  0.67430476865E-01  0.66000757822E-01  0.88881657700E+00  0.88000000000E+00 0. -1.
        -11    1    4    4    0    0 -0.75044442560E-02 -0.32752865081E-01 -0.23956243226E-01  0.41270201903E-01  0.51100000000E-03 0.  1.
         11    1    4    4    0    0 -0.73538702880E-01 -0.38439117218E-01 -0.55513966601E-01  0.99837709121E-01  0.51100000000E-03 0. -1.
</event>
<event>
 8    1  0.2183582E+004  0.1043930E+01  0.7957747E-01            NaN
         13   -1    0    0    0    0  0.00000000000E+00  0.00000000000E+00  0.74505805969E-08  0.10566000000E+00  0.10566000000E+00 0.  1.
     999900   -1    0    0    0    0 -0.00000000000E+00 -0.00000000000E+00 -0.74505805969E-08  0.93827000000E+00  0.93827000000E+00 0.  1.
     999902    2    1    2    0    0  0.47428908142E-02 -0.11009686994E-01 -0.71141078260E-02  0.10299901739E+01  0.10298958392E+01 0.  0.
     999903    2    3    3    0    0 -0.91740422724E-01  0.24178406265E-01  0.90792286332E-01  0.13862442760E+00  0.44413873717E-01 0.  0.
         14    1    1    2    0    0 -0.47428908142E-02  0.11009686994E-01  0.71141078260E-02  0.13939826080E-01  0.00000000000E+00 0.  1.
     999901    1    3    3    0    0  0.96483313538E-01 -0.35188093258E-01 -0.97906394158E-01  0.89136574632E+00  0.88000000000E+00 0. -1.
        -11    1    4    4    0    0 -0.16316297110E-01 -0.98073636477E-03  0.42641487681E-01  0.45669913377E-01  0.51100000000E-03 0.  1.
         11    1    4    4    0    0 -0.75424125614E-01  0.25159142630E-01  0.48150798651E-01  0.92954514221E-01  0.51100000000E-03 0. -1.
</event>
<event>
 8    1  0.2183582E+004  0.1043930E+01  0.7957747E-01            NaN
         13   -1    0    0    0    0  0.00000000000E+00  0.00000000000E+00  0.74505805969E-08  0.10566000000E+00  0.10566000000E+00 0. -1.
     999900   -1    0    0    0    0 -0.00000000000E+00 -0.00000000000E+00 -0.74505805969E-08  0.93827000000E+00  0.93827000000E+00 0.  1.
     999902    2    1    2    0    0  0.34746561366E-02 -0.77633221175E-02 -0.10903434514E-01  0.10301015044E+01  0.10300086806E+01 0.  0.
     999903    2    3    3    0    0 -0.98035938368E-01  0.69999302085E-01  0.52319195042E-01  0.13861480940E+00  0.44337565473E-01 0.  0.
         14    1    1    2    0    0 -0.34746561366E-02  0.77633221175E-02  0.10903434514E-01  0.13828495571E-01  0.00000000000E+00 0. -1.
     999901    1    3    3    0    0  0.10151059450E+00 -0.77762624202E-01 -0.63222629556E-01  0.89148669503E+00  0.88000000000E+00 0.  1.
        -11    1    4    4    0    0 -0.59431575043E-02 -0.63355015118E-02  0.26642565701E-02  0.91004991401E-02  0.51100000000E-03 0. -1.
         11    1    4    4    0    0 -0.92092780863E-01  0.76334803597E-01  0.49654938472E-01  0.12951431026E+00  0.51100000000E-03 0.  1.
</event>
<event>
 8    1  0.2183582E+004  0.1043930E+01  0.7957747E-01            NaN
         13   -1    0    0    0    0  0.00000000000E+00  0.00000000000E+00  0.74505805969E-08  0.10566000000E+00  0.10566000000E+00 0. -1.
     999900   -1    0    0    0    0 -0.00000000000E+00 -0.00000000000E+00 -0.74505805969E-08  0.93827000000E+00  0.93827000000E+00 0.  1.
     999902    2    1    2    0    0  0.69505089551E-02 -0.67143342606E-02  0.97449028016E-02  0.10302057518E+01  0.10301143315E+01 0.  0.
     999903    2    3    3    0    0  0.44907107866E-03 -0.10477968080E+00  0.84532182951E-01  0.14158197413E+00  0.43826730098E-01 0.  0.
         14    1    1    2    0    0 -0.69505089551E-02  0.67143342606E-02 -0.97449028016E-02  0.13724248246E-01  0.00000000000E+00 0.  1.
     999901    1    3    3    0    0  0.65014378765E-02  0.98065346538E-01 -0.74787280149E-01  0.88862377762E+00  0.88000000000E+00 0. -1.
        -11    1    4    4    0    0 -0.44335332794E-02 -0.24214782998E-01  0.45925521024E-01  0.52109754704E-01  0.51100000000E-03 0.  1.
         11    1    4    4    0    0  0.48826043581E-02 -0.80564897801E-01  0.38606661927E-01  0.89472219427E-01  0.51100000000E-03 0. -1.
</event>
<event>
 8    1  0.2183582E+004  0.1043930E+01  0.7957747E-01            NaN
         13   -1    0    0    0    0  0.00000000000E+00  0.00000000000E+00  0.74505805969E-08  0.10566000000E+00  0.10566000000E+00 0.  1.
     999900   -1    0    0    0    0 -0.00000000000E+00 -0.00000000000E+00 -0.74505805969E-08  0.93827000000E+00  0.93827000000E+00 0.  1.
     999902    2    1    2    0    0 -0.28446867777E-03  0.57968809804E-02 -0.11474102042E-01  0.10310715487E+01  0.10309913670E+01 0.  0.
     999903    2    3    3    0    0 -0.68887708562E-02 -0.32494788089E-01 -0.13067967323E+00  0.14218469601E+00  0.45121440231E-01 0.  0.
         14    1    1    2    0    0  0.28446867777E-03 -0.57968809804E-02  0.11474102042E-01  0.12858451275E-01  0.00000000000E+00 0.  1.
     999901    1    3    3    0    0  0.66043021784E-02  0.38291669069E-01  0.11920557118E+00  0.88888685271E+00  0.88000000000E+00 0. -1.
        -11    1    4    4    0    0 -0.19931947638E-01 -0.13718827023E-01 -0.28094403102E-01  0.37081604040E-01  0.51100000000E-03 0. -1.
         11    1    4    4    0    0  0.13043176782E-01 -0.18775961066E-01 -0.10258527012E+00  0.10510309197E+00  0.51100000000E-03 0.  1.
</event>
<event>
 8    1  0.2183582E+004  0.1043930E+01  0.7957747E-01            NaN
         13   -1    0    0    0    0  0.00000000000E+00  0.00000000000E+00  0.74505805969E-08  0.10566000000E+00  0.10566000000E+00 0. -1.
     999900   -1    0    0    0    0 -0.00000000000E+00 -0.00000000000E+00 -0.74505805969E-08  0.93827000000E+00  0.93827000000E+00 0.  1.
     999902    2    1    2    0    0 -0.19297602431E-02 -0.12687139870E-01  0.58341264693E-02  0.10298330314E+01  0.10297365430E+01 0.  0.
     999903    2    3    3    0    0 -0.98439674211E-02 -0.79706656744E-01 -0.10458025618E+00  0.14036938051E+00  0.48129805515E-01 0.  0.
         14    1    1    2    0    0  0.19297602431E-02  0.12687139870E-01 -0.58341264693E-02  0.14096968623E-01  0.00000000000E+00 0. -1.
     999901    1    3    3    0    0  0.79142071781E-02  0.67019516874E-01  0.11041438265E+00  0.88946365087E+00  0.88000000000E+00 0. -1.
        -11    1    4    4    0    0 -0.17613358885E-02 -0.71037102406E-01 -0.56321837052E-01  0.90674046300E-01  0.51100000000E-03 0.  1.
         11    1    4    4    0    0 -0.80826315326E-02 -0.86695543378E-02 -0.48258419125E-01  0.49695334211E-01  0.51100000000E-03 0. -1.
</event>
<event>
 7    1  0.2183582E+004  0.1043930E+01  0.7957747E-01            NaN
         13   -1    0    0    0    0  0.00000000000E+00  0.00000000000E+00  0.74505805969E-08  0.10566000000E+00  0.10566000000E+00 0. -1.
     999900   -1    0    0    0    0 -0.00000000000E+00 -0.00000000000E+00 -0.74505805969E-08  0.93827000000E+00  0.93827000000E+00 0.  1.
     999903    2    1    2    0    0  0.24475894059E-01 -0.49621542316E-01 -0.10244849198E+00  0.12514115344E+00  0.45861180994E-01 0.  0.
         14    1    1    2    0    0 -0.21193151309E-01 -0.20279075820E-01 -0.40477837129E-02  0.29610388912E-01  0.00000000000E+00 0.  1.
     999901    1    1    2    0    0 -0.32827427496E-02  0.69900618136E-01  0.10649627569E+00  0.88917845765E+00  0.88000000000E+00 0.  1.
        -11    1    3    3    0    0 -0.13655550063E-02 -0.31885554455E-01 -0.81263036658E-01  0.87306904488E-01  0.51100000000E-03 0.  1.
         11    1    3    3    0    0  0.25841449065E-01 -0.17735987861E-01 -0.21185455324E-01  0.37834248948E-01  0.51100000000E-03 0. -1.
</event>
<event>
 8    1  0.2183582E+004  0.1043930E+01  0.7957747E-01            NaN
         13   -1    0    0    0    0  0.00000000000E+00  0.00000000000E+00  0.74505805969E-08  0.10566000000E+00  0.10566000000E+00 0. -1.
     999900   -1    0    0    0    0 -0.00000000000E+00 -0.00000000000E+00 -0.74505805969E-08  0.93827000000E+00  0.93827000000E+00 0.  1.
     999902    2    1    2    0    0  0.10299450819E-02  0.11015476918E-01  0.66591298228E-02  0.10310170016E+01  0.10309361338E+01 0.  0.
     999903    2    3    3    0    0  0.79474453599E-02  0.28767511462E-01 -0.12931834849E+00  0.14036956225E+00  0.45712658499E-01 0.  0.
         14    1    1    2    0    0 -0.10299450819E-02 -0.11015476918E-01 -0.66591298228E-02  0.12912998435E-01  0.00000000000E+00 0.  1.
     999901    1    3    3    0    0 -0.69175002779E-02 -0.17752034544E-01  0.13597747832E+00  0.89064743931E+00  0.88000000000E+00 0. -1.
        -11    1    4    4    0    0 -0.19128678681E-01  0.13031239506E-01 -0.50395357229E-01  0.55458747754E-01  0.51100000000E-03 0. -1.
         11    1    4    4    0    0  0.27076124041E-01  0.15736271955E-01 -0.78922991264E-01  0.84910814501E-01  0.51100000000E-03 0.  1.
</event>
